<VTKFile type="UnstructuredGrid" version="1.0">
<UnstructuredGrid>
<Piece NumberOfPoints="10830" NumberOfCells="3610">
<Points>
<DataArray type="Float64" NumberOfComponents="3" format="ascii">
2.19217 2.20649 7.34075
2.19928 2.19938 7.315
2.19928 2.19938 7.36646
2.19928 2.19938 7.87008
2.19928 2.19938 7.921
2.19129 2.20737 7.89553
2.19928 2.19938 7.87008
2.19129 2.20737 7.89553
2.17928 2.21938 7.8701
1.30559 3.09307 8.34259
1.31816 3.0805 8.36
1.28831 3.11035 8.36
1.28831 3.11035 8.36
1.28831 3.11035 8.32984
1.30559 3.09307 8.34259
2.19928 2.19938 7.87008
2.17928 2.21938 7.8701
2.1913 2.20736 7.84468
1.29441 3.10425 7.59179
1.28831 3.11035 7.61701
1.28831 3.11035 7.56657
2.19132 2.20734 7.5919
2.19928 2.19938 7.61709
2.17929 2.21937 7.61711
2.19117 2.20749 7.49134
2.19928 2.19938 7.46628
2.19928 2.19938 7.51639
2.17929 2.21937 7.61711
2.19928 2.19938 7.61709
2.19133 2.20733 7.64231
2.19928 2.19938 7.61709
2.19928 2.19938 7.66754
2.19133 2.20733 7.64231
2.17929 2.21937 7.66755
2.19133 2.20733 7.64231
2.19928 2.19938 7.66754
2.17928 2.21938 7.81931
2.1913 2.20736 7.84468
2.16946 2.22921 7.8447
2.16946 2.22921 7.8447
2.1913 2.20736 7.84468
2.17928 2.21938 7.8701
2.16946 2.22921 7.8447
2.15842 2.24024 7.81932
2.17928 2.21938 7.81931
2.16946 2.22921 7.8447
2.17928 2.21938 7.8701
2.15841 2.24025 7.87012
2.19928 2.19938 7.71804
2.19928 2.19938 7.76862
2.19132 2.20734 7.74333
2.19132 2.20734 7.74333
2.17929 2.21937 7.76863
2.16947 2.22919 7.74334
2.19928 2.19938 7.76862
2.17929 2.21937 7.76863
2.19132 2.20734 7.74333
2.19928 2.19938 7.81929
2.1913 2.20736 7.84468
2.17928 2.21938 7.81931
2.19928 2.19938 7.87008
2.1913 2.20736 7.84468
2.19928 2.19938 7.81929
2.17913 2.21954 7.46632
2.19928 2.19938 7.46628
2.19117 2.20749 7.49134
2.17927 2.21939 7.92102
2.19129 2.20737 7.89553
2.19928 2.19938 7.921
1.8956 2.50306 8.10075
1.90602 2.49264 8.07498
1.91643 2.48223 8.10072
1.28831 3.11035 7.315
1.30792 3.09074 7.315
1.29529 3.10337 7.3397
1.34771 3.05096 7.56659
1.32717 3.07149 7.56657
1.33709 3.06157 7.54137
1.30704 3.09162 7.56656
1.32717 3.07149 7.56657
1.31607 3.08259 7.59178
1.30704 3.09162 7.56656
1.29441 3.10425 7.59179
1.28831 3.11035 7.56657
1.31607 3.08259 7.59178
1.29441 3.10425 7.59179
1.30704 3.09162 7.56656
1.2945 3.10417 7.79394
1.28831 3.11035 7.8193
1.28831 3.11035 7.76861
1.3071 3.09157 7.8193
1.31615 3.08252 7.79393
1.32724 3.07142 7.81929
1.28831 3.11035 7.8193
1.2945 3.10417 7.79394
1.3071 3.09157 7.8193
1.3071 3.09157 7.8193
1.2945 3.10417 7.79394
1.31615 3.08252 7.79393
1.30708 3.09158 7.7686
1.32723 3.07143 7.7686
1.31615 3.08252 7.79393
1.30708 3.09158 7.7686
1.2945 3.10417 7.79394
1.28831 3.11035 7.76861
1.31615 3.08252 7.79393
1.2945 3.10417 7.79394
1.30708 3.09158 7.7686
1.28831 3.11035 7.61701
1.29441 3.10425 7.59179
1.30705 3.09161 7.617
1.30705 3.09161 7.617
1.29441 3.10425 7.59179
1.31607 3.08259 7.59178
1.32724 3.07142 7.81929
1.31615 3.08252 7.79393
1.33718 3.06148 7.79393
1.31615 3.08252 7.79393
1.32723 3.07143 7.7686
1.33718 3.06148 7.79393
1.49256 2.90611 7.76867
1.50289 2.89577 7.79401
1.48223 2.91643 7.794
1.48223 2.91643 7.794
1.50289 2.89577 7.79401
1.49257 2.90609 7.81937
1.49257 2.90609 7.81937
1.50289 2.89577 7.79401
1.51323 2.88543 7.81939
1.88521 2.51346 8.075
1.90602 2.49264 8.07498
1.8956 2.50306 8.10075
2.19127 2.20739 7.54156
2.19928 2.19938 7.51639
2.19928 2.19938 7.5667
2.19928 2.19938 7.61709
2.19132 2.20734 7.5919
2.19928 2.19938 7.5667
2.11618 2.28248 7.7181
2.09503 2.30363 7.71811
2.10562 2.29304 7.69285
2.17929 2.21937 7.71805
2.19132 2.20734 7.74333
2.16947 2.22919 7.74334
2.19928 2.19938 7.71804
2.19132 2.20734 7.74333
2.17929 2.21937 7.71805
2.16947 2.22919 7.74334
2.17929 2.21937 7.76863
2.15843 2.24024 7.76865
2.19131 2.20735 7.79395
2.17929 2.21937 7.76863
2.19928 2.19938 7.76862
2.19928 2.19938 7.76862
2.19928 2.19938 7.81929
2.19131 2.20735 7.79395
2.19131 2.20735 7.79395
2.19928 2.19938 7.81929
2.17928 2.21938 7.81931
2.1693 2.22936 7.49137
2.17913 2.21954 7.46632
2.19117 2.20749 7.49134
2.19127 2.20739 7.54156
2.19928 2.19938 7.5667
2.17927 2.21939 7.56674
2.17927 2.21939 7.56674
2.19928 2.19938 7.5667
2.19132 2.20734 7.5919
2.10553 2.29313 7.54161
2.09491 2.30375 7.51643
2.11605 2.28261 7.51643
2.1372 2.26147 7.51645
2.12662 2.27204 7.49126
2.14787 2.25079 7.49131
2.1372 2.26147 7.51645
2.11605 2.28261 7.51643
2.12662 2.27204 7.49126
2.16946 2.2292 7.59193
2.19132 2.20734 7.5919
2.17929 2.21937 7.61711
2.16946 2.2292 7.59193
2.17927 2.21939 7.56674
2.19132 2.20734 7.5919
2.16945 2.22921 7.89555
2.17928 2.21938 7.8701
2.19129 2.20737 7.89553
2.19129 2.20737 7.89553
2.17927 2.21939 7.92102
2.16945 2.22921 7.89555
2.15841 2.24025 7.87012
2.17928 2.21938 7.8701
2.16945 2.22921 7.89555
2.16944 2.22922 8.04906
2.14804 2.25062 8.04906
2.15841 2.24025 8.02337
2.14804 2.25063 7.99774
2.16944 2.22922 7.99772
2.15841 2.24025 8.02337
2.19128 2.20738 7.94653
2.17927 2.21939 7.92102
2.19928 2.19938 7.921
2.16944 2.22922 7.94656
2.17927 2.21939 7.92102
2.19128 2.20738 7.94653
1.93725 2.46141 8.15232
1.94766 2.451 8.17816
1.92679 2.47187 8.17819
2.05276 2.34591 8.02343
2.06331 2.33535 7.99779
2.07386 2.3248 8.02341
2.07386 2.3248 8.02341
2.06331 2.33535 7.99779
2.08443 2.31423 7.99778
2.15841 2.24026 7.97213
2.14804 2.25062 7.94658
2.16944 2.22922 7.94656
2.15841 2.24026 7.97213
2.16944 2.22922 7.99772
2.14804 2.25063 7.99774
2.04222 2.35644 7.99781
2.06331 2.33535 7.99779
2.05276 2.34591 8.02343
1.9897 2.40896 7.76874
1.96874 2.42992 7.76874
1.97921 2.41945 7.74344
1.93736 2.4613 7.74344
1.92692 2.47174 7.76875
1.91649 2.48217 7.74344
1.94781 2.45085 7.76875
1.92692 2.47174 7.76875
1.93736 2.4613 7.74344
1.92691 2.47175 7.66765
1.9478 2.45086 7.66765
1.93736 2.46131 7.69289
1.93736 2.46131 7.69289
1.91648 2.48218 7.69289
1.92691 2.47175 7.66765
1.92691 2.47175 7.66765
1.91648 2.48218 7.69289
1.90605 2.49261 7.66764
1.93736 2.46131 7.69289
1.9478 2.45086 7.66765
1.95826 2.4404 7.6929
1.96871 2.42995 7.61723
1.9792 2.41946 7.64244
1.95825 2.44041 7.64243
1.95825 2.44041 7.64243
1.94778 2.45088 7.61723
1.96871 2.42995 7.61723
1.8126 2.58607 7.79409
1.82295 2.57571 7.76875
1.83332 2.56534 7.79409
1.82295 2.57571 7.76875
1.84369 2.55497 7.76875
1.83332 2.56534 7.79409
1.92692 2.47174 7.71816
1.91648 2.48218 7.69289
1.93736 2.46131 7.69289
1.92692 2.47174 7.71816
1.93736 2.4613 7.74344
1.91649 2.48217 7.74344
1.91649 2.48217 7.74344
1.89565 2.50301 7.74344
1.90606 2.4926 7.71815
1.90606 2.4926 7.71815
1.92692 2.47174 7.71816
1.91649 2.48217 7.74344
1.91648 2.48218 7.69289
1.92692 2.47174 7.71816
1.90606 2.4926 7.71815
1.90605 2.49261 7.66764
1.88523 2.51343 7.66764
1.89563 2.50303 7.64241
1.88521 2.51345 7.61719
1.90603 2.49263 7.61721
1.89563 2.50303 7.64241
1.51322 2.88545 7.76868
1.50289 2.89577 7.79401
1.49256 2.90611 7.76867
1.49256 2.90611 7.76867
1.50288 2.89578 7.74336
1.51322 2.88545 7.76868
1.29442 3.10424 7.38987
1.28831 3.11035 7.41509
1.28831 3.11035 7.36442
1.28831 3.11035 7.315
1.29529 3.10337 7.3397
1.28831 3.11035 7.36442
1.307 3.09167 7.4657
1.28831 3.11035 7.46567
1.29431 3.10435 7.44042
1.28831 3.11035 7.46567
1.28831 3.11035 7.41509
1.29431 3.10435 7.44042
2.19928 2.19938 7.315
2.19217 2.20649 7.34075
2.18013 2.21854 7.315
1.28831 3.11035 7.56657
1.28831 3.11035 7.51614
1.29438 3.10428 7.54136
1.29438 3.10428 7.54136
1.30704 3.09162 7.56656
1.28831 3.11035 7.56657
1.30702 3.09164 7.51613
1.29438 3.10428 7.54136
1.28831 3.11035 7.51614
1.30702 3.09164 7.51613
1.31601 3.08265 7.49094
1.32714 3.07152 7.51616
1.31605 3.08262 7.54135
1.33709 3.06157 7.54137
1.32717 3.07149 7.56657
1.32717 3.07149 7.56657
1.30704 3.09162 7.56656
1.31605 3.08262 7.54135
1.32714 3.07152 7.51616
1.33709 3.06157 7.54137
1.31605 3.08262 7.54135
1.31605 3.08262 7.54135
1.30702 3.09164 7.51613
1.32714 3.07152 7.51616
1.30704 3.09162 7.56656
1.29438 3.10428 7.54136
1.31605 3.08262 7.54135
1.29438 3.10428 7.54136
1.30702 3.09164 7.51613
1.31605 3.08262 7.54135
1.29435 3.10432 7.49091
1.28831 3.11035 7.51614
1.28831 3.11035 7.46567
1.29435 3.10432 7.49091
1.28831 3.11035 7.46567
1.307 3.09167 7.4657
1.307 3.09167 7.4657
1.31601 3.08265 7.49094
1.29435 3.10432 7.49091
1.29435 3.10432 7.49091
1.30702 3.09164 7.51613
1.28831 3.11035 7.51614
1.31601 3.08265 7.49094
1.30702 3.09164 7.51613
1.29435 3.10432 7.49091
1.33717 3.06149 7.74329
1.32723 3.07143 7.7686
1.31613 3.08254 7.74329
1.32723 3.07143 7.7686
1.30708 3.09158 7.7686
1.31613 3.08254 7.74329
1.31613 3.08254 7.74329
1.32722 3.07145 7.718
1.33717 3.06149 7.74329
1.33711 3.06155 7.59179
1.32717 3.07149 7.56657
1.34771 3.05096 7.56659
1.31607 3.08259 7.59178
1.32717 3.07149 7.56657
1.33711 3.06155 7.59179
1.35794 3.04072 7.5918
1.33711 3.06155 7.59179
1.34771 3.05096 7.56659
1.34773 3.05094 7.61701
1.33711 3.06155 7.59179
1.35794 3.04072 7.5918
1.34773 3.05094 7.61701
1.35794 3.04072 7.5918
1.36839 3.03027 7.61702
1.50287 2.89579 7.6928
1.51321 2.88546 7.71807
1.49255 2.90612 7.71807
1.49255 2.90612 7.71807
1.51321 2.88546 7.71807
1.50288 2.89578 7.74336
1.42017 2.9785 7.74332
1.44086 2.9578 7.74333
1.43052 2.96814 7.76863
1.43051 2.96815 7.71804
1.44086 2.9578 7.74333
1.42017 2.9785 7.74332
1.44085 2.95782 7.69277
1.4305 2.96817 7.66752
1.45119 2.94748 7.66753
1.43051 2.96815 7.71804
1.42015 2.97851 7.69276
1.44085 2.95782 7.69277
1.44085 2.95782 7.69277
1.42015 2.97851 7.69276
1.4305 2.96817 7.66752
1.44087 2.95779 7.79398
1.46156 2.9371 7.79399
1.45123 2.94744 7.81934
1.3995 2.99917 7.8447
1.40985 2.98882 7.81932
1.4202 2.97846 7.84471
1.40983 2.98883 7.76862
1.42017 2.9785 7.74332
1.43052 2.96814 7.76863
1.39946 2.9992 7.74331
1.42017 2.9785 7.74332
1.40983 2.98883 7.76862
1.32724 3.07142 7.81929
1.33718 3.06148 7.79393
1.34779 3.05087 7.81929
1.33717 3.06149 7.74329
1.32722 3.07145 7.718
1.34776 3.0509 7.718
1.34776 3.0509 7.718
1.35799 3.04067 7.74329
1.33717 3.06149 7.74329
1.38911 3.00955 7.71801
1.39946 2.9992 7.74331
1.37874 3.01992 7.7433
1.34777 3.05089 7.7686
1.33718 3.06148 7.79393
1.32723 3.07143 7.7686
[...]
<PointData Scalars="View Factor" >
<DataArray type="Float64" Name="View Factor" NumberOfComponents="1" format="ascii">
0.000114558
0.000114558
0.000114558
0.000164044
0.000164044
0.000164044
0.000170426
0.000170426
0.000170426
0.00180922
0.00180922
0.00180922
0.0018334
0.0018334
0.0018334
0.000179979
0.000179979
0.000179979
0.00275043
0.00275043
0.00275043
0.000654249
0.000654249
0.000654249
0.000434685
0.000434685
0.000434685
0.000595385
0.000595385
0.000595385
0.000536759
0.000536759
0.000536759
0.000476956
0.000476956
0.000476956
0.000204583
0.000204583
0.000204583
0.000191664
0.000191664
0.000191664
0.000425459
0.000425459
0.000425459
0.000404644
0.000404644
0.000404644
0.000299892
0.000299892
0.000299892
0.000306858
0.000306858
0.000306858
0.000272029
0.000272029
0.000272029
0.000203705
0.000203705
0.000203705
0.000195432
0.000195432
0.000195432
0.000338928
0.000338928
0.000338928
0.000152968
0.000152968
0.000152968
3.92265e-05
3.92265e-05
3.92265e-05
0.00318821
0.00318821
0.00318821
0.0026876
0.0026876
0.0026876
0.00271549
0.00271549
0.00271549
0.00276246
0.00276246
0.00276246
0.00272861
0.00272861
0.00272861
0.00245916
0.00245916
0.00245916
0.0023824
0.0023824
0.0023824
0.00242414
0.00242414
0.00242414
0.00241692
0.00241692
0.00241692
0.00242682
0.00242682
0.00242682
0.00246945
0.00246945
0.00246945
0.00243937
0.00243937
0.00243937
0.0027108
0.0027108
0.0027108
0.00270303
0.00270303
0.00270303
0.00237029
0.00237029
0.00237029
0.00239248
0.00239248
0.00239248
0.00185531
0.00185531
0.00185531
0.00183784
0.00183784
0.00183784
0.00176961
0.00176961
0.00176961
4.10516e-05
4.10516e-05
4.10516e-05
0.000641087
0.000641087
0.000641087
0.000701871
0.000701871
0.000701871
0.000407369
0.000407369
0.000407369
0.000335767
0.000335767
0.000335767
0.000322054
0.000322054
0.000322054
0.000481104
0.000481104
0.000481104
0.000251627
0.000251627
0.000251627
0.000238157
0.000238157
0.000238157
0.000217903
0.000217903
0.000217903
0.000435546
0.000435546
0.000435546
0.000687356
0.000687356
0.000687356
0.000713362
0.000713362
0.000713362
0.000633663
0.000633663
0.000633663
0.000634261
0.000634261
0.000634261
0.000649415
0.000649415
0.000649415
0.000721363
0.000721363
0.000721363
0.000753472
0.000753472
0.000753472
0.000172127
0.000172127
0.000172127
0.000164309
0.000164309
0.000164309
0.000395926
0.000395926
0.000395926
0.000314881
0.000314881
0.000314881
0.00032492
0.00032492
0.00032492
0.00014548
0.00014548
0.00014548
0.00015194
0.00015194
0.00015194
2.76147e-05
2.76147e-05
2.76147e-05
4.9927e-05
4.9927e-05
4.9927e-05
5.22738e-05
5.22738e-05
5.22738e-05
0.00034181
0.00034181
0.00034181
0.000329843
0.000329843
0.000329843
5.23365e-05
5.23365e-05
5.23365e-05
0.000200327
0.000200327
0.000200327
0.000224743
0.000224743
0.000224743
0.000208981
0.000208981
0.000208981
0.000379893
0.000379893
0.000379893
0.000362168
0.000362168
0.000362168
0.000393484
0.000393484
0.000393484
0.000349483
0.000349483
0.000349483
0.000505742
0.000505742
0.000505742
0.000546744
0.000546744
0.000546744
0.000211667
0.000211667
0.000211667
0.000220177
0.000220177
0.000220177
0.000319912
0.000319912
0.000319912
0.000252811
0.000252811
0.000252811
0.000261537
0.000261537
0.000261537
0.000271595
0.000271595
0.000271595
0.00030631
0.00030631
0.00030631
0.000462564
0.000462564
0.000462564
0.000609217
0.000609217
0.000609217
0.00179314
0.00179314
0.00179314
0.00180748
0.00180748
0.00180748
0.00308496
0.00308496
0.00308496
0.00317478
0.00317478
0.00317478
0.00295294
0.00295294
0.00295294
0.00299675
0.00299675
0.00299675
0.000106975
0.000106975
0.000106975
0.00282961
0.00282961
0.00282961
0.00278872
0.00278872
0.00278872
0.00284213
0.00284213
0.00284213
0.00282046
0.00282046
0.00282046
0.00272806
0.00272806
0.00272806
0.00274134
0.00274134
0.00274134
0.00275355
0.00275355
0.00275355
0.00279368
0.00279368
0.00279368
0.0027808
0.0027808
0.0027808
0.00280726
0.00280726
0.00280726
0.00291165
0.00291165
0.00291165
0.00292479
0.00292479
0.00292479
0.00288882
0.00288882
0.00288882
0.00286934
0.00286934
0.00286934
0.00286131
0.00286131
0.00286131
0.00243737
0.00243737
0.00243737
0.00244949
0.00244949
0.00244949
0.00245999
0.00245999
0.00245999
0.00266222
0.00266222
0.00266222
0.00267739
0.00267739
0.00267739
0.00262449
0.00262449
0.00262449
0.00259956
0.00259956
0.00259956
0.00256181
0.00256181
0.00256181
0.00185857
0.00185857
0.00185857
0.00184117
0.00184117
0.00184117
0.00215874
0.00215874
0.00215874
0.00217898
0.00217898
0.00217898
0.00221828
0.00221828
0.00221828
0.00222123
0.00222123
0.00222123
0.00224236
0.00224236
0.00224236
0.00202731
0.00202731
0.00202731
0.00212069
0.00212069
0.00212069
0.00218418
0.00218418
0.00218418
0.00222277
0.00222277
0.00222277
0.00233483
0.00233483
0.00233483
0.00244608
0.00244608
0.00244608
0.00241032
0.00241032
0.00241032
0.00230635
0.00230635
0.00230635
0.00237877
0.00237877
0.00237877
0.00240086
0.00240086
0.00240086
0.00238807
0.00238807
0.00238807
0.00204325
0.00204325
0.00204325
0.00197492
0.00197492
0.00197492
0.00183942
0.00183942
0.00183942
0.00192402
0.00192402
0.00192402
0.00196302
0.00196302
0.00196302
0.00196293
0.00196293
0.00196293
0.00188817
0.00188817
0.00188817
0.00198138
0.00198138
0.00198138
0.00194446
0.00194446
0.00194446
0.00187066
0.00187066
0.00187066
0.00190866
0.00190866
0.00190866
0.00183647
0.00183647
0.00183647
0.00189116
0.00189116
0.00189116
0.0020408
0.0020408
0.0020408
0.00198976
0.00198976
0.00198976
0.00169014
0.00169014
0.00169014
0.000321463
0.000321463
0.000321463
0.000892547
0.000892547
0.000892547
0.000298041
0.000298041
0.000298041
0.000876008
0.000876008
0.000876008
0.00179238
0.00179238
0.00179238
0.00176018
0.00176018
0.00176018
0.00180615
0.00180615
0.00180615
4.60977e-05
4.60977e-05
4.60977e-05
4.41298e-05
4.41298e-05
4.41298e-05
4.04582e-05
4.04582e-05
4.04582e-05
4.23208e-05
4.23208e-05
4.23208e-05
5.00646e-05
5.00646e-05
5.00646e-05
5.10743e-05
5.10743e-05
5.10743e-05
6.28587e-05
6.28587e-05
6.28587e-05
4.59602e-05
4.59602e-05
4.59602e-05
2.04808e-05
2.04808e-05
2.04808e-05
2.12756e-05
2.12756e-05
2.12756e-05
1.93138e-05
1.93138e-05
1.93138e-05
1.92891e-05
1.92891e-05
1.92891e-05
2.24755e-05
2.24755e-05
2.24755e-05
2.28795e-05
2.28795e-05
2.28795e-05
2.19336e-05
2.19336e-05
2.19336e-05
2.07638e-05
2.07638e-05
2.07638e-05
2.13889e-05
2.13889e-05
2.13889e-05
2.23192e-05
2.23192e-05
2.23192e-05
2.37555e-05
2.37555e-05
2.37555e-05
1.88261e-05
1.88261e-05
1.88261e-05
2.02493e-05
2.02493e-05
2.02493e-05
1.99813e-05
1.99813e-05
1.99813e-05
1.88431e-05
1.88431e-05
1.88431e-05
1.83609e-05
1.83609e-05
1.83609e-05
1.64732e-05
1.64732e-05
1.64732e-05
1.41386e-05
1.41386e-05
1.41386e-05
1.42531e-05
1.42531e-05
1.42531e-05
2.69715e-05
2.69715e-05
2.69715e-05
2.69712e-05
2.69712e-05
2.69712e-05
2.65575e-05
2.65575e-05
2.65575e-05
0.00038443
0.00038443
0.00038443
0.000388644
0.000388644
0.000388644
0.000399195
0.000399195
0.000399195
0.000361508
0.000361508
0.000361508
0.000609473
0.000609473
0.000609473
0.000541278
0.000541278
0.000541278
0.00063601
0.00063601
0.00063601
0.000197278
0.000197278
0.000197278
0.000208442
0.000208442
0.000208442
0.00035279
0.00035279
0.00035279
0.00040371
0.00040371
0.00040371
0.00039271
0.00039271
0.00039271
0.000429409
0.000429409
0.000429409
0.0004451
0.0004451
0.0004451
0.0003858
0.0003858
0.0003858
0.00039626
0.00039626
0.00039626
0.000437233
0.000437233
0.000437233
0.000465094
0.000465094
0.000465094
0.000423037
0.000423037
0.000423037
0.000436726
0.000436726
0.000436726
0.000237548
0.000237548
0.000237548
0.000258199
0.000258199
0.000258199
0.000579209
0.000579209
0.000579209
0.000510946
0.000510946
0.000510946
0.000521155
0.000521155
0.000521155
0.000248036
0.000248036
0.000248036
0.000580584
0.000580584
0.000580584
0.000600323
0.000600323
0.000600323
0.000824443
0.000824443
0.000824443
0.000790554
0.000790554
0.000790554
0.000803643
0.000803643
0.000803643
0.000800118
0.000800118
0.000800118
0.000379515
0.000379515
0.000379515
0.000372463
0.000372463
0.000372463
0.000348591
0.000348591
0.000348591
0.000310256
0.000310256
0.000310256
0.000186521
0.000186521
0.000186521
1.81805e-05
1.81805e-05
1.81805e-05
3.66311e-05
3.66311e-05
3.66311e-05
4.31924e-05
4.31924e-05
4.31924e-05
3.97788e-05
3.97788e-05
3.97788e-05
4.64181e-05
4.64181e-05
4.64181e-05
4.00729e-05
4.00729e-05
4.00729e-05
0.000235591
0.000235591
0.000235591
0.000239821
0.000239821
0.000239821
0.000178828
0.000178828
0.000178828
0.000197667
0.000197667
0.000197667
0.000198223
0.000198223
0.000198223
0.000209053
0.000209053
0.000209053
0.000124269
0.000124269
0.000124269
0.000130699
0.000130699
0.000130699
0.000124561
0.000124561
0.000124561
0.000358967
0.000358967
0.000358967
0.000353138
0.000353138
0.000353138
0.000146642
0.000146642
0.000146642
0.000297414
0.000297414
0.000297414
0.000277719
0.000277719
0.000277719
0.000302074
0.000302074
0.000302074
0.000287467
0.000287467
0.000287467
0.000263229
0.000263229
0.000263229
0.000267788
0.000267788
0.000267788
0.00019888
0.00019888
0.00019888
0.000235544
0.000235544
0.000235544
0.000209711
0.000209711
0.000209711
0.000251298
0.000251298
0.000251298
0.000216261
0.000216261
0.000216261
0.000232457
0.000232457
0.000232457
0.000187846
0.000187846
0.000187846
0.000155949
0.000155949
0.000155949
0.000146053
0.000146053
0.000146053
0.000193276
0.000193276
0.000193276
0.000200707
0.000200707
0.000200707
0.00022354
0.00022354
0.00022354
0.000240164
0.000240164
0.000240164
0.000207209
0.000207209
0.000207209
0.000230806
0.000230806
0.000230806
0.000173226
0.000173226
0.000173226
0.000162203
0.000162203
0.000162203
0.000146577
0.000146577
0.000146577
0.000141943
0.000141943
0.000141943
0.000151266
0.000151266
0.000151266
0.000167414
0.000167414
0.000167414
0.000217026
0.000217026
0.000217026
0.000201684
0.000201684
0.000201684
0.000212135
0.000212135
0.000212135
0.000238543
0.000238543
0.000238543
8.68067e-05
8.68067e-05
8.68067e-05
0.000128992
0.000128992
0.000128992
8.95212e-05
8.95212e-05
8.95212e-05
0.000447014
0.000447014
0.000447014
0.000588118
0.000588118
0.000588118
0.000487001
0.000487001
0.000487001
0.000556778
0.000556778
0.000556778
0.000567402
0.000567402
0.000567402
0.00053755
0.00053755
0.00053755
0.000470306
0.000470306
0.000470306
0.000431479
0.000431479
0.000431479
0.000453628
0.000453628
0.000453628
0.000518369
0.000518369
0.000518369
0.000301604
0.000301604
0.000301604
0.00028321
0.00028321
0.00028321
0.000309117
0.000309117
0.000309117
0.000348347
0.000348347
0.000348347
0.00017688
0.00017688
0.00017688
0.000188398
0.000188398
0.000188398
0.000301501
0.000301501
0.000301501
0.00028861
0.00028861
0.00028861
0.000151274
0.000151274
0.000151274
0.000160988
0.000160988
0.000160988
0.000155027
0.000155027
0.000155027
0.000137859
0.000137859
0.000137859
0.000132802
0.000132802
0.000132802
0.000141267
0.000141267
0.000141267
0.000245323
0.000245323
0.000245323
0.000308492
0.000308492
0.000308492
0.000296365
0.000296365
0.000296365
0.00026325
0.00026325
0.00026325
0.000177804
0.000177804
0.000177804
0.000189638
0.000189638
0.000189638
0.000317694
0.000317694
0.000317694
0.000226646
0.000226646
0.000226646
0.000252579
0.000252579
0.000252579
0.000348162
0.000348162
0.000348162
0.000630035
0.000630035
0.000630035
0.000576038
0.000576038
0.000576038
0.000503975
0.000503975
0.000503975
0.000280828
0.000280828
0.000280828
0.000270259
0.000270259
0.000270259
0.000327238
0.000327238
0.000327238
0.000290057
0.000290057
0.000290057
0.00173288
0.00173288
0.00173288
0.00215738
0.00215738
0.00215738
0.0021369
0.0021369
0.0021369
0.00216603
0.00216603
0.00216603
0.00194936
0.00194936
0.00194936
0.00182449
0.00182449
0.00182449
0.00184227
0.00184227
0.00184227
0.00261082
0.00261082
0.00261082
0.00267425
0.00267425
0.00267425
0.0026358
0.0026358
0.0026358
0.00179027
0.00179027
0.00179027
0.00177358
0.00177358
0.00177358
0.000316722
0.000316722
0.000316722
0.000295781
0.000295781
0.000295781
0.000265439
0.000265439
0.000265439
0.00025416
0.00025416
0.00025416
0.000213594
0.000213594
0.000213594
0.00022752
0.00022752
0.00022752
0.000298239
0.000298239
0.000298239
0.000144417
0.000144417
0.000144417
0.000459049
0.000459049
0.000459049
1.83196e-05
1.83196e-05
1.83196e-05
0.000242016
0.000242016
0.000242016
0.00024483
0.00024483
0.00024483
0.000468696
0.000468696
0.000468696
0.000287695
0.000287695
0.000287695
0.00239209
0.00239209
0.00239209
0.00240197
0.00240197
0.00240197
0.00252842
0.00252842
0.00252842
0.00249235
0.00249235
0.00249235
0.002485
0.002485
0.002485
0.00259997
0.00259997
0.00259997
0.00261105
0.00261105
0.00261105
0.00256622
0.00256622
0.00256622
0.00257919
0.00257919
0.00257919
0.00268547
0.00268547
0.00268547
0.00267393
0.00267393
0.00267393
0.00263554
0.00263554
0.00263554
0.00265264
0.00265264
0.00265264
0.00262789
0.00262789
0.00262789
0.00259021
0.00259021
0.00259021
0.00257778
0.00257778
0.00257778
0.00255066
0.00255066
0.00255066
0.00253778
0.00253778
0.00253778
0.00266465
0.00266465
0.00266465
0.0026519
0.0026519
0.0026519
0.00263958
0.00263958
0.00263958
0.00260228
0.00260228
0.00260228
0.00261252
0.00261252
0.00261252
0.00258794
0.00258794
0.00258794
0.00253
0.00253
0.00253
0.00250637
0.00250637
0.00250637
0.00246893
0.00246893
0.00246893
0.00245615
0.00245615
0.00245615
0.00199772
0.00199772
0.00199772
0.00205775
0.00205775
0.00205775
0.00207727
0.00207727
0.00207727
0.00194451
0.00194451
0.00194451
0.00189017
0.00189017
0.00189017
0.00190776
0.00190776
0.00190776
0.00194198
0.00194198
0.00194198
0.00197889
0.00197889
0.00197889
0.00201869
0.00201869
0.00201869
0.00200005
0.00200005
0.00200005
0.00224365
0.00224365
0.00224365
0.00228713
0.00228713
0.00228713
0.00222595
0.00222595
0.00222595
0.00224719
0.00224719
0.00224719
0.00228965
0.00228965
0.00228965
0.00231153
0.00231153
0.00231153
0.00211864
0.00211864
0.00211864
0.00216383
0.00216383
0.00216383
0.0020562
0.0020562
0.0020562
0.00210349
0.00210349
0.00210349
0.00212332
0.00212332
0.00212332
0.00209853
0.00209853
0.00209853
0.00205975
0.00205975
0.00205975
0.0020368
0.0020368
0.0020368
0.00206235
0.00206235
0.00206235
0.00204561
0.00204561
0.00204561
0.00206486
0.00206486
0.00206486
0.0021012
0.0021012
0.0021012
0.00212378
0.00212378
0.00212378
0.00211985
0.00211985
0.00211985
0.00210397
0.00210397
0.00210397
0.00216355
0.00216355
0.00216355
0.0024208
0.0024208
0.0024208
0.00234535
0.00234535
0.00234535
0.0023983
0.0023983
0.0023983
0.00236084
0.00236084
0.00236084
0.00232195
0.00232195
0.00232195
0.00234386
0.00234386
0.00234386
0.00229573
0.00229573
0.00229573
0.00233234
0.00233234
0.00233234
0.00233906
0.00233906
0.00233906
0.00235404
0.00235404
0.00235404
0.00210023
0.00210023
0.00210023
0.00211563
0.00211563
0.00211563
0.00206533
0.00206533
0.00206533
0.00215046
0.00215046
0.00215046
0.0021653
0.0021653
0.0021653
0.00209611
0.00209611
0.00209611
0.00187414
0.00187414
0.00187414
0.00200802
0.00200802
0.00200802
0.0019896
0.0019896
0.0019896
0.00194835
0.00194835
0.00194835
0.0019263
0.0019263
0.0019263
0.00186165
0.00186165
0.00186165
0.00179672
0.00179672
0.00179672
0.00181804
0.00181804
0.00181804
0.0020862
0.0020862
0.0020862
0.00205687
0.00205687
0.00205687
0.00205057
0.00205057
0.00205057
0.00198351
0.00198351
0.00198351
0.00203015
0.00203015
0.00203015
0.00200171
0.00200171
0.00200171
0.00199576
0.00199576
0.00199576
0.00203839
0.00203839
0.00203839
0.00201384
0.00201384
0.00201384
0.00202145
0.00202145
0.00202145
0.00200325
0.00200325
0.00200325
0.00204667
0.00204667
0.00204667
0.00201908
0.00201908
0.00201908
0.00203803
0.00203803
0.00203803
0.00208541
0.00208541
0.00208541
0.00211512
0.00211512
0.00211512
0.00209544
0.00209544
0.00209544
0.00192699
0.00192699
0.00192699
0.0019994
0.0019994
0.0019994
0.0019715
0.0019715
0.0019715
0.00190906
0.00190906
0.00190906
0.000134345
0.000134345
0.000134345
0.000154775
0.000154775
0.000154775
0.000145652
0.000145652
0.000145652
0.00151042
0.00151042
0.00151042
0.00123292
0.00123292
0.00123292
0.00125401
0.00125401
0.00125401
0.00161253
0.00161253
0.00161253
0.00148493
0.00148493
0.00148493
0.00174342
0.00174342
0.00174342
0.00173512
0.00173512
0.00173512
0.00165024
0.00165024
0.00165024
0.00170121
0.00170121
0.00170121
0.00171783
0.00171783
0.00171783
0.00171469
0.00171469
0.00171469
0.00156404
0.00156404
0.00156404
0.00166685
0.00166685
0.00166685
4.0107e-05
4.0107e-05
4.0107e-05
3.74016e-05
3.74016e-05
3.74016e-05
3.9019e-05
3.9019e-05
3.9019e-05
4.12019e-05
4.12019e-05
4.12019e-05
4.48462e-05
4.48462e-05
4.48462e-05
4.87021e-05
4.87021e-05
4.87021e-05
4.00677e-05
4.00677e-05
4.00677e-05
4.29121e-05
4.29121e-05
4.29121e-05
4.16875e-05
4.16875e-05
4.16875e-05
4.35859e-05
4.35859e-05
4.35859e-05
6.91893e-05
6.91893e-05
6.91893e-05
6.07458e-05
6.07458e-05
6.07458e-05
5.65051e-05
5.65051e-05
5.65051e-05
6.2456e-05
6.2456e-05
6.2456e-05
6.46583e-05
6.46583e-05
6.46583e-05
5.80944e-05
5.80944e-05
5.80944e-05
5.52876e-05
5.52876e-05
5.52876e-05
7.15097e-05
7.15097e-05
7.15097e-05
6.72597e-05
6.72597e-05
6.72597e-05
7.74864e-05
7.74864e-05
7.74864e-05
7.96342e-05
7.96342e-05
7.96342e-05
5.3754e-05
5.3754e-05
5.3754e-05
4.82423e-05
4.82423e-05
4.82423e-05
4.73337e-05
4.73337e-05
4.73337e-05
4.9661e-05
4.9661e-05
4.9661e-05
5.90308e-05
5.90308e-05
5.90308e-05
5.49114e-05
5.49114e-05
5.49114e-05
5.22147e-05
5.22147e-05
5.22147e-05
4.45787e-05
4.45787e-05
4.45787e-05
4.68172e-05
4.68172e-05
4.68172e-05
4.53841e-05
4.53841e-05
4.53841e-05
4.91188e-05
4.91188e-05
4.91188e-05
0.000119765
0.000119765
0.000119765
0.000109766
0.000109766
0.000109766
8.19296e-05
8.19296e-05
8.19296e-05
9.21519e-05
9.21519e-05
9.21519e-05
0.000100593
0.000100593
0.000100593
9.47744e-05
9.47744e-05
9.47744e-05
8.93151e-05
8.93151e-05
8.93151e-05
0.00010676
0.00010676
0.00010676
0.00010346
0.00010346
0.00010346
7.25606e-05
7.25606e-05
7.25606e-05
7.70456e-05
7.70456e-05
7.70456e-05
3.47699e-05
3.47699e-05
3.47699e-05
2.19644e-05
2.19644e-05
2.19644e-05
2.34351e-05
2.34351e-05
2.34351e-05
2.56714e-05
2.56714e-05
2.56714e-05
2.49445e-05
2.49445e-05
2.49445e-05
3.63903e-05
3.63903e-05
3.63903e-05
3.57533e-05
3.57533e-05
3.57533e-05
0.00195322
0.00195322
0.00195322
0.00193045
0.00193045
0.00193045
2.27943e-05
2.27943e-05
2.27943e-05
4.08498e-05
4.08498e-05
4.08498e-05
0.000288309
0.000288309
0.000288309
4.62912e-05
4.62912e-05
4.62912e-05
0.00118087
0.00118087
0.00118087
9.92532e-05
9.92532e-05
9.92532e-05
7.00126e-05
7.00126e-05
7.00126e-05
5.01347e-05
5.01347e-05
5.01347e-05
5.10542e-05
5.10542e-05
5.10542e-05
5.8051e-05
5.8051e-05
5.8051e-05
5.54552e-05
5.54552e-05
5.54552e-05
3.82815e-05
3.82815e-05
3.82815e-05
2.68601e-05
2.68601e-05
2.68601e-05
2.44646e-05
2.44646e-05
2.44646e-05
2.50691e-05
2.50691e-05
2.50691e-05
2.43517e-05
2.43517e-05
2.43517e-05
4.14028e-05
4.14028e-05
4.14028e-05
4.68015e-05
4.68015e-05
4.68015e-05
4.4405e-05
4.4405e-05
4.4405e-05
3.74868e-05
3.74868e-05
3.74868e-05
3.74176e-05
3.74176e-05
3.74176e-05
3.83691e-05
3.83691e-05
3.83691e-05
4.05946e-05
4.05946e-05
4.05946e-05
4.5341e-05
4.5341e-05
4.5341e-05
4.23332e-05
4.23332e-05
4.23332e-05
1.59962e-05
1.59962e-05
1.59962e-05
1.64517e-05
1.64517e-05
1.64517e-05
1.94794e-05
1.94794e-05
1.94794e-05
1.7892e-05
1.7892e-05
1.7892e-05
1.83695e-05
1.83695e-05
1.83695e-05
1.6948e-05
1.6948e-05
1.6948e-05
1.69339e-05
1.69339e-05
1.69339e-05
1.7956e-05
1.7956e-05
1.7956e-05
1.86904e-05
1.86904e-05
1.86904e-05
1.44977e-05
1.44977e-05
1.44977e-05
1.45503e-05
1.45503e-05
1.45503e-05
1.70767e-05
1.70767e-05
1.70767e-05
1.41434e-05
1.41434e-05
1.41434e-05
1.44157e-05
1.44157e-05
1.44157e-05
2.42034e-05
2.42034e-05
2.42034e-05
2.26202e-05
2.26202e-05
2.26202e-05
2.41749e-05
2.41749e-05
2.41749e-05
2.46128e-05
2.46128e-05
2.46128e-05
2.46239e-05
2.46239e-05
2.46239e-05
2.65886e-05
2.65886e-05
2.65886e-05
2.2555e-05
2.2555e-05
2.2555e-05
0.000189998
0.000189998
0.000189998
0.000166684
0.000166684
0.000166684
5.82093e-05
5.82093e-05
5.82093e-05
6.36762e-05
6.36762e-05
6.36762e-05
0.000266106
0.000266106
0.000266106
0.000237243
0.000237243
0.000237243
0.00036344
0.00036344
0.00036344
0.000350833
0.000350833
0.000350833