<VTKFile type="UnstructuredGrid" version="1.0">
<UnstructuredGrid>
<Piece NumberOfPoints="10830" NumberOfCells="3610">
<Points>
<DataArray type="Float64" NumberOfComponents="3" format="ascii">
2.19217 2.20649 3.16075
2.19928 2.19938 3.135
2.19928 2.19938 3.18646
2.19928 2.19938 3.69008
2.19928 2.19938 3.741
2.19129 2.20737 3.71553
2.19928 2.19938 3.69008
2.19129 2.20737 3.71553
2.17928 2.21938 3.6901
1.30559 3.09307 4.16259
1.31816 3.0805 4.18
1.28831 3.11035 4.18
1.28831 3.11035 4.18
1.28831 3.11035 4.14984
1.30559 3.09307 4.16259
2.19928 2.19938 3.69008
2.17928 2.21938 3.6901
2.1913 2.20736 3.66468
1.29441 3.10425 3.41179
1.28831 3.11035 3.43701
1.28831 3.11035 3.38657
2.19132 2.20734 3.4119
2.19928 2.19938 3.43709
2.17929 2.21937 3.43711
2.19117 2.20749 3.31134
2.19928 2.19938 3.28628
2.19928 2.19938 3.33639
2.17929 2.21937 3.43711
2.19928 2.19938 3.43709
2.19133 2.20733 3.46231
2.19928 2.19938 3.43709
2.19928 2.19938 3.48754
2.19133 2.20733 3.46231
2.17929 2.21937 3.48755
2.19133 2.20733 3.46231
2.19928 2.19938 3.48754
2.17928 2.21938 3.63931
2.1913 2.20736 3.66468
2.16946 2.22921 3.6647
2.16946 2.22921 3.6647
2.1913 2.20736 3.66468
2.17928 2.21938 3.6901
2.16946 2.22921 3.6647
2.15842 2.24024 3.63932
2.17928 2.21938 3.63931
2.16946 2.22921 3.6647
2.17928 2.21938 3.6901
2.15841 2.24025 3.69012
2.19928 2.19938 3.53804
2.19928 2.19938 3.58862
2.19132 2.20734 3.56333
2.19132 2.20734 3.56333
2.17929 2.21937 3.58863
2.16947 2.22919 3.56334
2.19928 2.19938 3.58862
2.17929 2.21937 3.58863
2.19132 2.20734 3.56333
2.19928 2.19938 3.63929
2.1913 2.20736 3.66468
2.17928 2.21938 3.63931
2.19928 2.19938 3.69008
2.1913 2.20736 3.66468
2.19928 2.19938 3.63929
2.17913 2.21954 3.28632
2.19928 2.19938 3.28628
2.19117 2.20749 3.31134
2.17927 2.21939 3.74102
2.19129 2.20737 3.71553
2.19928 2.19938 3.741
1.8956 2.50306 3.92075
1.90602 2.49264 3.89498
1.91643 2.48223 3.92072
1.28831 3.11035 3.135
1.30792 3.09074 3.135
1.29529 3.10337 3.1597
1.34771 3.05096 3.38659
1.32717 3.07149 3.38657
1.33709 3.06157 3.36137
1.30704 3.09162 3.38656
1.32717 3.07149 3.38657
1.31607 3.08259 3.41178
1.30704 3.09162 3.38656
1.29441 3.10425 3.41179
1.28831 3.11035 3.38657
1.31607 3.08259 3.41178
1.29441 3.10425 3.41179
1.30704 3.09162 3.38656
1.2945 3.10417 3.61394
1.28831 3.11035 3.6393
1.28831 3.11035 3.58861
1.3071 3.09157 3.6393
1.31615 3.08252 3.61393
1.32724 3.07142 3.63929
1.28831 3.11035 3.6393
1.2945 3.10417 3.61394
1.3071 3.09157 3.6393
1.3071 3.09157 3.6393
1.2945 3.10417 3.61394
1.31615 3.08252 3.61393
1.30708 3.09158 3.5886
1.32723 3.07143 3.5886
1.31615 3.08252 3.61393
1.30708 3.09158 3.5886
1.2945 3.10417 3.61394
1.28831 3.11035 3.58861
1.31615 3.08252 3.61393
1.2945 3.10417 3.61394
1.30708 3.09158 3.5886
1.28831 3.11035 3.43701
1.29441 3.10425 3.41179
1.30705 3.09161 3.437
1.30705 3.09161 3.437
1.29441 3.10425 3.41179
1.31607 3.08259 3.41178
1.32724 3.07142 3.63929
1.31615 3.08252 3.61393
1.33718 3.06148 3.61393
1.31615 3.08252 3.61393
1.32723 3.07143 3.5886
1.33718 3.06148 3.61393
1.49256 2.90611 3.58867
1.50289 2.89577 3.61401
1.48223 2.91643 3.614
1.48223 2.91643 3.614
1.50289 2.89577 3.61401
1.49257 2.90609 3.63937
1.49257 2.90609 3.63937
1.50289 2.89577 3.61401
1.51323 2.88543 3.63938
1.88521 2.51346 3.895
1.90602 2.49264 3.89498
1.8956 2.50306 3.92075
2.19127 2.20739 3.36156
2.19928 2.19938 3.33639
2.19928 2.19938 3.3867
2.19928 2.19938 3.43709
2.19132 2.20734 3.4119
2.19928 2.19938 3.3867
2.11618 2.28248 3.5381
2.09503 2.30363 3.53811
2.10562 2.29304 3.51285
2.17929 2.21937 3.53805
2.19132 2.20734 3.56333
2.16947 2.22919 3.56334
2.19928 2.19938 3.53804
2.19132 2.20734 3.56333
2.17929 2.21937 3.53805
2.16947 2.22919 3.56334
2.17929 2.21937 3.58863
2.15843 2.24024 3.58865
2.19131 2.20735 3.61395
2.17929 2.21937 3.58863
2.19928 2.19938 3.58862
2.19928 2.19938 3.58862
2.19928 2.19938 3.63929
2.19131 2.20735 3.61395
2.19131 2.20735 3.61395
2.19928 2.19938 3.63929
2.17928 2.21938 3.63931
2.1693 2.22936 3.31137
2.17913 2.21954 3.28632
2.19117 2.20749 3.31134
2.19127 2.20739 3.36156
2.19928 2.19938 3.3867
2.17927 2.21939 3.38674
2.17927 2.21939 3.38674
2.19928 2.19938 3.3867
2.19132 2.20734 3.4119
2.10553 2.29313 3.36161
2.09491 2.30375 3.33643
2.11605 2.28261 3.33643
2.1372 2.26147 3.33645
2.12662 2.27204 3.31126
2.14787 2.25079 3.31131
2.1372 2.26147 3.33645
2.11605 2.28261 3.33643
2.12662 2.27204 3.31126
2.16946 2.2292 3.41193
2.19132 2.20734 3.4119
2.17929 2.21937 3.43711
2.16946 2.2292 3.41193
2.17927 2.21939 3.38674
2.19132 2.20734 3.4119
2.16945 2.22921 3.71555
2.17928 2.21938 3.6901
2.19129 2.20737 3.71553
2.19129 2.20737 3.71553
2.17927 2.21939 3.74102
2.16945 2.22921 3.71555
2.15841 2.24025 3.69012
2.17928 2.21938 3.6901
2.16945 2.22921 3.71555
2.16944 2.22922 3.86905
2.14804 2.25062 3.86906
2.15841 2.24025 3.84337
2.14804 2.25063 3.81774
2.16944 2.22922 3.81772
2.15841 2.24025 3.84337
2.19128 2.20738 3.76653
2.17927 2.21939 3.74102
2.19928 2.19938 3.741
2.16944 2.22922 3.76656
2.17927 2.21939 3.74102
2.19128 2.20738 3.76653
1.93725 2.46141 3.97232
1.94766 2.451 3.99816
1.92679 2.47187 3.9982
2.05276 2.34591 3.84343
2.06331 2.33535 3.81779
2.07386 2.3248 3.84341
2.07386 2.3248 3.84341
2.06331 2.33535 3.81779
2.08443 2.31423 3.81778
2.15841 2.24026 3.79213
2.14804 2.25062 3.76658
2.16944 2.22922 3.76656
2.15841 2.24026 3.79213
2.16944 2.22922 3.81772
2.14804 2.25063 3.81774
2.04222 2.35644 3.81781
2.06331 2.33535 3.81779
2.05276 2.34591 3.84343
1.9897 2.40896 3.58874
1.96874 2.42992 3.58874
1.97921 2.41945 3.56344
1.93736 2.4613 3.56344
1.92692 2.47174 3.58875
1.91649 2.48217 3.56344
1.94781 2.45085 3.58875
1.92692 2.47174 3.58875
1.93736 2.4613 3.56344
1.92691 2.47175 3.48765
1.9478 2.45086 3.48765
1.93736 2.46131 3.51289
1.93736 2.46131 3.51289
1.91648 2.48218 3.51289
1.92691 2.47175 3.48765
1.92691 2.47175 3.48765
1.91648 2.48218 3.51289
1.90605 2.49261 3.48764
1.93736 2.46131 3.51289
1.9478 2.45086 3.48765
1.95826 2.4404 3.5129
1.96871 2.42995 3.43723
1.9792 2.41946 3.46244
1.95825 2.44041 3.46243
1.95825 2.44041 3.46243
1.94778 2.45088 3.43723
1.96871 2.42995 3.43723
1.8126 2.58607 3.61409
1.82295 2.57571 3.58875
1.83332 2.56534 3.61409
1.82295 2.57571 3.58875
1.84369 2.55497 3.58875
1.83332 2.56534 3.61409
1.92692 2.47174 3.53816
1.91648 2.48218 3.51289
1.93736 2.46131 3.51289
1.92692 2.47174 3.53816
1.93736 2.4613 3.56344
1.91649 2.48217 3.56344
1.91649 2.48217 3.56344
1.89565 2.50301 3.56344
1.90606 2.4926 3.53815
1.90606 2.4926 3.53815
1.92692 2.47174 3.53816
1.91649 2.48217 3.56344
1.91648 2.48218 3.51289
1.92692 2.47174 3.53816
1.90606 2.4926 3.53815
1.90605 2.49261 3.48764
1.88523 2.51343 3.48764
1.89563 2.50303 3.46241
1.88521 2.51345 3.43719
1.90603 2.49263 3.43721
1.89563 2.50303 3.46241
1.51322 2.88545 3.58868
1.50289 2.89577 3.61401
1.49256 2.90611 3.58867
1.49256 2.90611 3.58867
1.50288 2.89578 3.56336
1.51322 2.88545 3.58868
1.29442 3.10424 3.20987
1.28831 3.11035 3.23509
1.28831 3.11035 3.18442
1.28831 3.11035 3.135
1.29529 3.10337 3.1597
1.28831 3.11035 3.18442
1.307 3.09167 3.2857
1.28831 3.11035 3.28567
1.29431 3.10435 3.26042
1.28831 3.11035 3.28567
1.28831 3.11035 3.23509
1.29431 3.10435 3.26042
2.19928 2.19938 3.135
2.19217 2.20649 3.16075
2.18013 2.21854 3.135
1.28831 3.11035 3.38657
1.28831 3.11035 3.33614
1.29438 3.10428 3.36136
1.29438 3.10428 3.36136
1.30704 3.09162 3.38656
1.28831 3.11035 3.38657
1.30702 3.09164 3.33613
1.29438 3.10428 3.36136
1.28831 3.11035 3.33614
1.30702 3.09164 3.33613
1.31601 3.08265 3.31094
1.32714 3.07152 3.33616
1.31605 3.08262 3.36135
1.33709 3.06157 3.36137
1.32717 3.07149 3.38657
1.32717 3.07149 3.38657
1.30704 3.09162 3.38656
1.31605 3.08262 3.36135
1.32714 3.07152 3.33616
1.33709 3.06157 3.36137
1.31605 3.08262 3.36135
1.31605 3.08262 3.36135
1.30702 3.09164 3.33613
1.32714 3.07152 3.33616
1.30704 3.09162 3.38656
1.29438 3.10428 3.36136
1.31605 3.08262 3.36135
1.29438 3.10428 3.36136
1.30702 3.09164 3.33613
1.31605 3.08262 3.36135
1.29435 3.10432 3.31091
1.28831 3.11035 3.33614
1.28831 3.11035 3.28567
1.29435 3.10432 3.31091
1.28831 3.11035 3.28567
1.307 3.09167 3.2857
1.307 3.09167 3.2857
1.31601 3.08265 3.31094
1.29435 3.10432 3.31091
1.29435 3.10432 3.31091
1.30702 3.09164 3.33613
1.28831 3.11035 3.33614
1.31601 3.08265 3.31094
1.30702 3.09164 3.33613
1.29435 3.10432 3.31091
1.33717 3.06149 3.56329
1.32723 3.07143 3.5886
1.31613 3.08254 3.56329
1.32723 3.07143 3.5886
1.30708 3.09158 3.5886
1.31613 3.08254 3.56329
1.31613 3.08254 3.56329
1.32722 3.07145 3.538
1.33717 3.06149 3.56329
1.33711 3.06155 3.41179
1.32717 3.07149 3.38657
1.34771 3.05096 3.38659
1.31607 3.08259 3.41178
1.32717 3.07149 3.38657
1.33711 3.06155 3.41179
1.35794 3.04072 3.4118
1.33711 3.06155 3.41179
1.34771 3.05096 3.38659
1.34773 3.05094 3.43701
1.33711 3.06155 3.41179
1.35794 3.04072 3.4118
1.34773 3.05094 3.43701
1.35794 3.04072 3.4118
1.36839 3.03027 3.43702
1.50287 2.89579 3.5128
1.51321 2.88546 3.53807
1.49255 2.90612 3.53807
1.49255 2.90612 3.53807
1.51321 2.88546 3.53807
1.50288 2.89578 3.56336
1.42017 2.9785 3.56332
1.44086 2.9578 3.56333
1.43052 2.96814 3.58863
1.43051 2.96815 3.53804
1.44086 2.9578 3.56333
1.42017 2.9785 3.56332
1.44085 2.95782 3.51277
1.4305 2.96817 3.48752
1.45119 2.94748 3.48753
1.43051 2.96815 3.53804
1.42015 2.97851 3.51276
1.44085 2.95782 3.51277
1.44085 2.95782 3.51277
1.42015 2.97851 3.51276
1.4305 2.96817 3.48752
1.44087 2.95779 3.61398
1.46156 2.9371 3.61399
1.45123 2.94744 3.63934
1.3995 2.99917 3.6647
1.40985 2.98882 3.63932
1.4202 2.97846 3.66471
1.40983 2.98883 3.58862
1.42017 2.9785 3.56332
1.43052 2.96814 3.58863
1.39946 2.9992 3.56331
1.42017 2.9785 3.56332
1.40983 2.98883 3.58862
1.32724 3.07142 3.63929
1.33718 3.06148 3.61393
1.34779 3.05087 3.63929
1.33717 3.06149 3.56329
1.32722 3.07145 3.538
1.34776 3.0509 3.538
1.34776 3.0509 3.538
1.35799 3.04067 3.56329
1.33717 3.06149 3.56329
1.38911 3.00955 3.53801
1.39946 2.9992 3.56331
1.37874 3.01992 3.5633
1.34777 3.05089 3.5886
1.33718 3.06148 3.61393
1.32723 3.07143 3.5886
[...]
<PointData Scalars="View Factor" >
<DataArray type="Float64" Name="View Factor" NumberOfComponents="1" format="ascii">
7.44584e-06
7.44584e-06
7.44584e-06
2.44446e-05
2.44446e-05
2.44446e-05
2.71173e-05
2.71173e-05
2.71173e-05
0.000167361
0.000167361
0.000167361
0.000168206
0.000168206
0.000168206
2.87761e-05
2.87761e-05
2.87761e-05
0.000136609
0.000136609
0.000136609
1.29923e-05
1.29923e-05
1.29923e-05
9.85286e-06
9.85286e-06
9.85286e-06
1.36869e-05
1.36869e-05
1.36869e-05
1.47534e-05
1.47534e-05
1.47534e-05
1.52726e-05
1.52726e-05
1.52726e-05
3.11807e-05
3.11807e-05
3.11807e-05
3.11203e-05
3.11203e-05
3.11203e-05
3.881e-05
3.881e-05
3.881e-05
3.97664e-05
3.97664e-05
3.97664e-05
2.09694e-05
2.09694e-05
2.09694e-05
2.36557e-05
2.36557e-05
2.36557e-05
2.23539e-05
2.23539e-05
2.23539e-05
2.88807e-05
2.88807e-05
2.88807e-05
2.92e-05
2.92e-05
2.92e-05
9.11728e-06
9.11728e-06
9.11728e-06
2.20014e-05
2.20014e-05
2.20014e-05
2.47142e-06
2.47142e-06
2.47142e-06
0.000126335
0.000126335
0.000126335
0.0001298
0.0001298
0.0001298
0.000133031
0.000133031
0.000133031
0.000135306
0.000135306
0.000135306
0.00013462
0.00013462
0.00013462
0.000144422
0.000144422
0.000144422
0.000141943
0.000141943
0.000141943
0.000144386
0.000144386
0.000144386
0.000142977
0.000142977
0.000142977
0.000140625
0.000140625
0.000140625
0.000143027
0.000143027
0.000143027
0.000142307
0.000142307
0.000142307
0.00013656
0.00013656
0.00013656
0.000135235
0.000135235
0.000135235
0.000140221
0.000140221
0.000140221
0.000139563
0.000139563
0.000139563
0.000112366
0.000112366
0.000112366
0.000112967
0.000112967
0.000112967
0.000109394
0.000109394
0.000109394
2.42908e-06
2.42908e-06
2.42908e-06
1.11093e-05
1.11093e-05
1.11093e-05
1.27236e-05
1.27236e-05
1.27236e-05
2.37513e-05
2.37513e-05
2.37513e-05
2.22496e-05
2.22496e-05
2.22496e-05
1.95169e-05
1.95169e-05
1.95169e-05
3.36579e-05
3.36579e-05
3.36579e-05
2.40312e-05
2.40312e-05
2.40312e-05
2.57583e-05
2.57583e-05
2.57583e-05
2.75133e-05
2.75133e-05
2.75133e-05
1.15944e-05
1.15944e-05
1.15944e-05
1.12194e-05
1.12194e-05
1.12194e-05
1.17556e-05
1.17556e-05
1.17556e-05
1.71173e-05
1.71173e-05
1.71173e-05
2.09789e-05
2.09789e-05
2.09789e-05
2.01874e-05
2.01874e-05
2.01874e-05
1.48988e-05
1.48988e-05
1.48988e-05
1.4308e-05
1.4308e-05
1.4308e-05
2.78011e-05
2.78011e-05
2.78011e-05
2.51945e-05
2.51945e-05
2.51945e-05
3.89691e-05
3.89691e-05
3.89691e-05
2.28381e-05
2.28381e-05
2.28381e-05
2.35075e-05
2.35075e-05
2.35075e-05
1.9025e-05
1.9025e-05
1.9025e-05
1.91544e-05
1.91544e-05
1.91544e-05
2.80019e-06
2.80019e-06
2.80019e-06
2.40164e-06
2.40164e-06
2.40164e-06
3.03965e-06
3.03965e-06
3.03965e-06
2.95919e-05
2.95919e-05
2.95919e-05
2.5032e-05
2.5032e-05
2.5032e-05
3.09326e-06
3.09326e-06
3.09326e-06
1.92922e-05
1.92922e-05
1.92922e-05
1.96363e-05
1.96363e-05
1.96363e-05
2.00631e-05
2.00631e-05
2.00631e-05
1.37889e-05
1.37889e-05
1.37889e-05
1.45251e-05
1.45251e-05
1.45251e-05
1.42567e-05
1.42567e-05
1.42567e-05
1.40399e-05
1.40399e-05
1.40399e-05
1.11733e-05
1.11733e-05
1.11733e-05
1.08646e-05
1.08646e-05
1.08646e-05
2.69696e-05
2.69696e-05
2.69696e-05
2.55306e-05
2.55306e-05
2.55306e-05
1.5624e-05
1.5624e-05
1.5624e-05
1.81656e-05
1.81656e-05
1.81656e-05
1.87728e-05
1.87728e-05
1.87728e-05
1.77816e-05
1.77816e-05
1.77816e-05
1.65231e-05
1.65231e-05
1.65231e-05
1.37761e-05
1.37761e-05
1.37761e-05
1.20059e-05
1.20059e-05
1.20059e-05
0.000108259
0.000108259
0.000108259
0.000107719
0.000107719
0.000107719
0.000129317
0.000129317
0.000129317
0.000127556
0.000127556
0.000127556
0.000131054
0.000131054
0.000131054
0.000131101
0.000131101
0.000131101
6.89754e-06
6.89754e-06
6.89754e-06
0.000134742
0.000134742
0.000134742
0.000134689
0.000134689
0.000134689
0.000133464
0.000133464
0.000133464
0.000130619
0.000130619
0.000130619
0.00013083
0.00013083
0.00013083
0.00013242
0.00013242
0.00013242
0.000130237
0.000130237
0.000130237
0.00013122
0.00013122
0.00013122
0.000133387
0.000133387
0.000133387
0.000132785
0.000132785
0.000132785
0.000132908
0.000132908
0.000132908
0.000131645
0.000131645
0.000131645
0.000130974
0.000130974
0.000130974
0.000132858
0.000132858
0.000132858
0.000131576
0.000131576
0.000131576
0.000138266
0.000138266
0.000138266
0.000139963
0.000139963
0.000139963
0.000137624
0.000137624
0.000137624
0.000130371
0.000130371
0.000130371
0.000132023
0.000132023
0.000132023
0.000129451
0.000129451
0.000129451
0.000130047
0.000130047
0.000130047
0.000129129
0.000129129
0.000129129
0.000106096
0.000106096
0.000106096
0.000106642
0.000106642
0.000106642
0.00012351
0.00012351
0.00012351
0.000122927
0.000122927
0.000122927
0.000119193
0.000119193
0.000119193
0.000121768
0.000121768
0.000121768
0.000121198
0.000121198
0.000121198
0.00012137
0.00012137
0.00012137
0.000129937
0.000129937
0.000129937
0.000125663
0.000125663
0.000125663
0.000126908
0.000126908
0.000126908
0.000139071
0.000139071
0.000139071
0.000135856
0.000135856
0.000135856
0.000134824
0.000134824
0.000134824
0.000129556
0.000129556
0.000129556
0.000137764
0.000137764
0.000137764
0.00013713
0.00013713
0.00013713
0.000135453
0.000135453
0.000135453
0.000132435
0.000132435
0.000132435
0.000162131
0.000162131
0.000162131
0.000166722
0.000166722
0.000166722
0.000115052
0.000115052
0.000115052
0.000117114
0.000117114
0.000117114
0.000120229
0.000120229
0.000120229
0.000116088
0.000116088
0.000116088
0.000119675
0.000119675
0.000119675
0.000117592
0.000117592
0.000117592
0.000116554
0.000116554
0.000116554
0.000118509
0.000118509
0.000118509
0.000117533
0.000117533
0.000117533
0.000118969
0.000118969
0.000118969
0.000127047
0.000127047
0.000127047
0.000122519
0.000122519
0.000122519
0.000107785
0.000107785
0.000107785
3.07784e-05
3.07784e-05
3.07784e-05
5.98366e-05
5.98366e-05
5.98366e-05
2.21981e-05
2.21981e-05
2.21981e-05
6.01732e-05
6.01732e-05
6.01732e-05
0.000114738
0.000114738
0.000114738
0.00010995
0.00010995
0.00010995
0.000114171
0.000114171
0.000114171
2.73021e-06
2.73021e-06
2.73021e-06
2.78301e-06
2.78301e-06
2.78301e-06
2.54977e-06
2.54977e-06
2.54977e-06
2.50462e-06
2.50462e-06
2.50462e-06
2.67455e-06
2.67455e-06
2.67455e-06
2.55068e-06
2.55068e-06
2.55068e-06
3.96365e-06
3.96365e-06
3.96365e-06
2.45322e-06
2.45322e-06
2.45322e-06
5.50652e-06
5.50652e-06
5.50652e-06
5.41683e-06
5.41683e-06
5.41683e-06
5.74242e-06
5.74242e-06
5.74242e-06
5.9592e-06
5.9592e-06
5.9592e-06
5.17622e-06
5.17622e-06
5.17622e-06
4.98685e-06
4.98685e-06
4.98685e-06
5.04683e-06
5.04683e-06
5.04683e-06
5.28115e-06
5.28115e-06
5.28115e-06
4.91724e-06
4.91724e-06
4.91724e-06
4.86064e-06
4.86064e-06
4.86064e-06
4.63742e-06
4.63742e-06
4.63742e-06
5.8097e-06
5.8097e-06
5.8097e-06
5.14529e-06
5.14529e-06
5.14529e-06
5.36662e-06
5.36662e-06
5.36662e-06
5.59648e-06
5.59648e-06
5.59648e-06
5.65991e-06
5.65991e-06
5.65991e-06
5.05974e-06
5.05974e-06
5.05974e-06
4.35704e-06
4.35704e-06
4.35704e-06
4.36408e-06
4.36408e-06
4.36408e-06
2.6492e-06
2.6492e-06
2.6492e-06
2.64851e-06
2.64851e-06
2.64851e-06
2.69639e-06
2.69639e-06
2.69639e-06
3.71771e-05
3.71771e-05
3.71771e-05
3.90118e-05
3.90118e-05
3.90118e-05
3.85e-05
3.85e-05
3.85e-05
3.69041e-05
3.69041e-05
3.69041e-05
1.01326e-05
1.01326e-05
1.01326e-05
1.0819e-05
1.0819e-05
1.0819e-05
9.80595e-06
9.80595e-06
9.80595e-06
1.91706e-05
1.91706e-05
1.91706e-05
1.8457e-05
1.8457e-05
1.8457e-05
1.82669e-05
1.82669e-05
1.82669e-05
1.99136e-05
1.99136e-05
1.99136e-05
1.74072e-05
1.74072e-05
1.74072e-05
1.61722e-05
1.61722e-05
1.61722e-05
1.88447e-05
1.88447e-05
1.88447e-05
3.42376e-05
3.42376e-05
3.42376e-05
3.57632e-05
3.57632e-05
3.57632e-05
3.74847e-05
3.74847e-05
3.74847e-05
3.48231e-05
3.48231e-05
3.48231e-05
3.58952e-05
3.58952e-05
3.58952e-05
3.45021e-05
3.45021e-05
3.45021e-05
2.86129e-05
2.86129e-05
2.86129e-05
2.68624e-05
2.68624e-05
2.68624e-05
1.0271e-05
1.0271e-05
1.0271e-05
9.86999e-06
9.86999e-06
9.86999e-06
1.19875e-05
1.19875e-05
1.19875e-05
8.81142e-06
8.81142e-06
8.81142e-06
1.67093e-05
1.67093e-05
1.67093e-05
1.88235e-05
1.88235e-05
1.88235e-05
2.59052e-05
2.59052e-05
2.59052e-05
2.32855e-05
2.32855e-05
2.32855e-05
2.50567e-05
2.50567e-05
2.50567e-05
2.37523e-05
2.37523e-05
2.37523e-05
3.57719e-05
3.57719e-05
3.57719e-05
3.39119e-05
3.39119e-05
3.39119e-05
3.18668e-05
3.18668e-05
3.18668e-05
2.2995e-05
2.2995e-05
2.2995e-05
1.58292e-05
1.58292e-05
1.58292e-05
3.5271e-06
3.5271e-06
3.5271e-06
2.51845e-06
2.51845e-06
2.51845e-06
2.30527e-06
2.30527e-06
2.30527e-06
2.35321e-06
2.35321e-06
2.35321e-06
1.96511e-06
1.96511e-06
1.96511e-06
2.13909e-06
2.13909e-06
2.13909e-06
1.75841e-05
1.75841e-05
1.75841e-05
1.74523e-05
1.74523e-05
1.74523e-05
2.0893e-05
2.0893e-05
2.0893e-05
1.91938e-05
1.91938e-05
1.91938e-05
1.92186e-05
1.92186e-05
1.92186e-05
1.84799e-05
1.84799e-05
1.84799e-05
2.66941e-05
2.66941e-05
2.66941e-05
2.6232e-05
2.6232e-05
2.6232e-05
2.6852e-05
2.6852e-05
2.6852e-05
2.94522e-05
2.94522e-05
2.94522e-05
2.72181e-05
2.72181e-05
2.72181e-05
1.58442e-05
1.58442e-05
1.58442e-05
2.13608e-05
2.13608e-05
2.13608e-05
2.0143e-05
2.0143e-05
2.0143e-05
2.16384e-05
2.16384e-05
2.16384e-05
2.08917e-05
2.08917e-05
2.08917e-05
1.8823e-05
1.8823e-05
1.8823e-05
1.91281e-05
1.91281e-05
1.91281e-05
1.92306e-05
1.92306e-05
1.92306e-05
1.71252e-05
1.71252e-05
1.71252e-05
1.84942e-05
1.84942e-05
1.84942e-05
1.65367e-05
1.65367e-05
1.65367e-05
2.0748e-05
2.0748e-05
2.0748e-05
2.02944e-05
2.02944e-05
2.02944e-05
2.18114e-05
2.18114e-05
2.18114e-05
3.15852e-05
3.15852e-05
3.15852e-05
3.19105e-05
3.19105e-05
3.19105e-05
2.46453e-05
2.46453e-05
2.46453e-05
2.32996e-05
2.32996e-05
2.32996e-05
2.14317e-05
2.14317e-05
2.14317e-05
2.0952e-05
2.0952e-05
2.0952e-05
2.40434e-05
2.40434e-05
2.40434e-05
2.21159e-05
2.21159e-05
2.21159e-05
2.68137e-05
2.68137e-05
2.68137e-05
2.75733e-05
2.75733e-05
2.75733e-05
2.96814e-05
2.96814e-05
2.96814e-05
3.0934e-05
3.0934e-05
3.0934e-05
3.06339e-05
3.06339e-05
3.06339e-05
2.84563e-05
2.84563e-05
2.84563e-05
1.89777e-05
1.89777e-05
1.89777e-05
1.93791e-05
1.93791e-05
1.93791e-05
1.85817e-05
1.85817e-05
1.85817e-05
1.71901e-05
1.71901e-05
1.71901e-05
1.98195e-05
1.98195e-05
1.98195e-05
3.16221e-05
3.16221e-05
3.16221e-05
2.15419e-05
2.15419e-05
2.15419e-05
1.33391e-05
1.33391e-05
1.33391e-05
1.1626e-05
1.1626e-05
1.1626e-05
1.3074e-05
1.3074e-05
1.3074e-05
1.21944e-05
1.21944e-05
1.21944e-05
1.12457e-05
1.12457e-05
1.12457e-05
1.18021e-05
1.18021e-05
1.18021e-05
1.26524e-05
1.26524e-05
1.26524e-05
1.29017e-05
1.29017e-05
1.29017e-05
1.2231e-05
1.2231e-05
1.2231e-05
1.1409e-05
1.1409e-05
1.1409e-05
1.47878e-05
1.47878e-05
1.47878e-05
1.53661e-05
1.53661e-05
1.53661e-05
2.68588e-05
2.68588e-05
2.68588e-05
2.48516e-05
2.48516e-05
2.48516e-05
3.87501e-05
3.87501e-05
3.87501e-05
3.82484e-05
3.82484e-05
3.82484e-05
2.62028e-05
2.62028e-05
2.62028e-05
2.75759e-05
2.75759e-05
2.75759e-05
3.90042e-05
3.90042e-05
3.90042e-05
3.96596e-05
3.96596e-05
3.96596e-05
4.00035e-05
4.00035e-05
4.00035e-05
3.70437e-05
3.70437e-05
3.70437e-05
3.57699e-05
3.57699e-05
3.57699e-05
3.79937e-05
3.79937e-05
3.79937e-05
2.34815e-05
2.34815e-05
2.34815e-05
2.01173e-05
2.01173e-05
2.01173e-05
2.12145e-05
2.12145e-05
2.12145e-05
2.29216e-05
2.29216e-05
2.29216e-05
3.02214e-05
3.02214e-05
3.02214e-05
2.93464e-05
2.93464e-05
2.93464e-05
2.07014e-05
2.07014e-05
2.07014e-05
2.62739e-05
2.62739e-05
2.62739e-05
2.41626e-05
2.41626e-05
2.41626e-05
1.86712e-05
1.86712e-05
1.86712e-05
1.23856e-05
1.23856e-05
1.23856e-05
1.25866e-05
1.25866e-05
1.25866e-05
1.34949e-05
1.34949e-05
1.34949e-05
1.83659e-05
1.83659e-05
1.83659e-05
1.93795e-05
1.93795e-05
1.93795e-05
1.76081e-05
1.76081e-05
1.76081e-05
1.89496e-05
1.89496e-05
1.89496e-05
9.36033e-05
9.36033e-05
9.36033e-05
0.000115267
0.000115267
0.000115267
0.000115726
0.000115726
0.000115726
0.0001175
0.0001175
0.0001175
0.000103459
0.000103459
0.000103459
9.97366e-05
9.97366e-05
9.97366e-05
9.92389e-05
9.92389e-05
9.92389e-05
0.000127973
0.000127973
0.000127973
0.000128303
0.000128303
0.000128303
0.000127396
0.000127396
0.000127396
0.000100751
0.000100751
0.000100751
0.000101253
0.000101253
0.000101253
2.75144e-05
2.75144e-05
2.75144e-05
2.8258e-05
2.8258e-05
2.8258e-05
3.07333e-05
3.07333e-05
3.07333e-05
3.23915e-05
3.23915e-05
3.23915e-05
3.64191e-05
3.64191e-05
3.64191e-05
3.52552e-05
3.52552e-05
3.52552e-05
1.54259e-05
1.54259e-05
1.54259e-05
8.352e-06
8.352e-06
8.352e-06
2.16108e-05
2.16108e-05
2.16108e-05
4.00625e-06
4.00625e-06
4.00625e-06
1.4347e-05
1.4347e-05
1.4347e-05
1.4137e-05
1.4137e-05
1.4137e-05
7.0519e-06
7.0519e-06
7.0519e-06
6.28752e-06
6.28752e-06
6.28752e-06
0.00014647
0.00014647
0.00014647
0.000145053
0.000145053
0.000145053
0.000142413
0.000142413
0.000142413
0.00014237
0.00014237
0.00014237
0.000140982
0.000140982
0.000140982
0.000140443
0.000140443
0.000140443
0.000139097
0.000139097
0.000139097
0.000136754
0.000136754
0.000136754
0.000138391
0.000138391
0.000138391
0.000137184
0.000137184
0.000137184
0.000138508
0.000138508
0.000138508
0.000138461
0.000138461
0.000138461
0.000136487
0.000136487
0.000136487
0.000137118
0.000137118
0.000137118
0.000136126
0.000136126
0.000136126
0.000134479
0.000134479
0.000134479
0.000131204
0.000131204
0.000131204
0.000129711
0.000129711
0.000129711
0.000134255
0.000134255
0.000134255
0.000132634
0.000132634
0.000132634
0.000134874
0.000134874
0.000134874
0.000133854
0.000133854
0.000133854
0.000131563
0.000131563
0.000131563
0.000132155
0.000132155
0.000132155
0.000135722
0.000135722
0.000135722
0.000136356
0.000136356
0.000136356
0.000135227
0.000135227
0.000135227
0.000133599
0.000133599
0.000133599
0.00011292
0.00011292
0.00011292
0.000114759
0.000114759
0.000114759
0.000114266
0.000114266
0.000114266
0.000109555
0.000109555
0.000109555
0.00011126
0.00011126
0.00011126
0.000110653
0.000110653
0.000110653
0.000114541
0.000114541
0.000114541
0.000113476
0.000113476
0.000113476
0.000115699
0.000115699
0.000115699
0.000116206
0.000116206
0.000116206
0.000126305
0.000126305
0.000126305
0.000125122
0.000125122
0.000125122
0.000124486
0.000124486
0.000124486
0.000123919
0.000123919
0.000123919
0.000127791
0.000127791
0.000127791
0.000127209
0.000127209
0.000127209
0.000124659
0.000124659
0.000124659
0.000126274
0.000126274
0.000126274
0.000123718
0.000123718
0.000123718
0.000128065
0.000128065
0.000128065
0.000127446
0.000127446
0.000127446
0.000125258
0.000125258
0.000125258
0.000126452
0.000126452
0.000126452
0.000124305
0.000124305
0.000124305
0.000131793
0.000131793
0.000131793
0.000129899
0.000129899
0.000129899
0.000129286
0.000129286
0.000129286
0.000130543
0.000130543
0.000130543
0.000132684
0.000132684
0.000132684
0.000135028
0.000135028
0.000135028
0.0001333
0.0001333
0.0001333
0.000131457
0.000131457
0.000131457
0.000132703
0.000132703
0.000132703
0.000130621
0.000130621
0.000130621
0.000133315
0.000133315
0.000133315
0.000132279
0.000132279
0.000132279
0.000137348
0.000137348
0.000137348
0.000136701
0.000136701
0.000136701
0.000134093
0.000134093
0.000134093
0.000135155
0.000135155
0.000135155
0.000132894
0.000132894
0.000132894
0.000134534
0.000134534
0.000134534
0.000135666
0.000135666
0.000135666
0.000137385
0.000137385
0.000137385
0.000134545
0.000134545
0.000134545
0.000138494
0.000138494
0.000138494
0.000140299
0.000140299
0.000140299
0.00013803
0.00013803
0.00013803
0.000123109
0.000123109
0.000123109
0.000131154
0.000131154
0.000131154
0.000131778
0.000131778
0.000131778
0.000130137
0.000130137
0.000130137
0.000127909
0.000127909
0.000127909
0.000166807
0.000166807
0.000166807
0.000165111
0.000165111
0.000165111
0.000165
0.000165
0.000165
0.000157369
0.000157369
0.000157369
0.000157354
0.000157354
0.000157354
0.000155796
0.000155796
0.000155796
0.000160497
0.000160497
0.000160497
0.00015971
0.00015971
0.00015971
0.000159702
0.000159702
0.000159702
0.000158113
0.000158113
0.000158113
0.000158127
0.000158127
0.000158127
0.000157336
0.000157336
0.000157336
0.000154723
0.000154723
0.000154723
0.000155493
0.000155493
0.000155493
0.000120795
0.000120795
0.000120795
0.000118639
0.000118639
0.000118639
0.000118123
0.000118123
0.000118123
0.000119675
0.000119675
0.000119675
0.000121982
0.000121982
0.000121982
0.000122575
0.000122575
0.000122575
0.000121361
0.000121361
0.000121361
0.000125497
0.000125497
0.000125497
0.000123092
0.000123092
0.000123092
0.00012194
0.00012194
0.00012194
3.50768e-05
3.50768e-05
3.50768e-05
4.18017e-05
4.18017e-05
4.18017e-05
3.94251e-05
3.94251e-05
3.94251e-05
9.28141e-05
9.28141e-05
9.28141e-05
8.09348e-05
8.09348e-05
8.09348e-05
8.04641e-05
8.04641e-05
8.04641e-05
0.000102235
0.000102235
0.000102235
9.33251e-05
9.33251e-05
9.33251e-05
0.000111142
0.000111142
0.000111142
0.000111699
0.000111699
0.000111699
0.000101105
0.000101105
0.000101105
0.000107203
0.000107203
0.000107203
0.000105533
0.000105533
0.000105533
0.000106073
0.000106073
0.000106073
9.18245e-05
9.18245e-05
9.18245e-05
0.000100606
0.000100606
0.000100606
2.95843e-06
2.95843e-06
2.95843e-06
3.10205e-06
3.10205e-06
3.10205e-06
2.87716e-06
2.87716e-06
2.87716e-06
2.83616e-06
2.83616e-06
2.83616e-06
2.65492e-06
2.65492e-06
2.65492e-06
2.60093e-06
2.60093e-06
2.60093e-06
2.75684e-06
2.75684e-06
2.75684e-06
2.70532e-06
2.70532e-06
2.70532e-06
2.62766e-06
2.62766e-06
2.62766e-06
2.57988e-06
2.57988e-06
2.57988e-06
7.13899e-06
7.13899e-06
7.13899e-06
3.05517e-06
3.05517e-06
3.05517e-06
2.37944e-06
2.37944e-06
2.37944e-06
3.14257e-06
3.14257e-06
3.14257e-06
4.07987e-06
4.07987e-06
4.07987e-06
2.44651e-06
2.44651e-06
2.44651e-06
2.45559e-06
2.45559e-06
2.45559e-06
8.98452e-06
8.98452e-06
8.98452e-06
6.93347e-06
6.93347e-06
6.93347e-06
1.34088e-05
1.34088e-05
1.34088e-05
1.55031e-05
1.55031e-05
1.55031e-05
2.38713e-06
2.38713e-06
2.38713e-06
2.408e-06
2.408e-06
2.408e-06
2.52718e-06
2.52718e-06
2.52718e-06
2.47944e-06
2.47944e-06
2.47944e-06
2.96748e-06
2.96748e-06
2.96748e-06
2.31205e-06
2.31205e-06
2.31205e-06
2.31848e-06
2.31848e-06
2.31848e-06
2.37936e-06
2.37936e-06
2.37936e-06
2.33649e-06
2.33649e-06
2.33649e-06
2.26505e-06
2.26505e-06
2.26505e-06
2.18064e-06
2.18064e-06
2.18064e-06
3.21498e-05
3.21498e-05
3.21498e-05
2.88343e-05
2.88343e-05
2.88343e-05
1.59651e-05
1.59651e-05
1.59651e-05
2.21941e-05
2.21941e-05
2.21941e-05
2.58911e-05
2.58911e-05
2.58911e-05
2.28461e-05
2.28461e-05
2.28461e-05
2.04102e-05
2.04102e-05
2.04102e-05
2.80234e-05
2.80234e-05
2.80234e-05
2.66525e-05
2.66525e-05
2.66525e-05
3.66554e-06
3.66554e-06
3.66554e-06
4.89184e-06
4.89184e-06
4.89184e-06
3.99934e-06
3.99934e-06
3.99934e-06
5.92471e-06
5.92471e-06
5.92471e-06
5.11339e-06
5.11339e-06
5.11339e-06
4.8077e-06
4.8077e-06
4.8077e-06
4.87847e-06
4.87847e-06
4.87847e-06
3.01653e-06
3.01653e-06
3.01653e-06
3.10271e-06
3.10271e-06
3.10271e-06
0.000133079
0.000133079
0.000133079
0.000130757
0.000130757
0.000130757
5.82286e-06
5.82286e-06
5.82286e-06
4.18302e-06
4.18302e-06
4.18302e-06
1.9643e-05
1.9643e-05
1.9643e-05
3.86464e-06
3.86464e-06
3.86464e-06
0.000102539
0.000102539
0.000102539
2.27765e-05
2.27765e-05
2.27765e-05
4.42819e-06
4.42819e-06
4.42819e-06
3.16961e-06
3.16961e-06
3.16961e-06
3.02927e-06
3.02927e-06
3.02927e-06
2.90467e-06
2.90467e-06
2.90467e-06
2.9676e-06
2.9676e-06
2.9676e-06
3.90305e-06
3.90305e-06
3.90305e-06
4.50811e-06
4.50811e-06
4.50811e-06
4.57324e-06
4.57324e-06
4.57324e-06
4.6907e-06
4.6907e-06
4.6907e-06
4.75798e-06
4.75798e-06
4.75798e-06
3.4422e-06
3.4422e-06
3.4422e-06
3.22993e-06
3.22993e-06
3.22993e-06
3.28258e-06
3.28258e-06
3.28258e-06
3.69773e-06
3.69773e-06
3.69773e-06
3.81145e-06
3.81145e-06
3.81145e-06
3.78723e-06
3.78723e-06
3.78723e-06
3.54732e-06
3.54732e-06
3.54732e-06
2.8607e-06
2.8607e-06
2.8607e-06
2.91508e-06
2.91508e-06
2.91508e-06
4.90896e-06
4.90896e-06
4.90896e-06
4.86425e-06
4.86425e-06
4.86425e-06
5.22643e-06
5.22643e-06
5.22643e-06
5.51036e-06
5.51036e-06
5.51036e-06
5.45045e-06
5.45045e-06
5.45045e-06
5.21032e-06
5.21032e-06
5.21032e-06
5.01138e-06
5.01138e-06
5.01138e-06
4.80552e-06
4.80552e-06
4.80552e-06
4.73635e-06
4.73635e-06
4.73635e-06
4.27526e-06
4.27526e-06
4.27526e-06
4.45633e-06
4.45633e-06
4.45633e-06