<VTKFile type="UnstructuredGrid" version="1.0">
<UnstructuredGrid>
<Piece NumberOfPoints="10830" NumberOfCells="3610">
<Points>
<DataArray type="Float64" NumberOfComponents="3" format="ascii">
3.11035 1.27826 13.6107
3.11035 1.28831 13.6365
3.11035 1.28831 13.585
3.11035 1.28831 14.1401
3.11035 1.27701 14.1655
3.11035 1.28831 14.191
3.11035 1.28831 14.1401
3.11035 1.26002 14.1401
3.11035 1.27701 14.1655
3.11035 0.0244388 14.6126
3.11035 4.44089e-16 14.63
3.11035 0.0422213 14.63
3.11035 4.44089e-16 14.63
3.11035 0.0244388 14.6126
3.11035 -7.90479e-14 14.5998
3.11035 1.28831 14.1401
3.11035 1.27702 14.1147
3.11035 1.26002 14.1401
3.11035 0.00863377 13.8618
3.11035 1.50546e-13 13.8366
3.11035 1.49658e-13 13.887
3.11035 1.27705 13.8619
3.11035 1.26004 13.8871
3.11035 1.28831 13.8871
3.11035 1.27684 13.7613
3.11035 1.28831 13.7864
3.11035 1.28831 13.7363
3.11035 1.26004 13.8871
3.11035 1.27707 13.9123
3.11035 1.28831 13.8871
3.11035 1.28831 13.8871
3.11035 1.27707 13.9123
3.11035 1.28831 13.9375
3.11035 1.26005 13.9376
3.11035 1.28831 13.9375
3.11035 1.27707 13.9123
3.11035 1.26003 14.0893
3.11035 1.24613 14.1147
3.11035 1.27702 14.1147
3.11035 1.24613 14.1147
3.11035 1.26002 14.1401
3.11035 1.27702 14.1147
3.11035 1.24613 14.1147
3.11035 1.26003 14.0893
3.11035 1.23052 14.0893
3.11035 1.24613 14.1147
3.11035 1.23052 14.1401
3.11035 1.26002 14.1401
3.11035 1.28831 13.988
3.11035 1.27705 14.0133
3.11035 1.28831 14.0386
3.11035 1.27705 14.0133
3.11035 1.24616 14.0133
3.11035 1.26004 14.0386
3.11035 1.28831 14.0386
3.11035 1.27705 14.0133
3.11035 1.26004 14.0386
3.11035 1.28831 14.0893
3.11035 1.26003 14.0893
3.11035 1.27702 14.1147
3.11035 1.28831 14.1401
3.11035 1.28831 14.0893
3.11035 1.27702 14.1147
3.11035 1.25981 13.7363
3.11035 1.27684 13.7613
3.11035 1.28831 13.7363
3.11035 1.26002 14.191
3.11035 1.28831 14.191
3.11035 1.27701 14.1655
3.11035 0.85884 14.3707
3.11035 0.888295 14.3707
3.11035 0.873578 14.345
3.11035 4.44089e-16 13.585
3.11035 0.00987207 13.6097
3.11035 0.0277369 13.585
3.11035 0.0840033 13.8366
3.11035 0.0689903 13.8114
3.11035 0.0549577 13.8366
3.11035 0.0264927 13.8366
3.11035 0.0392653 13.8618
3.11035 0.0549577 13.8366
3.11035 0.0264927 13.8366
3.11035 1.50546e-13 13.8366
3.11035 0.00863377 13.8618
3.11035 0.0392653 13.8618
3.11035 0.0264927 13.8366
3.11035 0.00863377 13.8618
3.11035 0.0087521 14.0639
3.11035 1.48326e-13 14.0386
3.11035 -9.59233e-14 14.0893
3.11035 0.0265703 14.0893
3.11035 0.0550657 14.0893
3.11035 0.0393699 14.0639
3.11035 -9.59233e-14 14.0893
3.11035 0.0265703 14.0893
3.11035 0.0087521 14.0639
3.11035 0.0265703 14.0893
3.11035 0.0393699 14.0639
3.11035 0.0087521 14.0639
3.11035 0.0265544 14.0386
3.11035 0.0393699 14.0639
3.11035 0.0550443 14.0386
3.11035 0.0265544 14.0386
3.11035 1.48326e-13 14.0386
3.11035 0.0087521 14.0639
3.11035 0.0393699 14.0639
3.11035 0.0265544 14.0386
3.11035 0.0087521 14.0639
3.11035 1.49658e-13 13.887
3.11035 0.0265126 13.887
3.11035 0.00863377 13.8618
3.11035 0.0265126 13.887
3.11035 0.0392653 13.8618
3.11035 0.00863377 13.8618
3.11035 0.0550657 14.0893
3.11035 0.0691236 14.0639
3.11035 0.0393699 14.0639
3.11035 0.0393699 14.0639
3.11035 0.0691236 14.0639
3.11035 0.0550443 14.0386
3.11035 0.288852 14.0387
3.11035 0.274248 14.064
3.11035 0.303471 14.064
3.11035 0.274248 14.064
3.11035 0.288872 14.0894
3.11035 0.303471 14.064
3.11035 0.288872 14.0894
3.11035 0.318088 14.0894
3.11035 0.303471 14.064
3.11035 0.844143 14.345
3.11035 0.85884 14.3707
3.11035 0.873578 14.345
3.11035 1.27699 13.8116
3.11035 1.28831 13.8367
3.11035 1.28831 13.7864
3.11035 1.28831 13.8871
3.11035 1.28831 13.8367
3.11035 1.27705 13.8619
3.11035 1.17079 13.9881
3.11035 1.15586 13.9628
3.11035 1.14088 13.9881
3.11035 1.26004 13.9881
3.11035 1.24616 14.0133
3.11035 1.27705 14.0133
3.11035 1.28831 13.988
3.11035 1.26004 13.9881
3.11035 1.27705 14.0133
3.11035 1.24616 14.0133
3.11035 1.23053 14.0386
3.11035 1.26004 14.0386
3.11035 1.27704 14.0639
3.11035 1.28831 14.0386
3.11035 1.26004 14.0386
3.11035 1.28831 14.0386
3.11035 1.27704 14.0639
3.11035 1.28831 14.0893
3.11035 1.27704 14.0639
3.11035 1.26003 14.0893
3.11035 1.28831 14.0893
3.11035 1.24591 13.7614
3.11035 1.27684 13.7613
3.11035 1.25981 13.7363
3.11035 1.27699 13.8116
3.11035 1.26001 13.8367
3.11035 1.28831 13.8367
3.11035 1.26001 13.8367
3.11035 1.27705 13.8619
3.11035 1.28831 13.8367
3.11035 1.15573 13.8116
3.11035 1.1706 13.7864
3.11035 1.1407 13.7864
3.11035 1.20051 13.7865
3.11035 1.21561 13.7613
3.11035 1.18556 13.7613
3.11035 1.20051 13.7865
3.11035 1.18556 13.7613
3.11035 1.1706 13.7864
3.11035 1.24614 13.8619
3.11035 1.26004 13.8871
3.11035 1.27705 13.8619
3.11035 1.24614 13.8619
3.11035 1.27705 13.8619
3.11035 1.26001 13.8367
3.11035 1.24612 14.1656
3.11035 1.27701 14.1655
3.11035 1.26002 14.1401
3.11035 1.27701 14.1655
3.11035 1.24612 14.1656
3.11035 1.26002 14.191
3.11035 1.23052 14.1401
3.11035 1.24612 14.1656
3.11035 1.26002 14.1401
3.11035 1.24611 14.3191
3.11035 1.23051 14.2934
3.11035 1.21584 14.3191
3.11035 1.21584 14.2677
3.11035 1.23051 14.2934
3.11035 1.24611 14.2677
3.11035 1.27699 14.2165
3.11035 1.28831 14.191
3.11035 1.26002 14.191
3.11035 1.24611 14.2166
3.11035 1.27699 14.2165
3.11035 1.26002 14.191
3.11035 0.917741 14.4223
3.11035 0.902954 14.4482
3.11035 0.932465 14.4482
3.11035 1.08109 14.2934
3.11035 1.11094 14.2934
3.11035 1.09602 14.2678
3.11035 1.11094 14.2934
3.11035 1.12589 14.2678
3.11035 1.09602 14.2678
3.11035 1.2305 14.2421
3.11035 1.24611 14.2166
3.11035 1.21584 14.2166
3.11035 1.2305 14.2421
3.11035 1.21584 14.2677
3.11035 1.24611 14.2677
3.11035 1.0662 14.2678
3.11035 1.08109 14.2934
3.11035 1.09602 14.2678
3.11035 0.991917 14.0387
3.11035 0.977089 14.0134
3.11035 0.962274 14.0387
3.11035 0.917902 14.0134
3.11035 0.888384 14.0134
3.11035 0.903138 14.0387
3.11035 0.932681 14.0387
3.11035 0.917902 14.0134
3.11035 0.903138 14.0387
3.11035 0.903119 13.9377
3.11035 0.917893 13.9629
3.11035 0.932664 13.9377
3.11035 0.917893 13.9629
3.11035 0.903119 13.9377
3.11035 0.888374 13.9629
3.11035 0.903119 13.9377
3.11035 0.873625 13.9376
3.11035 0.888374 13.9629
3.11035 0.917893 13.9629
3.11035 0.947463 13.9629
3.11035 0.932664 13.9377
3.11035 0.962233 13.8872
3.11035 0.947444 13.9124
3.11035 0.977066 13.9124
3.11035 0.947444 13.9124
3.11035 0.962233 13.8872
3.11035 0.932637 13.8872
3.11035 0.741456 14.0641
3.11035 0.770765 14.0641
3.11035 0.756104 14.0387
3.11035 0.756104 14.0387
3.11035 0.770765 14.0641
3.11035 0.785431 14.0388
3.11035 0.903133 13.9882
3.11035 0.917893 13.9629
3.11035 0.888374 13.9629
3.11035 0.903133 13.9882
3.11035 0.888384 14.0134
3.11035 0.917902 14.0134
3.11035 0.888384 14.0134
3.11035 0.873639 13.9882
3.11035 0.858913 14.0134
3.11035 0.873639 13.9882
3.11035 0.888384 14.0134
3.11035 0.903133 13.9882
3.11035 0.888374 13.9629
3.11035 0.873639 13.9882
3.11035 0.903133 13.9882
3.11035 0.873625 13.9376
3.11035 0.858884 13.9124
3.11035 0.844177 13.9376
3.11035 0.844153 13.8872
3.11035 0.858884 13.9124
3.11035 0.873599 13.8872
3.11035 0.318069 14.0387
3.11035 0.288852 14.0387
3.11035 0.303471 14.064
3.11035 0.288852 14.0387
3.11035 0.318069 14.0387
3.11035 0.303454 14.0134
3.11035 0.00864568 13.6599
3.11035 -9.63674e-14 13.6344
3.11035 1.49658e-13 13.6851
3.11035 4.44089e-16 13.585
3.11035 -9.63674e-14 13.6344
3.11035 0.00987207 13.6097
3.11035 0.0264295 13.7357
3.11035 0.00849117 13.7104
3.11035 1.50546e-13 13.7357
3.11035 1.50546e-13 13.7357
3.11035 0.00849117 13.7104
3.11035 1.49658e-13 13.6851
3.11035 1.28831 13.585
3.11035 1.26122 13.585
3.11035 1.27826 13.6107
3.11035 1.50546e-13 13.8366
3.11035 0.00859461 13.8114
3.11035 1.50546e-13 13.7861
3.11035 0.00859461 13.8114
3.11035 1.50546e-13 13.8366
3.11035 0.0264927 13.8366
3.11035 0.0264637 13.7861
3.11035 1.50546e-13 13.7861
3.11035 0.00859461 13.8114
3.11035 0.0264637 13.7861
3.11035 0.0549232 13.7862
3.11035 0.0391815 13.7609
3.11035 0.0392276 13.8114
3.11035 0.0549577 13.8366
3.11035 0.0689903 13.8114
3.11035 0.0549577 13.8366
3.11035 0.0392276 13.8114
3.11035 0.0264927 13.8366
3.11035 0.0549232 13.7862
3.11035 0.0392276 13.8114
3.11035 0.0689903 13.8114
3.11035 0.0392276 13.8114
3.11035 0.0549232 13.7862
3.11035 0.0264637 13.7861
3.11035 0.0264927 13.8366
3.11035 0.0392276 13.8114
3.11035 0.00859461 13.8114
3.11035 0.00859461 13.8114
3.11035 0.0392276 13.8114
3.11035 0.0264637 13.7861
3.11035 0.00854014 13.7609
3.11035 1.50546e-13 13.7357
3.11035 1.50546e-13 13.7861
3.11035 0.00854014 13.7609
3.11035 0.0264295 13.7357
3.11035 1.50546e-13 13.7357
3.11035 0.0264295 13.7357
3.11035 0.00854014 13.7609
3.11035 0.0391815 13.7609
3.11035 0.00854014 13.7609
3.11035 1.50546e-13 13.7861
3.11035 0.0264637 13.7861
3.11035 0.0391815 13.7609
3.11035 0.00854014 13.7609
3.11035 0.0264637 13.7861
3.11035 0.0690987 14.0133
3.11035 0.0393425 14.0133
3.11035 0.0550443 14.0386
3.11035 0.0550443 14.0386
3.11035 0.0393425 14.0133
3.11035 0.0265544 14.0386
3.11035 0.0393425 14.0133
3.11035 0.0690987 14.0133
3.11035 0.0550252 13.988
3.11035 0.0690242 13.8618
3.11035 0.0840033 13.8366
3.11035 0.0549577 13.8366
3.11035 0.0392653 13.8618
3.11035 0.0690242 13.8618
3.11035 0.0549577 13.8366
3.11035 0.0984777 13.8618
3.11035 0.0840033 13.8366
3.11035 0.0690242 13.8618
3.11035 0.0840313 13.887
3.11035 0.0984777 13.8618
3.11035 0.0690242 13.8618
3.11035 0.0840313 13.887
3.11035 0.113251 13.887
3.11035 0.0984777 13.8618
3.11035 0.303441 13.9628
3.11035 0.288836 13.9881
3.11035 0.318055 13.9881
3.11035 0.288836 13.9881
3.11035 0.303454 14.0134
3.11035 0.318055 13.9881
3.11035 0.186476 14.0133
3.11035 0.201123 14.0386
3.11035 0.215741 14.0133
3.11035 0.201103 13.988
3.11035 0.186476 14.0133
3.11035 0.215741 14.0133
3.11035 0.215723 13.9628
3.11035 0.230345 13.9375
3.11035 0.201085 13.9375
3.11035 0.201103 13.988
3.11035 0.215723 13.9628
3.11035 0.186456 13.9628
3.11035 0.215723 13.9628
3.11035 0.201085 13.9375
3.11035 0.186456 13.9628
3.11035 0.215762 14.064
3.11035 0.230402 14.0893
3.11035 0.245012 14.064
3.11035 0.157245 14.1147
[...]
<PointData Scalars="View Factor" >
<DataArray type="Float64" Name="View Factor" NumberOfComponents="1" format="ascii">
4.36682e-06
4.36682e-06
4.36682e-06
4.05181e-06
4.05181e-06
4.05181e-06
4.06123e-06
4.06123e-06
4.06123e-06
2.26761e-06
2.26761e-06
2.26761e-06
2.42277e-06
2.42277e-06
2.42277e-06
4.07046e-06
4.07046e-06
4.07046e-06
2.74638e-06
2.74638e-06
2.74638e-06
4.21123e-06
4.21123e-06
4.21123e-06
4.27838e-06
4.27838e-06
4.27838e-06
4.20169e-06
4.20169e-06
4.20169e-06
4.19194e-06
4.19194e-06
4.19194e-06
4.18268e-06
4.18268e-06
4.18268e-06
4.08465e-06
4.08465e-06
4.08465e-06
4.0754e-06
4.0754e-06
4.0754e-06
4.08963e-06
4.08963e-06
4.08963e-06
4.07112e-06
4.07112e-06
4.07112e-06
4.13533e-06
4.13533e-06
4.13533e-06
4.1312e-06
4.1312e-06
4.1312e-06
4.12619e-06
4.12619e-06
4.12619e-06
4.08896e-06
4.08896e-06
4.08896e-06
4.07948e-06
4.07948e-06
4.07948e-06
4.28831e-06
4.28831e-06
4.28831e-06
4.04284e-06
4.04284e-06
4.04284e-06
1.01247e-07
1.01247e-07
1.01247e-07
2.7438e-06
2.7438e-06
2.7438e-06
1.94755e-06
1.94755e-06
1.94755e-06
2.31416e-06
2.31416e-06
2.31416e-06
2.65145e-06
2.65145e-06
2.65145e-06
2.47999e-06
2.47999e-06
2.47999e-06
3.80947e-06
3.80947e-06
3.80947e-06
3.74702e-06
3.74702e-06
3.74702e-06
3.8109e-06
3.8109e-06
3.8109e-06
3.8245e-06
3.8245e-06
3.8245e-06
3.57743e-06
3.57743e-06
3.57743e-06
3.67427e-06
3.67427e-06
3.67427e-06
3.6801e-06
3.6801e-06
3.6801e-06
2.63941e-06
2.63941e-06
2.63941e-06
2.47436e-06
2.47436e-06
2.47436e-06
3.76276e-06
3.76276e-06
3.76276e-06
3.58601e-06
3.58601e-06
3.58601e-06
3.04976e-06
3.04976e-06
3.04976e-06
3.40962e-06
3.40962e-06
3.40962e-06
3.30803e-06
3.30803e-06
3.30803e-06
0
0
0
4.24939e-06
4.24939e-06
4.24939e-06
4.22056e-06
4.22056e-06
4.22056e-06
3.70964e-06
3.70964e-06
3.70964e-06
4.14057e-06
4.14057e-06
4.14057e-06
4.14493e-06
4.14493e-06
4.14493e-06
4.12688e-06
4.12688e-06
4.12688e-06
4.11685e-06
4.11685e-06
4.11685e-06
4.10731e-06
4.10731e-06
4.10731e-06
4.09824e-06
4.09824e-06
4.09824e-06
4.28381e-06
4.28381e-06
4.28381e-06
4.23999e-06
4.23999e-06
4.23999e-06
4.23038e-06
4.23038e-06
4.23038e-06
3.53784e-06
3.53784e-06
3.53784e-06
4.09404e-06
4.09404e-06
4.09404e-06
3.91898e-06
3.91898e-06
3.91898e-06
4.21634e-06
4.21634e-06
4.21634e-06
4.22592e-06
4.22592e-06
4.22592e-06
4.05695e-06
4.05695e-06
4.05695e-06
4.04775e-06
4.04775e-06
4.04775e-06
4.0619e-06
4.0619e-06
4.0619e-06
3.97541e-06
3.97541e-06
3.97541e-06
3.99356e-06
3.99356e-06
3.99356e-06
4.03367e-06
4.03367e-06
4.03367e-06
4.0294e-06
4.0294e-06
4.0294e-06
5.7216e-07
5.7216e-07
5.7216e-07
2.64796e-06
2.64796e-06
2.64796e-06
2.80924e-06
2.80924e-06
2.80924e-06
4.02092e-06
4.02092e-06
4.02092e-06
4.00266e-06
4.00266e-06
4.00266e-06
2.46101e-06
2.46101e-06
2.46101e-06
3.07739e-06
3.07739e-06
3.07739e-06
2.57164e-06
2.57164e-06
2.57164e-06
2.80514e-06
2.80514e-06
2.80514e-06
1.30772e-06
1.30772e-06
1.30772e-06
1.32275e-06
1.32275e-06
1.32275e-06
1.03878e-06
1.03878e-06
1.03878e-06
1.60279e-06
1.60279e-06
1.60279e-06
1.15153e-06
1.15153e-06
1.15153e-06
9.8505e-07
9.8505e-07
9.8505e-07
3.04632e-06
3.04632e-06
3.04632e-06
2.90869e-06
2.90869e-06
2.90869e-06
1.66251e-06
1.66251e-06
1.66251e-06
2.30864e-06
2.30864e-06
2.30864e-06
2.14413e-06
2.14413e-06
2.14413e-06
2.03786e-06
2.03786e-06
2.03786e-06
1.69953e-06
1.69953e-06
1.69953e-06
4.13571e-07
4.13571e-07
4.13571e-07
0
0
0
2.91208e-06
2.91208e-06
2.91208e-06
2.58222e-06
2.58222e-06
2.58222e-06
2.82277e-06
2.82277e-06
2.82277e-06
2.84212e-06
2.84212e-06
2.84212e-06
2.69414e-06
2.69414e-06
2.69414e-06
2.80339e-06
2.80339e-06
2.80339e-06
4.37728e-06
4.37728e-06
4.37728e-06
2.76521e-06
2.76521e-06
2.76521e-06
2.6575e-06
2.6575e-06
2.6575e-06
2.66964e-06
2.66964e-06
2.66964e-06
2.33534e-06
2.33534e-06
2.33534e-06
2.11902e-06
2.11902e-06
2.11902e-06
2.31943e-06
2.31943e-06
2.31943e-06
2.12385e-06
2.12385e-06
2.12385e-06
2.33003e-06
2.33003e-06
2.33003e-06
2.49131e-06
2.49131e-06
2.49131e-06
2.497e-06
2.497e-06
2.497e-06
2.7842e-06
2.7842e-06
2.7842e-06
2.68799e-06
2.68799e-06
2.68799e-06
2.51415e-06
2.51415e-06
2.51415e-06
2.67574e-06
2.67574e-06
2.67574e-06
2.50841e-06
2.50841e-06
2.50841e-06
3.26361e-06
3.26361e-06
3.26361e-06
3.43223e-06
3.43223e-06
3.43223e-06
3.11949e-06
3.11949e-06
3.11949e-06
1.94312e-06
1.94312e-06
1.94312e-06
2.1094e-06
2.1094e-06
2.1094e-06
1.77242e-06
1.77242e-06
1.77242e-06
1.7684e-06
1.7684e-06
1.7684e-06
1.59843e-06
1.59843e-06
1.59843e-06
1.52756e-06
1.52756e-06
1.52756e-06
1.89132e-06
1.89132e-06
1.89132e-06
2.53587e-06
2.53587e-06
2.53587e-06
2.26533e-06
2.26533e-06
2.26533e-06
9.61405e-07
9.61405e-07
9.61405e-07
1.60073e-06
1.60073e-06
1.60073e-06
1.25073e-06
1.25073e-06
1.25073e-06
3.41078e-06
3.41078e-06
3.41078e-06
3.35766e-06
3.35766e-06
3.35766e-06
2.77477e-06
2.77477e-06
2.77477e-06
2.67653e-06
2.67653e-06
2.67653e-06
3.6771e-06
3.6771e-06
3.6771e-06
2.92985e-06
2.92985e-06
2.92985e-06
2.95572e-06
2.95572e-06
2.95572e-06
2.61139e-06
2.61139e-06
2.61139e-06
3.47052e-06
3.47052e-06
3.47052e-06
3.29609e-06
3.29609e-06
3.29609e-06
3.12408e-06
3.12408e-06
3.12408e-06
2.18438e-06
2.18438e-06
2.18438e-06
2.52958e-06
2.52958e-06
2.52958e-06
2.33619e-06
2.33619e-06
2.33619e-06
2.9122e-06
2.9122e-06
2.9122e-06
3.04988e-06
3.04988e-06
3.04988e-06
3.26662e-06
3.26662e-06
3.26662e-06
3.30816e-06
3.30816e-06
3.30816e-06
3.30828e-06
3.30828e-06
3.30828e-06
3.41067e-06
3.41067e-06
3.41067e-06
3.2665e-06
3.2665e-06
3.2665e-06
3.21206e-06
3.21206e-06
3.21206e-06
2.74576e-06
2.74576e-06
2.74576e-06
2.90965e-06
2.90965e-06
2.90965e-06
3.00838e-06
3.00838e-06
3.00838e-06
3.21217e-06
3.21217e-06
3.21217e-06
1.81815e-06
1.81815e-06
1.81815e-06
1.33395e-06
1.33395e-06
1.33395e-06
1.1477e-06
1.1477e-06
1.1477e-06
6.91773e-07
6.91773e-07
6.91773e-07
8.26565e-07
8.26565e-07
8.26565e-07
2.90954e-06
2.90954e-06
2.90954e-06
3.26637e-06
3.26637e-06
3.26637e-06
3.21194e-06
3.21194e-06
3.21194e-06
0
0
0
0
0
0
0
0
0
0
0
0
0
0
0
0
0
0
0
0
0
0
0
0
0
0
0
0
0
0
0
0
0
0
0
0
0
0
0
0
0
0
0
0
0
0
0
0
0
0
0
0
0
0
0
0
0
0
0
0
0
0
0
0
0
0
0
0
0
0
0
0
0
0
0
2.65328e-06
2.65328e-06
2.65328e-06
1.04626e-06
1.04626e-06
1.04626e-06
1.41608e-06
1.41608e-06
1.41608e-06
1.75858e-06
1.75858e-06
1.75858e-06
1.57004e-06
1.57004e-06
1.57004e-06
4.0903e-06
4.0903e-06
4.0903e-06
4.07607e-06
4.07607e-06
4.07607e-06
4.08533e-06
4.08533e-06
4.08533e-06
4.04773e-06
4.04773e-06
4.04773e-06
1.35707e-06
1.35707e-06
1.35707e-06
1.35399e-06
1.35399e-06
1.35399e-06
1.52666e-06
1.52666e-06
1.52666e-06
3.72925e-06
3.72925e-06
3.72925e-06
3.6145e-06
3.6145e-06
3.6145e-06
4.15434e-06
4.15434e-06
4.15434e-06
4.15938e-06
4.15938e-06
4.15938e-06
4.16353e-06
4.16353e-06
4.16353e-06
4.17321e-06
4.17321e-06
4.17321e-06
4.16881e-06
4.16881e-06
4.16881e-06
4.07485e-06
4.07485e-06
4.07485e-06
4.09958e-06
4.09958e-06
4.09958e-06
4.09891e-06
4.09891e-06
4.09891e-06
4.11754e-06
4.11754e-06
4.11754e-06
4.10389e-06
4.10389e-06
4.10389e-06
4.11321e-06
4.11321e-06
4.11321e-06
4.10321e-06
4.10321e-06
4.10321e-06
4.11252e-06
4.11252e-06
4.11252e-06
4.25927e-06
4.25927e-06
4.25927e-06
4.26893e-06
4.26893e-06
4.26893e-06
4.27411e-06
4.27411e-06
4.27411e-06
4.29802e-06
4.29802e-06
4.29802e-06
3.54591e-06
3.54591e-06
3.54591e-06
3.71963e-06
3.71963e-06
3.71963e-06
4.23108e-06
4.23108e-06
4.23108e-06
4.24139e-06
4.24139e-06
4.24139e-06
4.22662e-06
4.22662e-06
4.22662e-06
4.23177e-06
4.23177e-06
4.23177e-06
4.0435e-06
4.0435e-06
4.0435e-06
4.03433e-06
4.03433e-06
4.03433e-06
4.03007e-06
4.03007e-06
4.03007e-06
3.96635e-06
3.96635e-06
3.96635e-06
3.25975e-06
3.25975e-06
3.25975e-06
1.54859e-06
1.54859e-06
1.54859e-06
1.01016e-07
1.01016e-07
1.01016e-07
2.62977e-07
2.62977e-07
2.62977e-07
2.62377e-07
2.62377e-07
2.62377e-07
2.64192e-06
2.64192e-06
2.64192e-06
2.62989e-06
2.62989e-06
2.62989e-06
3.4509e-06
3.4509e-06
3.4509e-06
3.45878e-06
3.45878e-06
3.45878e-06
3.49972e-06
3.49972e-06
3.49972e-06
3.60655e-06
3.60655e-06
3.60655e-06
3.47147e-06
3.47147e-06
3.47147e-06
3.46222e-06
3.46222e-06
3.46222e-06
3.74853e-06
3.74853e-06
3.74853e-06
3.72997e-06
3.72997e-06
3.72997e-06
3.672e-06
3.672e-06
3.672e-06
4.01603e-06
4.01603e-06
4.01603e-06
4.0069e-06
4.0069e-06
4.0069e-06
4.02026e-06
4.02026e-06
4.02026e-06
3.98026e-06
3.98026e-06
3.98026e-06
3.80713e-06
3.80713e-06
3.80713e-06
3.98934e-06
3.98934e-06
3.98934e-06
3.82452e-06
3.82452e-06
3.82452e-06
3.65255e-06
3.65255e-06
3.65255e-06
3.66089e-06
3.66089e-06
3.66089e-06
3.33622e-06
3.33622e-06
3.33622e-06
3.17549e-06
3.17549e-06
3.17549e-06
3.3098e-06
3.3098e-06
3.3098e-06
2.61561e-06
2.61561e-06
2.61561e-06
2.68108e-06
2.68108e-06
2.68108e-06
2.43155e-06
2.43155e-06
2.43155e-06
3.085e-06
3.085e-06
3.085e-06
3.21726e-06
3.21726e-06
3.21726e-06
3.20778e-06
3.20778e-06
3.20778e-06
3.04534e-06
3.04534e-06
3.04534e-06
2.90774e-06
2.90774e-06
2.90774e-06
2.57834e-06
2.57834e-06
2.57834e-06
2.38649e-06
2.38649e-06
2.38649e-06
2.90807e-06
2.90807e-06
2.90807e-06
2.57864e-06
2.57864e-06
2.57864e-06
3.40471e-06
3.40471e-06
3.40471e-06
3.30317e-06
3.30317e-06
3.30317e-06
3.21701e-06
3.21701e-06
3.21701e-06
3.20743e-06
3.20743e-06
3.20743e-06
3.21647e-06
3.21647e-06
3.21647e-06
3.30354e-06
3.30354e-06
3.30354e-06
2.72544e-06
2.72544e-06
2.72544e-06
2.94141e-06
2.94141e-06
2.94141e-06
2.86497e-06
2.86497e-06
2.86497e-06
2.65309e-06
2.65309e-06
2.65309e-06
1.14653e-06
1.14653e-06
1.14653e-06
2.9055e-06
2.9055e-06
2.9055e-06
1.33256e-06
1.33256e-06
1.33256e-06
6.65142e-07
6.65142e-07
6.65142e-07
2.79008e-07
2.79008e-07
2.79008e-07
3.3201e-07
3.3201e-07
3.3201e-07
1.07662e-07
1.07662e-07
1.07662e-07
6.15437e-07
6.15437e-07
6.15437e-07
4.46739e-07
4.46739e-07
4.46739e-07
6.5306e-07
6.5306e-07
6.5306e-07
9.66909e-07
9.66909e-07
9.66909e-07
1.00071e-06
1.00071e-06
1.00071e-06
8.16193e-07
8.16193e-07
8.16193e-07
2.13183e-06
2.13183e-06
2.13183e-06
2.37261e-06
2.37261e-06
2.37261e-06
2.38858e-06
2.38858e-06
2.38858e-06
2.09272e-06
2.09272e-06
2.09272e-06
3.20985e-06
3.20985e-06
3.20985e-06
3.21887e-06
3.21887e-06
3.21887e-06
2.38839e-06
2.38839e-06
2.38839e-06
2.58064e-06
2.58064e-06
2.58064e-06
2.74383e-06
2.74383e-06
2.74383e-06
2.90767e-06
2.90767e-06
2.90767e-06
2.74405e-06
2.74405e-06
2.74405e-06
2.33833e-06
2.33833e-06
2.33833e-06
2.16853e-06
2.16853e-06
2.16853e-06
2.34014e-06
2.34014e-06
2.34014e-06
2.5792e-06
2.5792e-06
2.5792e-06
1.88907e-06
1.88907e-06
1.88907e-06
2.09157e-06
2.09157e-06
2.09157e-06
2.38728e-06
2.38728e-06
2.38728e-06
3.30424e-06
3.30424e-06
3.30424e-06
3.4058e-06
3.4058e-06
3.4058e-06
1.88927e-06
1.88927e-06
1.88927e-06
2.90899e-06
2.90899e-06
2.90899e-06
2.57947e-06
2.57947e-06
2.57947e-06
1.52573e-06
1.52573e-06
1.52573e-06
0
0
0
0
0
0
2.29226e-07
2.29226e-07
2.29226e-07
1.88844e-06
1.88844e-06
1.88844e-06
2.09088e-06
2.09088e-06
2.09088e-06
1.52539e-06
1.52539e-06
1.52539e-06
1.88866e-06
1.88866e-06
1.88866e-06
0
0
0
4.0396e-07
4.0396e-07
4.0396e-07
8.17764e-07
8.17764e-07
8.17764e-07
9.85627e-07
9.85627e-07
9.85627e-07
0
0
0
1.80484e-07
1.80484e-07
1.80484e-07
0
0
0
1.60572e-06
1.60572e-06
1.60572e-06
1.7805e-06
1.7805e-06
1.7805e-06
1.60937e-06
1.60937e-06
1.60937e-06
9.85511e-07
9.85511e-07
9.85511e-07
1.3674e-06
1.3674e-06
1.3674e-06
2.38876e-06
2.38876e-06
2.38876e-06
2.58084e-06
2.58084e-06
2.58084e-06
2.91053e-06
2.91053e-06
2.91053e-06
3.04819e-06
3.04819e-06
3.04819e-06
3.30629e-06
3.30629e-06
3.30629e-06
3.40788e-06
3.40788e-06
3.40788e-06
3.74023e-06
3.74023e-06
3.74023e-06
4.37251e-06
4.37251e-06
4.37251e-06
4.37801e-06
4.37801e-06
4.37801e-06
2.83765e-06
2.83765e-06
2.83765e-06
3.61118e-06
3.61118e-06
3.61118e-06
3.61929e-06
3.61929e-06
3.61929e-06
2.46245e-06
2.46245e-06
2.46245e-06
2.47369e-06
2.47369e-06
2.47369e-06
3.73607e-06
3.73607e-06
3.73607e-06
3.78933e-06
3.78933e-06
3.78933e-06
3.48004e-06
3.48004e-06
3.48004e-06
3.55599e-06
3.55599e-06
3.55599e-06
3.41706e-06
3.41706e-06
3.41706e-06
3.1145e-06
3.1145e-06
3.1145e-06
2.92282e-06
2.92282e-06
2.92282e-06
2.65502e-06
2.65502e-06
2.65502e-06
2.85607e-06
2.85607e-06
2.85607e-06
2.63341e-06
2.63341e-06
2.63341e-06
2.7277e-06
2.7277e-06
2.7277e-06
2.75593e-06
2.75593e-06
2.75593e-06
2.46313e-06
2.46313e-06
2.46313e-06
2.5325e-06
2.5325e-06
2.5325e-06
2.45078e-06
2.45078e-06
2.45078e-06
2.18142e-06
2.18142e-06
2.18142e-06
1.76038e-06
1.76038e-06
1.76038e-06
1.59481e-06
1.59481e-06
1.59481e-06
2.30365e-06
2.30365e-06
2.30365e-06
2.1046e-06
2.1046e-06
2.1046e-06
2.29842e-06
2.29842e-06
2.29842e-06
2.09506e-06
2.09506e-06
2.09506e-06
1.93431e-06
1.93431e-06
1.93431e-06
1.92992e-06
1.92992e-06
1.92992e-06
2.57614e-06
2.57614e-06
2.57614e-06
2.76366e-06
2.76366e-06
2.76366e-06
2.73662e-06
2.73662e-06
2.73662e-06
2.54069e-06
2.54069e-06
2.54069e-06
1.52762e-06
1.52762e-06
1.52762e-06
1.36751e-06
1.36751e-06
1.36751e-06
9.85592e-07
9.85592e-07
9.85592e-07
1.36746e-06
1.36746e-06
1.36746e-06
2.39001e-06
2.39001e-06
2.39001e-06
2.09398e-06
2.09398e-06
2.09398e-06
2.58233e-06
2.58233e-06
2.58233e-06
1.89139e-06
1.89139e-06
1.89139e-06
2.09406e-06
2.09406e-06
2.09406e-06
2.3901e-06
2.3901e-06
2.3901e-06
2.43042e-06
2.43042e-06
2.43042e-06
1.82549e-06
1.82549e-06
1.82549e-06
2.17077e-06
2.17077e-06
2.17077e-06
1.85262e-06
1.85262e-06
1.85262e-06
2.36748e-06
2.36748e-06
2.36748e-06
2.08258e-06
2.08258e-06
2.08258e-06
3.13976e-06
3.13976e-06
3.13976e-06
3.06257e-06
3.06257e-06
3.06257e-06
3.34201e-06
3.34201e-06
3.34201e-06
3.37024e-06
3.37024e-06
3.37024e-06
3.40802e-06
3.40802e-06
3.40802e-06
3.46991e-06
3.46991e-06
3.46991e-06
3.28692e-06
3.28692e-06
3.28692e-06
3.30181e-06
3.30181e-06
3.30181e-06
2.48012e-06
2.48012e-06
2.48012e-06
2.58565e-06
2.58565e-06
2.58565e-06
2.91133e-06
2.91133e-06
2.91133e-06
3.10275e-06
3.10275e-06
3.10275e-06
3.01827e-06
3.01827e-06
3.01827e-06
2.64738e-06
2.64738e-06
2.64738e-06
2.72148e-06
2.72148e-06
2.72148e-06
3.43702e-06
3.43702e-06
3.43702e-06
2.52667e-06
2.52667e-06
2.52667e-06
2.55109e-06
2.55109e-06
2.55109e-06
2.74957e-06
2.74957e-06
2.74957e-06
2.77549e-06
2.77549e-06
2.77549e-06
3.70661e-06
3.70661e-06
3.70661e-06
3.50045e-06
3.50045e-06
3.50045e-06
3.40628e-06
3.40628e-06
3.40628e-06
3.37363e-06
3.37363e-06
3.37363e-06
2.97052e-06
2.97052e-06
2.97052e-06
3.17227e-06
3.17227e-06
3.17227e-06
2.38132e-06
2.38132e-06
2.38132e-06
2.36486e-06
2.36486e-06
2.36486e-06
2.15526e-06
2.15526e-06
2.15526e-06
2.55991e-06
2.55991e-06
2.55991e-06
2.55468e-06
2.55468e-06
2.55468e-06
2.12331e-06
2.12331e-06
2.12331e-06
1.67082e-06
1.67082e-06
1.67082e-06
1.9645e-06
1.9645e-06
1.9645e-06
1.66852e-06
1.66852e-06
1.66852e-06
1.3881e-06
1.3881e-06
1.3881e-06
1.45008e-06
1.45008e-06
1.45008e-06
2.43225e-06
2.43225e-06
2.43225e-06
2.08773e-06
2.08773e-06
2.08773e-06
2.15291e-06
2.15291e-06
2.15291e-06
2.56508e-06
2.56508e-06
2.56508e-06
2.46513e-06
2.46513e-06
2.46513e-06
2.31102e-06
2.31102e-06
2.31102e-06
2.44246e-06
2.44246e-06
2.44246e-06
2.54741e-06
2.54741e-06
2.54741e-06
2.44815e-06
2.44815e-06
2.44815e-06
2.29516e-06
2.29516e-06
2.29516e-06
2.45947e-06
2.45947e-06
2.45947e-06
2.30044e-06
2.30044e-06
2.30044e-06
2.12026e-06
2.12026e-06
2.12026e-06
2.11542e-06
2.11542e-06
2.11542e-06
3.04998e-06
3.04998e-06
3.04998e-06
2.9123e-06
2.9123e-06
2.9123e-06
2.58242e-06
2.58242e-06
2.58242e-06
2.39018e-06
2.39018e-06
2.39018e-06
2.64909e-06
2.64909e-06
2.64909e-06
2.96407e-06
2.96407e-06
2.96407e-06
2.74586e-06
2.74586e-06
2.74586e-06
2.80318e-06
2.80318e-06
2.80318e-06
2.90975e-06
2.90975e-06
2.90975e-06
2.37589e-06
2.37589e-06
2.37589e-06
1.67038e-06
1.67038e-06
1.67038e-06
2.3579e-06
2.3579e-06
2.3579e-06
2.16914e-06
2.16914e-06
2.16914e-06
2.16973e-06
2.16973e-06
2.16973e-06
1.33402e-06
1.33402e-06
1.33402e-06
1.67055e-06
1.67055e-06
1.67055e-06
1.67063e-06
1.67063e-06
1.67063e-06
1.81807e-06
1.81807e-06
1.81807e-06
2.74565e-06
2.74565e-06
2.74565e-06
2.37572e-06
2.37572e-06
2.37572e-06
2.37562e-06
2.37562e-06
2.37562e-06
2.16983e-06
2.16983e-06
2.16983e-06
3.21181e-06
3.21181e-06
3.21181e-06
2.90943e-06
2.90943e-06
2.90943e-06
2.9093e-06
2.9093e-06
2.9093e-06
2.74554e-06
2.74554e-06
2.74554e-06
0
0
0
0
0
0
0
0
0
0
0
0
0
0
0
0
0
0
0
0
0
0
0
0
0
0
0
0
0
0
2.11644e-07
2.11644e-07
2.11644e-07
0
0
0
0
0
0
0
0
0
0
0
0
0
0
0
0
0
0
3.4041e-07
3.4041e-07
3.4041e-07
2.11624e-07
2.11624e-07
2.11624e-07
6.9113e-07
6.9113e-07
6.9113e-07
8.25734e-07
8.25734e-07
8.25734e-07
0
0
0
0
0
0
0
0
0
0
0
0
0
0
0
0
0
0
0
0
0
0
0
0
0
0
0
1.01711e-07
1.01711e-07
1.01711e-07
1.01943e-07
1.01943e-07
1.01943e-07
2.1678e-06
2.1678e-06
2.1678e-06
1.81646e-06
1.81646e-06
1.81646e-06
8.25811e-07
8.25811e-07
8.25811e-07
1.33269e-06
1.33269e-06
1.33269e-06
1.66888e-06
1.66888e-06
1.66888e-06
1.33282e-06
1.33282e-06
1.33282e-06
1.14664e-06
1.14664e-06
1.14664e-06
1.81629e-06
1.81629e-06
1.81629e-06
1.66904e-06
1.66904e-06
1.66904e-06
0
0
0
0
0
0
0
0
0
0
0
0
0
0
0
0
0
0
0
0
0
0
0
0
0
0
0
1.10265e-06
1.10265e-06
1.10265e-06
1.09278e-06
1.09278e-06
1.09278e-06
0
0
0
0
0
0
3.40725e-07
3.40725e-07
3.40725e-07
0
0
0
0
0
0
1.14704e-06
1.14704e-06
1.14704e-06
0
0
0
0
0
0
0
0
0
0
0
0
0
0
0
0
0
0
0
0
0
0
0
0
0
0
0
0
0
0
0
0
0
0
0
0
0
0
0
0
0
0
0
0
0
0
0
0
0
0
0
0
0
0
0
0
0
0
0
0
0
0
0
0
0
0
0
0
0
0
0
0
0
0
0
0
0
0
0
0
0
0
0
0
8.95012e-07
8.95012e-07
8.95012e-07
7.41586e-07
7.41586e-07
7.41586e-07
2.18681e-06
2.18681e-06
2.18681e-06
2.35085e-06
2.35085e-06
2.35085e-06
2.50497e-06
2.50497e-06
2.50497e-06
1.40961e-06
1.40961e-06
1.40961e-06
1.40638e-06
1.40638e-06
1.40638e-06
1.75054e-06
1.75054e-06
1.75054e-06
1.56645e-06
1.56645e-06
1.56645e-06
1.25588e-06
1.25588e-06
1.25588e-06
1.25877e-06
1.25877e-06
1.25877e-06
2.73328e-06
2.73328e-06
2.73328e-06
3.2672e-06
3.2672e-06
3.2672e-06
3.81486e-06
3.81486e-06
3.81486e-06
3.81454e-06
3.81454e-06
3.81454e-06
3.8193e-06
3.8193e-06
3.8193e-06
3.81957e-06
3.81957e-06
3.81957e-06
3.78958e-06
3.78958e-06
3.78958e-06
4.07178e-06
4.07178e-06
4.07178e-06
4.02642e-06
4.02642e-06
4.02642e-06
3.90138e-06
3.90138e-06
3.90138e-06
3.8311e-06
3.8311e-06
3.8311e-06
3.80688e-06
3.80688e-06
3.80688e-06
3.96059e-06
3.96059e-06
3.96059e-06
3.91284e-06
3.91284e-06
3.91284e-06
3.88974e-06
3.88974e-06
3.88974e-06
3.95779e-06
3.95779e-06
3.95779e-06
3.97446e-06
3.97446e-06
3.97446e-06
3.86438e-06
3.86438e-06
3.86438e-06
3.71221e-06
3.71221e-06
3.71221e-06
3.76681e-06
3.76681e-06
3.76681e-06
3.76318e-06
3.76318e-06
3.76318e-06
3.87501e-06
3.87501e-06
3.87501e-06
3.90542e-06
3.90542e-06
3.90542e-06
3.56612e-06
3.56612e-06
3.56612e-06
3.53333e-06
3.53333e-06
3.53333e-06
3.57513e-06
3.57513e-06
3.57513e-06
3.47962e-06
3.47962e-06
3.47962e-06
3.33135e-06
3.33135e-06
3.33135e-06
3.19021e-06
3.19021e-06
3.19021e-06
3.35449e-06
3.35449e-06
3.35449e-06
3.38717e-06
3.38717e-06
3.38717e-06
3.27112e-06
3.27112e-06
3.27112e-06
4.15503e-06
4.15503e-06
4.15503e-06
4.14562e-06
4.14562e-06
4.14562e-06
3.35236e-06
3.35236e-06
3.35236e-06
3.50323e-06
3.50323e-06
3.50323e-06
4.1739e-06
4.1739e-06
4.1739e-06
3.93921e-06
3.93921e-06
3.93921e-06
3.79701e-06
3.79701e-06
3.79701e-06
4.33261e-06
4.33261e-06
4.33261e-06
4.30326e-06
4.30326e-06
4.30326e-06
4.31302e-06
4.31302e-06
4.31302e-06
4.32727e-06
4.32727e-06
4.32727e-06
4.31749e-06
4.31749e-06
4.31749e-06
4.30748e-06
4.30748e-06
4.30748e-06
4.3368e-06
4.3368e-06
4.3368e-06
4.10337e-06
4.10337e-06
4.10337e-06
4.1221e-06
4.1221e-06
4.1221e-06
3.93744e-06
3.93744e-06
3.93744e-06
4.1315e-06
4.1315e-06
4.1315e-06
4.27037e-06
4.27037e-06
4.27037e-06
4.26068e-06
4.26068e-06
4.26068e-06
4.27485e-06
4.27485e-06
4.27485e-06
4.26964e-06
4.26964e-06
4.26964e-06
4.24068e-06
4.24068e-06
4.24068e-06
4.24513e-06
4.24513e-06
4.24513e-06
4.25477e-06
4.25477e-06
4.25477e-06
4.25997e-06
4.25997e-06
4.25997e-06
4.24585e-06
4.24585e-06
4.24585e-06
4.25549e-06
4.25549e-06
4.25549e-06
3.88351e-06
3.88351e-06
3.88351e-06
4.0478e-06
4.0478e-06
4.0478e-06
3.70274e-06
3.70274e-06
3.70274e-06
3.69433e-06
3.69433e-06
3.69433e-06
3.91007e-06
3.91007e-06
3.91007e-06
3.89234e-06
3.89234e-06
3.89234e-06
4.07547e-06
4.07547e-06
4.07547e-06
4.06622e-06
4.06622e-06
4.06622e-06
3.63593e-06
3.63593e-06
3.63593e-06
3.79846e-06
3.79846e-06
3.79846e-06
3.96215e-06
3.96215e-06
3.96215e-06
3.41174e-06
3.41174e-06