<VTKFile type="UnstructuredGrid" version="1.0">
<UnstructuredGrid>
<Piece NumberOfPoints="10830" NumberOfCells="3610">
<Points>
<DataArray type="Float64" NumberOfComponents="3" format="ascii">
3.10314 1.29552 3.16075
3.11025 1.28841 3.135
3.11025 1.28841 3.18646
3.11025 1.28841 3.69008
3.11025 1.28841 3.741
3.10226 1.2964 3.71553
3.11025 1.28841 3.69008
3.10226 1.2964 3.71553
3.09025 1.30841 3.6901
2.21656 2.1821 4.16259
2.22913 2.16953 4.18
2.19928 2.19938 4.18
2.19928 2.19938 4.18
2.19928 2.19938 4.14984
2.21656 2.1821 4.16259
3.11025 1.28841 3.69008
3.09025 1.30841 3.6901
3.10227 1.29639 3.66468
2.20538 2.19328 3.41179
2.19928 2.19938 3.43701
2.19928 2.19938 3.38657
3.10229 1.29637 3.4119
3.11025 1.28841 3.43709
3.09026 1.3084 3.43711
3.10214 1.29652 3.31134
3.11025 1.28841 3.28628
3.11025 1.28841 3.33639
3.09026 1.3084 3.43711
3.11025 1.28841 3.43709
3.1023 1.29636 3.46231
3.11025 1.28841 3.43709
3.11025 1.28841 3.48754
3.1023 1.29636 3.46231
3.09026 1.3084 3.48755
3.1023 1.29636 3.46231
3.11025 1.28841 3.48754
3.09025 1.30841 3.63931
3.10227 1.29639 3.66468
3.08043 1.31823 3.6647
3.08043 1.31823 3.6647
3.10227 1.29639 3.66468
3.09025 1.30841 3.6901
3.08043 1.31823 3.6647
3.06939 1.32927 3.63932
3.09025 1.30841 3.63931
3.08043 1.31823 3.6647
3.09025 1.30841 3.6901
3.06938 1.32928 3.69012
3.11025 1.28841 3.53804
3.11025 1.28841 3.58862
3.10229 1.29637 3.56333
3.10229 1.29637 3.56333
3.09026 1.3084 3.58863
3.08044 1.31822 3.56334
3.11025 1.28841 3.58862
3.09026 1.3084 3.58863
3.10229 1.29637 3.56333
3.11025 1.28841 3.63929
3.10227 1.29639 3.66468
3.09025 1.30841 3.63931
3.11025 1.28841 3.69008
3.10227 1.29639 3.66468
3.11025 1.28841 3.63929
3.0901 1.30856 3.28632
3.11025 1.28841 3.28628
3.10214 1.29652 3.31134
3.09024 1.30842 3.74102
3.10226 1.2964 3.71553
3.11025 1.28841 3.741
2.80657 1.59209 3.92075
2.81699 1.58167 3.89498
2.8274 1.57126 3.92072
2.19928 2.19938 3.135
2.21889 2.17977 3.135
2.20626 2.1924 3.1597
2.25868 2.13998 3.38659
2.23814 2.16052 3.38657
2.24806 2.1506 3.36137
2.21801 2.18065 3.38656
2.23814 2.16052 3.38657
2.22704 2.17162 3.41178
2.21801 2.18065 3.38656
2.20538 2.19328 3.41179
2.19928 2.19938 3.38657
2.22704 2.17162 3.41178
2.20538 2.19328 3.41179
2.21801 2.18065 3.38656
2.20547 2.19319 3.61394
2.19928 2.19938 3.6393
2.19928 2.19938 3.58861
2.21807 2.1806 3.6393
2.22712 2.17155 3.61393
2.23821 2.16045 3.63929
2.19928 2.19938 3.6393
2.20547 2.19319 3.61394
2.21807 2.1806 3.6393
2.21807 2.1806 3.6393
2.20547 2.19319 3.61394
2.22712 2.17155 3.61393
2.21805 2.18061 3.5886
2.2382 2.16046 3.5886
2.22712 2.17155 3.61393
2.21805 2.18061 3.5886
2.20547 2.19319 3.61394
2.19928 2.19938 3.58861
2.22712 2.17155 3.61393
2.20547 2.19319 3.61394
2.21805 2.18061 3.5886
2.19928 2.19938 3.43701
2.20538 2.19328 3.41179
2.21802 2.18064 3.437
2.21802 2.18064 3.437
2.20538 2.19328 3.41179
2.22704 2.17162 3.41178
2.23821 2.16045 3.63929
2.22712 2.17155 3.61393
2.24816 2.15051 3.61393
2.22712 2.17155 3.61393
2.2382 2.16046 3.5886
2.24816 2.15051 3.61393
2.40353 1.99513 3.58867
2.41386 1.9848 3.61401
2.3932 2.00546 3.614
2.3932 2.00546 3.614
2.41386 1.9848 3.61401
2.40354 1.99512 3.63937
2.40354 1.99512 3.63937
2.41386 1.9848 3.61401
2.4242 1.97446 3.63938
2.79618 1.60248 3.895
2.81699 1.58167 3.89498
2.80657 1.59209 3.92075
3.10224 1.29642 3.36156
3.11025 1.28841 3.33639
3.11025 1.28841 3.3867
3.11025 1.28841 3.43709
3.10229 1.29637 3.4119
3.11025 1.28841 3.3867
3.02715 1.37151 3.5381
3.006 1.39266 3.53811
3.01659 1.38207 3.51285
3.09026 1.3084 3.53805
3.10229 1.29637 3.56333
3.08044 1.31822 3.56334
3.11025 1.28841 3.53804
3.10229 1.29637 3.56333
3.09026 1.3084 3.53805
3.08044 1.31822 3.56334
3.09026 1.3084 3.58863
3.0694 1.32926 3.58865
3.10228 1.29638 3.61395
3.09026 1.3084 3.58863
3.11025 1.28841 3.58862
3.11025 1.28841 3.58862
3.11025 1.28841 3.63929
3.10228 1.29638 3.61395
3.10228 1.29638 3.61395
3.11025 1.28841 3.63929
3.09025 1.30841 3.63931
3.08027 1.31839 3.31137
3.0901 1.30856 3.28632
3.10214 1.29652 3.31134
3.10224 1.29642 3.36156
3.11025 1.28841 3.3867
3.09024 1.30842 3.38674
3.09024 1.30842 3.38674
3.11025 1.28841 3.3867
3.10229 1.29637 3.4119
3.0165 1.38216 3.36161
3.00588 1.39278 3.33643
3.02702 1.37164 3.33643
3.04817 1.35049 3.33645
3.03759 1.36107 3.31126
3.05884 1.33982 3.31131
3.04817 1.35049 3.33645
3.02702 1.37164 3.33643
3.03759 1.36107 3.31126
3.08043 1.31823 3.41193
3.10229 1.29637 3.4119
3.09026 1.3084 3.43711
3.08043 1.31823 3.41193
3.09024 1.30842 3.38674
3.10229 1.29637 3.4119
3.08042 1.31824 3.71555
3.09025 1.30841 3.6901
3.10226 1.2964 3.71553
3.10226 1.2964 3.71553
3.09024 1.30842 3.74102
3.08042 1.31824 3.71555
3.06938 1.32928 3.69012
3.09025 1.30841 3.6901
3.08042 1.31824 3.71555
3.08041 1.31825 3.86905
3.05901 1.33965 3.86906
3.06938 1.32928 3.84337
3.05901 1.33966 3.81774
3.08041 1.31825 3.81772
3.06938 1.32928 3.84337
3.10225 1.29641 3.76653
3.09024 1.30842 3.74102
3.11025 1.28841 3.741
3.08041 1.31825 3.76656
3.09024 1.30842 3.74102
3.10225 1.29641 3.76653
2.84822 1.55044 3.97232
2.85863 1.54003 3.99816
2.83776 1.5609 3.9982
2.96373 1.43493 3.84343
2.97428 1.42438 3.81779
2.98483 1.41383 3.84341
2.98483 1.41383 3.84341
2.97428 1.42438 3.81779
2.9954 1.40326 3.81778
3.06938 1.32929 3.79213
3.05901 1.33965 3.76658
3.08041 1.31825 3.76656
3.06938 1.32929 3.79213
3.08041 1.31825 3.81772
3.05901 1.33966 3.81774
2.95319 1.44547 3.81781
2.97428 1.42438 3.81779
2.96373 1.43493 3.84343
2.90067 1.49799 3.58874
2.87971 1.51895 3.58874
2.89018 1.50848 3.56344
2.84833 1.55033 3.56344
2.83789 1.56077 3.58875
2.82746 1.5712 3.56344
2.85878 1.53988 3.58875
2.83789 1.56077 3.58875
2.84833 1.55033 3.56344
2.83788 1.56078 3.48765
2.85877 1.53989 3.48765
2.84833 1.55034 3.51289
2.84833 1.55034 3.51289
2.82745 1.57121 3.51289
2.83788 1.56078 3.48765
2.83788 1.56078 3.48765
2.82745 1.57121 3.51289
2.81702 1.58164 3.48764
2.84833 1.55034 3.51289
2.85877 1.53989 3.48765
2.86924 1.52943 3.5129
2.87968 1.51898 3.43723
2.89017 1.50849 3.46244
2.86922 1.52944 3.46243
2.86922 1.52944 3.46243
2.85875 1.53991 3.43723
2.87968 1.51898 3.43723
2.72357 1.6751 3.61409
2.73392 1.66474 3.58875
2.74429 1.65437 3.61409
2.73392 1.66474 3.58875
2.75466 1.644 3.58875
2.74429 1.65437 3.61409
2.83789 1.56077 3.53816
2.82745 1.57121 3.51289
2.84833 1.55034 3.51289
2.83789 1.56077 3.53816
2.84833 1.55033 3.56344
2.82746 1.5712 3.56344
2.82746 1.5712 3.56344
2.80662 1.59204 3.56344
2.81703 1.58163 3.53815
2.81703 1.58163 3.53815
2.83789 1.56077 3.53816
2.82746 1.5712 3.56344
2.82745 1.57121 3.51289
2.83789 1.56077 3.53816
2.81703 1.58163 3.53815
2.81702 1.58164 3.48764
2.7962 1.60246 3.48764
2.8066 1.59206 3.46241
2.79618 1.60248 3.43719
2.81701 1.58166 3.43721
2.8066 1.59206 3.46241
2.42419 1.97447 3.58868
2.41386 1.9848 3.61401
2.40353 1.99513 3.58867
2.40353 1.99513 3.58867
2.41385 1.98481 3.56336
2.42419 1.97447 3.58868
2.20539 2.19327 3.20987
2.19928 2.19938 3.23509
2.19928 2.19938 3.18442
2.19928 2.19938 3.135
2.20626 2.1924 3.1597
2.19928 2.19938 3.18442
2.21797 2.1807 3.2857
2.19928 2.19938 3.28567
2.20528 2.19338 3.26042
2.19928 2.19938 3.28567
2.19928 2.19938 3.23509
2.20528 2.19338 3.26042
3.11025 1.28841 3.135
3.10314 1.29552 3.16075
3.0911 1.30756 3.135
2.19928 2.19938 3.38657
2.19928 2.19938 3.33614
2.20536 2.19331 3.36136
2.20536 2.19331 3.36136
2.21801 2.18065 3.38656
2.19928 2.19938 3.38657
2.21799 2.18067 3.33613
2.20536 2.19331 3.36136
2.19928 2.19938 3.33614
2.21799 2.18067 3.33613
2.22698 2.17168 3.31094
2.23811 2.16055 3.33616
2.22702 2.17165 3.36135
2.24806 2.1506 3.36137
2.23814 2.16052 3.38657
2.23814 2.16052 3.38657
2.21801 2.18065 3.38656
2.22702 2.17165 3.36135
2.23811 2.16055 3.33616
2.24806 2.1506 3.36137
2.22702 2.17165 3.36135
2.22702 2.17165 3.36135
2.21799 2.18067 3.33613
2.23811 2.16055 3.33616
2.21801 2.18065 3.38656
2.20536 2.19331 3.36136
2.22702 2.17165 3.36135
2.20536 2.19331 3.36136
2.21799 2.18067 3.33613
2.22702 2.17165 3.36135
2.20532 2.19334 3.31091
2.19928 2.19938 3.33614
2.19928 2.19938 3.28567
2.20532 2.19334 3.31091
2.19928 2.19938 3.28567
2.21797 2.1807 3.2857
2.21797 2.1807 3.2857
2.22698 2.17168 3.31094
2.20532 2.19334 3.31091
2.20532 2.19334 3.31091
2.21799 2.18067 3.33613
2.19928 2.19938 3.33614
2.22698 2.17168 3.31094
2.21799 2.18067 3.33613
2.20532 2.19334 3.31091
2.24814 2.15052 3.56329
2.2382 2.16046 3.5886
2.2271 2.17156 3.56329
2.2382 2.16046 3.5886
2.21805 2.18061 3.5886
2.2271 2.17156 3.56329
2.2271 2.17156 3.56329
2.23819 2.16048 3.538
2.24814 2.15052 3.56329
2.24809 2.15058 3.41179
2.23814 2.16052 3.38657
2.25868 2.13998 3.38659
2.22704 2.17162 3.41178
2.23814 2.16052 3.38657
2.24809 2.15058 3.41179
2.26891 2.12975 3.4118
2.24809 2.15058 3.41179
2.25868 2.13998 3.38659
2.2587 2.13996 3.43701
2.24809 2.15058 3.41179
2.26891 2.12975 3.4118
2.2587 2.13996 3.43701
2.26891 2.12975 3.4118
2.27936 2.1193 3.43702
2.41384 1.98482 3.5128
2.42418 1.97448 3.53807
2.40352 1.99515 3.53807
2.40352 1.99515 3.53807
2.42418 1.97448 3.53807
2.41385 1.98481 3.56336
2.33114 2.06753 3.56332
2.35183 2.04683 3.56333
2.34149 2.05717 3.58863
2.34148 2.05718 3.53804
2.35183 2.04683 3.56333
2.33114 2.06753 3.56332
2.35182 2.04684 3.51277
2.34147 2.05719 3.48752
2.36216 2.03651 3.48753
2.34148 2.05718 3.53804
2.33112 2.06754 3.51276
2.35182 2.04684 3.51277
2.35182 2.04684 3.51277
2.33112 2.06754 3.51276
2.34147 2.05719 3.48752
2.35184 2.04682 3.61398
2.37253 2.02613 3.61399
2.3622 2.03646 3.63934
2.31047 2.08819 3.6647
2.32082 2.07785 3.63932
2.33117 2.06749 3.66471
2.3208 2.07786 3.58862
2.33114 2.06753 3.56332
2.34149 2.05717 3.58863
2.31043 2.08823 3.56331
2.33114 2.06753 3.56332
2.3208 2.07786 3.58862
2.23821 2.16045 3.63929
2.24816 2.15051 3.61393
2.25876 2.1399 3.63929
2.24814 2.15052 3.56329
2.23819 2.16048 3.538
2.25873 2.13993 3.538
2.25873 2.13993 3.538
2.26896 2.1297 3.56329
2.24814 2.15052 3.56329
2.30008 2.09858 3.53801
2.31043 2.08823 3.56331
2.28971 2.10895 3.5633
2.25874 2.13992 3.5886
2.24816 2.15051 3.61393
2.2382 2.16046 3.5886
2.25874 2.13992 3.5886
[...]
<PointData Scalars="View Factor" >
<DataArray type="Float64" Name="View Factor" NumberOfComponents="1" format="ascii">
0.00038424
0.00038424
0.00038424
0.000474714
0.000474714
0.000474714
0.000468773
0.000468773
0.000468773
6.42957e-05
6.42957e-05
6.42957e-05
3.31705e-05
3.31705e-05
3.31705e-05
0.000465661
0.000465661
0.000465661
3.55473e-05
3.55473e-05
3.55473e-05
0.000422388
0.000422388
0.000422388
0.000406414
0.000406414
0.000406414
0.000425124
0.000425124
0.000425124
0.000430415
0.000430415
0.000430415
0.000430616
0.000430616
0.000430616
0.000456974
0.000456974
0.000456974
0.000459989
0.000459989
0.000459989
0.000450953
0.000450953
0.000450953
0.000456927
0.000456927
0.000456927
0.000447444
0.000447444
0.000447444
0.000442252
0.000442252
0.000442252
0.000447686
0.000447686
0.000447686
0.000459584
0.000459584
0.000459584
0.000465379
0.000465379
0.000465379
0.00040145
0.00040145
0.00040145
0.000475034
0.000475034
0.000475034
5.45602e-05
5.45602e-05
5.45602e-05
2.63386e-05
2.63386e-05
2.63386e-05
0.000128227
0.000128227
0.000128227
0.000138386
0.000138386
0.000138386
3.70174e-05
3.70174e-05
3.70174e-05
6.05002e-05
6.05002e-05
6.05002e-05
6.36493e-05
6.36493e-05
6.36493e-05
0.000164535
0.000164535
0.000164535
7.61134e-05
7.61134e-05
7.61134e-05
8.5126e-05
8.5126e-05
8.5126e-05
0.000159211
0.000159211
0.000159211
6.79024e-05
6.79024e-05
6.79024e-05
8.02316e-05
8.02316e-05
8.02316e-05
4.10948e-05
4.10948e-05
4.10948e-05
6.13463e-05
6.13463e-05
6.13463e-05
0.000158979
0.000158979
0.000158979
0.000156341
0.000156341
0.000156341
4.37063e-05
4.37063e-05
4.37063e-05
4.7608e-05
4.7608e-05
4.7608e-05
4.97495e-05
4.97495e-05
4.97495e-05
6.54921e-05
6.54921e-05
6.54921e-05
0.000414214
0.000414214
0.000414214
0.000422214
0.000422214
0.000422214
0.000402698
0.000402698
0.000402698
0.000439394
0.000439394
0.000439394
0.000441909
0.000441909
0.000441909
0.000439288
0.000439288
0.000439288
0.000450628
0.000450628
0.000450628
0.000456293
0.000456293
0.000456293
0.000456562
0.000456562
0.000456562
0.000399098
0.000399098
0.000399098
0.000414378
0.000414378
0.000414378
0.000417044
0.000417044
0.000417044
0.000375423
0.000375423
0.000375423
0.000385827
0.000385827
0.000385827
0.000382383
0.000382383
0.000382383
0.000417296
0.000417296
0.000417296
0.000414635
0.000414635
0.000414635
0.000466126
0.000466126
0.000466126
0.000469234
0.000469234
0.000469234
0.000459969
0.000459969
0.000459969
0.000485575
0.000485575
0.000485575
0.000479031
0.000479031
0.000479031
0.000478232
0.000478232
0.000478232
0.000475538
0.000475538
0.000475538
0.000250114
0.000250114
0.000250114
0.000430235
0.000430235
0.000430235
0.000434632
0.000434632
0.000434632
0.000469458
0.000469458
0.000469458
0.000475799
0.000475799
0.000475799
0.000421751
0.000421751
0.000421751
0.000326367
0.000326367
0.000326367
0.000182731
0.000182731
0.000182731
0.000259389
0.000259389
0.000259389
0.00024339
0.00024339
0.00024339
0.000164893
0.000164893
0.000164893
3.84106e-05
3.84106e-05
3.84106e-05
0.000275883
0.000275883
0.000275883
0.000295761
0.000295761
0.000295761
0.000283475
0.000283475
0.000283475
5.71208e-05
5.71208e-05
5.71208e-05
5.52802e-05
5.52802e-05
5.52802e-05
0.000168998
0.000168998
0.000168998
0.000177701
0.000177701
0.000177701
4.94974e-05
4.94974e-05
4.94974e-05
4.82428e-05
4.82428e-05
4.82428e-05
4.45935e-05
4.45935e-05
4.45935e-05
3.47576e-05
3.47576e-05
3.47576e-05
3.03122e-05
3.03122e-05
3.03122e-05
4.17703e-05
4.17703e-05
4.17703e-05
3.85025e-05
3.85025e-05
3.85025e-05
2.25886e-05
2.25886e-05
2.25886e-05
2.0811e-05
2.0811e-05
2.0811e-05
2.88534e-05
2.88534e-05
2.88534e-05
2.54754e-05
2.54754e-05
2.54754e-05
0.00037964
0.00037964
0.00037964
3.19064e-05
3.19064e-05
3.19064e-05
3.52215e-05
3.52215e-05
3.52215e-05
3.23939e-05
3.23939e-05
3.23939e-05
0.000133509
0.000133509
0.000133509
0.000132313
0.000132313
0.000132313
0.000137159
0.000137159
0.000137159
0.000131085
0.000131085
0.000131085
0.0001347
0.0001347
0.0001347
5.89689e-05
5.89689e-05
5.89689e-05
5.81914e-05
5.81914e-05
5.81914e-05
2.85223e-05
2.85223e-05
2.85223e-05
2.95468e-05
2.95468e-05
2.95468e-05
5.50422e-05
5.50422e-05
5.50422e-05
3.12684e-05
3.12684e-05
3.12684e-05
5.56835e-05
5.56835e-05
5.56835e-05
0.000151575
0.000151575
0.000151575
0.000156927
0.000156927
0.000156927
0.000149414
0.000149414
0.000149414
0.000129417
0.000129417
0.000129417
0.000134767
0.000134767
0.000134767
0.000125276
0.000125276
0.000125276
0.000126583
0.000126583
0.000126583
0.000120298
0.000120298
0.000120298
3.05482e-05
3.05482e-05
3.05482e-05
3.29079e-05
3.29079e-05
3.29079e-05
3.68978e-05
3.68978e-05
3.68978e-05
3.4095e-05
3.4095e-05
3.4095e-05
2.62582e-05
2.62582e-05
2.62582e-05
2.93594e-05
2.93594e-05
2.93594e-05
2.72253e-05
2.72253e-05
2.72253e-05
4.75101e-05
4.75101e-05
4.75101e-05
5.67137e-05
5.67137e-05
5.67137e-05
3.84004e-05
3.84004e-05
3.84004e-05
3.68763e-05
3.68763e-05
3.68763e-05
0.000155394
0.000155394
0.000155394
0.000143482
0.000143482
0.000143482
0.000139932
0.000139932
0.000139932
3.40458e-05
3.40458e-05
3.40458e-05
0.000150001
0.000150001
0.000150001
0.000147681
0.000147681
0.000147681
0.000142079
0.000142079
0.000142079
8.36948e-05
8.36948e-05
8.36948e-05
2.55885e-05
2.55885e-05
2.55885e-05
4.49647e-05
4.49647e-05
4.49647e-05
4.17309e-05
4.17309e-05
4.17309e-05
4.36598e-05
4.36598e-05
4.36598e-05
5.41755e-05
5.41755e-05
5.41755e-05
4.96847e-05
4.96847e-05
4.96847e-05
4.9629e-05
4.9629e-05
4.9629e-05
4.75565e-05
4.75565e-05
4.75565e-05
5.42794e-05
5.42794e-05
5.42794e-05
5.68325e-05
5.68325e-05
5.68325e-05
6.53431e-05
6.53431e-05
6.53431e-05
6.2342e-05
6.2342e-05
6.2342e-05
6.22213e-05
6.22213e-05
6.22213e-05
5.67845e-05
5.67845e-05
5.67845e-05
8.42666e-05
8.42666e-05
8.42666e-05
9.93637e-05
9.93637e-05
9.93637e-05
0.000104162
0.000104162
0.000104162
0.000115871
0.000115871
0.000115871
0.000112927
0.000112927
0.000112927
6.24453e-05
6.24453e-05
6.24453e-05
5.43566e-05
5.43566e-05
5.43566e-05
5.69321e-05
5.69321e-05
5.69321e-05
5.86588e-05
5.86588e-05
5.86588e-05
4.89117e-05
4.89117e-05
4.89117e-05
5.31401e-05
5.31401e-05
5.31401e-05
6.37682e-05
6.37682e-05
6.37682e-05
8.06845e-05
8.06845e-05
8.06845e-05
9.20565e-05
9.20565e-05
9.20565e-05
0.000144829
0.000144829
0.000144829
8.7842e-05
8.7842e-05
8.7842e-05
9.31151e-06
9.31151e-06
9.31151e-06
8.9164e-06
8.9164e-06
8.9164e-06
9.76447e-06
9.76447e-06
9.76447e-06
9.85579e-06
9.85579e-06
9.85579e-06
8.52214e-06
8.52214e-06
8.52214e-06
8.42335e-06
8.42335e-06
8.42335e-06
8.77436e-06
8.77436e-06
8.77436e-06
9.18074e-06
9.18074e-06
9.18074e-06
9.02657e-06
9.02657e-06
9.02657e-06
8.66863e-06
8.66863e-06
8.66863e-06
8.2295e-06
8.2295e-06
8.2295e-06
1.01481e-05
1.01481e-05
1.01481e-05
9.44438e-06
9.44438e-06
9.44438e-06
9.5836e-06
9.5836e-06
9.5836e-06
1.00499e-05
1.00499e-05
1.00499e-05
1.04408e-05
1.04408e-05
1.04408e-05
1.16062e-05
1.16062e-05
1.16062e-05
0.000499351
0.000499351
0.000499351
0.000398729
0.000398729
0.000398729
0.000399078
0.000399078
0.000399078
0.000419911
0.000419911
0.000419911
0.000412786
0.000412786
0.000412786
0.00044223
0.00044223
0.00044223
0.000451079
0.000451079
0.000451079
0.000448132
0.000448132
0.000448132
0.000438985
0.000438985
0.000438985
0.000307551
0.000307551
0.000307551
0.000309658
0.000309658
0.000309658
0.000317007
0.000317007
0.000317007
0.000400084
0.000400084
0.000400084
0.000393848
0.000393848
0.000393848
0.000439042
0.000439042
0.000439042
0.000433723
0.000433723
0.000433723
0.000438822
0.000438822
0.000438822
0.000433411
0.000433411
0.000433411
0.000430937
0.000430937
0.000430937
0.000433261
0.000433261
0.000433261
0.000439326
0.000439326
0.000439326
0.000447992
0.000447992
0.000447992
0.000442173
0.000442173
0.000442173
0.000442266
0.000442266
0.000442266
0.000439388
0.000439388
0.000439388
0.000451013
0.000451013
0.000451013
0.00044807
0.00044807
0.00044807
0.000409148
0.000409148
0.000409148
0.000406545
0.000406545
0.000406545
0.000401639
0.000401639
0.000401639
0.000398932
0.000398932
0.000398932
0.000373081
0.000373081
0.000373081
0.000376443
0.000376443
0.000376443
0.000409209
0.000409209
0.000409209
0.00039875
0.00039875
0.00039875
0.000406613
0.000406613
0.000406613
0.000401297
0.000401297
0.000401297
0.000466117
0.000466117
0.000466117
0.000469244
0.000469244
0.000469244
0.000466334
0.000466334
0.000466334
0.000488892
0.000488892
0.000488892
0.000476051
0.000476051
0.000476051
0.000429906
0.000429906
0.000429906
3.26331e-05
3.26331e-05
3.26331e-05
9.27144e-05
9.27144e-05
9.27144e-05
6.73162e-05
6.73162e-05
6.73162e-05
0.00043322
0.00043322
0.00043322
0.000439181
0.000439181
0.000439181
0.000467524
0.000467524
0.000467524
0.000464326
0.000464326
0.000464326
0.000367938
0.000367938
0.000367938
0.000390259
0.000390259
0.000390259
0.000378855
0.000378855
0.000378855
0.000383555
0.000383555
0.000383555
0.000395837
0.000395837
0.000395837
0.000388925
0.000388925
0.000388925
0.000383823
0.000383823
0.000383823
0.000475571
0.000475571
0.000475571
0.000478762
0.000478762
0.000478762
0.000478725
0.000478725
0.000478725
0.000479125
0.000479125
0.000479125
0.000475766
0.000475766
0.000475766
0.00047588
0.00047588
0.00047588
0.000469336
0.000469336
0.000469336
0.000468544
0.000468544
0.000468544
0.000465325
0.000465325
0.000465325
0.000365476
0.000365476
0.000365476
0.000368841
0.000368841
0.000368841
0.000371363
0.000371363
0.000371363
0.000322125
0.000322125
0.000322125
5.64107e-05
5.64107e-05
5.64107e-05
5.36245e-05
5.36245e-05
5.36245e-05
0.000259807
0.000259807
0.000259807
7.42075e-05
7.42075e-05
7.42075e-05
7.86712e-05
7.86712e-05
7.86712e-05
6.18409e-05
6.18409e-05
6.18409e-05
5.97831e-05
5.97831e-05
5.97831e-05
5.50276e-05
5.50276e-05
5.50276e-05
5.22964e-05
5.22964e-05
5.22964e-05
5.82802e-05
5.82802e-05
5.82802e-05
5.36473e-05
5.36473e-05
5.36473e-05
6.74434e-05
6.74434e-05
6.74434e-05
7.14423e-05
7.14423e-05
7.14423e-05
7.81634e-05
7.81634e-05
7.81634e-05
8.07427e-05
8.07427e-05
8.07427e-05
7.61814e-05
7.61814e-05
7.61814e-05
6.9638e-05
6.9638e-05
6.9638e-05
0.000270534
0.000270534
0.000270534
0.000289588
0.000289588
0.000289588
0.000309791
0.000309791
0.000309791
0.000307656
0.000307656
0.000307656
0.000140727
0.000140727
0.000140727
8.89745e-05
8.89745e-05
8.89745e-05
0.000136098
0.000136098
0.000136098
3.56206e-05
3.56206e-05
3.56206e-05
3.1062e-05
3.1062e-05
3.1062e-05
3.38734e-05
3.38734e-05
3.38734e-05
3.16374e-05
3.16374e-05
3.16374e-05
0.000232049
0.000232049
0.000232049
0.000154759
0.000154759
0.000154759
0.00015781
0.00015781
0.00015781
0.000239257
0.000239257
0.000239257
0.000274796
0.000274796
0.000274796
0.000273385
0.000273385
0.000273385
0.000303628
0.000303628
0.000303628
0.000319912
0.000319912
0.000319912
4.03617e-05
4.03617e-05
4.03617e-05
3.73192e-05
3.73192e-05
3.73192e-05
6.4265e-05
6.4265e-05
6.4265e-05
6.04624e-05
6.04624e-05
6.04624e-05
4.16762e-05
4.16762e-05
4.16762e-05
4.26597e-05
4.26597e-05
4.26597e-05
7.53521e-05
7.53521e-05
7.53521e-05
7.0773e-05
7.0773e-05
7.0773e-05
7.29821e-05
7.29821e-05
7.29821e-05
8.30316e-05
8.30316e-05
8.30316e-05
8.63572e-05
8.63572e-05
8.63572e-05
8.04123e-05
8.04123e-05
8.04123e-05
5.08914e-05
5.08914e-05
5.08914e-05
4.34613e-05
4.34613e-05
4.34613e-05
4.46114e-05
4.46114e-05
4.46114e-05
4.83238e-05
4.83238e-05
4.83238e-05
6.60373e-05
6.60373e-05
6.60373e-05
6.22853e-05
6.22853e-05
6.22853e-05
4.22896e-05
4.22896e-05
4.22896e-05
5.3782e-05
5.3782e-05
5.3782e-05
4.9518e-05
4.9518e-05
4.9518e-05
4.02545e-05
4.02545e-05
4.02545e-05
2.95627e-05
2.95627e-05
2.95627e-05
3.0865e-05
3.0865e-05
3.0865e-05
3.30968e-05
3.30968e-05
3.30968e-05
4.70675e-05
4.70675e-05
4.70675e-05
4.82749e-05
4.82749e-05
4.82749e-05
4.24221e-05
4.24221e-05
4.24221e-05
4.58917e-05
4.58917e-05
4.58917e-05
2.14013e-05
2.14013e-05
2.14013e-05
2.44093e-05
2.44093e-05
2.44093e-05
2.62761e-05
2.62761e-05
2.62761e-05
2.72396e-05
2.72396e-05
2.72396e-05
2.13781e-05
2.13781e-05
2.13781e-05
2.36211e-05
2.36211e-05
2.36211e-05
2.20878e-05
2.20878e-05
2.20878e-05
0.000117726
0.000117726
0.000117726
0.000122856
0.000122856
0.000122856
0.000116541
0.000116541
0.000116541
2.73029e-05
2.73029e-05
2.73029e-05
2.95026e-05
2.95026e-05
2.95026e-05
3.90497e-05
3.90497e-05
3.90497e-05
4.12929e-05
4.12929e-05
4.12929e-05
4.48354e-05
4.48354e-05
4.48354e-05
4.61771e-05
4.61771e-05
4.61771e-05
5.3515e-05
5.3515e-05
5.3515e-05
5.03305e-05
5.03305e-05
5.03305e-05
0.000351236
0.000351236
0.000351236
0.000377558
0.000377558
0.000377558
0.000372766
0.000372766
0.000372766
0.000329587
0.000329587
0.000329587
0.00035505
0.00035505
0.00035505
0.000352913
0.000352913
0.000352913
0.00034362
0.00034362
0.00034362
0.000339167
0.000339167
0.000339167
7.76979e-05
7.76979e-05
7.76979e-05
8.08895e-05
8.08895e-05
8.08895e-05
5.3132e-05
5.3132e-05
5.3132e-05
6.44952e-05
6.44952e-05
6.44952e-05
7.33268e-05
7.33268e-05
7.33268e-05
4.56977e-05
4.56977e-05
4.56977e-05
5.04262e-05
5.04262e-05
5.04262e-05
0.000147253
0.000147253
0.000147253
6.65026e-05
6.65026e-05
6.65026e-05
4.32998e-05
4.32998e-05
4.32998e-05
3.99424e-05
3.99424e-05
3.99424e-05
4.79376e-05
4.79376e-05
4.79376e-05
6.32217e-05
6.32217e-05
6.32217e-05
6.42348e-05
6.42348e-05
6.42348e-05
0.000145583
0.000145583
0.000145583
0.000140475
0.000140475
0.000140475
0.000129462
0.000129462
0.000129462
0.000121768
0.000121768
0.000121768
0.000141066
0.000141066
0.000141066
0.000136087
0.000136087
0.000136087
0.000142564
0.000142564
0.000142564
0.000138951
0.000138951
0.000138951
0.000132016
0.000132016
0.000132016
0.000133482
0.000133482
0.000133482
0.000143784
0.000143784
0.000143784
0.000145645
0.000145645
0.000145645
0.000141628
0.000141628
0.000141628
0.000136125
0.000136125
0.000136125
3.05117e-05
3.05117e-05
3.05117e-05
2.94176e-05
2.94176e-05
2.94176e-05
2.72567e-05
2.72567e-05
2.72567e-05
2.94529e-05
2.94529e-05
2.94529e-05
3.6996e-05
3.6996e-05
3.6996e-05
3.41833e-05
3.41833e-05
3.41833e-05
3.84646e-05
3.84646e-05
3.84646e-05
3.28705e-05
3.28705e-05
3.28705e-05
3.41502e-05
3.41502e-05
3.41502e-05
3.69568e-05
3.69568e-05
3.69568e-05
3.40568e-05
3.40568e-05
3.40568e-05
2.93378e-05
2.93378e-05
2.93378e-05
3.27855e-05
3.27855e-05
3.27855e-05
3.04268e-05
3.04268e-05
3.04268e-05
3.27659e-05
3.27659e-05
3.27659e-05
3.04059e-05
3.04059e-05
3.04059e-05
4.36183e-05
4.36183e-05
4.36183e-05
4.16269e-05
4.16269e-05
4.16269e-05
4.95811e-05
4.95811e-05
4.95811e-05
5.40815e-05
5.40815e-05
5.40815e-05
4.95412e-05
4.95412e-05
4.95412e-05
4.7473e-05
4.7473e-05
4.7473e-05
5.67685e-05
5.67685e-05
5.67685e-05
5.41238e-05
5.41238e-05
5.41238e-05
7.56376e-05
7.56376e-05
7.56376e-05
7.1998e-05
7.1998e-05
7.1998e-05
6.5157e-05
6.5157e-05
6.5157e-05
6.21876e-05
6.21876e-05
6.21876e-05
6.51239e-05
6.51239e-05
6.51239e-05
7.55446e-05
7.55446e-05
7.55446e-05
7.19639e-05
7.19639e-05
7.19639e-05
5.40709e-05
5.40709e-05
5.40709e-05
0.000130101
0.000130101
0.000130101
0.000107154
0.000107154
0.000107154
0.00013199
0.00013199
0.00013199
0.000122701
0.000122701
0.000122701
0.000149455
0.000149455
0.000149455
0.000146857
0.000146857
0.000146857
0.000129797
0.000129797
0.000129797
0.000138738
0.000138738
0.000138738
0.000124866
0.000124866
0.000124866
0.000136335
0.000136335
0.000136335
8.36473e-05
8.36473e-05
8.36473e-05
0.00013166
0.00013166
0.00013166
8.81494e-05
8.81494e-05
8.81494e-05
0.000155531
0.000155531
0.000155531
0.000168946
0.000168946
0.000168946
0.000137504
0.000137504
0.000137504
8.83981e-05
8.83981e-05
8.83981e-05
8.82081e-05
8.82081e-05
8.82081e-05
9.80695e-05
9.80695e-05
9.80695e-05
0.000103307
0.000103307
0.000103307
9.81237e-05
9.81237e-05
9.81237e-05
3.25413e-05
3.25413e-05
3.25413e-05
0.000179255
0.000179255
0.000179255
0.000156152
0.000156152
0.000156152
6.23805e-05
6.23805e-05
6.23805e-05
5.51205e-05
5.51205e-05
5.51205e-05
9.61631e-05
9.61631e-05
9.61631e-05
3.4708e-05
3.4708e-05
3.4708e-05
2.63177e-05
2.63177e-05
2.63177e-05
3.43812e-05
3.43812e-05
3.43812e-05
6.86452e-05
6.86452e-05
6.86452e-05
4.25634e-05
4.25634e-05
4.25634e-05
7.20951e-05
7.20951e-05
7.20951e-05
0.000167527
0.000167527
0.000167527
0.000164744
0.000164744
0.000164744
4.36515e-05
4.36515e-05
4.36515e-05
4.16687e-05
4.16687e-05
4.16687e-05
3.84212e-05
3.84212e-05
3.84212e-05
3.69242e-05
3.69242e-05
3.69242e-05
3.84211e-05
3.84211e-05
3.84211e-05
4.16435e-05
4.16435e-05
4.16435e-05
6.52669e-05
6.52669e-05
6.52669e-05
6.52051e-05
6.52051e-05
6.52051e-05
6.22679e-05
6.22679e-05
6.22679e-05
7.20724e-05
7.20724e-05
7.20724e-05
8.95596e-05
8.95596e-05
8.95596e-05
7.30671e-05
7.30671e-05
7.30671e-05
7.73403e-05
7.73403e-05
7.73403e-05
7.62993e-05
7.62993e-05
7.62993e-05
9.90686e-05
9.90686e-05
9.90686e-05
8.90955e-05
8.90955e-05
8.90955e-05
8.89008e-05
8.89008e-05
8.89008e-05
8.44416e-05
8.44416e-05
8.44416e-05
6.54311e-05
6.54311e-05
6.54311e-05
7.21944e-05
7.21944e-05
7.21944e-05
7.22917e-05
7.22917e-05
7.22917e-05
7.61523e-05
7.61523e-05
7.61523e-05
5.70063e-05
5.70063e-05
5.70063e-05
6.2542e-05
6.2542e-05
6.2542e-05
6.26372e-05
6.26372e-05
6.26372e-05
6.55334e-05
6.55334e-05
6.55334e-05
2.08073e-05
2.08073e-05
2.08073e-05
8.91005e-06
8.91005e-06
8.91005e-06
2.14054e-05
2.14054e-05
2.14054e-05
2.92424e-05
2.92424e-05
2.92424e-05
6.03668e-05
6.03668e-05
6.03668e-05
8.3119e-05
8.3119e-05
8.3119e-05
3.00791e-05
3.00791e-05
3.00791e-05
5.03179e-05
5.03179e-05
5.03179e-05
5.1726e-05
5.1726e-05
5.1726e-05
6.2051e-05
6.2051e-05
6.2051e-05
0.000151847
0.000151847
0.000151847
0.000135956
0.000135956
0.000135956
0.000120709
0.000120709
0.000120709
0.000132131
0.000132131
0.000132131
0.000140807
0.000140807
0.000140807
0.000117242
0.000117242
0.000117242
0.000110673
0.000110673
0.000110673
0.000155911
0.000155911
0.000155911
0.00015618
0.00015618
0.00015618
0.000153308
0.000153308
0.000153308
0.000152025
0.000152025
0.000152025
0.000113842
0.000113842
0.000113842
9.74236e-05
9.74236e-05
9.74236e-05
8.5475e-05
8.5475e-05
8.5475e-05
9.47691e-05
9.47691e-05
9.47691e-05
0.000139792
0.000139792
0.000139792
0.000124122
0.000124122
0.000124122
0.000116997
0.000116997
0.000116997
9.03284e-05
9.03284e-05
9.03284e-05
0.000100085
0.000100085
0.000100085
0.000102754
0.000102754
0.000102754
0.000123395
0.000123395
0.000123395
9.74878e-05
9.74878e-05
9.74878e-05
0.000108
0.000108
0.000108
0.000147918
0.000147918
0.000147918
0.000132413
0.000132413
0.000132413
0.000118885
0.000118885
0.000118885
0.000128738
0.000128738
0.000128738
0.000136795
0.000136795
0.000136795
0.000111109
0.000111109
0.000111109
0.000115593
0.000115593
0.000115593
0.000109442
0.000109442
0.000109442
0.000113014
0.000113014
0.000113014
5.81296e-06
5.81296e-06
5.81296e-06
8.49413e-06
8.49413e-06
8.49413e-06
8.17713e-06
8.17713e-06
8.17713e-06
7.46909e-06
7.46909e-06
7.46909e-06
7.76277e-06
7.76277e-06
7.76277e-06
9.43844e-06
9.43844e-06
9.43844e-06
6.24686e-06
6.24686e-06
6.24686e-06
0.000116143
0.000116143
0.000116143
0.000112507
0.000112507
0.000112507
8.1215e-06
8.1215e-06
8.1215e-06
5.08544e-06
5.08544e-06
5.08544e-06
0.000118496
0.000118496
0.000118496
7.65819e-06
7.65819e-06
7.65819e-06
5.51065e-06
5.51065e-06
5.51065e-06
0.000121515
0.000121515
0.000121515
0.000128819
0.000128819
0.000128819
4.18622e-05
4.18622e-05
4.18622e-05
5.18936e-05
5.18936e-05
5.18936e-05
7.8988e-05
7.8988e-05
7.8988e-05
7.12986e-05
7.12986e-05
7.12986e-05
5.37876e-06
5.37876e-06
5.37876e-06
7.4035e-06
7.4035e-06
7.4035e-06
7.92506e-06
7.92506e-06
7.92506e-06
7.69697e-06
7.69697e-06
7.69697e-06
7.9958e-06
7.9958e-06
7.9958e-06
7.92429e-06
7.92429e-06
7.92429e-06
2.49956e-05
2.49956e-05
2.49956e-05
1.84307e-05
1.84307e-05
1.84307e-05
5.5483e-06
5.5483e-06
5.5483e-06
5.55102e-06
5.55102e-06
5.55102e-06
5.379e-06
5.379e-06
5.379e-06
5.41912e-06
5.41912e-06
5.41912e-06
4.73973e-05
4.73973e-05
4.73973e-05
2.82893e-05
2.82893e-05
2.82893e-05
1.18963e-05
1.18963e-05
1.18963e-05
1.14716e-05
1.14716e-05
1.14716e-05
9.85462e-06
9.85462e-06
9.85462e-06
1.07326e-05
1.07326e-05
1.07326e-05
1.03355e-05
1.03355e-05
1.03355e-05
1.13152e-05
1.13152e-05
1.13152e-05
1.11881e-05
1.11881e-05
1.11881e-05
1.06671e-05
1.06671e-05
1.06671e-05
1.02345e-05
1.02345e-05
1.02345e-05
0.000369819
0.000369819