<VTKFile type="UnstructuredGrid" version="1.0">
<UnstructuredGrid>
<Piece NumberOfPoints="10830" NumberOfCells="3610">
<Points>
<DataArray type="Float64" NumberOfComponents="3" format="ascii">
3.10314 1.29552 0.0257489
3.11025 1.28841 0
3.11025 1.28841 0.0514594
3.11025 1.28841 0.555078
3.11025 1.28841 0.605999
3.10226 1.2964 0.580532
3.11025 1.28841 0.555078
3.10226 1.2964 0.580532
3.09025 1.30841 0.555099
2.21656 2.1821 1.02759
2.22913 2.16953 1.045
2.19928 2.19938 1.045
2.19928 2.19938 1.045
2.19928 2.19938 1.01484
2.21656 2.1821 1.02759
3.11025 1.28841 0.555078
3.09025 1.30841 0.555099
3.10227 1.29639 0.529679
2.20538 2.19328 0.276786
2.19928 2.19938 0.302009
2.19928 2.19938 0.251574
3.10229 1.29637 0.2769
3.11025 1.28841 0.302091
3.09026 1.3084 0.302114
3.10214 1.29652 0.17634
3.11025 1.28841 0.151284
3.11025 1.28841 0.201394
3.09026 1.3084 0.302114
3.11025 1.28841 0.302091
3.1023 1.29636 0.327315
3.11025 1.28841 0.302091
3.11025 1.28841 0.352537
3.1023 1.29636 0.327315
3.09026 1.3084 0.352551
3.1023 1.29636 0.327315
3.11025 1.28841 0.352537
3.09025 1.30841 0.504308
3.10227 1.29639 0.529679
3.08043 1.31823 0.529697
3.08043 1.31823 0.529697
3.10227 1.29639 0.529679
3.09025 1.30841 0.555099
3.08043 1.31823 0.529697
3.06939 1.32927 0.504324
3.09025 1.30841 0.504308
3.08043 1.31823 0.529697
3.09025 1.30841 0.555099
3.06938 1.32928 0.555118
3.11025 1.28841 0.403041
3.11025 1.28841 0.453619
3.10229 1.29637 0.428326
3.10229 1.29637 0.428326
3.09026 1.3084 0.453633
3.08044 1.31822 0.428339
3.11025 1.28841 0.453619
3.09026 1.3084 0.453633
3.10229 1.29637 0.428326
3.11025 1.28841 0.504291
3.10227 1.29639 0.529679
3.09025 1.30841 0.504308
3.11025 1.28841 0.555078
3.10227 1.29639 0.529679
3.11025 1.28841 0.504291
3.0901 1.30856 0.151322
3.11025 1.28841 0.151284
3.10214 1.29652 0.17634
3.09024 1.30842 0.606025
3.10226 1.2964 0.580532
3.11025 1.28841 0.605999
2.80657 1.59209 0.785748
2.81699 1.58167 0.759978
2.8274 1.57126 0.785725
2.19928 2.19938 0
2.21889 2.17977 -5.6077e-14
2.20626 2.1924 0.024705
2.25868 2.13998 0.251587
2.23814 2.16052 0.251567
2.24806 2.1506 0.226374
2.21801 2.18065 0.251562
2.23814 2.16052 0.251567
2.22704 2.17162 0.276779
2.21801 2.18065 0.251562
2.20538 2.19328 0.276786
2.19928 2.19938 0.251574
2.22704 2.17162 0.276779
2.20538 2.19328 0.276786
2.21801 2.18065 0.251562
2.20547 2.19319 0.478941
2.19928 2.19938 0.504301
2.19928 2.19938 0.453605
2.21807 2.1806 0.504296
2.22712 2.17155 0.478935
2.23821 2.16045 0.504293
2.19928 2.19938 0.504301
2.20547 2.19319 0.478941
2.21807 2.1806 0.504296
2.21807 2.1806 0.504296
2.20547 2.19319 0.478941
2.22712 2.17155 0.478935
2.21805 2.18061 0.453601
2.2382 2.16046 0.453599
2.22712 2.17155 0.478935
2.21805 2.18061 0.453601
2.20547 2.19319 0.478941
2.19928 2.19938 0.453605
2.22712 2.17155 0.478935
2.20547 2.19319 0.478941
2.21805 2.18061 0.453601
2.19928 2.19938 0.302009
2.20538 2.19328 0.276786
2.21802 2.18064 0.302001
2.21802 2.18064 0.302001
2.20538 2.19328 0.276786
2.22704 2.17162 0.276779
2.23821 2.16045 0.504293
2.22712 2.17155 0.478935
2.24816 2.15051 0.478933
2.22712 2.17155 0.478935
2.2382 2.16046 0.453599
2.24816 2.15051 0.478933
2.40353 1.99513 0.453669
2.41386 1.9848 0.479013
2.3932 2.00546 0.479001
2.3932 2.00546 0.479001
2.41386 1.9848 0.479013
2.40354 1.99512 0.504372
2.40354 1.99512 0.504372
2.41386 1.9848 0.479013
2.4242 1.97446 0.504385
2.79618 1.60248 0.759998
2.81699 1.58167 0.759978
2.80657 1.59209 0.785748
3.10224 1.29642 0.226555
3.11025 1.28841 0.201394
3.11025 1.28841 0.251699
3.11025 1.28841 0.302091
3.10229 1.29637 0.2769
3.11025 1.28841 0.251699
3.02715 1.37151 0.403096
3.006 1.39266 0.40311
3.01659 1.38207 0.377846
3.09026 1.3084 0.403053
3.10229 1.29637 0.428326
3.08044 1.31822 0.428339
3.11025 1.28841 0.403041
3.10229 1.29637 0.428326
3.09026 1.3084 0.403053
3.08044 1.31822 0.428339
3.09026 1.3084 0.453633
3.0694 1.32926 0.453647
3.10228 1.29638 0.47895
3.09026 1.3084 0.453633
3.11025 1.28841 0.453619
3.11025 1.28841 0.453619
3.11025 1.28841 0.504291
3.10228 1.29638 0.47895
3.10228 1.29638 0.47895
3.11025 1.28841 0.504291
3.09025 1.30841 0.504308
3.08027 1.31839 0.176367
3.0901 1.30856 0.151322
3.10214 1.29652 0.17634
3.10224 1.29642 0.226555
3.11025 1.28841 0.251699
3.09024 1.30842 0.251744
3.09024 1.30842 0.251744
3.11025 1.28841 0.251699
3.10229 1.29637 0.2769
3.0165 1.38216 0.226614
3.00588 1.39278 0.201434
3.02702 1.37164 0.201432
3.04817 1.35049 0.201451
3.03759 1.36107 0.176261
3.05884 1.33982 0.176315
3.04817 1.35049 0.201451
3.02702 1.37164 0.201432
3.03759 1.36107 0.176261
3.08043 1.31823 0.276933
3.10229 1.29637 0.2769
3.09026 1.3084 0.302114
3.08043 1.31823 0.276933
3.09024 1.30842 0.251744
3.10229 1.29637 0.2769
3.08042 1.31824 0.580555
3.09025 1.30841 0.555099
3.10226 1.2964 0.580532
3.10226 1.2964 0.580532
3.09024 1.30842 0.606025
3.08042 1.31824 0.580555
3.06938 1.32928 0.555118
3.09025 1.30841 0.555099
3.08042 1.31824 0.580555
3.08041 1.31825 0.734055
3.05901 1.33965 0.734064
3.06938 1.32928 0.708373
3.05901 1.33966 0.682738
3.08041 1.31825 0.682719
3.06938 1.32928 0.708373
3.10225 1.29641 0.63153
3.09024 1.30842 0.606025
3.11025 1.28841 0.605999
3.08041 1.31825 0.631556
3.09024 1.30842 0.606025
3.10225 1.29641 0.63153
2.84822 1.55044 0.837317
2.85863 1.54003 0.86316
2.83776 1.5609 0.863195
2.96373 1.43493 0.708429
2.97428 1.42438 0.682792
2.98483 1.41383 0.708414
2.98483 1.41383 0.708414
2.97428 1.42438 0.682792
2.9954 1.40326 0.682778
3.06938 1.32929 0.657127
3.05901 1.33965 0.631578
3.08041 1.31825 0.631556
3.06938 1.32929 0.657127
3.08041 1.31825 0.682719
3.05901 1.33966 0.682738
2.95319 1.44547 0.682809
2.97428 1.42438 0.682792
2.96373 1.43493 0.708429
2.90067 1.49799 0.453738
2.87971 1.51895 0.453743
2.89018 1.50848 0.428435
2.84833 1.55033 0.42844
2.83789 1.56077 0.45375
2.82746 1.5712 0.428441
2.85878 1.53988 0.453747
2.83789 1.56077 0.45375
2.84833 1.55033 0.42844
2.83788 1.56078 0.35265
2.85877 1.53989 0.352655
2.84833 1.55034 0.377895
2.84833 1.55034 0.377895
2.82745 1.57121 0.377891
2.83788 1.56078 0.35265
2.83788 1.56078 0.35265
2.82745 1.57121 0.377891
2.81702 1.58164 0.352644
2.84833 1.55034 0.377895
2.85877 1.53989 0.352655
2.86924 1.52943 0.377896
2.87968 1.51898 0.302232
2.89017 1.50849 0.327437
2.86922 1.52944 0.327435
2.86922 1.52944 0.327435
2.85875 1.53991 0.302227
2.87968 1.51898 0.302232
2.72357 1.6751 0.479091
2.73392 1.66474 0.453749
2.74429 1.65437 0.479092
2.73392 1.66474 0.453749
2.75466 1.644 0.453751
2.74429 1.65437 0.479092
2.83789 1.56077 0.403156
2.82745 1.57121 0.377891
2.84833 1.55034 0.377895
2.83789 1.56077 0.403156
2.84833 1.55033 0.42844
2.82746 1.5712 0.428441
2.82746 1.5712 0.428441
2.80662 1.59204 0.42844
2.81703 1.58163 0.403154
2.81703 1.58163 0.403154
2.83789 1.56077 0.403156
2.82746 1.5712 0.428441
2.82745 1.57121 0.377891
2.83789 1.56077 0.403156
2.81703 1.58163 0.403154
2.81702 1.58164 0.352644
2.7962 1.60246 0.352637
2.8066 1.59206 0.327412
2.79618 1.60248 0.302193
2.81701 1.58166 0.302206
2.8066 1.59206 0.327412
2.42419 1.97447 0.45368
2.41386 1.9848 0.479013
2.40353 1.99513 0.453669
2.40353 1.99513 0.453669
2.41385 1.98481 0.428361
2.42419 1.97447 0.45368
2.20539 2.19327 0.0748701
2.19928 2.19938 0.100085
2.19928 2.19938 0.0494157
2.19928 2.19938 0
2.20626 2.1924 0.024705
2.19928 2.19938 0.0494157
2.21797 2.1807 0.150698
2.19928 2.19938 0.150672
2.20528 2.19338 0.12542
2.19928 2.19938 0.150672
2.19928 2.19938 0.100085
2.20528 2.19338 0.12542
3.11025 1.28841 0
3.10314 1.29552 0.0257489
3.0911 1.30756 1.13803e-14
2.19928 2.19938 0.251574
2.19928 2.19938 0.201144
2.20536 2.19331 0.226356
2.20536 2.19331 0.226356
2.21801 2.18065 0.251562
2.19928 2.19938 0.251574
2.21799 2.18067 0.201134
2.20536 2.19331 0.226356
2.19928 2.19938 0.201144
2.21799 2.18067 0.201134
2.22698 2.17168 0.175937
2.23811 2.16055 0.20116
2.22702 2.17165 0.226352
2.24806 2.1506 0.226374
2.23814 2.16052 0.251567
2.23814 2.16052 0.251567
2.21801 2.18065 0.251562
2.22702 2.17165 0.226352
2.23811 2.16055 0.20116
2.24806 2.1506 0.226374
2.22702 2.17165 0.226352
2.22702 2.17165 0.226352
2.21799 2.18067 0.201134
2.23811 2.16055 0.20116
2.21801 2.18065 0.251562
2.20536 2.19331 0.226356
2.22702 2.17165 0.226352
2.20536 2.19331 0.226356
2.21799 2.18067 0.201134
2.22702 2.17165 0.226352
2.20532 2.19334 0.175915
2.19928 2.19938 0.201144
2.19928 2.19938 0.150672
2.20532 2.19334 0.175915
2.19928 2.19938 0.150672
2.21797 2.1807 0.150698
2.21797 2.1807 0.150698
2.22698 2.17168 0.175937
2.20532 2.19334 0.175915
2.20532 2.19334 0.175915
2.21799 2.18067 0.201134
2.19928 2.19938 0.201144
2.22698 2.17168 0.175937
2.21799 2.18067 0.201134
2.20532 2.19334 0.175915
2.24814 2.15052 0.428289
2.2382 2.16046 0.453599
2.2271 2.17156 0.428289
2.2382 2.16046 0.453599
2.21805 2.18061 0.453601
2.2271 2.17156 0.428289
2.2271 2.17156 0.428289
2.23819 2.16048 0.402998
2.24814 2.15052 0.428289
2.24809 2.15058 0.276785
2.23814 2.16052 0.251567
2.25868 2.13998 0.251587
2.22704 2.17162 0.276779
2.23814 2.16052 0.251567
2.24809 2.15058 0.276785
2.26891 2.12975 0.276801
2.24809 2.15058 0.276785
2.25868 2.13998 0.251587
2.2587 2.13996 0.302008
2.24809 2.15058 0.276785
2.26891 2.12975 0.276801
2.2587 2.13996 0.302008
2.26891 2.12975 0.276801
2.27936 2.1193 0.302022
2.41384 1.98482 0.3778
2.42418 1.97448 0.403074
2.40352 1.99515 0.403066
2.40352 1.99515 0.403066
2.42418 1.97448 0.403074
2.41385 1.98481 0.428361
2.33114 2.06753 0.428318
2.35183 2.04683 0.428329
2.34149 2.05717 0.453634
2.34148 2.05718 0.403035
2.35183 2.04683 0.428329
2.33114 2.06753 0.428318
2.35182 2.04684 0.377773
2.34147 2.05719 0.352518
2.36216 2.03651 0.352528
2.34148 2.05718 0.403035
2.33112 2.06754 0.377762
2.35182 2.04684 0.377773
2.35182 2.04684 0.377773
2.33112 2.06754 0.377762
2.34147 2.05719 0.352518
2.35184 2.04682 0.478975
2.37253 2.02613 0.478988
2.3622 2.03646 0.504344
2.31047 2.08819 0.529699
2.32082 2.07785 0.504317
2.33117 2.06749 0.529712
2.3208 2.07786 0.453623
2.33114 2.06753 0.428318
2.34149 2.05717 0.453634
2.31043 2.08823 0.428308
[...]
<PointData Scalars="View Factor" >
<DataArray type="Float64" Name="View Factor" NumberOfComponents="1" format="ascii">
4.77198e-05
4.77198e-05
4.77198e-05
5.4096e-05
5.4096e-05
5.4096e-05
5.35706e-05
5.35706e-05
5.35706e-05
7.44615e-06
7.44615e-06
7.44615e-06
5.54536e-06
5.54536e-06
5.54536e-06
5.33587e-05
5.33587e-05
5.33587e-05
8.00858e-06
8.00858e-06
8.00858e-06
5.03693e-05
5.03693e-05
5.03693e-05
4.93424e-05
4.93424e-05
4.93424e-05
5.05653e-05
5.05653e-05
5.05653e-05
5.10563e-05
5.10563e-05
5.10563e-05
5.09504e-05
5.09504e-05
5.09504e-05
5.25852e-05
5.25852e-05
5.25852e-05
5.2788e-05
5.2788e-05
5.2788e-05
5.19709e-05
5.19709e-05
5.19709e-05
5.23734e-05
5.23734e-05
5.23734e-05
5.22428e-05
5.22428e-05
5.22428e-05
5.15787e-05
5.15787e-05
5.15787e-05
5.2136e-05
5.2136e-05
5.2136e-05
5.29508e-05
5.29508e-05
5.29508e-05
5.34678e-05
5.34678e-05
5.34678e-05
4.88678e-05
4.88678e-05
4.88678e-05
5.39884e-05
5.39884e-05
5.39884e-05
2.23795e-06
2.23795e-06
2.23795e-06
5.25464e-06
5.25464e-06
5.25464e-06
1.76876e-05
1.76876e-05
1.76876e-05
1.8898e-05
1.8898e-05
1.8898e-05
8.51665e-06
8.51665e-06
8.51665e-06
1.1949e-05
1.1949e-05
1.1949e-05
9.98218e-06
9.98218e-06
9.98218e-06
1.94049e-05
1.94049e-05
1.94049e-05
9.56968e-06
9.56968e-06
9.56968e-06
1.34916e-05
1.34916e-05
1.34916e-05
2.02072e-05
2.02072e-05
2.02072e-05
1.16726e-05
1.16726e-05
1.16726e-05
1.45286e-05
1.45286e-05
1.45286e-05
9.31333e-06
9.31333e-06
9.31333e-06
1.23548e-05
1.23548e-05
1.23548e-05
1.91599e-05
1.91599e-05
1.91599e-05
1.95784e-05
1.95784e-05
1.95784e-05
7.62695e-06
7.62695e-06
7.62695e-06
6.57568e-06
6.57568e-06
6.57568e-06
5.96221e-06
5.96221e-06
5.96221e-06
2.14128e-06
2.14128e-06
2.14128e-06
4.99051e-05
4.99051e-05
4.99051e-05
5.04764e-05
5.04764e-05
5.04764e-05
4.74398e-05
4.74398e-05
4.74398e-05
5.13827e-05
5.13827e-05
5.13827e-05
5.17387e-05
5.17387e-05
5.17387e-05
5.11726e-05
5.11726e-05
5.11726e-05
5.23393e-05
5.23393e-05
5.23393e-05
5.28502e-05
5.28502e-05
5.28502e-05
5.27438e-05
5.27438e-05
5.27438e-05
4.85251e-05
4.85251e-05
4.85251e-05
4.98004e-05
4.98004e-05
4.98004e-05
4.99926e-05
4.99926e-05
4.99926e-05
4.54663e-05
4.54663e-05
4.54663e-05
4.6832e-05
4.6832e-05
4.6832e-05
4.63933e-05
4.63933e-05
4.63933e-05
4.9834e-05
4.9834e-05
4.9834e-05
4.96446e-05
4.96446e-05
4.96446e-05
5.32022e-05
5.32022e-05
5.32022e-05
5.34103e-05
5.34103e-05
5.34103e-05
5.25794e-05
5.25794e-05
5.25794e-05
5.40704e-05
5.40704e-05
5.40704e-05
5.36423e-05
5.36423e-05
5.36423e-05
5.42041e-05
5.42041e-05
5.42041e-05
5.38309e-05
5.38309e-05
5.38309e-05
3.02001e-05
3.02001e-05
3.02001e-05
4.8341e-05
4.8341e-05
4.8341e-05
4.88873e-05
4.88873e-05
4.88873e-05
5.30123e-05
5.30123e-05
5.30123e-05
5.3429e-05
5.3429e-05
5.3429e-05
4.74611e-05
4.74611e-05
4.74611e-05
3.87157e-05
3.87157e-05
3.87157e-05
1.68987e-05
1.68987e-05
1.68987e-05
2.65948e-05
2.65948e-05
2.65948e-05
2.59388e-05
2.59388e-05
2.59388e-05
1.7567e-05
1.7567e-05
1.7567e-05
1.28866e-05
1.28866e-05
1.28866e-05
3.10999e-05
3.10999e-05
3.10999e-05
3.63206e-05
3.63206e-05
3.63206e-05
3.3952e-05
3.3952e-05
3.3952e-05
8.78217e-06
8.78217e-06
8.78217e-06
9.57141e-06
9.57141e-06
9.57141e-06
1.71683e-05
1.71683e-05
1.71683e-05
1.68082e-05
1.68082e-05
1.68082e-05
1.34783e-05
1.34783e-05
1.34783e-05
1.39244e-05
1.39244e-05
1.39244e-05
1.40377e-05
1.40377e-05
1.40377e-05
1.17613e-05
1.17613e-05
1.17613e-05
1.0292e-05
1.0292e-05
1.0292e-05
8.07322e-06
8.07322e-06
8.07322e-06
8.94281e-06
8.94281e-06
8.94281e-06
4.94081e-06
4.94081e-06
4.94081e-06
4.57815e-06
4.57815e-06
4.57815e-06
6.53011e-06
6.53011e-06
6.53011e-06
5.4869e-06
5.4869e-06
5.4869e-06
4.72737e-05
4.72737e-05
4.72737e-05
6.99053e-06
6.99053e-06
6.99053e-06
8.16324e-06
8.16324e-06
8.16324e-06
7.53236e-06
7.53236e-06
7.53236e-06
1.80977e-05
1.80977e-05
1.80977e-05
1.81164e-05
1.81164e-05
1.81164e-05
1.86761e-05
1.86761e-05
1.86761e-05
1.79422e-05
1.79422e-05
1.79422e-05
1.82871e-05
1.82871e-05
1.82871e-05
1.1196e-05
1.1196e-05
1.1196e-05
1.08043e-05
1.08043e-05
1.08043e-05
6.12828e-06
6.12828e-06
6.12828e-06
6.76181e-06
6.76181e-06
6.76181e-06
9.57015e-06
9.57015e-06
9.57015e-06
7.25846e-06
7.25846e-06
7.25846e-06
9.95441e-06
9.95441e-06
9.95441e-06
2.03078e-05
2.03078e-05
2.03078e-05
2.05655e-05
2.05655e-05
2.05655e-05
2.05726e-05
2.05726e-05
2.05726e-05
1.7922e-05
1.7922e-05
1.7922e-05
1.85847e-05
1.85847e-05
1.85847e-05
1.75576e-05
1.75576e-05
1.75576e-05
1.77909e-05
1.77909e-05
1.77909e-05
1.71944e-05
1.71944e-05
1.71944e-05
9.77818e-06
9.77818e-06
9.77818e-06
9.87956e-06
9.87956e-06
9.87956e-06
9.56611e-06
9.56611e-06
9.56611e-06
9.97703e-06
9.97703e-06
9.97703e-06
8.85628e-06
8.85628e-06
8.85628e-06
9.65726e-06
9.65726e-06
9.65726e-06
9.13735e-06
9.13735e-06
9.13735e-06
6.78993e-06
6.78993e-06
6.78993e-06
4.63316e-06
4.63316e-06
4.63316e-06
9.31044e-06
9.31044e-06
9.31044e-06
9.65016e-06
9.65016e-06
9.65016e-06
1.8345e-05
1.8345e-05
1.8345e-05
2.01356e-05
2.01356e-05
2.01356e-05
1.95996e-05
1.95996e-05
1.95996e-05
1.00886e-05
1.00886e-05
1.00886e-05
1.92318e-05
1.92318e-05
1.92318e-05
1.96263e-05
1.96263e-05
1.96263e-05
1.93027e-05
1.93027e-05
1.93027e-05
1.28446e-06
1.28446e-06
1.28446e-06
4.15185e-06
4.15185e-06
4.15185e-06
6.57067e-06
6.57067e-06
6.57067e-06
8.17794e-06
8.17794e-06
8.17794e-06
7.73137e-06
7.73137e-06
7.73137e-06
4.96867e-06
4.96867e-06
4.96867e-06
6.06874e-06
6.06874e-06
6.06874e-06
6.17607e-06
6.17607e-06
6.17607e-06
6.68375e-06
6.68375e-06
6.68375e-06
4.85559e-06
4.85559e-06
4.85559e-06
4.30724e-06
4.30724e-06
4.30724e-06
2.6186e-06
2.6186e-06
2.6186e-06
3.18094e-06
3.18094e-06
3.18094e-06
3.37855e-06
3.37855e-06
3.37855e-06
4.41545e-06
4.41545e-06
4.41545e-06
1.18908e-06
1.18908e-06
1.18908e-06
1.11625e-06
1.11625e-06
1.11625e-06
1.13926e-06
1.13926e-06
1.13926e-06
1.18245e-06
1.18245e-06
1.18245e-06
1.16426e-06
1.16426e-06
1.16426e-06
3.0852e-06
3.0852e-06
3.0852e-06
4.74146e-06
4.74146e-06
4.74146e-06
4.20017e-06
4.20017e-06
4.20017e-06
1.93116e-06
1.93116e-06
1.93116e-06
2.02089e-06
2.02089e-06
2.02089e-06
2.18357e-06
2.18357e-06
2.18357e-06
2.08875e-06
2.08875e-06
2.08875e-06
1.86579e-06
1.86579e-06
1.86579e-06
1.85648e-06
1.85648e-06
1.85648e-06
1.71301e-06
1.71301e-06
1.71301e-06
2.01139e-06
2.01139e-06
2.01139e-06
3.15471e-06
3.15471e-06
3.15471e-06
3.05255e-06
3.05255e-06
3.05255e-06
3.3066e-06
3.3066e-06
3.3066e-06
3.3588e-06
3.3588e-06
3.3588e-06
2.92918e-06
2.92918e-06
2.92918e-06
2.88897e-06
2.88897e-06
2.88897e-06
3.01704e-06
3.01704e-06
3.01704e-06
3.14427e-06
3.14427e-06
3.14427e-06
3.10508e-06
3.10508e-06
3.10508e-06
2.97428e-06
2.97428e-06
2.97428e-06
2.83823e-06
2.83823e-06
2.83823e-06
3.45973e-06
3.45973e-06
3.45973e-06
3.23591e-06
3.23591e-06
3.23591e-06
3.2482e-06
3.2482e-06
3.2482e-06
3.40462e-06
3.40462e-06
3.40462e-06
3.561e-06
3.561e-06
3.561e-06
3.96602e-06
3.96602e-06
3.96602e-06
5.29304e-05
5.29304e-05
5.29304e-05
4.2026e-05
4.2026e-05
4.2026e-05
4.36223e-05
4.36223e-05
4.36223e-05
4.60158e-05
4.60158e-05
4.60158e-05
4.50266e-05
4.50266e-05
4.50266e-05
5.09817e-05
5.09817e-05
5.09817e-05
5.17814e-05
5.17814e-05
5.17814e-05
5.15842e-05
5.15842e-05
5.15842e-05
5.05484e-05
5.05484e-05
5.05484e-05
3.77124e-05
3.77124e-05
3.77124e-05
3.78519e-05
3.78519e-05
3.78519e-05
3.84168e-05
3.84168e-05
3.84168e-05
4.6794e-05
4.6794e-05
4.6794e-05
4.60991e-05
4.60991e-05
4.60991e-05
5.15386e-05
5.15386e-05
5.15386e-05
5.09882e-05
5.09882e-05
5.09882e-05
5.16449e-05
5.16449e-05
5.16449e-05
5.11475e-05
5.11475e-05
5.11475e-05
5.07953e-05
5.07953e-05
5.07953e-05
5.01594e-05
5.01594e-05
5.01594e-05
5.0783e-05
5.0783e-05
5.0783e-05
5.17685e-05
5.17685e-05
5.17685e-05
5.13719e-05
5.13719e-05
5.13719e-05
5.1183e-05
5.1183e-05
5.1183e-05
5.09874e-05
5.09874e-05
5.09874e-05
5.21805e-05
5.21805e-05
5.21805e-05
5.19795e-05
5.19795e-05
5.19795e-05
4.94258e-05
4.94258e-05
4.94258e-05
4.92363e-05
4.92363e-05
4.92363e-05
4.87107e-05
4.87107e-05
4.87107e-05
4.86846e-05
4.86846e-05
4.86846e-05
4.52806e-05
4.52806e-05
4.52806e-05
4.57592e-05
4.57592e-05
4.57592e-05
4.90655e-05
4.90655e-05
4.90655e-05
4.79499e-05
4.79499e-05
4.79499e-05
4.86986e-05
4.86986e-05
4.86986e-05
4.81313e-05
4.81313e-05
4.81313e-05
5.29907e-05
5.29907e-05
5.29907e-05
5.32002e-05
5.32002e-05
5.32002e-05
5.28063e-05
5.28063e-05
5.28063e-05
5.4286e-05
5.4286e-05
5.4286e-05
5.22623e-05
5.22623e-05
5.22623e-05
4.62038e-05
4.62038e-05
4.62038e-05
2.29264e-06
2.29264e-06
2.29264e-06
2.11248e-06
2.11248e-06
2.11248e-06
2.19397e-06
2.19397e-06
2.19397e-06
4.85344e-05
4.85344e-05
4.85344e-05
4.89217e-05
4.89217e-05
4.89217e-05
5.1951e-05
5.1951e-05
5.1951e-05
5.17485e-05
5.17485e-05
5.17485e-05
4.29514e-05
4.29514e-05
4.29514e-05
4.55846e-05
4.55846e-05
4.55846e-05
4.42723e-05
4.42723e-05
4.42723e-05
4.47987e-05
4.47987e-05
4.47987e-05
4.5639e-05
4.5639e-05
4.5639e-05
4.49267e-05
4.49267e-05
4.49267e-05
4.43309e-05
4.43309e-05
4.43309e-05
5.36198e-05
5.36198e-05
5.36198e-05
5.3828e-05
5.3828e-05
5.3828e-05
5.40411e-05
5.40411e-05
5.40411e-05
5.34363e-05
5.34363e-05
5.34363e-05
5.29869e-05
5.29869e-05
5.29869e-05
5.32231e-05
5.32231e-05
5.32231e-05
5.25659e-05
5.25659e-05
5.25659e-05
5.22578e-05
5.22578e-05
5.22578e-05
5.20494e-05
5.20494e-05
5.20494e-05
4.27741e-05
4.27741e-05
4.27741e-05
4.33088e-05
4.33088e-05
4.33088e-05
4.34753e-05
4.34753e-05
4.34753e-05
3.85306e-05
3.85306e-05
3.85306e-05
1.19988e-05
1.19988e-05
1.19988e-05
1.24621e-05
1.24621e-05
1.24621e-05
2.67163e-05
2.67163e-05
2.67163e-05
5.309e-06
5.309e-06
5.309e-06
4.58631e-06
4.58631e-06
4.58631e-06
9.5055e-06
9.5055e-06
9.5055e-06
1.03497e-05
1.03497e-05
1.03497e-05
1.17039e-05
1.17039e-05
1.17039e-05
1.21525e-05
1.21525e-05
1.21525e-05
1.00897e-05
1.00897e-05
1.00897e-05
1.141e-05
1.141e-05
1.141e-05
8.0508e-06
8.0508e-06
8.0508e-06
7.32969e-06
7.32969e-06
7.32969e-06
5.58907e-06
5.58907e-06
5.58907e-06
4.7055e-06
4.7055e-06
4.7055e-06
5.44863e-06
5.44863e-06
5.44863e-06
7.14572e-06
7.14572e-06
7.14572e-06
3.16937e-05
3.16937e-05
3.16937e-05
3.52399e-05
3.52399e-05
3.52399e-05
3.75016e-05
3.75016e-05
3.75016e-05
3.73329e-05
3.73329e-05
3.73329e-05
1.50137e-06
1.50137e-06
1.50137e-06
3.25534e-06
3.25534e-06
3.25534e-06
1.48378e-06
1.48378e-06
1.48378e-06
1.20562e-05
1.20562e-05
1.20562e-05
1.05494e-05
1.05494e-05
1.05494e-05
1.14914e-05
1.14914e-05
1.14914e-05
1.0742e-05
1.0742e-05
1.0742e-05
2.55743e-05
2.55743e-05
2.55743e-05
1.95696e-05
1.95696e-05
1.95696e-05
1.88351e-05
1.88351e-05
1.88351e-05
2.58171e-05
2.58171e-05
2.58171e-05
3.08203e-05
3.08203e-05
3.08203e-05
3.06703e-05
3.06703e-05
3.06703e-05
3.69977e-05
3.69977e-05
3.69977e-05
3.84158e-05
3.84158e-05
3.84158e-05
9.39377e-06
9.39377e-06
9.39377e-06
1.01607e-05
1.01607e-05
1.01607e-05
3.75749e-06
3.75749e-06
3.75749e-06
4.33674e-06
4.33674e-06
4.33674e-06
9.69845e-06
9.69845e-06
9.69845e-06
9.07814e-06
9.07814e-06
9.07814e-06
2.1609e-06
2.1609e-06
2.1609e-06
2.60128e-06
2.60128e-06
2.60128e-06
2.09455e-06
2.09455e-06
2.09455e-06
1.44386e-06
1.44386e-06
1.44386e-06
1.23913e-06
1.23913e-06
1.23913e-06
1.39978e-06
1.39978e-06
1.39978e-06
1.08239e-05
1.08239e-05
1.08239e-05
1.25621e-05
1.25621e-05
1.25621e-05
1.21438e-05
1.21438e-05
1.21438e-05
1.12285e-05
1.12285e-05
1.12285e-05
6.76924e-06
6.76924e-06
6.76924e-06
7.43852e-06
7.43852e-06
7.43852e-06
1.22227e-05
1.22227e-05
1.22227e-05
9.31281e-06
9.31281e-06
9.31281e-06
1.05322e-05
1.05322e-05
1.05322e-05
1.26645e-05
1.26645e-05
1.26645e-05
1.0035e-05
1.0035e-05
1.0035e-05
1.04772e-05
1.04772e-05
1.04772e-05
1.12162e-05
1.12162e-05
1.12162e-05
1.35831e-05
1.35831e-05
1.35831e-05
1.31439e-05
1.31439e-05
1.31439e-05
1.33497e-05
1.33497e-05
1.33497e-05
1.32422e-05
1.32422e-05
1.32422e-05
7.26816e-06
7.26816e-06
7.26816e-06
8.26893e-06
8.26893e-06
8.26893e-06
8.85874e-06
8.85874e-06
8.85874e-06
9.13946e-06
9.13946e-06
9.13946e-06
7.26341e-06
7.26341e-06
7.26341e-06
8.00018e-06
8.00018e-06
8.00018e-06
7.48278e-06
7.48278e-06
7.48278e-06
1.66838e-05
1.66838e-05
1.66838e-05
1.70714e-05
1.70714e-05
1.70714e-05
1.64409e-05
1.64409e-05
1.64409e-05
9.14693e-06
9.14693e-06
9.14693e-06
9.63889e-06
9.63889e-06
9.63889e-06
9.08982e-06
9.08982e-06
9.08982e-06
8.78878e-06
8.78878e-06
8.78878e-06
7.77308e-06
7.77308e-06
7.77308e-06
7.10942e-06
7.10942e-06
7.10942e-06
5.5046e-06
5.5046e-06
5.5046e-06
6.022e-06
6.022e-06
6.022e-06
4.3779e-05
4.3779e-05
4.3779e-05
4.69598e-05
4.69598e-05
4.69598e-05
4.64292e-05
4.64292e-05
4.64292e-05
4.11548e-05
4.11548e-05
4.11548e-05
4.39142e-05
4.39142e-05
4.39142e-05
4.37516e-05
4.37516e-05
4.37516e-05
4.17677e-05
4.17677e-05
4.17677e-05
4.14384e-05
4.14384e-05
4.14384e-05
6.56277e-06
6.56277e-06
6.56277e-06
8.35972e-06
8.35972e-06
8.35972e-06
1.20215e-05
1.20215e-05
1.20215e-05
1.24181e-05
1.24181e-05
1.24181e-05
1.59919e-05
1.59919e-05
1.59919e-05
1.10742e-05
1.10742e-05
1.10742e-05
1.13853e-05
1.13853e-05
1.13853e-05
2.05246e-05
2.05246e-05
2.05246e-05
1.49872e-05
1.49872e-05
1.49872e-05
9.7655e-06
9.7655e-06
9.7655e-06
9.36919e-06
9.36919e-06
9.36919e-06
1.07853e-05
1.07853e-05
1.07853e-05
1.32784e-05
1.32784e-05
1.32784e-05
1.38033e-05
1.38033e-05
1.38033e-05
2.02076e-05
2.02076e-05
2.02076e-05
1.96447e-05
1.96447e-05
1.96447e-05
1.83434e-05
1.83434e-05
1.83434e-05
1.74803e-05
1.74803e-05
1.74803e-05
1.93691e-05
1.93691e-05
1.93691e-05
1.88134e-05
1.88134e-05
1.88134e-05
1.9633e-05
1.9633e-05
1.9633e-05
1.9346e-05
1.9346e-05
1.9346e-05
1.84136e-05
1.84136e-05
1.84136e-05
1.86882e-05
1.86882e-05
1.86882e-05
2.02867e-05
2.02867e-05
2.02867e-05
2.05444e-05
2.05444e-05
2.05444e-05
2.01117e-05
2.01117e-05
2.01117e-05
1.95875e-05
1.95875e-05
1.95875e-05
9.79148e-06
9.79148e-06
9.79148e-06
9.64493e-06
9.64493e-06
9.64493e-06
9.13669e-06
9.13669e-06
9.13669e-06
9.64174e-06
9.64174e-06
9.64174e-06
9.32054e-06
9.32054e-06
9.32054e-06
9.81511e-06
9.81511e-06
9.81511e-06
9.03431e-06
9.03431e-06
9.03431e-06
9.91753e-06
9.91753e-06
9.91753e-06
9.86758e-06
9.86758e-06
9.86758e-06
9.40106e-06
9.40106e-06
9.40106e-06
1.0032e-05
1.0032e-05
1.0032e-05
9.65884e-06
9.65884e-06
9.65884e-06
1.00377e-05
1.00377e-05
1.00377e-05
9.83366e-06
9.83366e-06
9.83366e-06
1.00834e-05
1.00834e-05
1.00834e-05
9.85035e-06
9.85035e-06
9.85035e-06
7.94954e-06
7.94954e-06
7.94954e-06
8.49805e-06
8.49805e-06
8.49805e-06
6.28403e-06
6.28403e-06
6.28403e-06
5.18999e-06
5.18999e-06
5.18999e-06
6.39262e-06
6.39262e-06
6.39262e-06
6.89714e-06
6.89714e-06
6.89714e-06
4.52401e-06
4.52401e-06
4.52401e-06
5.08234e-06
5.08234e-06
5.08234e-06
1.66628e-06
1.66628e-06
1.66628e-06
1.98261e-06
1.98261e-06
1.98261e-06
2.87723e-06
2.87723e-06
2.87723e-06
3.47959e-06
3.47959e-06
3.47959e-06
2.96427e-06
2.96427e-06
2.96427e-06
1.71375e-06
1.71375e-06
1.71375e-06
2.04423e-06
2.04423e-06
2.04423e-06
5.29981e-06
5.29981e-06
5.29981e-06
1.8963e-05
1.8963e-05
1.8963e-05
1.53449e-05
1.53449e-05
1.53449e-05
1.89803e-05
1.89803e-05
1.89803e-05
1.80321e-05
1.80321e-05
1.80321e-05
1.80301e-05
1.80301e-05
1.80301e-05
1.84915e-05
1.84915e-05
1.84915e-05
1.67762e-05
1.67762e-05
1.67762e-05
1.79835e-05
1.79835e-05
1.79835e-05
1.76943e-05
1.76943e-05
1.76943e-05
1.84135e-05
1.84135e-05
1.84135e-05
1.30369e-06
1.30369e-06
1.30369e-06
1.11796e-05
1.11796e-05
1.11796e-05
1.17963e-06
1.17963e-06
1.17963e-06
1.39578e-05
1.39578e-05
1.39578e-05
1.52769e-05
1.52769e-05
1.52769e-05
1.12565e-05
1.12565e-05
1.12565e-05
1.15231e-06
1.15231e-06
1.15231e-06
1.17113e-06
1.17113e-06
1.17113e-06
1.11402e-06
1.11402e-06
1.11402e-06
1.13107e-06
1.13107e-06
1.13107e-06
1.11432e-06
1.11432e-06
1.11432e-06
5.3165e-06
5.3165e-06
5.3165e-06
2.06388e-05
2.06388e-05
2.06388e-05
1.77715e-05
1.77715e-05
1.77715e-05
3.69398e-06
3.69398e-06
3.69398e-06
4.42222e-06
4.42222e-06
4.42222e-06
7.59815e-06
7.59815e-06
7.59815e-06
4.94823e-06
4.94823e-06
4.94823e-06
3.90477e-06
3.90477e-06
3.90477e-06
4.81372e-06
4.81372e-06
4.81372e-06
7.76876e-06
7.76876e-06
7.76876e-06
4.55602e-06
4.55602e-06
4.55602e-06
7.71377e-06
7.71377e-06
7.71377e-06
1.90933e-05
1.90933e-05
1.90933e-05
1.91919e-05
1.91919e-05
1.91919e-05
7.83964e-06
7.83964e-06
7.83964e-06
8.28348e-06
8.28348e-06
8.28348e-06
9.12645e-06
9.12645e-06
9.12645e-06
9.48293e-06
9.48293e-06
9.48293e-06
9.21612e-06
9.21612e-06
9.21612e-06
8.39005e-06
8.39005e-06
8.39005e-06
2.70442e-06
2.70442e-06
2.70442e-06
2.79065e-06
2.79065e-06
2.79065e-06
3.2786e-06
3.2786e-06
3.2786e-06
1.8594e-06
1.8594e-06
1.8594e-06
1.10298e-06
1.10298e-06
1.10298e-06
1.36954e-06
1.36954e-06
1.36954e-06
1.15396e-06
1.15396e-06
1.15396e-06
1.38497e-06
1.38497e-06
1.38497e-06
1.11587e-06
1.11587e-06
1.11587e-06
1.11922e-06
1.11922e-06
1.11922e-06
1.12742e-06
1.12742e-06
1.12742e-06
1.1702e-06
1.1702e-06
1.1702e-06
2.53302e-06
2.53302e-06
2.53302e-06
1.72833e-06
1.72833e-06
1.72833e-06
1.66745e-06
1.66745e-06
1.66745e-06
1.4316e-06
1.4316e-06
1.4316e-06
4.09344e-06
4.09344e-06
4.09344e-06
2.98781e-06
2.98781e-06
2.98781e-06
2.88495e-06
2.88495e-06
2.88495e-06
2.44783e-06
2.44783e-06
2.44783e-06
2.07986e-06
2.07986e-06
2.07986e-06
2.15697e-06
2.15697e-06
2.15697e-06
2.13622e-06
2.13622e-06
2.13622e-06
2.07014e-06
2.07014e-06
2.07014e-06
1.98382e-06
1.98382e-06
1.98382e-06
1.91646e-06
1.91646e-06
1.91646e-06
2.12571e-06
2.12571e-06
2.12571e-06
2.07533e-06
2.07533e-06
2.07533e-06
2.12935e-06
2.12935e-06
2.12935e-06
2.03631e-06
2.03631e-06
2.03631e-06
1.59967e-06
1.59967e-06
1.59967e-06
1.70963e-06
1.70963e-06
1.70963e-06
1.77452e-06
1.77452e-06
1.77452e-06
1.6645e-06
1.6645e-06
1.6645e-06
1.66832e-06
1.66832e-06
1.66832e-06
1.72776e-06
1.72776e-06
1.72776e-06
1.78591e-06
1.78591e-06
1.78591e-06
1.6154e-06
1.6154e-06
1.6154e-06
1.6426e-06
1.6426e-06
1.6426e-06
1.53698e-06
1.53698e-06
1.53698e-06
1.53197e-06
1.53197e-06
1.53197e-06
1.83367e-06
1.83367e-06
1.83367e-06
1.95602e-06
1.95602e-06
1.95602e-06
1.96707e-06
1.96707e-06
1.96707e-06
1.90603e-06
1.90603e-06
1.90603e-06
1.75479e-06
1.75479e-06
1.75479e-06
1.82151e-06
1.82151e-06
1.82151e-06
1.88156e-06
1.88156e-06
1.88156e-06
2.06175e-06
2.06175e-06
2.06175e-06
2.0058e-06
2.0058e-06
2.0058e-06
2.05553e-06
2.05553e-06
2.05553e-06
1.97767e-06
1.97767e-06
1.97767e-06
1.39238e-06
1.39238e-06
1.39238e-06
1.32331e-06
1.32331e-06
1.32331e-06
1.49202e-06
1.49202e-06
1.49202e-06
1.44563e-06
1.44563e-06
1.44563e-06
1.39193e-06
1.39193e-06
1.39193e-06
1.4075e-06
1.4075e-06
1.4075e-06
1.46231e-06
1.46231e-06
1.46231e-06
1.35971e-06
1.35971e-06
1.35971e-06
1.35507e-06
1.35507e-06
1.35507e-06
1.3938e-06
1.3938e-06
1.3938e-06
1.35604e-06
1.35604e-06
1.35604e-06
2.10909e-06
2.10909e-06
2.10909e-06
2.87476e-06
2.87476e-06
2.87476e-06
2.80344e-06
2.80344e-06
2.80344e-06
2.59451e-06
2.59451e-06
2.59451e-06
2.67514e-06
2.67514e-06
2.67514e-06
2.21564e-06
2.21564e-06
2.21564e-06
2.23825e-06
2.23825e-06
2.23825e-06
1.17947e-06
1.17947e-06
1.17947e-06
1.16374e-06
1.16374e-06
1.16374e-06
2.77759e-06
2.77759e-06
2.77759e-06
1.84744e-06
1.84744e-06
1.84744e-06
1.24219e-06
1.24219e-06
1.24219e-06
1.70602e-06
1.70602e-06
1.70602e-06
1.96517e-06
1.96517e-06
1.96517e-06
1.30591e-06
1.30591e-06
1.30591e-06
1.53434e-06
1.53434e-06
1.53434e-06
1.75054e-06
1.75054e-06
1.75054e-06
1.72173e-06
1.72173e-06
1.72173e-06
1.60796e-06
1.60796e-06
1.60796e-06
1.66323e-06
1.66323e-06
1.66323e-06
1.95571e-06
1.95571e-06
1.95571e-06
2.54784e-06
2.54784e-06
2.54784e-06
2.75502e-06
2.75502e-06
2.75502e-06
2.67467e-06
2.67467e-06
2.67467e-06
2.75649e-06
2.75649e-06
2.75649e-06
1.92268e-06
1.92268e-06
1.92268e-06
1.79316e-06
1.79316e-06
1.79316e-06
1.85417e-06
1.85417e-06
1.85417e-06
2.01269e-06
2.01269e-06
2.01269e-06
2.01904e-06
2.01904e-06
2.01904e-06
1.95058e-06
1.95058e-06
1.95058e-06
1.93843e-06
1.93843e-06
1.93843e-06
1.96674e-06
1.96674e-06
1.96674e-06
2.01487e-06
2.01487e-06
2.01487e-06
4.06738e-06
4.06738e-06
4.06738e-06
3.89561e-06
3.89561e-06
3.89561e-06
3.34149e-06
3.34149e-06
3.34149e-06
3.66212e-06
3.66212e-06
3.66212e-06
3.50286e-06
3.50286e-06
3.50286e-06
3.86459e-06
3.86459e-06
3.86459e-06
3.79729e-06
3.79729e-06
3.79729e-06
3.62227e-06
3.62227e-06
3.62227e-06
3.51849e-06
3.51849e-06
3.51849e-06
3.91998e-05
3.91998e-05
3.91998e-05
3.67313e-05