<VTKFile type="UnstructuredGrid" version="1.0">
<UnstructuredGrid>
<Piece NumberOfPoints="10830" NumberOfCells="3610">
<Points>
<DataArray type="Float64" NumberOfComponents="3" format="ascii">
1.27826 3.11035 16.7457
1.28831 3.11035 16.72
1.28831 3.11035 16.7715
1.28831 3.11035 17.2751
1.28831 3.11035 17.326
1.27701 3.11035 17.3005
1.28831 3.11035 17.2751
1.27701 3.11035 17.3005
1.26002 3.11035 17.2751
0.0244388 3.11035 17.7476
0.0422213 3.11035 17.765
0 3.11035 17.765
0 3.11035 17.765
-7.89601e-14 3.11035 17.7348
0.0244388 3.11035 17.7476
1.28831 3.11035 17.2751
1.26002 3.11035 17.2751
1.27702 3.11035 17.2497
0.00863377 3.11035 16.9968
1.49469e-13 3.11035 17.022
1.49791e-13 3.11035 16.9716
1.27705 3.11035 16.9969
1.28831 3.11035 17.0221
1.26004 3.11035 17.0221
1.27684 3.11035 16.8963
1.28831 3.11035 16.8713
1.28831 3.11035 16.9214
1.26004 3.11035 17.0221
1.28831 3.11035 17.0221
1.27707 3.11035 17.0473
1.28831 3.11035 17.0221
1.28831 3.11035 17.0725
1.27707 3.11035 17.0473
1.26005 3.11035 17.0726
1.27707 3.11035 17.0473
1.28831 3.11035 17.0725
1.26003 3.11035 17.2243
1.27702 3.11035 17.2497
1.24613 3.11035 17.2497
1.24613 3.11035 17.2497
1.27702 3.11035 17.2497
1.26002 3.11035 17.2751
1.24613 3.11035 17.2497
1.23052 3.11035 17.2243
1.26003 3.11035 17.2243
1.24613 3.11035 17.2497
1.26002 3.11035 17.2751
1.23052 3.11035 17.2751
1.28831 3.11035 17.123
1.28831 3.11035 17.1736
1.27705 3.11035 17.1483
1.27705 3.11035 17.1483
1.26004 3.11035 17.1736
1.24616 3.11035 17.1483
1.28831 3.11035 17.1736
1.26004 3.11035 17.1736
1.27705 3.11035 17.1483
1.28831 3.11035 17.2243
1.27702 3.11035 17.2497
1.26003 3.11035 17.2243
1.28831 3.11035 17.2751
1.27702 3.11035 17.2497
1.28831 3.11035 17.2243
1.25981 3.11035 16.8713
1.28831 3.11035 16.8713
1.27684 3.11035 16.8963
1.26002 3.11035 17.326
1.27701 3.11035 17.3005
1.28831 3.11035 17.326
0.85884 3.11035 17.5057
0.873578 3.11035 17.48
0.888295 3.11035 17.5057
0 3.11035 16.72
0.0277369 3.11035 16.72
0.00987207 3.11035 16.7447
0.0840033 3.11035 16.9716
0.0549577 3.11035 16.9716
0.0689903 3.11035 16.9464
0.0264927 3.11035 16.9716
0.0549577 3.11035 16.9716
0.0392653 3.11035 16.9968
0.0264927 3.11035 16.9716
0.00863377 3.11035 16.9968
1.49791e-13 3.11035 16.9716
0.0392653 3.11035 16.9968
0.00863377 3.11035 16.9968
0.0264927 3.11035 16.9716
0.0087521 3.11035 17.1989
-9.63464e-14 3.11035 17.2243
1.47962e-13 3.11035 17.1736
0.0265703 3.11035 17.2243
0.0393699 3.11035 17.1989
0.0550657 3.11035 17.2243
-9.63464e-14 3.11035 17.2243
0.0087521 3.11035 17.1989
0.0265703 3.11035 17.2243
0.0265703 3.11035 17.2243
0.0087521 3.11035 17.1989
0.0393699 3.11035 17.1989
0.0265544 3.11035 17.1736
0.0550443 3.11035 17.1736
0.0393699 3.11035 17.1989
0.0265544 3.11035 17.1736
0.0087521 3.11035 17.1989
1.47962e-13 3.11035 17.1736
0.0393699 3.11035 17.1989
0.0087521 3.11035 17.1989
0.0265544 3.11035 17.1736
1.49469e-13 3.11035 17.022
0.00863377 3.11035 16.9968
0.0265126 3.11035 17.022
0.0265126 3.11035 17.022
0.00863377 3.11035 16.9968
0.0392653 3.11035 16.9968
0.0550657 3.11035 17.2243
0.0393699 3.11035 17.1989
0.0691236 3.11035 17.1989
0.0393699 3.11035 17.1989
0.0550443 3.11035 17.1736
0.0691236 3.11035 17.1989
0.288852 3.11035 17.1737
0.303471 3.11035 17.199
0.274248 3.11035 17.199
0.274248 3.11035 17.199
0.303471 3.11035 17.199
0.288872 3.11035 17.2244
0.288872 3.11035 17.2244
0.303471 3.11035 17.199
0.318088 3.11035 17.2244
0.844143 3.11035 17.48
0.873578 3.11035 17.48
0.85884 3.11035 17.5057
1.27699 3.11035 16.9466
1.28831 3.11035 16.9214
1.28831 3.11035 16.9717
1.28831 3.11035 17.0221
1.27705 3.11035 16.9969
1.28831 3.11035 16.9717
1.17079 3.11035 17.1231
1.14088 3.11035 17.1231
1.15586 3.11035 17.0978
1.26004 3.11035 17.1231
1.27705 3.11035 17.1483
1.24616 3.11035 17.1483
1.28831 3.11035 17.123
1.27705 3.11035 17.1483
1.26004 3.11035 17.1231
1.24616 3.11035 17.1483
1.26004 3.11035 17.1736
1.23053 3.11035 17.1736
1.27704 3.11035 17.1989
1.26004 3.11035 17.1736
1.28831 3.11035 17.1736
1.28831 3.11035 17.1736
1.28831 3.11035 17.2243
1.27704 3.11035 17.1989
1.27704 3.11035 17.1989
1.28831 3.11035 17.2243
1.26003 3.11035 17.2243
1.24591 3.11035 16.8964
1.25981 3.11035 16.8713
1.27684 3.11035 16.8963
1.27699 3.11035 16.9466
1.28831 3.11035 16.9717
1.26001 3.11035 16.9717
1.26001 3.11035 16.9717
1.28831 3.11035 16.9717
1.27705 3.11035 16.9969
1.15573 3.11035 16.9466
1.1407 3.11035 16.9214
1.1706 3.11035 16.9214
1.20051 3.11035 16.9215
1.18556 3.11035 16.8963
1.21561 3.11035 16.8963
1.20051 3.11035 16.9215
1.1706 3.11035 16.9214
1.18556 3.11035 16.8963
1.24614 3.11035 16.9969
1.27705 3.11035 16.9969
1.26004 3.11035 17.0221
1.24614 3.11035 16.9969
1.26001 3.11035 16.9717
1.27705 3.11035 16.9969
1.24612 3.11035 17.3006
1.26002 3.11035 17.2751
1.27701 3.11035 17.3005
1.27701 3.11035 17.3005
1.26002 3.11035 17.326
1.24612 3.11035 17.3006
1.23052 3.11035 17.2751
1.26002 3.11035 17.2751
1.24612 3.11035 17.3006
1.24611 3.11035 17.4541
1.21584 3.11035 17.4541
1.23051 3.11035 17.4284
1.21584 3.11035 17.4027
1.24611 3.11035 17.4027
1.23051 3.11035 17.4284
1.27699 3.11035 17.3515
1.26002 3.11035 17.326
1.28831 3.11035 17.326
1.24611 3.11035 17.3516
1.26002 3.11035 17.326
1.27699 3.11035 17.3515
0.917741 3.11035 17.5573
0.932465 3.11035 17.5832
0.902954 3.11035 17.5832
1.08109 3.11035 17.4284
1.09602 3.11035 17.4028
1.11094 3.11035 17.4284
1.11094 3.11035 17.4284
1.09602 3.11035 17.4028
1.12589 3.11035 17.4028
1.2305 3.11035 17.3771
1.21584 3.11035 17.3516
1.24611 3.11035 17.3516
1.2305 3.11035 17.3771
1.24611 3.11035 17.4027
1.21584 3.11035 17.4027
1.0662 3.11035 17.4028
1.09602 3.11035 17.4028
1.08109 3.11035 17.4284
0.991917 3.11035 17.1737
0.962274 3.11035 17.1737
0.977089 3.11035 17.1484
0.917902 3.11035 17.1484
0.903138 3.11035 17.1737
0.888384 3.11035 17.1484
0.932681 3.11035 17.1737
0.903138 3.11035 17.1737
0.917902 3.11035 17.1484
0.903119 3.11035 17.0727
0.932664 3.11035 17.0727
0.917893 3.11035 17.0979
0.917893 3.11035 17.0979
0.888374 3.11035 17.0979
0.903119 3.11035 17.0727
0.903119 3.11035 17.0727
0.888374 3.11035 17.0979
0.873625 3.11035 17.0726
0.917893 3.11035 17.0979
0.932664 3.11035 17.0727
0.947463 3.11035 17.0979
0.962233 3.11035 17.0222
0.977066 3.11035 17.0474
0.947444 3.11035 17.0474
0.947444 3.11035 17.0474
0.932637 3.11035 17.0222
0.962233 3.11035 17.0222
0.741456 3.11035 17.1991
0.756104 3.11035 17.1737
0.770765 3.11035 17.1991
0.756104 3.11035 17.1737
0.785431 3.11035 17.1737
0.770765 3.11035 17.1991
0.903133 3.11035 17.1232
0.888374 3.11035 17.0979
0.917893 3.11035 17.0979
0.903133 3.11035 17.1232
0.917902 3.11035 17.1484
0.888384 3.11035 17.1484
0.888384 3.11035 17.1484
0.858913 3.11035 17.1484
0.873639 3.11035 17.1232
0.873639 3.11035 17.1232
0.903133 3.11035 17.1232
0.888384 3.11035 17.1484
0.888374 3.11035 17.0979
0.903133 3.11035 17.1232
0.873639 3.11035 17.1232
0.873625 3.11035 17.0726
0.844177 3.11035 17.0726
0.858884 3.11035 17.0474
0.844153 3.11035 17.0222
0.873599 3.11035 17.0222
0.858884 3.11035 17.0474
0.318069 3.11035 17.1737
0.303471 3.11035 17.199
0.288852 3.11035 17.1737
0.288852 3.11035 17.1737
0.303454 3.11035 17.1484
0.318069 3.11035 17.1737
0.00864568 3.11035 16.7949
1.4958e-13 3.11035 16.8201
-9.64495e-14 3.11035 16.7694
0 3.11035 16.72
0.00987207 3.11035 16.7447
-9.64495e-14 3.11035 16.7694
0.0264295 3.11035 16.8707
1.50097e-13 3.11035 16.8707
0.00849117 3.11035 16.8454
1.50097e-13 3.11035 16.8707
1.4958e-13 3.11035 16.8201
0.00849117 3.11035 16.8454
1.28831 3.11035 16.72
1.27826 3.11035 16.7457
1.26122 3.11035 16.72
1.49791e-13 3.11035 16.9716
1.50032e-13 3.11035 16.9211
0.00859461 3.11035 16.9464
0.00859461 3.11035 16.9464
0.0264927 3.11035 16.9716
1.49791e-13 3.11035 16.9716
0.0264637 3.11035 16.9211
0.00859461 3.11035 16.9464
1.50032e-13 3.11035 16.9211
0.0264637 3.11035 16.9211
0.0391815 3.11035 16.8959
0.0549232 3.11035 16.9212
0.0392276 3.11035 16.9464
0.0689903 3.11035 16.9464
0.0549577 3.11035 16.9716
0.0549577 3.11035 16.9716
0.0264927 3.11035 16.9716
0.0392276 3.11035 16.9464
0.0549232 3.11035 16.9212
0.0689903 3.11035 16.9464
0.0392276 3.11035 16.9464
0.0392276 3.11035 16.9464
0.0264637 3.11035 16.9211
0.0549232 3.11035 16.9212
0.0264927 3.11035 16.9716
0.00859461 3.11035 16.9464
0.0392276 3.11035 16.9464
0.00859461 3.11035 16.9464
0.0264637 3.11035 16.9211
0.0392276 3.11035 16.9464
0.00854014 3.11035 16.8959
1.50032e-13 3.11035 16.9211
1.50097e-13 3.11035 16.8707
0.00854014 3.11035 16.8959
1.50097e-13 3.11035 16.8707
0.0264295 3.11035 16.8707
0.0264295 3.11035 16.8707
0.0391815 3.11035 16.8959
0.00854014 3.11035 16.8959
0.00854014 3.11035 16.8959
0.0264637 3.11035 16.9211
1.50032e-13 3.11035 16.9211
0.0391815 3.11035 16.8959
0.0264637 3.11035 16.9211
0.00854014 3.11035 16.8959
0.0690987 3.11035 17.1483
0.0550443 3.11035 17.1736
0.0393425 3.11035 17.1483
0.0550443 3.11035 17.1736
0.0265544 3.11035 17.1736
0.0393425 3.11035 17.1483
0.0393425 3.11035 17.1483
0.0550252 3.11035 17.123
0.0690987 3.11035 17.1483
0.0690242 3.11035 16.9968
0.0549577 3.11035 16.9716
0.0840033 3.11035 16.9716
0.0392653 3.11035 16.9968
0.0549577 3.11035 16.9716
0.0690242 3.11035 16.9968
0.0984777 3.11035 16.9968
0.0690242 3.11035 16.9968
0.0840033 3.11035 16.9716
0.0840313 3.11035 17.022
0.0690242 3.11035 16.9968
0.0984777 3.11035 16.9968
0.0840313 3.11035 17.022
0.0984777 3.11035 16.9968
0.113251 3.11035 17.022
0.303441 3.11035 17.0978
0.318055 3.11035 17.1231
0.288836 3.11035 17.1231
0.288836 3.11035 17.1231
0.318055 3.11035 17.1231
0.303454 3.11035 17.1484
0.186476 3.11035 17.1483
0.215741 3.11035 17.1483
0.201123 3.11035 17.1736
0.201103 3.11035 17.123
0.215741 3.11035 17.1483
0.186476 3.11035 17.1483
0.215723 3.11035 17.0978
0.201085 3.11035 17.0725
0.230345 3.11035 17.0725
0.201103 3.11035 17.123
0.186456 3.11035 17.0978
0.215723 3.11035 17.0978
0.215723 3.11035 17.0978
0.186456 3.11035 17.0978
0.201085 3.11035 17.0725
0.215762 3.11035 17.199
0.245012 3.11035 17.199
0.230402 3.11035 17.2243
0.157245 3.11035 17.2497
0.171881 3.11035 17.2243
0.186525 3.11035 17.2497
[...]
<PointData Scalars="View Factor" >
<DataArray type="Float64" Name="View Factor" NumberOfComponents="1" format="ascii">
0.00132853
0.00132853
0.00132853
0.00100516
0.00100516
0.00100516
0.00101419
0.00101419
0.00101419
0.000505519
0.000505519
0.000505519
0.000547132
0.000547132
0.000547132
0.00102261
0.00102261
0.00102261
0.000812876
0.000812876
0.000812876
0.00115923
0.00115923
0.00115923
0.00122939
0.00122939
0.00122939
0.00114948
0.00114948
0.00114948
0.001139
0.001139
0.001139
0.00113026
0.00113026
0.00113026
0.00103644
0.00103644
0.00103644
0.00102789
0.00102789
0.00102789
0.0010419
0.0010419
0.0010419
0.00102476
0.00102476
0.00102476
0.00108311
0.00108311
0.00108311
0.00108047
0.00108047
0.00108047
0.00107486
0.00107486
0.00107486
0.0010397
0.0010397
0.0010397
0.0010304
0.0010304
0.0010304
0.00124086
0.00124086
0.00124086
0.000997575
0.000997575
0.000997575
7.74822e-05
7.74822e-05
7.74822e-05
0.000892571
0.000892571
0.000892571
0.000563687
0.000563687
0.000563687
0.000675238
0.000675238
0.000675238
0.000781642
0.000781642
0.000781642
0.000730194
0.000730194
0.000730194
0.000803682
0.000803682
0.000803682
0.000759506
0.000759506
0.000759506
0.000823122
0.000823122
0.000823122
0.00076883
0.00076883
0.00076883
0.000629694
0.000629694
0.000629694
0.000721551
0.000721551
0.000721551
0.000711498
0.000711498
0.000711498
0.00076815
0.00076815
0.00076815
0.000723873
0.000723873
0.000723873
0.000692302
0.000692302
0.000692302
0.000619566
0.000619566
0.000619566
0.000129576
0.000129576
0.000129576
0.000283154
0.000283154
0.000283154
0.000352224
0.000352224
0.000352224
7.91189e-05
7.91189e-05
7.91189e-05
0.00119837
0.00119837
0.00119837
0.00116824
0.00116824
0.00116824
0.000993261
0.000993261
0.000993261
0.00108953
0.00108953
0.00108953
0.00109297
0.00109297
0.00109297
0.00107718
0.00107718
0.00107718
0.00106594
0.00106594
0.00106594
0.00105638
0.00105638
0.00105638
0.00104836
0.00104836
0.00104836
0.00123693
0.00123693
0.00123693
0.0011891
0.0011891
0.0011891
0.00117904
0.00117904
0.00117904
0.00109157
0.00109157
0.00109157
0.00123206
0.00123206
0.00123206
0.00119124
0.00119124
0.00119124
0.00116539
0.00116539
0.00116539
0.0011753
0.0011753
0.0011753
0.00101102
0.00101102
0.00101102
0.0010027
0.0010027
0.0010027
0.00101631
0.00101631
0.00101631
0.000940752
0.000940752
0.000940752
0.000956331
0.000956331
0.000956331
0.000989384
0.000989384
0.000989384
0.000986291
0.000986291
0.000986291
0.00014942
0.00014942
0.00014942
0.000803587
0.000803587
0.000803587
0.000841272
0.000841272
0.000841272
0.000980238
0.000980238
0.000980238
0.000964228
0.000964228
0.000964228
0.000796476
0.000796476
0.000796476
0.000393097
0.000393097
0.000393097
0.000131613
0.000131613
0.000131613
0.000183202
0.000183202
0.000183202
0.000191302
0.000191302
0.000191302
0.000136235
0.000136235
0.000136235
8.87754e-05
8.87754e-05
8.87754e-05
0.000244998
0.000244998
0.000244998
0.000363718
0.000363718
0.000363718
0.000308963
0.000308963
0.000308963
0.000127398
0.000127398
0.000127398
4.45075e-05
4.45075e-05
4.45075e-05
0.000135062
0.000135062
0.000135062
0.000132751
0.000132751
0.000132751
3.55365e-05
3.55365e-05
3.55365e-05
8.68058e-05
8.68058e-05
8.68058e-05
8.75554e-05
8.75554e-05
8.75554e-05
0
0
0
0
0
0
4.53023e-05
4.53023e-05
4.53023e-05
0
0
0
0.000903807
0.000903807
0.000903807
0.000928266
0.000928266
0.000928266
0.000831257
0.000831257
0.000831257
0.000879889
0.000879889
0.000879889
0.00134144
0.00134144
0.00134144
0.00083447
0.00083447
0.00083447
0.000788497
0.000788497
0.000788497
0.000802433
0.000802433
0.000802433
0.00069923
0.00069923
0.00069923
0.000625123
0.000625123
0.000625123
0.00068114
0.00068114
0.00068114
0.000630588
0.000630588
0.000630588
0.000693134
0.000693134
0.000693134
0.000743041
0.000743041
0.000743041
0.00074957
0.00074957
0.00074957
0.000856789
0.000856789
0.000856789
0.000823927
0.000823927
0.000823927
0.000769591
0.000769591
0.000769591
0.000809519
0.000809519
0.000809519
0.000762843
0.000762843
0.000762843
0.000563825
0.000563825
0.000563825
0.000614245
0.000614245
0.000614245
0.000568649
0.000568649
0.000568649
0.000558832
0.000558832
0.000558832
0.000614366
0.000614366
0.000614366
0.000498678
0.000498678
0.000498678
0.00049441
0.00049441
0.00049441
0.000435617
0.000435617
0.000435617
0
0
0
0
0
0
6.21198e-05
6.21198e-05
6.21198e-05
6.26264e-05
6.26264e-05
6.26264e-05
1.61496e-05
1.61496e-05
1.61496e-05
6.3654e-05
6.3654e-05
6.3654e-05
6.41752e-05
6.41752e-05
6.41752e-05
0.000283448
0.000283448
0.000283448
0.000613321
0.000613321
0.000613321
0.000109396
0.000109396
0.000109396
0.000158594
0.000158594
0.000158594
0.000689921
0.000689921
0.000689921
0.000517334
0.000517334
0.000517334
0.000461802
0.000461802
0.000461802
0.000252425
0.000252425
0.000252425
0.000529221
0.000529221
0.000529221
0.000508618
0.000508618
0.000508618
0.000457908
0.000457908
0.000457908
0.000897284
0.000897284
0.000897284
0.000598429
0.000598429
0.000598429
0.000524821
0.000524821
0.000524821
4.53298e-05
4.53298e-05
4.53298e-05
0.000129649
0.000129649
0.000129649
0.000478149
0.000478149
0.000478149
0.000352425
0.000352425
0.000352425
0.000352606
0.000352606
0.000352606
0.000283309
0.000283309
0.000283309
0.00047791
0.00047791
0.00047791
0.000534954
0.000534954
0.000534954
0.000673014
0.000673014
0.000673014
0.000625738
0.000625738
0.000625738
0.00065099
0.00065099
0.00065099
0.000535205
0.000535205
0.000535205
0.000870403
0.000870403
0.000870403
0.000960965
0.000960965
0.000960965
0.00090273
0.00090273
0.00090273
0.00072208
0.00072208
0.00072208
0.000792456
0.000792456
0.000792456
0.000625589
0.000625589
0.000625589
0.000477644
0.000477644
0.000477644
0.000534675
0.000534675
0.000534675
7.94398e-05
7.94398e-05
7.94398e-05
4.92617e-05
4.92617e-05
4.92617e-05
4.91144e-05
4.91144e-05
4.91144e-05
7.92034e-05
7.92034e-05
7.92034e-05
0.000144605
0.000144605
0.000144605
0.000179746
0.000179746
0.000179746
0.000424127
0.000424127
0.000424127
0.000144163
0.000144163
0.000144163
0
0
0
0
0
0
0
0
0
0
0
0
0
0
0
0
0
0
0
0
0
0
0
0
0
0
0
0
0
0
0
0
0
0
0
0
0
0
0
0
0
0
0
0
0
0
0
0
0
0
0
0.000621764
0.000621764
0.000621764
0.000254306
0.000254306
0.000254306
0.00036424
0.00036424
0.00036424
0.000448466
0.000448466
0.000448466
0.000404842
0.000404842
0.000404842
0.00104409
0.00104409
0.00104409
0.00103008
0.00103008
0.00103008
0.00103866
0.00103866
0.00103866
0.00104083
0.00104083
0.00104083
0.000425223
0.000425223
0.000425223
0.000421503
0.000421503
0.000421503
0.000483713
0.000483713
0.000483713
0.000882613
0.000882613
0.000882613
0.000841516
0.000841516
0.000841516
0.00110215
0.00110215
0.00110215
0.00110793
0.00110793
0.00110793
0.00111064
0.00111064
0.00111064
0.0011208
0.0011208
0.0011208
0.00111727
0.00111727
0.00111727
0.00105829
0.00105829
0.00105829
0.00105281
0.00105281
0.00105281
0.0010506
0.0010506
0.0010506
0.00106823
0.00106823
0.00106823
0.00105608
0.00105608
0.00105608
0.00106491
0.00106491
0.00106491
0.0010538
0.0010538
0.0010538
0.0010626
0.0010626
0.0010626
0.0012095
0.0012095
0.0012095
0.00121986
0.00121986
0.00121986
0.00122641
0.00122641
0.00122641
0.0012515
0.0012515
0.0012515
0.00110109
0.00110109
0.00110109
0.00115195
0.00115195
0.00115195
0.00118168
0.00118168
0.00118168
0.00119442
0.00119442
0.00119442
0.00117797
0.00117797
0.00117797
0.0011843
0.0011843
0.0011843
0.00099965
0.00099965
0.00099965
0.000991434
0.000991434
0.000991434
0.000988354
0.000988354
0.000988354
0.000933068
0.000933068
0.000933068
0.000805776
0.000805776
0.000805776
0.000384974
0.000384974
0.000384974
2.95143e-05
2.95143e-05
2.95143e-05
0.000205793
0.000205793
0.000205793
0.000145482
0.000145482
0.000145482
0.000773296
0.000773296
0.000773296
0.000719906
0.000719906
0.000719906
0.000884684
0.000884684
0.000884684
0.000897173
0.000897173
0.000897173
0.000612906
0.000612906
0.000612906
0.000792082
0.000792082
0.000792082
0.000697197
0.000697197
0.000697197
0.000748363
0.000748363
0.000748363
0.000878212
0.000878212
0.000878212
0.000838179
0.000838179
0.000838179
0.000831866
0.000831866
0.000831866
0.000975226
0.000975226
0.000975226
0.000967233
0.000967233
0.000967233
0.000978199
0.000978199
0.000978199
0.000945576
0.000945576
0.000945576
0.000942628
0.000942628
0.000942628
0.000953376
0.000953376
0.000953376
0.000958249
0.000958249
0.000958249
0.000927362
0.000927362
0.000927362
0.000937683
0.000937683
0.000937683
0.000598548
0.000598548
0.000598548
0.000656764
0.000656764
0.000656764
0.000651107
0.000651107
0.000651107
0.00039998
0.00039998
0.00039998
8.56659e-05
8.56659e-05
8.56659e-05
3.52339e-05
3.52339e-05
3.52339e-05
0.000218099
0.000218099
0.000218099
0.000469211
0.000469211
0.000469211
0.000524796
0.000524796
0.000524796
0.00012678
0.00012678
0.00012678
4.42846e-05
4.42846e-05
4.42846e-05
0
0
0
0
0
0
4.43615e-05
4.43615e-05
4.43615e-05
0
0
0
0.000277218
0.000277218
0.000277218
0.000344729
0.000344729
0.000344729
0.000467735
0.000467735
0.000467735
0.00052398
0.00052398
0.00052398
0.000468486
0.000468486
0.000468486
0.000345296
0.000345296
0.000345296
0.000236648
0.000236648
0.000236648
0.000288178
0.000288178
0.000288178
0.000342193
0.000342193
0.000342193
0.000345174
0.000345174
0.000345174
0.000896937
0.000896937
0.000896937
0.000613796
0.000613796
0.000613796
0.000947824
0.000947824
0.000947824
8.95454e-05
8.95454e-05
8.95454e-05
9.08058e-05
9.08058e-05
9.08058e-05
3.70957e-05
3.70957e-05
3.70957e-05
3.74172e-05
3.74172e-05
3.74172e-05
0.000196365
0.000196365
0.000196365
0.000139828
0.000139828
0.000139828
0.000138618
0.000138618
0.000138618
0.000192972
0.000192972
0.000192972
0.000249304
0.000249304
0.000249304
0.000251491
0.000251491
0.000251491
0.000351228
0.000351228
0.000351228
0.000403475
0.000403475
0.000403475
0
0
0
0
0
0
0.000529721
0.000529721
0.000529721
0.000473574
0.000473574
0.000473574
0
0
0
0
0
0
0.000666413
0.000666413
0.000666413
0.000620407
0.000620407
0.000620407
0.000667152
0.000667152
0.000667152
0.000752364
0.000752364
0.000752364
0.000791912
0.000791912
0.000791912
0.000753181
0.000753181
0.000753181
0
0
0
0
0
0
0
0
0
0
0
0
0.000346374
0.000346374
0.000346374
0.000278531
0.000278531
0.000278531
0
0
0
4.45766e-05
4.45766e-05
4.45766e-05
0
0
0
0
0
0
0
0
0
0
0
0
0
0
0
0
0
0
0
0
0
0
0
0
0
0
0
0
0
0
0
0
0
0
0
0
0
0
0
0
0
0
0
0
0
0
0
0
0.000443138
0.000443138
0.000443138
0.000507348
0.000507348
0.000507348
0.000446958
0.000446958
0.000446958
0
0
0
0
0
0
0
0
0
0
0
0
4.49371e-05
4.49371e-05
4.49371e-05
0.000128583
0.000128583
0.000128583
0.000349539
0.000349539
0.000349539
0.000281047
0.000281047
0.000281047
0.00123845
0.00123845
0.00123845
0.00133694
0.00133694
0.00133694
0.00134454
0.00134454
0.00134454
0.000980272
0.000980272
0.000980272
0.00118098
0.00118098
0.00118098
0.00119126
0.00119126
0.00119126
0.000794744
0.000794744
0.000794744
0.000808965
0.000808965
0.000808965
0.00090919
0.00090919
0.00090919
0.000863755
0.000863755
0.000863755
0.000752056
0.000752056
0.000752056
0.000710814
0.000710814
0.000710814
0.000669864
0.000669864
0.000669864
0.000771703
0.000771703
0.000771703
0.000742008
0.000742008
0.000742008
0.000641111
0.000641111
0.000641111
0.000693249
0.000693249
0.000693249
0.000761511
0.000761511
0.000761511
0.000791965
0.000791965
0.000791965
0.000748442
0.000748442
0.000748442
0.000711431
0.000711431
0.000711431
0.000705307
0.000705307
0.000705307
0.000646652
0.000646652
0.000646652
0.000593521
0.000593521
0.000593521
0.000486006
0.000486006
0.000486006
0.000431914
0.000431914
0.000431914
0.000663622
0.000663622
0.000663622
0.000609072
0.000609072
0.000609072
0.000657906
0.000657906
0.000657906
0.000598651
0.000598651
0.000598651
0.000549273
0.000549273
0.000549273
0.000544568
0.000544568
0.000544568
0.00058342
0.00058342
0.00058342
0.000578446
0.000578446
0.000578446
0.000521758
0.000521758
0.000521758
0.000469707
0.000469707
0.000469707
0
0
0
0
0
0
0
0
0
0
0
0
0
0
0
0
0
0
0
0
0
0
0
0
0
0
0
0
0
0
0.000159904
0.000159904
0.000159904
0.000162562
0.000162562
0.000162562
0.0001112
0.0001112
0.0001112
0.000112114
0.000112114
0.000112114
0.000210861
0.000210861
0.000210861
0.000212617
0.000212617
0.000212617
0.000183711
0.000183711
0.000183711
0.000149218
0.000149218
0.000149218
0.00036303
0.00036303
0.00036303
0.000538422
0.000538422
0.000538422
0.000425644
0.000425644
0.000425644
0.000328656
0.000328656
0.000328656
0.000565955
0.000565955
0.000565955
0.000486987
0.000486987
0.000486987
0.00083668
0.00083668
0.00083668
0.000790202
0.000790202
0.000790202
0.000712821
0.000712821
0.000712821
0.00068985
0.00068985
0.00068985
0.000747764
0.000747764
0.000747764
0.000857887
0.000857887
0.000857887
0.000816798
0.000816798
0.000816798
0.000591921
0.000591921
0.000591921
0.000413953
0.000413953
0.000413953
0.000305216
0.000305216
0.000305216
0.000410469
0.000410469
0.000410469
0.000356084
0.000356084
0.000356084
0.000615835
0.000615835
0.000615835
0.000527725
0.000527725
0.000527725
0.000436802
0.000436802
0.000436802
0.000429317
0.000429317
0.000429317
0.000353107
0.000353107
0.000353107
0.000403603
0.000403603
0.000403603
0.00091191
0.00091191
0.00091191
0.00094258
0.00094258
0.00094258
0.000931013
0.000931013
0.000931013
0.000928023
0.000928023
0.000928023
0.00095539
0.00095539
0.00095539
0.000978499
0.000978499
0.000978499
0.00090385
0.00090385
0.00090385
0.000918589
0.000918589
0.000918589
0.000964771
0.000964771
0.000964771
0.000911275
0.000911275
0.000911275
0.000958352
0.000958352
0.000958352
0.000554856
0.000554856
0.000554856
0.000461696
0.000461696
0.000461696
0.000478296
0.000478296
0.000478296
0.000636684
0.000636684
0.000636684
0.000595243
0.000595243
0.000595243
0.000561026
0.000561026
0.000561026
0.000575563
0.000575563
0.000575563
0.000613897
0.000613897
0.000613897
0.000580444
0.000580444
0.000580444
0.00054714
0.00054714
0.00054714
0.00059027
0.00059027
0.00059027
0.000551724
0.000551724
0.000551724
0.000514681
0.000514681
0.000514681
0.000510414
0.000510414
0.000510414
0.000129714
0.000129714
0.000129714
4.53546e-05
4.53546e-05
4.53546e-05
0
0
0
0
0
0
1.55102e-05
1.55102e-05
1.55102e-05
5.99865e-05
5.99865e-05
5.99865e-05
0.000673339
0.000673339
0.000673339
0.000679172
0.000679172
0.000679172
0.000625861
0.000625861
0.000625861
0.000760025
0.000760025
0.000760025
0.000900969
0.000900969
0.000900969
0.000756071
0.000756071
0.000756071
0.000795
0.000795
0.000795
0.000797972
0.000797972
0.000797972
0.000961581
0.000961581
0.000961581
0.000902189
0.000902189
0.000902189
0.000902608
0.000902608
0.000902608
0.000869894
0.000869894
0.000869894
0.000672654
0.000672654
0.000672654
0.000759267
0.000759267
0.000759267
0.00075883
0.00075883
0.00075883
0.000798448
0.000798448
0.000798448
0.000534366
0.000534366
0.000534366
0.000625234
0.000625234
0.000625234
0.000625022
0.000625022
0.000625022
0.000672259
0.000672259
0.000672259
0
0
0
0
0
0
0
0
0
0
0
0
7.93638e-05
7.93638e-05
7.93638e-05
0.000144463
0.000144463
0.000144463
0
0
0
4.92144e-05
4.92144e-05
4.92144e-05
4.91653e-05
4.91653e-05
4.91653e-05
7.9285e-05
7.9285e-05
7.9285e-05
0.000530239
0.000530239
0.000530239
0.000386543
0.000386543
0.000386543
0.000297297
0.000297297
0.000297297
0.000386797
0.000386797
0.000386797
0.000424593
0.000424593
0.000424593
0.000297605
0.000297605
0.000297605
0.000256058
0.000256058
0.000256058
0.000587609
0.000587609
0.000587609
0.000529639
0.000529639
0.000529639
0.000713695
0.000713695
0.000713695
0.000782381
0.000782381
0.000782381
0.000255792
0.000255792
0.000255792
0.000179375
0.000179375
0.000179375
0.000144316
0.000144316
0.000144316
0.000179564
0.000179564
0.000179564
0.000386118
0.000386118
0.000386118
0.000296978
0.000296978
0.000296978
0.000255516
0.000255516
0.000255516
0.000144006
0.000144006
0.000144006
0.00017918
0.00017918
0.00017918
0.000203662
0.000203662
0.000203662
0.000277398
0.000277398
0.000277398
0.000788194
0.000788194
0.000788194
0.000859436
0.000859436
0.000859436
0.000783328
0.000783328
0.000783328
0.000949073
0.000949073
0.000949073
0.000890136
0.000890136
0.000890136
0.000950277
0.000950277
0.000950277
0.00089807
0.00089807
0.00089807
0.000858337
0.000858337
0.000858337
0.000891287
0.000891287
0.000891287
0.000388926
0.000388926
0.000388926
0.000427379
0.000427379
0.000427379
0
0
0
0
0
0
0
0
0
0
0
0
0
0
0
0
0
0
0
0
0
0.00075278
0.00075278
0.00075278
0.000807219
0.000807219
0.000807219
0
0
0
0
0
0
0.000594303
0.000594303
0.000594303
0
0
0
0
0
0
0.000902181
0.000902181
0.000902181
0.00042589
0.00042589
0.00042589
4.94723e-05
4.94723e-05
4.94723e-05
7.97149e-05
7.97149e-05
7.97149e-05
0.000180556
0.000180556
0.000180556
0.000145119
0.000145119
0.000145119
0
0
0
0
0
0
0
0
0
0
0
0
0
0
0
0
0
0
0
0
0
0
0
0
0
0
0
0
0
0
0
0
0
0
0
0
4.93073e-05
4.93073e-05
4.93073e-05
0
0
0
0
0
0
0
0
0
0
0
0
0
0
0
0
0
0
0
0
0
0
0
0
0
0
0
0
0
0
0.000216055
0.000216055
0.000216055
0.000176003
0.000176003
0.000176003
0.000536393
0.000536393
0.000536393
0.0005512
0.0005512
0.0005512
0.000589265
0.000589265
0.000589265
0.000358162
0.000358162
0.000358162
0.000355167
0.000355167
0.000355167
0.000440991
0.000440991
0.000440991
0.000401452
0.000401452
0.000401452
0.000317592
0.000317592
0.000317592
0.000320275
0.000320275
0.000320275
0.000670431
0.000670431
0.000670431
0.000812451
0.000812451
0.000812451
0.000811741
0.000811741
0.000811741
0.000810505
0.000810505
0.000810505
0.000814438
0.000814438
0.000814438
0.000815708
0.000815708
0.000815708
0.000823738
0.000823738
0.000823738
0.0010269
0.0010269
0.0010269
0.00103222
0.00103222
0.00103222
0.000965472
0.000965472
0.000965472
0.000971154
0.000971154
0.000971154
0.000883224
0.000883224
0.000883224
0.00106653
0.00106653
0.00106653
0.000964881
0.000964881
0.000964881
0.000932073
0.000932073
0.000932073
0.00094547
0.00094547
0.00094547
0.00100478
0.00100478
0.00100478
0.000968309
0.000968309
0.000968309
0.000937983
0.000937983
0.000937983
0.000930037
0.000930037
0.000930037
0.000984861
0.000984861
0.000984861
0.00102206
0.00102206
0.00102206
0.00101347
0.00101347
0.00101347
0.000897814
0.000897814
0.000897814
0.000848756
0.000848756
0.000848756
0.000954115
0.000954115
0.000954115
0.00090553
0.00090553
0.00090553
0.000863456
0.000863456
0.000863456
0.000709341
0.000709341
0.000709341
0.000754838
0.000754838
0.000754838
0.00080581
0.00080581
0.00080581
0.000812779
0.000812779
0.000812779
0.00110456
0.00110456
0.00110456
0.00109534
0.00109534
0.00109534
0.000978934
0.000978934
0.000978934
0.000962304
0.000962304
0.000962304
0.00112326
0.00112326
0.00112326
0.00107555
0.00107555
0.00107555
0.0010395
0.0010395
0.0010395
0.00129113
0.00129113
0.00129113
0.00125829
0.00125829
0.00125829
0.00126913
0.00126913
0.00126913
0.00128405
0.00128405
0.00128405
0.00127309
0.00127309
0.00127309
0.00126126
0.00126126
0.00126126
0.00129411
0.00129411
0.00129411
0.00124269
0.00124269
0.00124269
0.0012643
0.0012643
0.0012643
0.00124394
0.00124394
0.00124394
0.00127527
0.00127527
0.00127527
0.00122542
0.00122542
0.00122542
0.00121498
0.00121498
0.00121498
0.00122926
0.00122926
0.00122926
0.00122264
0.00122264
0.00122264
0.00119177
0.00119177
0.00119177
0.00119544
0.00119544
0.00119544
0.00120566
0.00120566
0.00120566
0.00121224
0.00121224
0.00121224
0.00119817
0.00119817
0.00119817
0.00120843
0.00120843
0.00120843
0.00115107
0.00115107
0.00115107
0.00118056
0.00118056
0.00118056
0.00113221
0.00113221
0.00113221
0.00112249
0.00112249
0.00112249
0.00118103
0.00118103
0.00118103
0.00116095
0.00116095
0.00116095
0.00121114
0.00121114
0.00121114
0.00120084
0.00120084
0.00120084
0.00090765
0.00090765
0.00090765
0.000934924
0.000934924
0.000934924
0.000930187
0.000930187
0.000930187
0.000836964
0.000836964
0.000836964
0.000943683
0.000943683
0.000943683
0.000951462
0.000951462
0.000951462
0.000340611
0.000340611
0.000340611
0.000381772
0.000381772
0.000381772
0.00042646
0.00042646
0.00042646
0.000463949
0.000463949
0.000463949
0
0
0
0
0
0
0
0
0
0
0
0
0
0
0
0
0
0
0
0
0
0
0
0
2.90266e-05
2.90266e-05
2.90266e-05
0.000107382
0.000107382
0.000107382
0.00034635
0.00034635
0.00034635
0.000349261
0.000349261
0.000349261
0.000154208
0.000154208
0.000154208
0.000221719
0.000221719
0.000221719
0.000194537
0.000194537
0.000194537
0.000278802