<VTKFile type="UnstructuredGrid" version="1.0">
<UnstructuredGrid>
<Piece NumberOfPoints="10830" NumberOfCells="3610">
<Points>
<DataArray type="Float64" NumberOfComponents="3" format="ascii">
2.19217 2.20649 5.25075
2.19928 2.19938 5.225
2.19928 2.19938 5.27646
2.19928 2.19938 5.78008
2.19928 2.19938 5.831
2.19129 2.20737 5.80553
2.19928 2.19938 5.78008
2.19129 2.20737 5.80553
2.17928 2.21938 5.7801
1.30559 3.09307 6.25259
1.31816 3.0805 6.27
1.28831 3.11035 6.27
1.28831 3.11035 6.27
1.28831 3.11035 6.23984
1.30559 3.09307 6.25259
2.19928 2.19938 5.78008
2.17928 2.21938 5.7801
2.1913 2.20736 5.75468
1.29441 3.10425 5.50179
1.28831 3.11035 5.52701
1.28831 3.11035 5.47657
2.19132 2.20734 5.5019
2.19928 2.19938 5.52709
2.17929 2.21937 5.52711
2.19117 2.20749 5.40134
2.19928 2.19938 5.37628
2.19928 2.19938 5.42639
2.17929 2.21937 5.52711
2.19928 2.19938 5.52709
2.19133 2.20733 5.55231
2.19928 2.19938 5.52709
2.19928 2.19938 5.57754
2.19133 2.20733 5.55231
2.17929 2.21937 5.57755
2.19133 2.20733 5.55231
2.19928 2.19938 5.57754
2.17928 2.21938 5.72931
2.1913 2.20736 5.75468
2.16946 2.22921 5.7547
2.16946 2.22921 5.7547
2.1913 2.20736 5.75468
2.17928 2.21938 5.7801
2.16946 2.22921 5.7547
2.15842 2.24024 5.72932
2.17928 2.21938 5.72931
2.16946 2.22921 5.7547
2.17928 2.21938 5.7801
2.15841 2.24025 5.78012
2.19928 2.19938 5.62804
2.19928 2.19938 5.67862
2.19132 2.20734 5.65333
2.19132 2.20734 5.65333
2.17929 2.21937 5.67863
2.16947 2.22919 5.65334
2.19928 2.19938 5.67862
2.17929 2.21937 5.67863
2.19132 2.20734 5.65333
2.19928 2.19938 5.72929
2.1913 2.20736 5.75468
2.17928 2.21938 5.72931
2.19928 2.19938 5.78008
2.1913 2.20736 5.75468
2.19928 2.19938 5.72929
2.17913 2.21954 5.37632
2.19928 2.19938 5.37628
2.19117 2.20749 5.40134
2.17927 2.21939 5.83103
2.19129 2.20737 5.80553
2.19928 2.19938 5.831
1.8956 2.50306 6.01075
1.90602 2.49264 5.98498
1.91643 2.48223 6.01072
1.28831 3.11035 5.225
1.30792 3.09074 5.225
1.29529 3.10337 5.2497
1.34771 3.05096 5.47659
1.32717 3.07149 5.47657
1.33709 3.06157 5.45137
1.30704 3.09162 5.47656
1.32717 3.07149 5.47657
1.31607 3.08259 5.50178
1.30704 3.09162 5.47656
1.29441 3.10425 5.50179
1.28831 3.11035 5.47657
1.31607 3.08259 5.50178
1.29441 3.10425 5.50179
1.30704 3.09162 5.47656
1.2945 3.10417 5.70394
1.28831 3.11035 5.7293
1.28831 3.11035 5.67861
1.3071 3.09157 5.7293
1.31615 3.08252 5.70393
1.32724 3.07142 5.72929
1.28831 3.11035 5.7293
1.2945 3.10417 5.70394
1.3071 3.09157 5.7293
1.3071 3.09157 5.7293
1.2945 3.10417 5.70394
1.31615 3.08252 5.70393
1.30708 3.09158 5.6786
1.32723 3.07143 5.6786
1.31615 3.08252 5.70393
1.30708 3.09158 5.6786
1.2945 3.10417 5.70394
1.28831 3.11035 5.67861
1.31615 3.08252 5.70393
1.2945 3.10417 5.70394
1.30708 3.09158 5.6786
1.28831 3.11035 5.52701
1.29441 3.10425 5.50179
1.30705 3.09161 5.527
1.30705 3.09161 5.527
1.29441 3.10425 5.50179
1.31607 3.08259 5.50178
1.32724 3.07142 5.72929
1.31615 3.08252 5.70393
1.33718 3.06148 5.70393
1.31615 3.08252 5.70393
1.32723 3.07143 5.6786
1.33718 3.06148 5.70393
1.49256 2.90611 5.67867
1.50289 2.89577 5.70401
1.48223 2.91643 5.704
1.48223 2.91643 5.704
1.50289 2.89577 5.70401
1.49257 2.90609 5.72937
1.49257 2.90609 5.72937
1.50289 2.89577 5.70401
1.51323 2.88543 5.72938
1.88521 2.51346 5.985
1.90602 2.49264 5.98498
1.8956 2.50306 6.01075
2.19127 2.20739 5.45156
2.19928 2.19938 5.42639
2.19928 2.19938 5.4767
2.19928 2.19938 5.52709
2.19132 2.20734 5.5019
2.19928 2.19938 5.4767
2.11618 2.28248 5.6281
2.09503 2.30363 5.62811
2.10562 2.29304 5.60285
2.17929 2.21937 5.62805
2.19132 2.20734 5.65333
2.16947 2.22919 5.65334
2.19928 2.19938 5.62804
2.19132 2.20734 5.65333
2.17929 2.21937 5.62805
2.16947 2.22919 5.65334
2.17929 2.21937 5.67863
2.15843 2.24024 5.67865
2.19131 2.20735 5.70395
2.17929 2.21937 5.67863
2.19928 2.19938 5.67862
2.19928 2.19938 5.67862
2.19928 2.19938 5.72929
2.19131 2.20735 5.70395
2.19131 2.20735 5.70395
2.19928 2.19938 5.72929
2.17928 2.21938 5.72931
2.1693 2.22936 5.40137
2.17913 2.21954 5.37632
2.19117 2.20749 5.40134
2.19127 2.20739 5.45156
2.19928 2.19938 5.4767
2.17927 2.21939 5.47674
2.17927 2.21939 5.47674
2.19928 2.19938 5.4767
2.19132 2.20734 5.5019
2.10553 2.29313 5.45161
2.09491 2.30375 5.42643
2.11605 2.28261 5.42643
2.1372 2.26147 5.42645
2.12662 2.27204 5.40126
2.14787 2.25079 5.40131
2.1372 2.26147 5.42645
2.11605 2.28261 5.42643
2.12662 2.27204 5.40126
2.16946 2.2292 5.50193
2.19132 2.20734 5.5019
2.17929 2.21937 5.52711
2.16946 2.2292 5.50193
2.17927 2.21939 5.47674
2.19132 2.20734 5.5019
2.16945 2.22921 5.80555
2.17928 2.21938 5.7801
2.19129 2.20737 5.80553
2.19129 2.20737 5.80553
2.17927 2.21939 5.83103
2.16945 2.22921 5.80555
2.15841 2.24025 5.78012
2.17928 2.21938 5.7801
2.16945 2.22921 5.80555
2.16944 2.22922 5.95905
2.14804 2.25062 5.95906
2.15841 2.24025 5.93337
2.14804 2.25063 5.90774
2.16944 2.22922 5.90772
2.15841 2.24025 5.93337
2.19128 2.20738 5.85653
2.17927 2.21939 5.83103
2.19928 2.19938 5.831
2.16944 2.22922 5.85656
2.17927 2.21939 5.83103
2.19128 2.20738 5.85653
1.93725 2.46141 6.06232
1.94766 2.451 6.08816
1.92679 2.47187 6.0882
2.05276 2.34591 5.93343
2.06331 2.33535 5.90779
2.07386 2.3248 5.93341
2.07386 2.3248 5.93341
2.06331 2.33535 5.90779
2.08443 2.31423 5.90778
2.15841 2.24026 5.88213
2.14804 2.25062 5.85658
2.16944 2.22922 5.85656
2.15841 2.24026 5.88213
2.16944 2.22922 5.90772
2.14804 2.25063 5.90774
2.04222 2.35644 5.90781
2.06331 2.33535 5.90779
2.05276 2.34591 5.93343
1.9897 2.40896 5.67874
1.96874 2.42992 5.67874
1.97921 2.41945 5.65344
1.93736 2.4613 5.65344
1.92692 2.47174 5.67875
1.91649 2.48217 5.65344
1.94781 2.45085 5.67875
1.92692 2.47174 5.67875
1.93736 2.4613 5.65344
1.92691 2.47175 5.57765
1.9478 2.45086 5.57765
1.93736 2.46131 5.60289
1.93736 2.46131 5.60289
1.91648 2.48218 5.60289
1.92691 2.47175 5.57765
1.92691 2.47175 5.57765
1.91648 2.48218 5.60289
1.90605 2.49261 5.57764
1.93736 2.46131 5.60289
1.9478 2.45086 5.57765
1.95826 2.4404 5.6029
1.96871 2.42995 5.52723
1.9792 2.41946 5.55244
1.95825 2.44041 5.55243
1.95825 2.44041 5.55243
1.94778 2.45088 5.52723
1.96871 2.42995 5.52723
1.8126 2.58607 5.70409
1.82295 2.57571 5.67875
1.83332 2.56534 5.70409
1.82295 2.57571 5.67875
1.84369 2.55497 5.67875
1.83332 2.56534 5.70409
1.92692 2.47174 5.62816
1.91648 2.48218 5.60289
1.93736 2.46131 5.60289
1.92692 2.47174 5.62816
1.93736 2.4613 5.65344
1.91649 2.48217 5.65344
1.91649 2.48217 5.65344
1.89565 2.50301 5.65344
1.90606 2.4926 5.62815
1.90606 2.4926 5.62815
1.92692 2.47174 5.62816
1.91649 2.48217 5.65344
1.91648 2.48218 5.60289
1.92692 2.47174 5.62816
1.90606 2.4926 5.62815
1.90605 2.49261 5.57764
1.88523 2.51343 5.57764
1.89563 2.50303 5.55241
1.88521 2.51345 5.52719
1.90603 2.49263 5.52721
1.89563 2.50303 5.55241
1.51322 2.88545 5.67868
1.50289 2.89577 5.70401
1.49256 2.90611 5.67867
1.49256 2.90611 5.67867
1.50288 2.89578 5.65336
1.51322 2.88545 5.67868
1.29442 3.10424 5.29987
1.28831 3.11035 5.32509
1.28831 3.11035 5.27442
1.28831 3.11035 5.225
1.29529 3.10337 5.2497
1.28831 3.11035 5.27442
1.307 3.09167 5.3757
1.28831 3.11035 5.37567
1.29431 3.10435 5.35042
1.28831 3.11035 5.37567
1.28831 3.11035 5.32509
1.29431 3.10435 5.35042
2.19928 2.19938 5.225
2.19217 2.20649 5.25075
2.18013 2.21854 5.225
1.28831 3.11035 5.47657
1.28831 3.11035 5.42614
1.29438 3.10428 5.45136
1.29438 3.10428 5.45136
1.30704 3.09162 5.47656
1.28831 3.11035 5.47657
1.30702 3.09164 5.42613
1.29438 3.10428 5.45136
1.28831 3.11035 5.42614
1.30702 3.09164 5.42613
1.31601 3.08265 5.40094
1.32714 3.07152 5.42616
1.31605 3.08262 5.45135
1.33709 3.06157 5.45137
1.32717 3.07149 5.47657
1.32717 3.07149 5.47657
1.30704 3.09162 5.47656
1.31605 3.08262 5.45135
1.32714 3.07152 5.42616
1.33709 3.06157 5.45137
1.31605 3.08262 5.45135
1.31605 3.08262 5.45135
1.30702 3.09164 5.42613
1.32714 3.07152 5.42616
1.30704 3.09162 5.47656
1.29438 3.10428 5.45136
1.31605 3.08262 5.45135
1.29438 3.10428 5.45136
1.30702 3.09164 5.42613
1.31605 3.08262 5.45135
1.29435 3.10432 5.40091
1.28831 3.11035 5.42614
1.28831 3.11035 5.37567
1.29435 3.10432 5.40091
1.28831 3.11035 5.37567
1.307 3.09167 5.3757
1.307 3.09167 5.3757
1.31601 3.08265 5.40094
1.29435 3.10432 5.40091
1.29435 3.10432 5.40091
1.30702 3.09164 5.42613
1.28831 3.11035 5.42614
1.31601 3.08265 5.40094
1.30702 3.09164 5.42613
1.29435 3.10432 5.40091
1.33717 3.06149 5.65329
1.32723 3.07143 5.6786
1.31613 3.08254 5.65329
1.32723 3.07143 5.6786
1.30708 3.09158 5.6786
1.31613 3.08254 5.65329
1.31613 3.08254 5.65329
1.32722 3.07145 5.628
1.33717 3.06149 5.65329
1.33711 3.06155 5.50179
1.32717 3.07149 5.47657
1.34771 3.05096 5.47659
1.31607 3.08259 5.50178
1.32717 3.07149 5.47657
1.33711 3.06155 5.50179
1.35794 3.04072 5.5018
1.33711 3.06155 5.50179
1.34771 3.05096 5.47659
1.34773 3.05094 5.52701
1.33711 3.06155 5.50179
1.35794 3.04072 5.5018
1.34773 3.05094 5.52701
1.35794 3.04072 5.5018
1.36839 3.03027 5.52702
1.50287 2.89579 5.6028
1.51321 2.88546 5.62807
1.49255 2.90612 5.62807
1.49255 2.90612 5.62807
1.51321 2.88546 5.62807
1.50288 2.89578 5.65336
1.42017 2.9785 5.65332
1.44086 2.9578 5.65333
1.43052 2.96814 5.67863
1.43051 2.96815 5.62804
1.44086 2.9578 5.65333
1.42017 2.9785 5.65332
1.44085 2.95782 5.60277
1.4305 2.96817 5.57752
1.45119 2.94748 5.57753
1.43051 2.96815 5.62804
1.42015 2.97851 5.60276
1.44085 2.95782 5.60277
1.44085 2.95782 5.60277
1.42015 2.97851 5.60276
1.4305 2.96817 5.57752
1.44087 2.95779 5.70398
1.46156 2.9371 5.70399
1.45123 2.94744 5.72934
1.3995 2.99917 5.7547
1.40985 2.98882 5.72932
1.4202 2.97846 5.75471
1.40983 2.98883 5.67862
1.42017 2.9785 5.65332
1.43052 2.96814 5.67863
1.39946 2.9992 5.65331
1.42017 2.9785 5.65332
1.40983 2.98883 5.67862
1.32724 3.07142 5.72929
1.33718 3.06148 5.70393
1.34779 3.05087 5.72929
1.33717 3.06149 5.65329
1.32722 3.07145 5.628
1.34776 3.0509 5.628
1.34776 3.0509 5.628
1.35799 3.04067 5.65329
1.33717 3.06149 5.65329
1.38911 3.00955 5.62801
1.39946 2.9992 5.65331
1.37874 3.01992 5.6533
1.34777 3.05089 5.6786
1.33718 3.06148 5.70393
1.32723 3.07143 5.6786
[...]
<PointData Scalars="View Factor" >
<DataArray type="Float64" Name="View Factor" NumberOfComponents="1" format="ascii">
1.87271e-05
1.87271e-05
1.87271e-05
4.41826e-05
4.41826e-05
4.41826e-05
4.66165e-05
4.66165e-05
4.66165e-05
0.000322192
0.000322192
0.000322192
0.000325895
0.000325895
0.000325895
4.99923e-05
4.99923e-05
4.99923e-05
0.000425049
0.000425049
0.000425049
3.65453e-05
3.65453e-05
3.65453e-05
1.48388e-05
1.48388e-05
1.48388e-05
4.73287e-05
4.73287e-05
4.73287e-05
5.86662e-05
5.86662e-05
5.86662e-05
6.69528e-05
6.69528e-05
6.69528e-05
6.19792e-05
6.19792e-05
6.19792e-05
5.78347e-05
5.78347e-05
5.78347e-05
8.96688e-05
8.96688e-05
8.96688e-05
8.36386e-05
8.36386e-05
8.36386e-05
8.70105e-05
8.70105e-05
8.70105e-05
9.05155e-05
9.05155e-05
9.05155e-05
8.08591e-05
8.08591e-05
8.08591e-05
5.80352e-05
5.80352e-05
5.80352e-05
5.46232e-05
5.46232e-05
5.46232e-05
1.52092e-05
1.52092e-05
1.52092e-05
4.06933e-05
4.06933e-05
4.06933e-05
1.62968e-05
1.62968e-05
1.62968e-05
0.000466223
0.000466223
0.000466223
0.000412828
0.000412828
0.000412828
0.00041834
0.00041834
0.00041834
0.000425505
0.000425505
0.000425505
0.00042105
0.00042105
0.00042105
0.000395421
0.000395421
0.000395421
0.000384489
0.000384489
0.000384489
0.00039108
0.00039108
0.00039108
0.000389336
0.000389336
0.000389336
0.000389116
0.000389116
0.000389116
0.00039582
0.00039582
0.00039582
0.000391679
0.000391679
0.000391679
0.000420367
0.000420367
0.000420367
0.000418514
0.000418514
0.000418514
0.000382011
0.000382011
0.000382011
0.000384293
0.000384293
0.000384293
0.000305981
0.000305981
0.000305981
0.000304073
0.000304073
0.000304073
0.000292382
0.000292382
0.000292382
1.71294e-05
1.71294e-05
1.71294e-05
1.41944e-05
1.41944e-05
1.41944e-05
2.73879e-05
2.73879e-05
2.73879e-05
9.91377e-05
9.91377e-05
9.91377e-05
9.47489e-05
9.47489e-05
9.47489e-05
8.86575e-05
8.86575e-05
8.86575e-05
0.000106614
0.000106614
0.000106614
7.46584e-05
7.46584e-05
7.46584e-05
6.94123e-05
6.94123e-05
6.94123e-05
6.29702e-05
6.29702e-05
6.29702e-05
2.17128e-05
2.17128e-05
2.17128e-05
1.45357e-05
1.45357e-05
1.45357e-05
1.88992e-05
1.88992e-05
1.88992e-05
3.99278e-05
3.99278e-05
3.99278e-05
5.54627e-05
5.54627e-05
5.54627e-05
5.18498e-05
5.18498e-05
5.18498e-05
3.87678e-05
3.87678e-05
3.87678e-05
2.96986e-05
2.96986e-05
2.96986e-05
5.06111e-05
5.06111e-05
5.06111e-05
4.77583e-05
4.77583e-05
4.77583e-05
8.10959e-05
8.10959e-05
8.10959e-05
6.20711e-05
6.20711e-05
6.20711e-05
6.45004e-05
6.45004e-05
6.45004e-05
3.81847e-05
3.81847e-05
3.81847e-05
4.25747e-05
4.25747e-05
4.25747e-05
1.16781e-05
1.16781e-05
1.16781e-05
2.0212e-05
2.0212e-05
2.0212e-05
2.08673e-05
2.08673e-05
2.08673e-05
6.89468e-05
6.89468e-05
6.89468e-05
6.59304e-05
6.59304e-05
6.59304e-05
2.08894e-05
2.08894e-05
2.08894e-05
7.43248e-05
7.43248e-05
7.43248e-05
8.26794e-05
8.26794e-05
8.26794e-05
7.75409e-05
7.75409e-05
7.75409e-05
7.81217e-05
7.81217e-05
7.81217e-05
8.36312e-05
8.36312e-05
8.36312e-05
8.08644e-05
8.08644e-05
8.08644e-05
8.07493e-05
8.07493e-05
8.07493e-05
5.18049e-05
5.18049e-05
5.18049e-05
4.67224e-05
4.67224e-05
4.67224e-05
7.90008e-05
7.90008e-05
7.90008e-05
8.20325e-05
8.20325e-05
8.20325e-05
9.04107e-05
9.04107e-05
9.04107e-05
8.90689e-05
8.90689e-05
8.90689e-05
9.21278e-05
9.21278e-05
9.21278e-05
9.23224e-05
9.23224e-05
9.23224e-05
9.33706e-05
9.33706e-05
9.33706e-05
7.41335e-05
7.41335e-05
7.41335e-05
5.17927e-05
5.17927e-05
5.17927e-05
0.000296092
0.000296092
0.000296092
0.000297957
0.000297957
0.000297957
0.000457446
0.000457446
0.000457446
0.000465841
0.000465841
0.000465841
0.000444074
0.000444074
0.000444074
0.000449063
0.000449063
0.000449063
1.97568e-05
1.97568e-05
1.97568e-05
0.000432867
0.000432867
0.000432867
0.000428097
0.000428097
0.000428097
0.000433336
0.000433336
0.000433336
0.00042867
0.00042867
0.00042867
0.00041824
0.00041824
0.00041824
0.000420886
0.000420886
0.000420886
0.000420797
0.000420797
0.000420797
0.000426068
0.000426068
0.000426068
0.000426213
0.000426213
0.000426213
0.0004288
0.0004288
0.0004288
0.000440867
0.000440867
0.000440867
0.000441371
0.000441371
0.000441371
0.000436752
0.000436752
0.000436752
0.000435989
0.000435989
0.000435989
0.000434079
0.000434079
0.000434079
0.000388942
0.000388942
0.000388942
0.000391485
0.000391485
0.000391485
0.000391304
0.000391304
0.000391304
0.000410292
0.000410292
0.000410292
0.000413189
0.000413189
0.000413189
0.000405018
0.000405018
0.000405018
0.000402507
0.000402507
0.000402507
0.000397572
0.000397572
0.000397572
0.000303851
0.000303851
0.000303851
0.000301862
0.000301862
0.000301862
0.000346412
0.000346412
0.000346412
0.000348444
0.000348444
0.000348444
0.000351011
0.000351011
0.000351011
0.00035251
0.00035251
0.00035251
0.000354607
0.000354607
0.000354607
0.000331946
0.000331946
0.000331946
0.000345007
0.000345007
0.000345007
0.000350177
0.000350177
0.000350177
0.000355534
0.000355534
0.000355534
0.000376891
0.000376891
0.000376891
0.000388485
0.000388485
0.000388485
0.000383397
0.000383397
0.000383397
0.000367187
0.000367187
0.000367187
0.000381502
0.000381502
0.000381502
0.0003838
0.0003838
0.0003838
0.000381051
0.000381051
0.000381051
0.000336998
0.000336998
0.000336998
0.00034263
0.00034263
0.00034263
0.000326128
0.000326128
0.000326128
0.000315798
0.000315798
0.000315798
0.000321981
0.000321981
0.000321981
0.00032382
0.00032382
0.00032382
0.000311841
0.000311841
0.000311841
0.000325832
0.000325832
0.000325832
0.000319968
0.000319968
0.000319968
0.000309921
0.000309921
0.000309921
0.000315887
0.000315887
0.000315887
0.000305928
0.000305928
0.000305928
0.000313873
0.000313873
0.000313873
0.000334923
0.000334923
0.000334923
0.000327949
0.000327949
0.000327949
0.000269776
0.000269776
0.000269776
8.73529e-05
8.73529e-05
8.73529e-05
0.00018803
0.00018803
0.00018803
7.9626e-05
7.9626e-05
7.9626e-05
0.000183473
0.000183473
0.000183473
0.00029827
0.00029827
0.00029827
0.000290578
0.000290578
0.000290578
0.000300181
0.000300181
0.000300181
1.92836e-05
1.92836e-05
1.92836e-05
1.83234e-05
1.83234e-05
1.83234e-05
1.68179e-05
1.68179e-05
1.68179e-05
1.7669e-05
1.7669e-05
1.7669e-05
2.06134e-05
2.06134e-05
2.06134e-05
2.10165e-05
2.10165e-05
2.10165e-05
2.51774e-05
2.51774e-05
2.51774e-05
1.88872e-05
1.88872e-05
1.88872e-05
9.21465e-06
9.21465e-06
9.21465e-06
9.54509e-06
9.54509e-06
9.54509e-06
8.69206e-06
8.69206e-06
8.69206e-06
8.65403e-06
8.65403e-06
8.65403e-06
1.01461e-05
1.01461e-05
1.01461e-05
1.02612e-05
1.02612e-05
1.02612e-05
9.8922e-06
9.8922e-06
9.8922e-06
9.30672e-06
9.30672e-06
9.30672e-06
9.6379e-06
9.6379e-06
9.6379e-06
1.00007e-05
1.00007e-05
1.00007e-05
1.04841e-05
1.04841e-05
1.04841e-05
8.43834e-06
8.43834e-06
8.43834e-06
9.06792e-06
9.06792e-06
9.06792e-06
8.98167e-06
8.98167e-06
8.98167e-06
8.47241e-06
8.47241e-06
8.47241e-06
8.2224e-06
8.2224e-06
8.2224e-06
7.35325e-06
7.35325e-06
7.35325e-06
6.31022e-06
6.31022e-06
6.31022e-06
6.34235e-06
6.34235e-06
6.34235e-06
1.15492e-05
1.15492e-05
1.15492e-05
1.15363e-05
1.15363e-05
1.15363e-05
1.12245e-05
1.12245e-05
1.12245e-05
8.40764e-05
8.40764e-05
8.40764e-05
8.21758e-05
8.21758e-05
8.21758e-05
8.52041e-05
8.52041e-05
8.52041e-05
7.99879e-05
7.99879e-05
7.99879e-05
3.37881e-05
3.37881e-05
3.37881e-05
4.58559e-05
4.58559e-05
4.58559e-05
2.7433e-05
2.7433e-05
2.7433e-05
7.29289e-05
7.29289e-05
7.29289e-05
7.62904e-05
7.62904e-05
7.62904e-05
8.75311e-05
8.75311e-05
8.75311e-05
9.28055e-05
9.28055e-05
9.28055e-05
8.34738e-05
8.34738e-05
8.34738e-05
7.5165e-05
7.5165e-05
7.5165e-05
8.63592e-05
8.63592e-05
8.63592e-05
8.74907e-05
8.74907e-05
8.74907e-05
8.7718e-05
8.7718e-05
8.7718e-05
9.32149e-05
9.32149e-05
9.32149e-05
0.000101654
0.000101654
0.000101654
9.24154e-05
9.24154e-05
9.24154e-05
9.67153e-05
9.67153e-05
9.67153e-05
7.19465e-05
7.19465e-05
7.19465e-05
7.79164e-05
7.79164e-05
7.79164e-05
1.39711e-05
1.39711e-05
1.39711e-05
1.43485e-05
1.43485e-05
1.43485e-05
2.14759e-05
2.14759e-05
2.14759e-05
1.56531e-05
1.56531e-05
1.56531e-05
4.00536e-05
4.00536e-05
4.00536e-05
4.77222e-05
4.77222e-05
4.77222e-05
7.057e-05
7.057e-05
7.057e-05
5.88252e-05
5.88252e-05
5.88252e-05
6.95932e-05
6.95932e-05
6.95932e-05
6.30427e-05
6.30427e-05
6.30427e-05
7.6536e-05
7.6536e-05
7.6536e-05
7.45343e-05
7.45343e-05
7.45343e-05
7.06492e-05
7.06492e-05
7.06492e-05
6.10065e-05
6.10065e-05
6.10065e-05
3.89563e-05
3.89563e-05
3.89563e-05
7.96693e-06
7.96693e-06
7.96693e-06
1.52365e-05
1.52365e-05
1.52365e-05
1.76992e-05
1.76992e-05
1.76992e-05
1.65896e-05
1.65896e-05
1.65896e-05
1.88097e-05
1.88097e-05
1.88097e-05
1.63944e-05
1.63944e-05
1.63944e-05
4.94024e-05
4.94024e-05
4.94024e-05
5.04891e-05
5.04891e-05
5.04891e-05
6.67095e-05
6.67095e-05
6.67095e-05
7.3242e-05
7.3242e-05
7.3242e-05
7.35003e-05
7.35003e-05
7.35003e-05
7.66041e-05
7.66041e-05
7.66041e-05
4.74081e-05
4.74081e-05
4.74081e-05
4.96836e-05
4.96836e-05
4.96836e-05
4.75004e-05
4.75004e-05
4.75004e-05
7.11405e-05
7.11405e-05
7.11405e-05
6.94285e-05
6.94285e-05
6.94285e-05
4.03994e-05
4.03994e-05
4.03994e-05
5.95679e-05
5.95679e-05
5.95679e-05
5.62151e-05
5.62151e-05
5.62151e-05
6.08153e-05
6.08153e-05
6.08153e-05
5.8646e-05
5.8646e-05
5.8646e-05
5.41107e-05
5.41107e-05
5.41107e-05
5.53793e-05
5.53793e-05
5.53793e-05
7.37752e-05
7.37752e-05
7.37752e-05
8.23636e-05
8.23636e-05
8.23636e-05
7.69365e-05
7.69365e-05
7.69365e-05
8.524e-05
8.524e-05
8.524e-05
8.02355e-05
8.02355e-05
8.02355e-05
8.55094e-05
8.55094e-05
8.55094e-05
6.99006e-05
6.99006e-05
6.99006e-05
5.92076e-05
5.92076e-05
5.92076e-05
5.56501e-05
5.56501e-05
5.56501e-05
7.21004e-05
7.21004e-05
7.21004e-05
7.47525e-05
7.47525e-05
7.47525e-05
8.29332e-05
8.29332e-05
8.29332e-05
8.83404e-05
8.83404e-05
8.83404e-05
7.71793e-05
7.71793e-05
7.71793e-05
8.56302e-05
8.56302e-05
8.56302e-05
6.54483e-05
6.54483e-05
6.54483e-05
6.11141e-05
6.11141e-05
6.11141e-05
5.56237e-05
5.56237e-05
5.56237e-05
5.39411e-05
5.39411e-05
5.39411e-05
5.74152e-05
5.74152e-05
5.74152e-05
6.3088e-05
6.3088e-05
6.3088e-05
7.98519e-05
7.98519e-05
7.98519e-05
7.48433e-05
7.48433e-05
7.48433e-05
7.80348e-05
7.80348e-05
7.80348e-05
8.39981e-05
8.39981e-05
8.39981e-05
3.42176e-05
3.42176e-05
3.42176e-05
4.92968e-05
4.92968e-05
4.92968e-05
3.50945e-05
3.50945e-05
3.50945e-05
7.16976e-05
7.16976e-05
7.16976e-05
5.01294e-05
5.01294e-05
5.01294e-05
6.78674e-05
6.78674e-05
6.78674e-05
5.70018e-05
5.70018e-05
5.70018e-05
4.84245e-05
4.84245e-05
4.84245e-05
5.51636e-05
5.51636e-05
5.51636e-05
6.56639e-05
6.56639e-05
6.56639e-05
6.92634e-05
6.92634e-05
6.92634e-05
6.33957e-05
6.33957e-05
6.33957e-05
5.32573e-05
5.32573e-05
5.32573e-05
8.51078e-05
8.51078e-05
8.51078e-05
8.60266e-05
8.60266e-05
8.60266e-05
0.000113905
0.000113905
0.000113905
0.000122824
0.000122824
0.000122824
6.76053e-05
6.76053e-05
6.76053e-05
7.17505e-05
7.17505e-05
7.17505e-05
0.000111056
0.000111056
0.000111056
0.000107274
0.000107274
0.000107274
5.8187e-05
5.8187e-05
5.8187e-05
6.17433e-05
6.17433e-05
6.17433e-05
5.96699e-05
5.96699e-05
5.96699e-05
5.3347e-05
5.3347e-05
5.3347e-05
5.14568e-05
5.14568e-05
5.14568e-05
5.47034e-05
5.47034e-05
5.47034e-05
9.10316e-05
9.10316e-05
9.10316e-05
0.000104817
0.000104817
0.000104817
0.000104376
0.000104376
0.000104376
9.68477e-05
9.68477e-05
9.68477e-05
6.7035e-05
6.7035e-05
6.7035e-05
7.16955e-05
7.16955e-05
7.16955e-05
0.000107945
0.000107945
0.000107945
8.4461e-05
8.4461e-05
8.4461e-05
9.37389e-05
9.37389e-05
9.37389e-05
0.000105996
0.000105996
0.000105996
5.34997e-05
5.34997e-05
5.34997e-05
5.89101e-05
5.89101e-05
5.89101e-05
7.01375e-05
7.01375e-05
7.01375e-05
9.54435e-05
9.54435e-05
9.54435e-05
9.51885e-05
9.51885e-05
9.51885e-05
9.96968e-05
9.96968e-05
9.96968e-05
9.85667e-05
9.85667e-05
9.85667e-05
0.000283218
0.000283218
0.000283218
0.000343811
0.000343811
0.000343811
0.00034196
0.00034196
0.00034196
0.000345616
0.000345616
0.000345616
0.000314014
0.000314014
0.000314014
0.000297097
0.000297097
0.000297097
0.000299119
0.000299119
0.000299119
0.000402514
0.000402514
0.000402514
0.000410029
0.000410029
0.000410029
0.000405019
0.000405019
0.000405019
0.000293281
0.000293281
0.000293281
0.000291299
0.000291299
0.000291299
0.000116759
0.000116759
0.000116759
0.000109988
0.000109988
0.000109988
9.91306e-05
9.91306e-05
9.91306e-05
9.52142e-05
9.52142e-05
9.52142e-05
8.08592e-05
8.08592e-05
8.08592e-05
8.62911e-05
8.62911e-05
8.62911e-05
4.98649e-05
4.98649e-05
4.98649e-05
2.23801e-05
2.23801e-05
2.23801e-05
7.35414e-05
7.35414e-05
7.35414e-05
7.31084e-06
7.31084e-06
7.31084e-06
4.34132e-05
4.34132e-05
4.34132e-05
4.38991e-05
4.38991e-05
4.38991e-05
4.40253e-06
4.40253e-06
4.40253e-06
4.83532e-06
4.83532e-06
4.83532e-06
0.000388388
0.000388388
0.000388388
0.000388769
0.000388769
0.000388769
0.000402596
0.000402596
0.000402596
0.000398182
0.000398182
0.000398182
0.000396412
0.000396412
0.000396412
0.000409922
0.000409922
0.000409922
0.000410342
0.000410342
0.000410342
0.000403422
0.000403422
0.000403422
0.000406056
0.000406056
0.000406056
0.000417841
0.000417841
0.000417841
0.000417404
0.000417404
0.000417404
0.000412814
0.000412814
0.000412814
0.000413473
0.000413473
0.000413473
0.000410984
0.000410984
0.000410984
0.000405858
0.000405858
0.000405858
0.000403265
0.000403265
0.000403265
0.000397669
0.000397669
0.000397669
0.000395201
0.000395201
0.000395201
0.000413297
0.000413297
0.000413297
0.000410657
0.000410657
0.000410657
0.000410802
0.000410802
0.000410802
0.000405745
0.000405745
0.000405745
0.000405283
0.000405283
0.000405283
0.000402897
0.000402897
0.000402897
0.000398446
0.000398446
0.000398446
0.000396039
0.000396039
0.000396039
0.000390872
0.000390872
0.000390872
0.000388086
0.000388086
0.000388086
0.000324064
0.000324064
0.000324064
0.000332535
0.000332535
0.000332535
0.000334727
0.000334727
0.000334727
0.000316014
0.000316014
0.000316014
0.000309861
0.000309861
0.000309861
0.00031192
0.00031192
0.00031192
0.00031778
0.00031778
0.00031778
0.000321936
0.000321936
0.000321936
0.000328217
0.000328217
0.000328217
0.000326066
0.000326066
0.000326066
0.000357728
0.000357728
0.000357728
0.000362135
0.000362135
0.000362135
0.000354447
0.000354447
0.000354447
0.000356629
0.000356629
0.000356629
0.000364035
0.000364035
0.000364035
0.000366276
0.000366276
0.000366276
0.000342569
0.000342569
0.000342569
0.00034814
0.00034814
0.00034814
0.000335817
0.000335817
0.000335817
0.000342101
0.000342101
0.000342101
0.000344065
0.000344065
0.000344065
0.000340704
0.000340704
0.000340704
0.000336859
0.000336859
0.000336859
0.000333907
0.000333907
0.000333907
0.00033896
0.00033896
0.00033896
0.000336191
0.000336191
0.000336191
0.000338129
0.000338129
0.000338129
0.000342976
0.000342976
0.000342976
0.000346811
0.000346811
0.000346811
0.000347729
0.000347729
0.000347729
0.000344736
0.000344736
0.000344736
0.000351074
0.000351074
0.000351074
0.000383286
0.000383286
0.000383286
0.000372519
0.000372519
0.000372519
0.000380924
0.000380924
0.000380924
0.000375608
0.000375608
0.000375608
0.000374225
0.000374225
0.000374225
0.000376482
0.000376482
0.000376482
0.000368831
0.000368831
0.000368831
0.000374078
0.000374078
0.000374078
0.000373317
0.000373317
0.000373317
0.000376346
0.000376346
0.000376346
0.000345631
0.000345631
0.000345631
0.000348578
0.000348578
0.000348578
0.000340635
0.000340635
0.000340635
0.000353559
0.000353559
0.000353559
0.000356444
0.000356444
0.000356444
0.000346484
0.000346484
0.000346484
0.000313758
0.000313758
0.000313758
0.000332433
0.000332433
0.000332433
0.000330589
0.000330589
0.000330589
0.000325516
0.000325516
0.000325516
0.000322271
0.000322271
0.000322271
0.000329226
0.000329226
0.000329226
0.000319561
0.000319561
0.000319561
0.000322465
0.000322465
0.000322465
0.0003552
0.0003552
0.0003552
0.000351324
0.000351324
0.000351324
0.000349746
0.000349746
0.000349746
0.00034304
0.00034304
0.00034304
0.000348907
0.000348907
0.000348907
0.000345108
0.000345108
0.000345108
0.000343579
0.000343579
0.000343579
0.000349256
0.000349256
0.000349256
0.000345621
0.000345621
0.000345621
0.000345362
0.000345362
0.000345362
0.00034331
0.00034331
0.00034331
0.000333868
0.000333868
0.000333868
0.000329857
0.000329857
0.000329857
0.000331851
0.000331851
0.000331851
0.000337724
0.000337724
0.000337724
0.000341448
0.000341448
0.000341448
0.000339643
0.000339643
0.000339643
0.000319663
0.000319663
0.000319663
0.000329961
0.000329961
0.000329961
0.000325967
0.000325967
0.000325967
0.000317668
0.000317668
0.000317668
5.30113e-05
5.30113e-05
5.30113e-05
6.01272e-05
6.01272e-05
6.01272e-05
5.66165e-05
5.66165e-05
5.66165e-05
0.000233974
0.000233974
0.000233974
0.000226664
0.000226664
0.000226664
0.000224406
0.000224406
0.000224406
0.000253846
0.000253846
0.000253846
0.00023334
0.00023334
0.00023334
0.000286838
0.000286838
0.000286838
0.000285048
0.000285048
0.000285048
0.000257013
0.000257013
0.000257013
0.000271464
0.000271464
0.000271464
0.000276691
0.000276691
0.000276691
0.000274917
0.000274917
0.000274917
0.000236592
0.000236592
0.000236592
0.000258615
0.000258615
0.000258615
1.67714e-05
1.67714e-05
1.67714e-05
1.59638e-05
1.59638e-05
1.59638e-05
1.63355e-05
1.63355e-05
1.63355e-05
1.71812e-05
1.71812e-05
1.71812e-05
1.87471e-05
1.87471e-05
1.87471e-05
2.00387e-05
2.00387e-05
2.00387e-05
1.66966e-05
1.66966e-05
1.66966e-05
1.78055e-05
1.78055e-05
1.78055e-05
1.73393e-05
1.73393e-05
1.73393e-05
1.82083e-05
1.82083e-05
1.82083e-05
2.79089e-05
2.79089e-05
2.79089e-05
2.45535e-05
2.45535e-05
2.45535e-05
2.29775e-05
2.29775e-05
2.29775e-05
2.5261e-05
2.5261e-05
2.5261e-05
2.59141e-05
2.59141e-05
2.59141e-05
2.36393e-05
2.36393e-05
2.36393e-05
2.24633e-05
2.24633e-05
2.24633e-05
2.83572e-05
2.83572e-05
2.83572e-05
2.71144e-05
2.71144e-05
2.71144e-05
3.09017e-05
3.09017e-05
3.09017e-05
3.16544e-05
3.16544e-05
3.16544e-05
2.1826e-05
2.1826e-05
2.1826e-05
1.9826e-05
1.9826e-05
1.9826e-05
1.94632e-05
1.94632e-05
1.94632e-05
2.04216e-05
2.04216e-05
2.04216e-05
2.38882e-05
2.38882e-05
2.38882e-05
2.23157e-05
2.23157e-05
2.23157e-05
2.11883e-05
2.11883e-05
2.11883e-05
1.82767e-05
1.82767e-05
1.82767e-05
1.92294e-05
1.92294e-05
1.92294e-05
1.86309e-05
1.86309e-05
1.86309e-05
1.99587e-05
1.99587e-05
1.99587e-05
4.62916e-05
4.62916e-05
4.62916e-05
4.26239e-05
4.26239e-05
4.26239e-05
3.25849e-05
3.25849e-05
3.25849e-05
3.61437e-05
3.61437e-05
3.61437e-05
3.92728e-05
3.92728e-05
3.92728e-05
3.71924e-05
3.71924e-05
3.71924e-05
3.52251e-05
3.52251e-05
3.52251e-05
4.14349e-05
4.14349e-05
4.14349e-05
4.04126e-05
4.04126e-05
4.04126e-05
2.94882e-05
2.94882e-05
2.94882e-05
3.10494e-05
3.10494e-05
3.10494e-05
1.50353e-05
1.50353e-05
1.50353e-05
9.91182e-06
9.91182e-06
9.91182e-06
1.05204e-05
1.05204e-05
1.05204e-05
1.14613e-05
1.14613e-05
1.14613e-05
1.10294e-05
1.10294e-05
1.10294e-05
1.55208e-05
1.55208e-05
1.55208e-05
1.52919e-05
1.52919e-05
1.52919e-05
0.000326772
0.000326772
0.000326772
0.000323618
0.000323618
0.000323618
1.02577e-05
1.02577e-05
1.02577e-05
1.74077e-05
1.74077e-05
1.74077e-05
7.5937e-05
7.5937e-05
7.5937e-05
1.99259e-05
1.99259e-05
1.99259e-05
0.000223236
0.000223236
0.000223236
3.92456e-05
3.92456e-05
3.92456e-05
2.8119e-05
2.8119e-05
2.8119e-05
2.09013e-05
2.09013e-05
2.09013e-05
2.14255e-05
2.14255e-05
2.14255e-05
2.39817e-05
2.39817e-05
2.39817e-05
2.29053e-05
2.29053e-05
2.29053e-05
1.62605e-05
1.62605e-05
1.62605e-05
1.18453e-05
1.18453e-05
1.18453e-05
1.09019e-05
1.09019e-05
1.09019e-05
1.11815e-05
1.11815e-05
1.11815e-05
1.07571e-05
1.07571e-05
1.07571e-05
1.77551e-05
1.77551e-05
1.77551e-05
1.95968e-05
1.95968e-05
1.95968e-05
1.86303e-05
1.86303e-05
1.86303e-05
1.62215e-05
1.62215e-05
1.62215e-05
1.58777e-05
1.58777e-05
1.58777e-05
1.66195e-05
1.66195e-05
1.66195e-05
1.74356e-05
1.74356e-05
1.74356e-05
1.88399e-05
1.88399e-05
1.88399e-05
1.7666e-05
1.7666e-05
1.7666e-05
7.13527e-06
7.13527e-06
7.13527e-06
7.36747e-06
7.36747e-06
7.36747e-06
8.7484e-06
8.7484e-06
8.7484e-06
8.00545e-06
8.00545e-06
8.00545e-06
8.2522e-06
8.2522e-06
8.2522e-06
7.57082e-06
7.57082e-06
7.57082e-06
7.58888e-06
7.58888e-06
7.58888e-06
8.04481e-06
8.04481e-06
8.04481e-06
8.34925e-06
8.34925e-06
8.34925e-06
6.47613e-06
6.47613e-06