<VTKFile type="UnstructuredGrid" version="1.0">
<UnstructuredGrid>
<Piece NumberOfPoints="10830" NumberOfCells="3610">
<Points>
<DataArray type="Float64" NumberOfComponents="3" format="ascii">
3.10314 1.29552 16.7457
3.11025 1.28841 16.72
3.11025 1.28841 16.7715
3.11025 1.28841 17.2751
3.11025 1.28841 17.326
3.10226 1.2964 17.3005
3.11025 1.28841 17.2751
3.10226 1.2964 17.3005
3.09025 1.30841 17.2751
2.21656 2.1821 17.7476
2.22913 2.16953 17.765
2.19928 2.19938 17.765
2.19928 2.19938 17.765
2.19928 2.19938 17.7348
2.21656 2.1821 17.7476
3.11025 1.28841 17.2751
3.09025 1.30841 17.2751
3.10227 1.29639 17.2497
2.20538 2.19328 16.9968
2.19928 2.19938 17.022
2.19928 2.19938 16.9716
3.10229 1.29637 16.9969
3.11025 1.28841 17.0221
3.09026 1.3084 17.0221
3.10214 1.29652 16.8963
3.11025 1.28841 16.8713
3.11025 1.28841 16.9214
3.09026 1.3084 17.0221
3.11025 1.28841 17.0221
3.1023 1.29636 17.0473
3.11025 1.28841 17.0221
3.11025 1.28841 17.0725
3.1023 1.29636 17.0473
3.09026 1.3084 17.0726
3.1023 1.29636 17.0473
3.11025 1.28841 17.0725
3.09025 1.30841 17.2243
3.10227 1.29639 17.2497
3.08043 1.31823 17.2497
3.08043 1.31823 17.2497
3.10227 1.29639 17.2497
3.09025 1.30841 17.2751
3.08043 1.31823 17.2497
3.06939 1.32927 17.2243
3.09025 1.30841 17.2243
3.08043 1.31823 17.2497
3.09025 1.30841 17.2751
3.06938 1.32928 17.2751
3.11025 1.28841 17.123
3.11025 1.28841 17.1736
3.10229 1.29637 17.1483
3.10229 1.29637 17.1483
3.09026 1.3084 17.1736
3.08044 1.31822 17.1483
3.11025 1.28841 17.1736
3.09026 1.3084 17.1736
3.10229 1.29637 17.1483
3.11025 1.28841 17.2243
3.10227 1.29639 17.2497
3.09025 1.30841 17.2243
3.11025 1.28841 17.2751
3.10227 1.29639 17.2497
3.11025 1.28841 17.2243
3.0901 1.30856 16.8713
3.11025 1.28841 16.8713
3.10214 1.29652 16.8963
3.09024 1.30842 17.326
3.10226 1.2964 17.3005
3.11025 1.28841 17.326
2.80657 1.59209 17.5057
2.81699 1.58167 17.48
2.8274 1.57126 17.5057
2.19928 2.19938 16.72
2.21889 2.17977 16.72
2.20626 2.1924 16.7447
2.25868 2.13998 16.9716
2.23814 2.16052 16.9716
2.24806 2.1506 16.9464
2.21801 2.18065 16.9716
2.23814 2.16052 16.9716
2.22704 2.17162 16.9968
2.21801 2.18065 16.9716
2.20538 2.19328 16.9968
2.19928 2.19938 16.9716
2.22704 2.17162 16.9968
2.20538 2.19328 16.9968
2.21801 2.18065 16.9716
2.20547 2.19319 17.1989
2.19928 2.19938 17.2243
2.19928 2.19938 17.1736
2.21807 2.1806 17.2243
2.22712 2.17155 17.1989
2.23821 2.16045 17.2243
2.19928 2.19938 17.2243
2.20547 2.19319 17.1989
2.21807 2.1806 17.2243
2.21807 2.1806 17.2243
2.20547 2.19319 17.1989
2.22712 2.17155 17.1989
2.21805 2.18061 17.1736
2.2382 2.16046 17.1736
2.22712 2.17155 17.1989
2.21805 2.18061 17.1736
2.20547 2.19319 17.1989
2.19928 2.19938 17.1736
2.22712 2.17155 17.1989
2.20547 2.19319 17.1989
2.21805 2.18061 17.1736
2.19928 2.19938 17.022
2.20538 2.19328 16.9968
2.21802 2.18064 17.022
2.21802 2.18064 17.022
2.20538 2.19328 16.9968
2.22704 2.17162 16.9968
2.23821 2.16045 17.2243
2.22712 2.17155 17.1989
2.24816 2.15051 17.1989
2.22712 2.17155 17.1989
2.2382 2.16046 17.1736
2.24816 2.15051 17.1989
2.40353 1.99513 17.1737
2.41386 1.9848 17.199
2.3932 2.00546 17.199
2.3932 2.00546 17.199
2.41386 1.9848 17.199
2.40354 1.99512 17.2244
2.40354 1.99512 17.2244
2.41386 1.9848 17.199
2.4242 1.97446 17.2244
2.79618 1.60248 17.48
2.81699 1.58167 17.48
2.80657 1.59209 17.5057
3.10224 1.29642 16.9466
3.11025 1.28841 16.9214
3.11025 1.28841 16.9717
3.11025 1.28841 17.0221
3.10229 1.29637 16.9969
3.11025 1.28841 16.9717
3.02715 1.37151 17.1231
3.006 1.39266 17.1231
3.01659 1.38207 17.0978
3.09026 1.3084 17.1231
3.10229 1.29637 17.1483
3.08044 1.31822 17.1483
3.11025 1.28841 17.123
3.10229 1.29637 17.1483
3.09026 1.3084 17.1231
3.08044 1.31822 17.1483
3.09026 1.3084 17.1736
3.0694 1.32926 17.1736
3.10228 1.29638 17.1989
3.09026 1.3084 17.1736
3.11025 1.28841 17.1736
3.11025 1.28841 17.1736
3.11025 1.28841 17.2243
3.10228 1.29638 17.1989
3.10228 1.29638 17.1989
3.11025 1.28841 17.2243
3.09025 1.30841 17.2243
3.08027 1.31839 16.8964
3.0901 1.30856 16.8713
3.10214 1.29652 16.8963
3.10224 1.29642 16.9466
3.11025 1.28841 16.9717
3.09024 1.30842 16.9717
3.09024 1.30842 16.9717
3.11025 1.28841 16.9717
3.10229 1.29637 16.9969
3.0165 1.38216 16.9466
3.00588 1.39278 16.9214
3.02702 1.37164 16.9214
3.04817 1.35049 16.9215
3.03759 1.36107 16.8963
3.05884 1.33982 16.8963
3.04817 1.35049 16.9215
3.02702 1.37164 16.9214
3.03759 1.36107 16.8963
3.08043 1.31823 16.9969
3.10229 1.29637 16.9969
3.09026 1.3084 17.0221
3.08043 1.31823 16.9969
3.09024 1.30842 16.9717
3.10229 1.29637 16.9969
3.08042 1.31824 17.3006
3.09025 1.30841 17.2751
3.10226 1.2964 17.3005
3.10226 1.2964 17.3005
3.09024 1.30842 17.326
3.08042 1.31824 17.3006
3.06938 1.32928 17.2751
3.09025 1.30841 17.2751
3.08042 1.31824 17.3006
3.08041 1.31825 17.4541
3.05901 1.33965 17.4541
3.06938 1.32928 17.4284
3.05901 1.33966 17.4027
3.08041 1.31825 17.4027
3.06938 1.32928 17.4284
3.10225 1.29641 17.3515
3.09024 1.30842 17.326
3.11025 1.28841 17.326
3.08041 1.31825 17.3516
3.09024 1.30842 17.326
3.10225 1.29641 17.3515
2.84822 1.55044 17.5573
2.85863 1.54003 17.5832
2.83776 1.5609 17.5832
2.96373 1.43493 17.4284
2.97428 1.42438 17.4028
2.98483 1.41383 17.4284
2.98483 1.41383 17.4284
2.97428 1.42438 17.4028
2.9954 1.40326 17.4028
3.06938 1.32929 17.3771
3.05901 1.33965 17.3516
3.08041 1.31825 17.3516
3.06938 1.32929 17.3771
3.08041 1.31825 17.4027
3.05901 1.33966 17.4027
2.95319 1.44547 17.4028
2.97428 1.42438 17.4028
2.96373 1.43493 17.4284
2.90067 1.49799 17.1737
2.87971 1.51895 17.1737
2.89018 1.50848 17.1484
2.84833 1.55033 17.1484
2.83789 1.56077 17.1737
2.82746 1.5712 17.1484
2.85878 1.53988 17.1737
2.83789 1.56077 17.1737
2.84833 1.55033 17.1484
2.83788 1.56078 17.0727
2.85877 1.53989 17.0727
2.84833 1.55034 17.0979
2.84833 1.55034 17.0979
2.82745 1.57121 17.0979
2.83788 1.56078 17.0727
2.83788 1.56078 17.0727
2.82745 1.57121 17.0979
2.81702 1.58164 17.0726
2.84833 1.55034 17.0979
2.85877 1.53989 17.0727
2.86924 1.52943 17.0979
2.87968 1.51898 17.0222
2.89017 1.50849 17.0474
2.86922 1.52944 17.0474
2.86922 1.52944 17.0474
2.85875 1.53991 17.0222
2.87968 1.51898 17.0222
2.72357 1.6751 17.1991
2.73392 1.66474 17.1737
2.74429 1.65437 17.1991
2.73392 1.66474 17.1737
2.75466 1.644 17.1737
2.74429 1.65437 17.1991
2.83789 1.56077 17.1232
2.82745 1.57121 17.0979
2.84833 1.55034 17.0979
2.83789 1.56077 17.1232
2.84833 1.55033 17.1484
2.82746 1.5712 17.1484
2.82746 1.5712 17.1484
2.80662 1.59204 17.1484
2.81703 1.58163 17.1232
2.81703 1.58163 17.1232
2.83789 1.56077 17.1232
2.82746 1.5712 17.1484
2.82745 1.57121 17.0979
2.83789 1.56077 17.1232
2.81703 1.58163 17.1232
2.81702 1.58164 17.0726
2.7962 1.60246 17.0726
2.8066 1.59206 17.0474
2.79618 1.60248 17.0222
2.81701 1.58166 17.0222
2.8066 1.59206 17.0474
2.42419 1.97447 17.1737
2.41386 1.9848 17.199
2.40353 1.99513 17.1737
2.40353 1.99513 17.1737
2.41385 1.98481 17.1484
2.42419 1.97447 17.1737
2.20539 2.19327 16.7949
2.19928 2.19938 16.8201
2.19928 2.19938 16.7694
2.19928 2.19938 16.72
2.20626 2.1924 16.7447
2.19928 2.19938 16.7694
2.21797 2.1807 16.8707
2.19928 2.19938 16.8707
2.20528 2.19338 16.8454
2.19928 2.19938 16.8707
2.19928 2.19938 16.8201
2.20528 2.19338 16.8454
3.11025 1.28841 16.72
3.10314 1.29552 16.7457
3.0911 1.30756 16.72
2.19928 2.19938 16.9716
2.19928 2.19938 16.9211
2.20536 2.19331 16.9464
2.20536 2.19331 16.9464
2.21801 2.18065 16.9716
2.19928 2.19938 16.9716
2.21799 2.18067 16.9211
2.20536 2.19331 16.9464
2.19928 2.19938 16.9211
2.21799 2.18067 16.9211
2.22698 2.17168 16.8959
2.23811 2.16055 16.9212
2.22702 2.17165 16.9464
2.24806 2.1506 16.9464
2.23814 2.16052 16.9716
2.23814 2.16052 16.9716
2.21801 2.18065 16.9716
2.22702 2.17165 16.9464
2.23811 2.16055 16.9212
2.24806 2.1506 16.9464
2.22702 2.17165 16.9464
2.22702 2.17165 16.9464
2.21799 2.18067 16.9211
2.23811 2.16055 16.9212
2.21801 2.18065 16.9716
2.20536 2.19331 16.9464
2.22702 2.17165 16.9464
2.20536 2.19331 16.9464
2.21799 2.18067 16.9211
2.22702 2.17165 16.9464
2.20532 2.19334 16.8959
2.19928 2.19938 16.9211
2.19928 2.19938 16.8707
2.20532 2.19334 16.8959
2.19928 2.19938 16.8707
2.21797 2.1807 16.8707
2.21797 2.1807 16.8707
2.22698 2.17168 16.8959
2.20532 2.19334 16.8959
2.20532 2.19334 16.8959
2.21799 2.18067 16.9211
2.19928 2.19938 16.9211
2.22698 2.17168 16.8959
2.21799 2.18067 16.9211
2.20532 2.19334 16.8959
2.24814 2.15052 17.1483
2.2382 2.16046 17.1736
2.2271 2.17156 17.1483
2.2382 2.16046 17.1736
2.21805 2.18061 17.1736
2.2271 2.17156 17.1483
2.2271 2.17156 17.1483
2.23819 2.16048 17.123
2.24814 2.15052 17.1483
2.24809 2.15058 16.9968
2.23814 2.16052 16.9716
2.25868 2.13998 16.9716
2.22704 2.17162 16.9968
2.23814 2.16052 16.9716
2.24809 2.15058 16.9968
2.26891 2.12975 16.9968
2.24809 2.15058 16.9968
2.25868 2.13998 16.9716
2.2587 2.13996 17.022
2.24809 2.15058 16.9968
2.26891 2.12975 16.9968
2.2587 2.13996 17.022
2.26891 2.12975 16.9968
2.27936 2.1193 17.022
2.41384 1.98482 17.0978
2.42418 1.97448 17.1231
2.40352 1.99515 17.1231
2.40352 1.99515 17.1231
2.42418 1.97448 17.1231
2.41385 1.98481 17.1484
2.33114 2.06753 17.1483
2.35183 2.04683 17.1483
2.34149 2.05717 17.1736
2.34148 2.05718 17.123
2.35183 2.04683 17.1483
2.33114 2.06753 17.1483
2.35182 2.04684 17.0978
2.34147 2.05719 17.0725
2.36216 2.03651 17.0725
2.34148 2.05718 17.123
2.33112 2.06754 17.0978
2.35182 2.04684 17.0978
2.35182 2.04684 17.0978
2.33112 2.06754 17.0978
2.34147 2.05719 17.0725
2.35184 2.04682 17.199
2.37253 2.02613 17.199
2.3622 2.03646 17.2243
2.31047 2.08819 17.2497
2.32082 2.07785 17.2243
2.33117 2.06749 17.2497
2.3208 2.07786 17.1736
2.33114 2.06753 17.1483
2.34149 2.05717 17.1736
2.31043 2.08823 17.1483
2.33114 2.06753 17.1483
2.3208 2.07786 17.1736
2.23821 2.16045 17.2243
2.24816 2.15051 17.1989
2.25876 2.1399 17.2243
2.24814 2.15052 17.1483
2.23819 2.16048 17.123
2.25873 2.13993 17.123
2.25873 2.13993 17.123
2.26896 2.1297 17.1483
2.24814 2.15052 17.1483
2.30008 2.09858 17.123
2.31043 2.08823 17.1483
2.28971 2.10895 17.1483
2.25874 2.13992 17.1736
2.24816 2.15051 17.1989
[...]
<PointData Scalars="View Factor" >
<DataArray type="Float64" Name="View Factor" NumberOfComponents="1" format="ascii">
1.42407e-05
1.42407e-05
1.42407e-05
1.30032e-05
1.30032e-05
1.30032e-05
1.29624e-05
1.29624e-05
1.29624e-05
2.45576e-06
2.45576e-06
2.45576e-06
1.91096e-06
1.91096e-06
1.91096e-06
1.29994e-05
1.29994e-05
1.29994e-05
1.21338e-06
1.21338e-06
1.21338e-06
1.35454e-05
1.35454e-05
1.35454e-05
1.38877e-05
1.38877e-05
1.38877e-05
1.35068e-05
1.35068e-05
1.35068e-05
1.35492e-05
1.35492e-05
1.35492e-05
1.34337e-05
1.34337e-05
1.34337e-05
1.29377e-05
1.29377e-05
1.29377e-05
1.29029e-05
1.29029e-05
1.29029e-05
1.28291e-05
1.28291e-05
1.28291e-05
1.27598e-05
1.27598e-05
1.27598e-05
1.33281e-05
1.33281e-05
1.33281e-05
1.31168e-05
1.31168e-05
1.31168e-05
1.32144e-05
1.32144e-05
1.32144e-05
1.30692e-05
1.30692e-05
1.30692e-05
1.31106e-05
1.31106e-05
1.31106e-05
1.38438e-05
1.38438e-05
1.38438e-05
1.28922e-05
1.28922e-05
1.28922e-05
1.0832e-06
1.0832e-06
1.0832e-06
2.11908e-06
2.11908e-06
2.11908e-06
4.55563e-06
4.55563e-06
4.55563e-06
4.82413e-06
4.82413e-06
4.82413e-06
1.46622e-06
1.46622e-06
1.46622e-06
2.05914e-06
2.05914e-06
2.05914e-06
9.62988e-07
9.62988e-07
9.62988e-07
4.52206e-06
4.52206e-06
4.52206e-06
1.16686e-06
1.16686e-06
1.16686e-06
1.8093e-06
1.8093e-06
1.8093e-06
4.56044e-06
4.56044e-06
4.56044e-06
1.19972e-06
1.19972e-06
1.19972e-06
1.81822e-06
1.81822e-06
1.81822e-06
1.40838e-06
1.40838e-06
1.40838e-06
2.01458e-06
2.01458e-06
2.01458e-06
4.39776e-06
4.39776e-06
4.39776e-06
4.41396e-06
4.41396e-06
4.41396e-06
5.22077e-07
5.22077e-07
5.22077e-07
5.09561e-07
5.09561e-07
5.09561e-07
4.9853e-07
4.9853e-07
4.9853e-07
9.27213e-07
9.27213e-07
9.27213e-07
1.37742e-05
1.37742e-05
1.37742e-05
1.36613e-05
1.36613e-05
1.36613e-05
1.22541e-05
1.22541e-05
1.22541e-05
1.31521e-05
1.31521e-05
1.31521e-05
1.32863e-05
1.32863e-05
1.32863e-05
1.29712e-05
1.29712e-05
1.29712e-05
1.31775e-05
1.31775e-05
1.31775e-05
1.32189e-05
1.32189e-05
1.32189e-05
1.31059e-05
1.31059e-05
1.31059e-05
1.37039e-05
1.37039e-05
1.37039e-05
1.36563e-05
1.36563e-05
1.36563e-05
1.36181e-05
1.36181e-05
1.36181e-05
1.26345e-05
1.26345e-05
1.26345e-05
1.31402e-05
1.31402e-05
1.31402e-05
1.29772e-05
1.29772e-05
1.29772e-05
1.34445e-05
1.34445e-05
1.34445e-05
1.34815e-05
1.34815e-05
1.34815e-05
1.28317e-05
1.28317e-05
1.28317e-05
1.27965e-05
1.27965e-05
1.27965e-05
1.27242e-05
1.27242e-05
1.27242e-05
1.22804e-05
1.22804e-05
1.22804e-05
1.23484e-05
1.23484e-05
1.23484e-05
1.28555e-05
1.28555e-05
1.28555e-05
1.27262e-05
1.27262e-05
1.27262e-05
6.40069e-06
6.40069e-06
6.40069e-06
1.10948e-05
1.10948e-05
1.10948e-05
1.12571e-05
1.12571e-05
1.12571e-05
1.24503e-05
1.24503e-05
1.24503e-05
1.23829e-05
1.23829e-05
1.23829e-05
1.09334e-05
1.09334e-05
1.09334e-05
9.89065e-06
9.89065e-06
9.89065e-06
4.87127e-06
4.87127e-06
4.87127e-06
7.29856e-06
7.29856e-06
7.29856e-06
7.48588e-06
7.48588e-06
7.48588e-06
5.02672e-06
5.02672e-06
5.02672e-06
9.26648e-07
9.26648e-07
9.26648e-07
8.10709e-06
8.10709e-06
8.10709e-06
9.67349e-06
9.67349e-06
9.67349e-06
9.0829e-06
9.0829e-06
9.0829e-06
6.68522e-07
6.68522e-07
6.68522e-07
6.92904e-07
6.92904e-07
6.92904e-07
4.98211e-06
4.98211e-06
4.98211e-06
4.90714e-06
4.90714e-06
4.90714e-06
8.18807e-07
8.18807e-07
8.18807e-07
8.37536e-07
8.37536e-07
8.37536e-07
8.64053e-07
8.64053e-07
8.64053e-07
9.33377e-07
9.33377e-07
9.33377e-07
1.00455e-06
1.00455e-06
1.00455e-06
5.31893e-07
5.31893e-07
5.31893e-07
5.50405e-07
5.50405e-07
5.50405e-07
1.7154e-06
1.7154e-06
1.7154e-06
1.90138e-06
1.90138e-06
1.90138e-06
1.697e-06
1.697e-06
1.697e-06
1.5564e-06
1.5564e-06
1.5564e-06
1.42003e-05
1.42003e-05
1.42003e-05
1.30784e-06
1.30784e-06
1.30784e-06
1.49199e-06
1.49199e-06
1.49199e-06
1.55471e-06
1.55471e-06
1.55471e-06
4.92467e-06
4.92467e-06
4.92467e-06
4.72355e-06
4.72355e-06
4.72355e-06
4.84648e-06
4.84648e-06
4.84648e-06
4.75128e-06
4.75128e-06
4.75128e-06
4.89958e-06
4.89958e-06
4.89958e-06
2.18401e-06
2.18401e-06
2.18401e-06
2.25234e-06
2.25234e-06
2.25234e-06
1.42281e-06
1.42281e-06
1.42281e-06
1.65991e-06
1.65991e-06
1.65991e-06
2.45552e-06
2.45552e-06
2.45552e-06
1.58805e-06
1.58805e-06
1.58805e-06
2.38784e-06
2.38784e-06
2.38784e-06
4.45473e-06
4.45473e-06
4.45473e-06
4.58057e-06
4.58057e-06
4.58057e-06
4.47488e-06
4.47488e-06
4.47488e-06
4.53277e-06
4.53277e-06
4.53277e-06
4.66919e-06
4.66919e-06
4.66919e-06
4.35194e-06
4.35194e-06
4.35194e-06
4.32784e-06
4.32784e-06
4.32784e-06
4.11996e-06
4.11996e-06
4.11996e-06
6.01325e-07
6.01325e-07
6.01325e-07
5.82539e-07
5.82539e-07
5.82539e-07
5.57982e-07
5.57982e-07
5.57982e-07
5.76717e-07
5.76717e-07
5.76717e-07
6.44067e-07
6.44067e-07
6.44067e-07
6.12546e-07
6.12546e-07
6.12546e-07
6.361e-07
6.361e-07
6.361e-07
5.09337e-07
5.09337e-07
5.09337e-07
4.75165e-07
4.75165e-07
4.75165e-07
5.50123e-07
5.50123e-07
5.50123e-07
5.57906e-07
5.57906e-07
5.57906e-07
4.2325e-06
4.2325e-06
4.2325e-06
4.32871e-06
4.32871e-06
4.32871e-06
4.15831e-06
4.15831e-06
4.15831e-06
5.77059e-07
5.77059e-07
5.77059e-07
4.27031e-06
4.27031e-06
4.27031e-06
4.29071e-06
4.29071e-06
4.29071e-06
4.13845e-06
4.13845e-06
4.13845e-06
4.21135e-07
4.21135e-07
4.21135e-07
2.45798e-06
2.45798e-06
2.45798e-06
2.16367e-06
2.16367e-06
2.16367e-06
5.31826e-07
5.31826e-07
5.31826e-07
5.22125e-07
5.22125e-07
5.22125e-07
4.82699e-07
4.82699e-07
4.82699e-07
4.98464e-07
4.98464e-07
4.98464e-07
4.98815e-07
4.98815e-07
4.98815e-07
5.09386e-07
5.09386e-07
5.09386e-07
4.82817e-07
4.82817e-07
4.82817e-07
4.75007e-07
4.75007e-07
4.75007e-07
4.533e-07
4.533e-07
4.533e-07
4.61587e-07
4.61587e-07
4.61587e-07
4.61266e-07
4.61266e-07
4.61266e-07
4.75009e-07
4.75009e-07
4.75009e-07
4.21835e-07
4.21835e-07
4.21835e-07
4.05434e-07
4.05434e-07
4.05434e-07
3.96827e-07
3.96827e-07
3.96827e-07
3.85585e-07
3.85585e-07
3.85585e-07
3.8995e-07
3.8995e-07
3.8995e-07
4.62019e-07
4.62019e-07
4.62019e-07
4.82882e-07
4.82882e-07
4.82882e-07
4.74875e-07
4.74875e-07
4.74875e-07
8.35666e-07
8.35666e-07
8.35666e-07
9.75858e-07
9.75858e-07
9.75858e-07
1.0567e-06
1.0567e-06
1.0567e-06
9.04247e-07
9.04247e-07
9.04247e-07
6.22329e-07
6.22329e-07
6.22329e-07
5.55378e-07
5.55378e-07
5.55378e-07
4.6957e-07
4.6957e-07
4.6957e-07
6.73288e-07
6.73288e-07
6.73288e-07
1.7206e-06
1.7206e-06
1.7206e-06
1.73495e-06
1.73495e-06
1.73495e-06
1.6393e-06
1.6393e-06
1.6393e-06
1.57729e-06
1.57729e-06
1.57729e-06
1.82194e-06
1.82194e-06
1.82194e-06
1.89726e-06
1.89726e-06
1.89726e-06
1.87688e-06
1.87688e-06
1.87688e-06
1.78719e-06
1.78719e-06
1.78719e-06
1.93183e-06
1.93183e-06
1.93183e-06
1.95371e-06
1.95371e-06
1.95371e-06
2.04523e-06
2.04523e-06
2.04523e-06
1.62479e-06
1.62479e-06
1.62479e-06
1.83956e-06
1.83956e-06
1.83956e-06
1.77162e-06
1.77162e-06
1.77162e-06
1.6879e-06
1.6879e-06
1.6879e-06
1.67221e-06
1.67221e-06
1.67221e-06
1.86494e-06
1.86494e-06
1.86494e-06
1.06309e-05
1.06309e-05
1.06309e-05
8.50665e-06
8.50665e-06
8.50665e-06
9.50022e-06
9.50022e-06
9.50022e-06
9.92998e-06
9.92998e-06
9.92998e-06
9.74946e-06
9.74946e-06
9.74946e-06
1.25859e-05
1.25859e-05
1.25859e-05
1.26579e-05
1.26579e-05
1.26579e-05
1.26915e-05
1.26915e-05
1.26915e-05
1.24413e-05
1.24413e-05
1.24413e-05
1.01114e-05
1.01114e-05
1.01114e-05
1.00909e-05
1.00909e-05
1.00909e-05
1.03468e-05
1.03468e-05
1.03468e-05
1.18666e-05
1.18666e-05
1.18666e-05
1.17409e-05
1.17409e-05
1.17409e-05
1.33236e-05
1.33236e-05
1.33236e-05
1.32251e-05
1.32251e-05
1.32251e-05
1.34382e-05
1.34382e-05
1.34382e-05
1.33961e-05
1.33961e-05
1.33961e-05
1.32608e-05
1.32608e-05
1.32608e-05
1.25095e-05
1.25095e-05
1.25095e-05
1.26211e-05
1.26211e-05
1.26211e-05
1.28649e-05
1.28649e-05
1.28649e-05
1.2935e-05
1.2935e-05
1.2935e-05
1.27625e-05
1.27625e-05
1.27625e-05
1.2797e-05
1.2797e-05
1.2797e-05
1.30087e-05
1.30087e-05
1.30087e-05
1.30443e-05
1.30443e-05
1.30443e-05
1.37308e-05
1.37308e-05
1.37308e-05
1.37689e-05
1.37689e-05
1.37689e-05
1.3666e-05
1.3666e-05
1.3666e-05
1.38809e-05
1.38809e-05
1.38809e-05
1.26711e-05
1.26711e-05
1.26711e-05
1.28469e-05
1.28469e-05
1.28469e-05
1.33683e-05
1.33683e-05
1.33683e-05
1.31499e-05
1.31499e-05
1.31499e-05
1.32249e-05
1.32249e-05
1.32249e-05
1.31147e-05
1.31147e-05
1.31147e-05
1.26548e-05
1.26548e-05
1.26548e-05
1.26196e-05
1.26196e-05
1.26196e-05
1.24839e-05
1.24839e-05
1.24839e-05
1.22466e-05
1.22466e-05
1.22466e-05
1.14406e-05
1.14406e-05
1.14406e-05
9.59102e-06
9.59102e-06
9.59102e-06
1.38358e-06
1.38358e-06
1.38358e-06
7.07488e-07
7.07488e-07
7.07488e-07
9.50172e-07
9.50172e-07
9.50172e-07
1.10632e-05
1.10632e-05
1.10632e-05
1.10021e-05
1.10021e-05
1.10021e-05
1.17211e-05
1.17211e-05
1.17211e-05
1.17537e-05
1.17537e-05
1.17537e-05
1.08274e-05
1.08274e-05
1.08274e-05
1.15703e-05
1.15703e-05
1.15703e-05
1.12008e-05
1.12008e-05
1.12008e-05
1.14006e-05
1.14006e-05
1.14006e-05
1.12412e-05
1.12412e-05
1.12412e-05
1.10832e-05
1.10832e-05
1.10832e-05
1.0915e-05
1.0915e-05
1.0915e-05
1.25505e-05
1.25505e-05
1.25505e-05
1.25172e-05
1.25172e-05
1.25172e-05
1.26918e-05
1.26918e-05
1.26918e-05
1.21782e-05
1.21782e-05
1.21782e-05
1.20369e-05
1.20369e-05
1.20369e-05
1.22124e-05
1.22124e-05
1.22124e-05
1.21045e-05
1.21045e-05
1.21045e-05
1.19122e-05
1.19122e-05
1.19122e-05
1.19455e-05
1.19455e-05
1.19455e-05
1.08576e-05
1.08576e-05
1.08576e-05
1.10955e-05
1.10955e-05
1.10955e-05
1.10683e-05
1.10683e-05
1.10683e-05
9.94342e-06
9.94342e-06
9.94342e-06
7.9186e-07
7.9186e-07
7.9186e-07
7.94805e-07
7.94805e-07
7.94805e-07
7.25348e-06
7.25348e-06
7.25348e-06
6.45048e-07
6.45048e-07
6.45048e-07
6.40784e-07
6.40784e-07
6.40784e-07
7.22405e-07
7.22405e-07
7.22405e-07
7.48097e-07
7.48097e-07
7.48097e-07
7.72849e-07
7.72849e-07
7.72849e-07
7.75479e-07
7.75479e-07
7.75479e-07
7.29676e-07
7.29676e-07
7.29676e-07
7.53816e-07
7.53816e-07
7.53816e-07
7.07165e-07
7.07165e-07
7.07165e-07
6.99783e-07
6.99783e-07
6.99783e-07
6.78403e-07
6.78403e-07
6.78403e-07
6.57171e-07
6.57171e-07
6.57171e-07
6.61791e-07
6.61791e-07
6.61791e-07
6.82556e-07
6.82556e-07
6.82556e-07
8.02626e-06
8.02626e-06
8.02626e-06
8.85822e-06
8.85822e-06
8.85822e-06
9.46639e-06
9.46639e-06
9.46639e-06
9.49432e-06
9.49432e-06
9.49432e-06
5.23348e-07
5.23348e-07
5.23348e-07
6.43836e-07
6.43836e-07
6.43836e-07
5.40651e-07
5.40651e-07
5.40651e-07
9.57444e-07
9.57444e-07
9.57444e-07
1.02938e-06
1.02938e-06
1.02938e-06
9.60679e-07
9.60679e-07
9.60679e-07
9.93713e-07
9.93713e-07
9.93713e-07
7.4768e-06
7.4768e-06
7.4768e-06
5.15307e-06
5.15307e-06
5.15307e-06
5.10783e-06
5.10783e-06
5.10783e-06
7.49516e-06
7.49516e-06
7.49516e-06
8.15438e-06
8.15438e-06
8.15438e-06
8.18386e-06
8.18386e-06
8.18386e-06
9.54948e-06
9.54948e-06
9.54948e-06
9.97081e-06
9.97081e-06
9.97081e-06
6.02261e-07
6.02261e-07
6.02261e-07
6.19662e-07
6.19662e-07
6.19662e-07
5.26638e-07
5.26638e-07
5.26638e-07
5.28737e-07
5.28737e-07
5.28737e-07
6.21431e-07
6.21431e-07
6.21431e-07
6.02277e-07
6.02277e-07
6.02277e-07
5.09186e-07
5.09186e-07
5.09186e-07
5.14741e-07
5.14741e-07
5.14741e-07
4.93693e-07
4.93693e-07
4.93693e-07
5.01801e-07
5.01801e-07
5.01801e-07
4.8169e-07
4.8169e-07
4.8169e-07
4.86567e-07
4.86567e-07
4.86567e-07
7.15823e-07
7.15823e-07
7.15823e-07
7.56464e-07
7.56464e-07
7.56464e-07
7.39261e-07
7.39261e-07
7.39261e-07
7.17511e-07
7.17511e-07
7.17511e-07
6.48167e-07
6.48167e-07
6.48167e-07
6.54384e-07
6.54384e-07
6.54384e-07
7.36486e-07
7.36486e-07
7.36486e-07
6.74593e-07
6.74593e-07
6.74593e-07
6.96773e-07
6.96773e-07
6.96773e-07
7.81049e-07
7.81049e-07
7.81049e-07
9.79755e-07
9.79755e-07
9.79755e-07
9.69385e-07
9.69385e-07
9.69385e-07
9.37216e-07
9.37216e-07
9.37216e-07
8.16719e-07
8.16719e-07
8.16719e-07
7.98846e-07
7.98846e-07
7.98846e-07
8.22497e-07
8.22497e-07
8.22497e-07
7.966e-07
7.966e-07
7.966e-07
7.14624e-07
7.14624e-07
7.14624e-07
6.64128e-07
6.64128e-07
6.64128e-07
6.44168e-07
6.44168e-07
6.44168e-07
6.36229e-07
6.36229e-07
6.36229e-07
7.14431e-07
7.14431e-07
7.14431e-07
6.74693e-07
6.74693e-07
6.74693e-07
6.99573e-07
6.99573e-07
6.99573e-07
4.17105e-06
4.17105e-06
4.17105e-06
4.40564e-06
4.40564e-06
4.40564e-06
4.19519e-06
4.19519e-06
4.19519e-06
6.36727e-07
6.36727e-07
6.36727e-07
6.12559e-07
6.12559e-07
6.12559e-07
5.83041e-07
5.83041e-07
5.83041e-07
5.83373e-07
5.83373e-07
5.83373e-07
5.63269e-07
5.63269e-07
5.63269e-07
5.43258e-07
5.43258e-07
5.43258e-07
5.28305e-07
5.28305e-07
5.28305e-07
5.31783e-07
5.31783e-07
5.31783e-07
1.31634e-05
1.31634e-05
1.31634e-05
1.40603e-05
1.40603e-05
1.40603e-05
1.39483e-05
1.39483e-05
1.39483e-05
1.23715e-05
1.23715e-05
1.23715e-05
1.29508e-05
1.29508e-05
1.29508e-05
1.29855e-05
1.29855e-05
1.29855e-05
1.16736e-05
1.16736e-05
1.16736e-05
1.17388e-05
1.17388e-05
1.17388e-05
9.17088e-07
9.17088e-07
9.17088e-07
1.1525e-06
1.1525e-06
1.1525e-06
1.01163e-06
1.01163e-06
1.01163e-06
1.21849e-06
1.21849e-06
1.21849e-06
1.84274e-06
1.84274e-06
1.84274e-06
1.06841e-06
1.06841e-06
1.06841e-06
1.31533e-06
1.31533e-06
1.31533e-06
4.68176e-06
4.68176e-06
4.68176e-06
1.89392e-06
1.89392e-06
1.89392e-06
1.38497e-06
1.38497e-06
1.38497e-06
1.13322e-06
1.13322e-06
1.13322e-06
1.33686e-06
1.33686e-06
1.33686e-06
1.947e-06
1.947e-06
1.947e-06
1.92292e-06
1.92292e-06
1.92292e-06
4.70334e-06
4.70334e-06
4.70334e-06
4.57809e-06
4.57809e-06
4.57809e-06
4.2831e-06
4.2831e-06
4.2831e-06
4.09623e-06
4.09623e-06
4.09623e-06
4.77362e-06
4.77362e-06
4.77362e-06
4.64526e-06
4.64526e-06
4.64526e-06
4.75023e-06
4.75023e-06
4.75023e-06
4.60073e-06
4.60073e-06
4.60073e-06
4.48243e-06
4.48243e-06
4.48243e-06
4.45896e-06
4.45896e-06
4.45896e-06
4.53712e-06
4.53712e-06
4.53712e-06
4.51383e-06
4.51383e-06
4.51383e-06
4.34888e-06
4.34888e-06
4.34888e-06
4.19787e-06
4.19787e-06
4.19787e-06
6.01346e-07
6.01346e-07
6.01346e-07
6.12246e-07
6.12246e-07
6.12246e-07
6.36411e-07
6.36411e-07
6.36411e-07
6.12349e-07
6.12349e-07
6.12349e-07
5.58722e-07
5.58722e-07
5.58722e-07
5.76199e-07
5.76199e-07
5.76199e-07
5.50316e-07
5.50316e-07
5.50316e-07
5.82933e-07
5.82933e-07
5.82933e-07
5.7615e-07
5.7615e-07
5.7615e-07
5.58623e-07
5.58623e-07
5.58623e-07
5.76825e-07
5.76825e-07
5.76825e-07
6.12422e-07
6.12422e-07
6.12422e-07
5.83239e-07
5.83239e-07
5.83239e-07
6.01945e-07
6.01945e-07
6.01945e-07
5.82749e-07
5.82749e-07
5.82749e-07
6.021e-07
6.021e-07
6.021e-07
5.22253e-07
5.22253e-07
5.22253e-07
5.31727e-07
5.31727e-07
5.31727e-07
4.98845e-07
4.98845e-07
4.98845e-07
4.82911e-07
4.82911e-07
4.82911e-07
4.98918e-07
4.98918e-07
4.98918e-07
5.09265e-07
5.09265e-07
5.09265e-07
4.75082e-07
4.75082e-07
4.75082e-07
4.83035e-07
4.83035e-07
4.83035e-07
4.35811e-07
4.35811e-07
4.35811e-07
4.42838e-07
4.42838e-07
4.42838e-07
4.53391e-07
4.53391e-07
4.53391e-07
4.61118e-07
4.61118e-07
4.61118e-07
4.54164e-07
4.54164e-07
4.54164e-07
4.35834e-07
4.35834e-07
4.35834e-07
4.42778e-07
4.42778e-07
4.42778e-07
4.82795e-07
4.82795e-07
4.82795e-07
3.98477e-06
3.98477e-06
3.98477e-06
3.07753e-06
3.07753e-06
3.07753e-06
3.96491e-06
3.96491e-06
3.96491e-06
3.69124e-06
3.69124e-06
3.69124e-06
4.08007e-06
4.08007e-06
4.08007e-06
4.09617e-06
4.09617e-06
4.09617e-06
3.63074e-06
3.63074e-06
3.63074e-06
3.90876e-06
3.90876e-06
3.90876e-06
3.67057e-06
3.67057e-06
3.67057e-06
3.92889e-06
3.92889e-06
3.92889e-06
4.21244e-07
4.21244e-07
4.21244e-07
2.87743e-06
2.87743e-06
2.87743e-06
4.14139e-07
4.14139e-07
4.14139e-07
3.48932e-06
3.48932e-06
3.48932e-06
3.7647e-06
3.7647e-06
3.7647e-06
2.86173e-06
2.86173e-06
2.86173e-06
4.13647e-07
4.13647e-07
4.13647e-07
4.14014e-07
4.14014e-07
4.14014e-07
4.05524e-07
4.05524e-07
4.05524e-07
3.97288e-07
3.97288e-07
3.97288e-07
4.05548e-07
4.05548e-07
4.05548e-07
2.04164e-06
2.04164e-06
2.04164e-06
4.56669e-06
4.56669e-06
4.56669e-06
4.01587e-06
4.01587e-06
4.01587e-06
1.77831e-06
1.77831e-06
1.77831e-06
2.17872e-06
2.17872e-06
2.17872e-06
2.76378e-06
2.76378e-06
2.76378e-06
2.63931e-06
2.63931e-06
2.63931e-06
2.35026e-06
2.35026e-06
2.35026e-06
2.61106e-06
2.61106e-06
2.61106e-06
3.28425e-06
3.28425e-06
3.28425e-06
2.37879e-06
2.37879e-06
2.37879e-06
3.15599e-06
3.15599e-06
3.15599e-06
4.5696e-06
4.5696e-06
4.5696e-06
4.64751e-06
4.64751e-06
4.64751e-06
5.222e-07
5.222e-07
5.222e-07
5.31804e-07
5.31804e-07
5.31804e-07
5.50309e-07
5.50309e-07
5.50309e-07
5.58105e-07
5.58105e-07
5.58105e-07
5.50176e-07
5.50176e-07
5.50176e-07
5.31794e-07
5.31794e-07
5.31794e-07
4.53332e-07
4.53332e-07
4.53332e-07
4.53357e-07
4.53357e-07
4.53357e-07
4.61422e-07
4.61422e-07
4.61422e-07
4.4401e-07
4.4401e-07
4.4401e-07
4.12712e-07
4.12712e-07
4.12712e-07
4.45111e-07
4.45111e-07
4.45111e-07
4.34156e-07
4.34156e-07
4.34156e-07
4.34845e-07
4.34845e-07
4.34845e-07
4.05363e-07
4.05363e-07
4.05363e-07
4.12925e-07
4.12925e-07
4.12925e-07
4.13035e-07
4.13035e-07
4.13035e-07
4.21858e-07
4.21858e-07
4.21858e-07
4.53322e-07
4.53322e-07
4.53322e-07
4.43867e-07
4.43867e-07
4.43867e-07
4.44025e-07
4.44025e-07
4.44025e-07
4.34577e-07
4.34577e-07
4.34577e-07
4.74815e-07
4.74815e-07
4.74815e-07
4.62212e-07
4.62212e-07
4.62212e-07
4.62369e-07
4.62369e-07
4.62369e-07
4.53337e-07
4.53337e-07
4.53337e-07
1.36876e-06
1.36876e-06
1.36876e-06
1.63335e-06
1.63335e-06
1.63335e-06
1.40634e-06
1.40634e-06
1.40634e-06
1.24835e-06
1.24835e-06
1.24835e-06
8.58422e-07
8.58422e-07
8.58422e-07
6.39305e-07
6.39305e-07
6.39305e-07
1.28207e-06
1.28207e-06
1.28207e-06
1.00209e-06
1.00209e-06
1.00209e-06
1.0302e-06
1.0302e-06
1.0302e-06
8.81297e-07
8.81297e-07
8.81297e-07
4.70219e-07
4.70219e-07
4.70219e-07
4.61488e-07
4.61488e-07
4.61488e-07
4.47658e-07
4.47658e-07
4.47658e-07
4.49267e-07
4.49267e-07
4.49267e-07
4.57306e-07
4.57306e-07
4.57306e-07
4.35773e-07
4.35773e-07
4.35773e-07
4.57647e-07
4.57647e-07
4.57647e-07
4.77547e-07
4.77547e-07
4.77547e-07
4.82796e-07
4.82796e-07
4.82796e-07
5.0114e-07
5.0114e-07
5.0114e-07
5.1328e-07
5.1328e-07
5.1328e-07
4.69959e-07
4.69959e-07
4.69959e-07
5.85272e-07
5.85272e-07
5.85272e-07
6.56343e-07
6.56343e-07
6.56343e-07
5.70387e-07
5.70387e-07
5.70387e-07
4.73723e-07
4.73723e-07
4.73723e-07
4.59492e-07
4.59492e-07
4.59492e-07
4.82253e-07
4.82253e-07
4.82253e-07
6.90433e-07
6.90433e-07
6.90433e-07
6.00268e-07
6.00268e-07
6.00268e-07
6.15324e-07
6.15324e-07
6.15324e-07
5.06815e-07
5.06815e-07
5.06815e-07
5.41181e-07
5.41181e-07
5.41181e-07
5.26059e-07
5.26059e-07
5.26059e-07
4.9987e-07
4.9987e-07
4.9987e-07
5.26681e-07
5.26681e-07
5.26681e-07
5.35282e-07
5.35282e-07
5.35282e-07
5.12726e-07
5.12726e-07
5.12726e-07
5.09638e-07
5.09638e-07
5.09638e-07
5.40532e-07
5.40532e-07
5.40532e-07
5.21167e-07
5.21167e-07
5.21167e-07
3.76251e-07
3.76251e-07
3.76251e-07
3.71743e-07
3.71743e-07
3.71743e-07
1.98631e-06
1.98631e-06
1.98631e-06
1.56765e-06
1.56765e-06
1.56765e-06
1.84101e-06
1.84101e-06
1.84101e-06
1.95412e-06
1.95412e-06
1.95412e-06
1.92728e-06
1.92728e-06
1.92728e-06
1.67809e-06
1.67809e-06
1.67809e-06
1.77051e-06
1.77051e-06
1.77051e-06
3.8449e-07
3.8449e-07
3.8449e-07
3.89209e-07
3.89209e-07
3.89209e-07
1.5785e-06
1.5785e-06
1.5785e-06
1.68498e-06
1.68498e-06
1.68498e-06
3.69666e-07
3.69666e-07
3.69666e-07
1.32445e-06
1.32445e-06
1.32445e-06
1.9316e-06
1.9316e-06
1.9316e-06
4.5508e-07
4.5508e-07
4.5508e-07
4.20612e-07
4.20612e-07
4.20612e-07
8.44515e-07
8.44515e-07
8.44515e-07
7.44515e-07
7.44515e-07
7.44515e-07
4.80968e-07
4.80968e-07
4.80968e-07
5.54657e-07
5.54657e-07
5.54657e-07
1.75756e-06
1.75756e-06
1.75756e-06
2.12191e-06
2.12191e-06
2.12191e-06
2.07556e-06
2.07556e-06
2.07556e-06
2.01487e-06
2.01487e-06
2.01487e-06
1.98634e-06
1.98634e-06
1.98634e-06
1.45496e-06
1.45496e-06
1.45496e-06
1.08255e-06
1.08255e-06
1.08255e-06
1.21922e-06
1.21922e-06
1.21922e-06
1.74253e-06
1.74253e-06
1.74253e-06
1.81478e-06
1.81478e-06
1.81478e-06
1.68838e-06
1.68838e-06
1.68838e-06
1.53199e-06
1.53199e-06
1.53199e-06
9.49537e-07
9.49537e-07
9.49537e-07
1.21454e-06
1.21454e-06
1.21454e-06
1.91281e-06
1.91281e-06
1.91281e-06
1.93175e-06
1.93175e-06
1.93175e-06
1.82284e-06
1.82284e-06
1.82284e-06
1.71976e-06
1.71976e-06
1.71976e-06
1.73648e-06
1.73648e-06
1.73648e-06
1.81721e-06
1.81721e-06
1.81721e-06
1.88285e-06
1.88285e-06
1.88285e-06
1.97655e-06
1.97655e-06
1.97655e-06
1.99679e-06
1.99679e-06
1.99679e-06