<VTKFile type="UnstructuredGrid" version="1.0">
<UnstructuredGrid>
<Piece NumberOfPoints="10830" NumberOfCells="3610">
<Points>
<DataArray type="Float64" NumberOfComponents="3" format="ascii">
2.19217 2.20649 16.7457
2.19928 2.19938 16.72
2.19928 2.19938 16.7715
2.19928 2.19938 17.2751
2.19928 2.19938 17.326
2.19129 2.20737 17.3005
2.19928 2.19938 17.2751
2.19129 2.20737 17.3005
2.17928 2.21938 17.2751
1.30559 3.09307 17.7476
1.31816 3.0805 17.765
1.28831 3.11035 17.765
1.28831 3.11035 17.765
1.28831 3.11035 17.7348
1.30559 3.09307 17.7476
2.19928 2.19938 17.2751
2.17928 2.21938 17.2751
2.1913 2.20736 17.2497
1.29441 3.10425 16.9968
1.28831 3.11035 17.022
1.28831 3.11035 16.9716
2.19132 2.20734 16.9969
2.19928 2.19938 17.0221
2.17929 2.21937 17.0221
2.19117 2.20749 16.8963
2.19928 2.19938 16.8713
2.19928 2.19938 16.9214
2.17929 2.21937 17.0221
2.19928 2.19938 17.0221
2.19133 2.20733 17.0473
2.19928 2.19938 17.0221
2.19928 2.19938 17.0725
2.19133 2.20733 17.0473
2.17929 2.21937 17.0726
2.19133 2.20733 17.0473
2.19928 2.19938 17.0725
2.17928 2.21938 17.2243
2.1913 2.20736 17.2497
2.16946 2.22921 17.2497
2.16946 2.22921 17.2497
2.1913 2.20736 17.2497
2.17928 2.21938 17.2751
2.16946 2.22921 17.2497
2.15842 2.24024 17.2243
2.17928 2.21938 17.2243
2.16946 2.22921 17.2497
2.17928 2.21938 17.2751
2.15841 2.24025 17.2751
2.19928 2.19938 17.123
2.19928 2.19938 17.1736
2.19132 2.20734 17.1483
2.19132 2.20734 17.1483
2.17929 2.21937 17.1736
2.16947 2.22919 17.1483
2.19928 2.19938 17.1736
2.17929 2.21937 17.1736
2.19132 2.20734 17.1483
2.19928 2.19938 17.2243
2.1913 2.20736 17.2497
2.17928 2.21938 17.2243
2.19928 2.19938 17.2751
2.1913 2.20736 17.2497
2.19928 2.19938 17.2243
2.17913 2.21954 16.8713
2.19928 2.19938 16.8713
2.19117 2.20749 16.8963
2.17927 2.21939 17.326
2.19129 2.20737 17.3005
2.19928 2.19938 17.326
1.8956 2.50306 17.5057
1.90602 2.49264 17.48
1.91643 2.48223 17.5057
1.28831 3.11035 16.72
1.30792 3.09074 16.72
1.29529 3.10337 16.7447
1.34771 3.05096 16.9716
1.32717 3.07149 16.9716
1.33709 3.06157 16.9464
1.30704 3.09162 16.9716
1.32717 3.07149 16.9716
1.31607 3.08259 16.9968
1.30704 3.09162 16.9716
1.29441 3.10425 16.9968
1.28831 3.11035 16.9716
1.31607 3.08259 16.9968
1.29441 3.10425 16.9968
1.30704 3.09162 16.9716
1.2945 3.10417 17.1989
1.28831 3.11035 17.2243
1.28831 3.11035 17.1736
1.3071 3.09157 17.2243
1.31615 3.08252 17.1989
1.32724 3.07142 17.2243
1.28831 3.11035 17.2243
1.2945 3.10417 17.1989
1.3071 3.09157 17.2243
1.3071 3.09157 17.2243
1.2945 3.10417 17.1989
1.31615 3.08252 17.1989
1.30708 3.09158 17.1736
1.32723 3.07143 17.1736
1.31615 3.08252 17.1989
1.30708 3.09158 17.1736
1.2945 3.10417 17.1989
1.28831 3.11035 17.1736
1.31615 3.08252 17.1989
1.2945 3.10417 17.1989
1.30708 3.09158 17.1736
1.28831 3.11035 17.022
1.29441 3.10425 16.9968
1.30705 3.09161 17.022
1.30705 3.09161 17.022
1.29441 3.10425 16.9968
1.31607 3.08259 16.9968
1.32724 3.07142 17.2243
1.31615 3.08252 17.1989
1.33718 3.06148 17.1989
1.31615 3.08252 17.1989
1.32723 3.07143 17.1736
1.33718 3.06148 17.1989
1.49256 2.90611 17.1737
1.50289 2.89577 17.199
1.48223 2.91643 17.199
1.48223 2.91643 17.199
1.50289 2.89577 17.199
1.49257 2.90609 17.2244
1.49257 2.90609 17.2244
1.50289 2.89577 17.199
1.51323 2.88543 17.2244
1.88521 2.51346 17.48
1.90602 2.49264 17.48
1.8956 2.50306 17.5057
2.19127 2.20739 16.9466
2.19928 2.19938 16.9214
2.19928 2.19938 16.9717
2.19928 2.19938 17.0221
2.19132 2.20734 16.9969
2.19928 2.19938 16.9717
2.11618 2.28248 17.1231
2.09503 2.30363 17.1231
2.10562 2.29304 17.0978
2.17929 2.21937 17.1231
2.19132 2.20734 17.1483
2.16947 2.22919 17.1483
2.19928 2.19938 17.123
2.19132 2.20734 17.1483
2.17929 2.21937 17.1231
2.16947 2.22919 17.1483
2.17929 2.21937 17.1736
2.15843 2.24024 17.1736
2.19131 2.20735 17.1989
2.17929 2.21937 17.1736
2.19928 2.19938 17.1736
2.19928 2.19938 17.1736
2.19928 2.19938 17.2243
2.19131 2.20735 17.1989
2.19131 2.20735 17.1989
2.19928 2.19938 17.2243
2.17928 2.21938 17.2243
2.1693 2.22936 16.8964
2.17913 2.21954 16.8713
2.19117 2.20749 16.8963
2.19127 2.20739 16.9466
2.19928 2.19938 16.9717
2.17927 2.21939 16.9717
2.17927 2.21939 16.9717
2.19928 2.19938 16.9717
2.19132 2.20734 16.9969
2.10553 2.29313 16.9466
2.09491 2.30375 16.9214
2.11605 2.28261 16.9214
2.1372 2.26147 16.9215
2.12662 2.27204 16.8963
2.14787 2.25079 16.8963
2.1372 2.26147 16.9215
2.11605 2.28261 16.9214
2.12662 2.27204 16.8963
2.16946 2.2292 16.9969
2.19132 2.20734 16.9969
2.17929 2.21937 17.0221
2.16946 2.2292 16.9969
2.17927 2.21939 16.9717
2.19132 2.20734 16.9969
2.16945 2.22921 17.3006
2.17928 2.21938 17.2751
2.19129 2.20737 17.3005
2.19129 2.20737 17.3005
2.17927 2.21939 17.326
2.16945 2.22921 17.3006
2.15841 2.24025 17.2751
2.17928 2.21938 17.2751
2.16945 2.22921 17.3006
2.16944 2.22922 17.4541
2.14804 2.25062 17.4541
2.15841 2.24025 17.4284
2.14804 2.25063 17.4027
2.16944 2.22922 17.4027
2.15841 2.24025 17.4284
2.19128 2.20738 17.3515
2.17927 2.21939 17.326
2.19928 2.19938 17.326
2.16944 2.22922 17.3516
2.17927 2.21939 17.326
2.19128 2.20738 17.3515
1.93725 2.46141 17.5573
1.94766 2.451 17.5832
1.92679 2.47187 17.5832
2.05276 2.34591 17.4284
2.06331 2.33535 17.4028
2.07386 2.3248 17.4284
2.07386 2.3248 17.4284
2.06331 2.33535 17.4028
2.08443 2.31423 17.4028
2.15841 2.24026 17.3771
2.14804 2.25062 17.3516
2.16944 2.22922 17.3516
2.15841 2.24026 17.3771
2.16944 2.22922 17.4027
2.14804 2.25063 17.4027
2.04222 2.35644 17.4028
2.06331 2.33535 17.4028
2.05276 2.34591 17.4284
1.9897 2.40896 17.1737
1.96874 2.42992 17.1737
1.97921 2.41945 17.1484
1.93736 2.4613 17.1484
1.92692 2.47174 17.1737
1.91649 2.48217 17.1484
1.94781 2.45085 17.1737
1.92692 2.47174 17.1737
1.93736 2.4613 17.1484
1.92691 2.47175 17.0727
1.9478 2.45086 17.0727
1.93736 2.46131 17.0979
1.93736 2.46131 17.0979
1.91648 2.48218 17.0979
1.92691 2.47175 17.0727
1.92691 2.47175 17.0727
1.91648 2.48218 17.0979
1.90605 2.49261 17.0726
1.93736 2.46131 17.0979
1.9478 2.45086 17.0727
1.95826 2.4404 17.0979
1.96871 2.42995 17.0222
1.9792 2.41946 17.0474
1.95825 2.44041 17.0474
1.95825 2.44041 17.0474
1.94778 2.45088 17.0222
1.96871 2.42995 17.0222
1.8126 2.58607 17.1991
1.82295 2.57571 17.1737
1.83332 2.56534 17.1991
1.82295 2.57571 17.1737
1.84369 2.55497 17.1737
1.83332 2.56534 17.1991
1.92692 2.47174 17.1232
1.91648 2.48218 17.0979
1.93736 2.46131 17.0979
1.92692 2.47174 17.1232
1.93736 2.4613 17.1484
1.91649 2.48217 17.1484
1.91649 2.48217 17.1484
1.89565 2.50301 17.1484
1.90606 2.4926 17.1232
1.90606 2.4926 17.1232
1.92692 2.47174 17.1232
1.91649 2.48217 17.1484
1.91648 2.48218 17.0979
1.92692 2.47174 17.1232
1.90606 2.4926 17.1232
1.90605 2.49261 17.0726
1.88523 2.51343 17.0726
1.89563 2.50303 17.0474
1.88521 2.51345 17.0222
1.90603 2.49263 17.0222
1.89563 2.50303 17.0474
1.51322 2.88545 17.1737
1.50289 2.89577 17.199
1.49256 2.90611 17.1737
1.49256 2.90611 17.1737
1.50288 2.89578 17.1484
1.51322 2.88545 17.1737
1.29442 3.10424 16.7949
1.28831 3.11035 16.8201
1.28831 3.11035 16.7694
1.28831 3.11035 16.72
1.29529 3.10337 16.7447
1.28831 3.11035 16.7694
1.307 3.09167 16.8707
1.28831 3.11035 16.8707
1.29431 3.10435 16.8454
1.28831 3.11035 16.8707
1.28831 3.11035 16.8201
1.29431 3.10435 16.8454
2.19928 2.19938 16.72
2.19217 2.20649 16.7457
2.18013 2.21854 16.72
1.28831 3.11035 16.9716
1.28831 3.11035 16.9211
1.29438 3.10428 16.9464
1.29438 3.10428 16.9464
1.30704 3.09162 16.9716
1.28831 3.11035 16.9716
1.30702 3.09164 16.9211
1.29438 3.10428 16.9464
1.28831 3.11035 16.9211
1.30702 3.09164 16.9211
1.31601 3.08265 16.8959
1.32714 3.07152 16.9212
1.31605 3.08262 16.9464
1.33709 3.06157 16.9464
1.32717 3.07149 16.9716
1.32717 3.07149 16.9716
1.30704 3.09162 16.9716
1.31605 3.08262 16.9464
1.32714 3.07152 16.9212
1.33709 3.06157 16.9464
1.31605 3.08262 16.9464
1.31605 3.08262 16.9464
1.30702 3.09164 16.9211
1.32714 3.07152 16.9212
1.30704 3.09162 16.9716
1.29438 3.10428 16.9464
1.31605 3.08262 16.9464
1.29438 3.10428 16.9464
1.30702 3.09164 16.9211
1.31605 3.08262 16.9464
1.29435 3.10432 16.8959
1.28831 3.11035 16.9211
1.28831 3.11035 16.8707
1.29435 3.10432 16.8959
1.28831 3.11035 16.8707
1.307 3.09167 16.8707
1.307 3.09167 16.8707
1.31601 3.08265 16.8959
1.29435 3.10432 16.8959
1.29435 3.10432 16.8959
1.30702 3.09164 16.9211
1.28831 3.11035 16.9211
1.31601 3.08265 16.8959
1.30702 3.09164 16.9211
1.29435 3.10432 16.8959
1.33717 3.06149 17.1483
1.32723 3.07143 17.1736
1.31613 3.08254 17.1483
1.32723 3.07143 17.1736
1.30708 3.09158 17.1736
1.31613 3.08254 17.1483
1.31613 3.08254 17.1483
1.32722 3.07145 17.123
1.33717 3.06149 17.1483
1.33711 3.06155 16.9968
1.32717 3.07149 16.9716
1.34771 3.05096 16.9716
1.31607 3.08259 16.9968
1.32717 3.07149 16.9716
1.33711 3.06155 16.9968
1.35794 3.04072 16.9968
1.33711 3.06155 16.9968
1.34771 3.05096 16.9716
1.34773 3.05094 17.022
1.33711 3.06155 16.9968
1.35794 3.04072 16.9968
1.34773 3.05094 17.022
1.35794 3.04072 16.9968
1.36839 3.03027 17.022
1.50287 2.89579 17.0978
1.51321 2.88546 17.1231
1.49255 2.90612 17.1231
1.49255 2.90612 17.1231
1.51321 2.88546 17.1231
1.50288 2.89578 17.1484
1.42017 2.9785 17.1483
1.44086 2.9578 17.1483
1.43052 2.96814 17.1736
1.43051 2.96815 17.123
1.44086 2.9578 17.1483
1.42017 2.9785 17.1483
1.44085 2.95782 17.0978
1.4305 2.96817 17.0725
1.45119 2.94748 17.0725
1.43051 2.96815 17.123
1.42015 2.97851 17.0978
1.44085 2.95782 17.0978
1.44085 2.95782 17.0978
1.42015 2.97851 17.0978
1.4305 2.96817 17.0725
1.44087 2.95779 17.199
1.46156 2.9371 17.199
1.45123 2.94744 17.2243
1.3995 2.99917 17.2497
1.40985 2.98882 17.2243
1.4202 2.97846 17.2497
1.40983 2.98883 17.1736
1.42017 2.9785 17.1483
1.43052 2.96814 17.1736
1.39946 2.9992 17.1483
1.42017 2.9785 17.1483
1.40983 2.98883 17.1736
1.32724 3.07142 17.2243
1.33718 3.06148 17.1989
1.34779 3.05087 17.2243
1.33717 3.06149 17.1483
1.32722 3.07145 17.123
1.34776 3.0509 17.123
1.34776 3.0509 17.123
1.35799 3.04067 17.1483
1.33717 3.06149 17.1483
1.38911 3.00955 17.123
1.39946 2.9992 17.1483
1.37874 3.01992 17.1483
1.34777 3.05089 17.1736
1.33718 3.06148 17.1989
[...]
<PointData Scalars="View Factor" >
<DataArray type="Float64" Name="View Factor" NumberOfComponents="1" format="ascii">
2.28905e-06
2.28905e-06
2.28905e-06
1.0447e-06
1.0447e-06
1.0447e-06
1.03638e-06
1.03638e-06
1.03638e-06
2.10386e-05
2.10386e-05
2.10386e-05
2.12437e-05
2.12437e-05
2.12437e-05
1.05609e-06
1.05609e-06
1.05609e-06
2.43162e-05
2.43162e-05
2.43162e-05
1.44652e-06
1.44652e-06
1.44652e-06
1.72795e-06
1.72795e-06
1.72795e-06
1.41116e-06
1.41116e-06
1.41116e-06
1.36536e-06
1.36536e-06
1.36536e-06
1.35015e-06
1.35015e-06
1.35015e-06
1.38314e-06
1.38314e-06
1.38314e-06
1.35318e-06
1.35318e-06
1.35318e-06
3.86292e-06
3.86292e-06
3.86292e-06
3.81884e-06
3.81884e-06
3.81884e-06
1.20432e-06
1.20432e-06
1.20432e-06
1.50584e-06
1.50584e-06
1.50584e-06
1.19073e-06
1.19073e-06
1.19073e-06
1.09798e-06
1.09798e-06
1.09798e-06
1.09407e-06
1.09407e-06
1.09407e-06
1.75285e-06
1.75285e-06
1.75285e-06
1.00039e-06
1.00039e-06
1.00039e-06
3.67784e-06
3.67784e-06
3.67784e-06
2.538e-05
2.538e-05
2.538e-05
2.34565e-05
2.34565e-05
2.34565e-05
2.3862e-05
2.3862e-05
2.3862e-05
2.42699e-05
2.42699e-05
2.42699e-05
2.40544e-05
2.40544e-05
2.40544e-05
2.34574e-05
2.34574e-05
2.34574e-05
2.28816e-05
2.28816e-05
2.28816e-05
2.32699e-05
2.32699e-05
2.32699e-05
2.31344e-05
2.31344e-05
2.31344e-05
2.3018e-05
2.3018e-05
2.3018e-05
2.34131e-05
2.34131e-05
2.34131e-05
2.32044e-05
2.32044e-05
2.32044e-05
2.41232e-05
2.41232e-05
2.41232e-05
2.39834e-05
2.39834e-05
2.39834e-05
2.26925e-05
2.26925e-05
2.26925e-05
2.27616e-05
2.27616e-05
2.27616e-05
1.83247e-05
1.83247e-05
1.83247e-05
1.82625e-05
1.82625e-05
1.82625e-05
1.76246e-05
1.76246e-05
1.76246e-05
3.67735e-06
3.67735e-06
3.67735e-06
1.58752e-06
1.58752e-06
1.58752e-06
1.46102e-06
1.46102e-06
1.46102e-06
2.63432e-06
2.63432e-06
2.63432e-06
1.53228e-06
1.53228e-06
1.53228e-06
1.23968e-06
1.23968e-06
1.23968e-06
3.9577e-06
3.9577e-06
3.9577e-06
1.16773e-06
1.16773e-06
1.16773e-06
1.148e-06
1.148e-06
1.148e-06
1.11895e-06
1.11895e-06
1.11895e-06
2.03927e-06
2.03927e-06
2.03927e-06
1.54881e-06
1.54881e-06
1.54881e-06
1.51285e-06
1.51285e-06
1.51285e-06
2.96133e-06
2.96133e-06
2.96133e-06
3.81961e-06
3.81961e-06
3.81961e-06
3.61186e-06
3.61186e-06
3.61186e-06
1.74545e-06
1.74545e-06
1.74545e-06
1.78189e-06
1.78189e-06
1.78189e-06
1.30224e-06
1.30224e-06
1.30224e-06
1.27387e-06
1.27387e-06
1.27387e-06
3.79849e-06
3.79849e-06
3.79849e-06
4.92201e-06
4.92201e-06
4.92201e-06
4.46695e-06
4.46695e-06
4.46695e-06
1.0166e-06
1.0166e-06
1.0166e-06
1.29853e-06
1.29853e-06
1.29853e-06
2.93805e-06
2.93805e-06
2.93805e-06
1.93241e-06
1.93241e-06
1.93241e-06
1.73205e-06
1.73205e-06
1.73205e-06
3.75467e-06
3.75467e-06
3.75467e-06
4.20985e-06
4.20985e-06
4.20985e-06
1.77011e-06
1.77011e-06
1.77011e-06
6.5007e-07
6.5007e-07
6.5007e-07
6.93844e-07
6.93844e-07
6.93844e-07
6.74795e-07
6.74795e-07
6.74795e-07
8.01486e-07
8.01486e-07
8.01486e-07
7.92242e-07
7.92242e-07
7.92242e-07
8.28257e-07
8.28257e-07
8.28257e-07
7.66217e-07
7.66217e-07
7.66217e-07
8.27793e-07
8.27793e-07
8.27793e-07
8.48138e-07
8.48138e-07
8.48138e-07
7.61382e-07
7.61382e-07
7.61382e-07
7.65752e-07
7.65752e-07
7.65752e-07
7.69903e-07
7.69903e-07
7.69903e-07
7.21041e-07
7.21041e-07
7.21041e-07
7.44766e-07
7.44766e-07
7.44766e-07
7.41808e-07
7.41808e-07
7.41808e-07
7.69093e-07
7.69093e-07
7.69093e-07
8.76091e-07
8.76091e-07
8.76091e-07
9.36132e-07
9.36132e-07
9.36132e-07
1.77402e-05
1.77402e-05
1.77402e-05
1.77946e-05
1.77946e-05
1.77946e-05
2.52132e-05
2.52132e-05
2.52132e-05
2.54362e-05
2.54362e-05
2.54362e-05
2.47863e-05
2.47863e-05
2.47863e-05
2.49854e-05
2.49854e-05
2.49854e-05
2.30493e-06
2.30493e-06
2.30493e-06
2.45365e-05
2.45365e-05
2.45365e-05
2.43427e-05
2.43427e-05
2.43427e-05
2.44891e-05
2.44891e-05
2.44891e-05
2.4152e-05
2.4152e-05
2.4152e-05
2.37382e-05
2.37382e-05
2.37382e-05
2.39351e-05
2.39351e-05
2.39351e-05
2.38089e-05
2.38089e-05
2.38089e-05
2.40782e-05
2.40782e-05
2.40782e-05
2.42013e-05
2.42013e-05
2.42013e-05
2.42724e-05
2.42724e-05
2.42724e-05
2.47595e-05
2.47595e-05
2.47595e-05
2.47133e-05
2.47133e-05
2.47133e-05
2.44954e-05
2.44954e-05
2.44954e-05
2.45629e-05
2.45629e-05
2.45629e-05
2.44205e-05
2.44205e-05
2.44205e-05
2.28988e-05
2.28988e-05
2.28988e-05
2.3089e-05
2.3089e-05
2.3089e-05
2.29675e-05
2.29675e-05
2.29675e-05
2.33857e-05
2.33857e-05
2.33857e-05
2.35962e-05
2.35962e-05
2.35962e-05
2.313e-05
2.313e-05
2.313e-05
2.30586e-05
2.30586e-05
2.30586e-05
2.28167e-05
2.28167e-05
2.28167e-05
1.79681e-05
1.79681e-05
1.79681e-05
1.79103e-05
1.79103e-05
1.79103e-05
2.05172e-05
2.05172e-05
2.05172e-05
2.05776e-05
2.05776e-05
2.05776e-05
2.05118e-05
2.05118e-05
2.05118e-05
2.07076e-05
2.07076e-05
2.07076e-05
2.07713e-05
2.07713e-05
2.07713e-05
1.97093e-05
1.97093e-05
1.97093e-05
2.07196e-05
2.07196e-05
2.07196e-05
2.07739e-05
2.07739e-05
2.07739e-05
2.10316e-05
2.10316e-05
2.10316e-05
2.24344e-05
2.24344e-05
2.24344e-05
2.27677e-05
2.27677e-05
2.27677e-05
2.25236e-05
2.25236e-05
2.25236e-05
2.1605e-05
2.1605e-05
2.1605e-05
2.25687e-05
2.25687e-05
2.25687e-05
2.26333e-05
2.26333e-05
2.26333e-05
2.24584e-05
2.24584e-05
2.24584e-05
2.04878e-05
2.04878e-05
2.04878e-05
2.18232e-05
2.18232e-05
2.18232e-05
2.12067e-05
2.12067e-05
2.12067e-05
1.885e-05
1.885e-05
1.885e-05
1.91254e-05
1.91254e-05
1.91254e-05
1.92974e-05
1.92974e-05
1.92974e-05
1.87337e-05
1.87337e-05
1.87337e-05
1.93618e-05
1.93618e-05
1.93618e-05
1.90766e-05
1.90766e-05
1.90766e-05
1.86672e-05
1.86672e-05
1.86672e-05
1.89729e-05
1.89729e-05
1.89729e-05
1.85509e-05
1.85509e-05
1.85509e-05
1.89221e-05
1.89221e-05
1.89221e-05
2.01395e-05
2.01395e-05
2.01395e-05
1.95833e-05
1.95833e-05
1.95833e-05
1.6592e-05
1.6592e-05
1.6592e-05
3.27459e-06
3.27459e-06
3.27459e-06
9.70536e-06
9.70536e-06
9.70536e-06
3.21266e-06
3.21266e-06
3.21266e-06
9.64616e-06
9.64616e-06
9.64616e-06
1.80812e-05
1.80812e-05
1.80812e-05
1.75611e-05
1.75611e-05
1.75611e-05
1.8142e-05
1.8142e-05
1.8142e-05
4.14724e-06
4.14724e-06
4.14724e-06
4.14826e-06
4.14826e-06
4.14826e-06
3.79537e-06
3.79537e-06
3.79537e-06
3.79653e-06
3.79653e-06
3.79653e-06
3.88649e-06
3.88649e-06
3.88649e-06
3.64275e-06
3.64275e-06
3.64275e-06
2.31829e-06
2.31829e-06
2.31829e-06
3.55734e-06
3.55734e-06
3.55734e-06
2.38181e-06
2.38181e-06
2.38181e-06
2.46415e-06
2.46415e-06
2.46415e-06
2.27596e-06
2.27596e-06
2.27596e-06
2.25038e-06
2.25038e-06
2.25038e-06
2.59166e-06
2.59166e-06
2.59166e-06
2.63493e-06
2.63493e-06
2.63493e-06
2.52611e-06
2.52611e-06
2.52611e-06
2.40194e-06
2.40194e-06
2.40194e-06
2.46054e-06
2.46054e-06
2.46054e-06
2.56737e-06
2.56737e-06
2.56737e-06
2.69253e-06
2.69253e-06
2.69253e-06
2.19366e-06
2.19366e-06
2.19366e-06
2.33971e-06
2.33971e-06
2.33971e-06
2.32097e-06
2.32097e-06
2.32097e-06
2.21783e-06
2.21783e-06
2.21783e-06
2.13695e-06
2.13695e-06
2.13695e-06
1.90937e-06
1.90937e-06
1.90937e-06
1.64151e-06
1.64151e-06
1.64151e-06
1.64519e-06
1.64519e-06
1.64519e-06
2.90313e-06
2.90313e-06
2.90313e-06
2.89925e-06
2.89925e-06
2.89925e-06
2.82283e-06
2.82283e-06
2.82283e-06
3.45352e-06
3.45352e-06
3.45352e-06
3.62641e-06
3.62641e-06
3.62641e-06
3.64987e-06
3.64987e-06
3.64987e-06
3.25984e-06
3.25984e-06
3.25984e-06
8.78816e-07
8.78816e-07
8.78816e-07
8.45431e-07
8.45431e-07
8.45431e-07
8.82327e-07
8.82327e-07
8.82327e-07
6.4944e-07
6.4944e-07
6.4944e-07
6.57438e-07
6.57438e-07
6.57438e-07
1.26648e-06
1.26648e-06
1.26648e-06
1.57796e-06
1.57796e-06
1.57796e-06
1.27922e-06
1.27922e-06
1.27922e-06
1.32523e-06
1.32523e-06
1.32523e-06
1.60213e-06
1.60213e-06
1.60213e-06
3.30118e-06
3.30118e-06
3.30118e-06
3.47713e-06
3.47713e-06
3.47713e-06
3.88724e-06
3.88724e-06
3.88724e-06
3.93364e-06
3.93364e-06
3.93364e-06
3.69192e-06
3.69192e-06
3.69192e-06
3.7155e-06
3.7155e-06
3.7155e-06
1.43371e-06
1.43371e-06
1.43371e-06
1.46107e-06
1.46107e-06
1.46107e-06
1.62183e-06
1.62183e-06
1.62183e-06
1.66422e-06
1.66422e-06
1.66422e-06
1.99682e-06
1.99682e-06
1.99682e-06
1.80181e-06
1.80181e-06
1.80181e-06
2.98738e-06
2.98738e-06
2.98738e-06
3.419e-06
3.419e-06
3.419e-06
4.26308e-06
4.26308e-06
4.26308e-06
3.8869e-06
3.8869e-06
3.8869e-06
4.03832e-06
4.03832e-06
4.03832e-06
3.8489e-06
3.8489e-06
3.8489e-06
3.75729e-06
3.75729e-06
3.75729e-06
3.77279e-06
3.77279e-06
3.77279e-06
3.61294e-06
3.61294e-06
3.61294e-06
5.12445e-06
5.12445e-06
5.12445e-06
4.34556e-06
4.34556e-06
4.34556e-06
2.04371e-06
2.04371e-06
2.04371e-06
3.66577e-06
3.66577e-06
3.66577e-06
3.3407e-06
3.3407e-06
3.3407e-06
3.5616e-06
3.5616e-06
3.5616e-06
2.27501e-06
2.27501e-06
2.27501e-06
2.90845e-06
2.90845e-06
2.90845e-06
4.53783e-06
4.53783e-06
4.53783e-06
4.31242e-06
4.31242e-06
4.31242e-06
6.32117e-07
6.32117e-07
6.32117e-07
6.49484e-07
6.49484e-07
6.49484e-07
6.49623e-07
6.49623e-07
6.49623e-07
6.57425e-07
6.57425e-07
6.57425e-07
5.65153e-07
5.65153e-07
5.65153e-07
5.70433e-07
5.70433e-07
5.70433e-07
5.65468e-07
5.65468e-07
5.65468e-07
4.04524e-06
4.04524e-06
4.04524e-06
4.27001e-06
4.27001e-06
4.27001e-06
1.4279e-06
1.4279e-06
1.4279e-06
4.64638e-06
4.64638e-06
4.64638e-06
4.62123e-06
4.62123e-06
4.62123e-06
4.41953e-06
4.41953e-06
4.41953e-06
4.14061e-06
4.14061e-06
4.14061e-06
4.3636e-06
4.3636e-06
4.3636e-06
4.1228e-06
4.1228e-06
4.1228e-06
6.49777e-07
6.49777e-07
6.49777e-07
6.83052e-07
6.83052e-07
6.83052e-07
6.57467e-07
6.57467e-07
6.57467e-07
6.91782e-07
6.91782e-07
6.91782e-07
6.97254e-07
6.97254e-07
6.97254e-07
7.16584e-07
7.16584e-07
7.16584e-07
6.56478e-07
6.56478e-07
6.56478e-07
6.70469e-07
6.70469e-07
6.70469e-07
6.5608e-07
6.5608e-07
6.5608e-07
6.97311e-07
6.97311e-07
6.97311e-07
7.00325e-07
7.00325e-07
7.00325e-07
7.19739e-07
7.19739e-07
7.19739e-07
7.39286e-07
7.39286e-07
7.39286e-07
7.22189e-07
7.22189e-07
7.22189e-07
7.42121e-07
7.42121e-07
7.42121e-07
6.74902e-07
6.74902e-07
6.74902e-07
6.55143e-07
6.55143e-07
6.55143e-07
6.31165e-07
6.31165e-07
6.31165e-07
6.36536e-07
6.36536e-07
6.36536e-07
6.50802e-07
6.50802e-07
6.50802e-07
6.7557e-07
6.7557e-07
6.7557e-07
6.71086e-07
6.71086e-07
6.71086e-07
6.52172e-07
6.52172e-07
6.52172e-07
6.57625e-07
6.57625e-07
6.57625e-07
6.8353e-07
6.8353e-07
6.8353e-07
7.22122e-07
7.22122e-07
7.22122e-07
6.12884e-07
6.12884e-07
6.12884e-07
6.40255e-07
6.40255e-07
6.40255e-07
8.48726e-07
8.48726e-07
8.48726e-07
9.06832e-07
9.06832e-07
9.06832e-07
8.80599e-07
8.80599e-07
8.80599e-07
9.0211e-07
9.0211e-07
9.0211e-07
8.77485e-07
8.77485e-07
8.77485e-07
8.7338e-07
8.7338e-07
8.7338e-07
8.52654e-07
8.52654e-07
8.52654e-07
8.21289e-07
8.21289e-07
8.21289e-07
8.24567e-07
8.24567e-07
8.24567e-07
8.44654e-07
8.44654e-07
8.44654e-07
7.29653e-07
7.29653e-07
7.29653e-07
7.16952e-07
7.16952e-07
7.16952e-07
9.42495e-07
9.42495e-07
9.42495e-07
9.79722e-07
9.79722e-07
9.79722e-07
7.9212e-07
7.9212e-07
7.9212e-07
8.07395e-07
8.07395e-07
8.07395e-07
9.19997e-07
9.19997e-07
9.19997e-07
9.20732e-07
9.20732e-07
9.20732e-07
7.44387e-07
7.44387e-07
7.44387e-07
7.62567e-07
7.62567e-07
7.62567e-07
7.62805e-07
7.62805e-07
7.62805e-07
7.29085e-07
7.29085e-07
7.29085e-07
7.303e-07
7.303e-07
7.303e-07
7.47121e-07
7.47121e-07
7.47121e-07
7.86942e-07
7.86942e-07
7.86942e-07
8.37381e-07
8.37381e-07
8.37381e-07
8.39048e-07
8.39048e-07
8.39048e-07
8.07333e-07
8.07333e-07
8.07333e-07
7.16333e-07
7.16333e-07
7.16333e-07
7.36907e-07
7.36907e-07
7.36907e-07
8.61099e-07
8.61099e-07
8.61099e-07
7.87502e-07
7.87502e-07
7.87502e-07
8.09447e-07
8.09447e-07
8.09447e-07
8.68144e-07
8.68144e-07
8.68144e-07
9.65363e-07
9.65363e-07
9.65363e-07
9.30745e-07
9.30745e-07
9.30745e-07
9.08547e-07
9.08547e-07
9.08547e-07
7.65782e-07
7.65782e-07
7.65782e-07
7.68457e-07
7.68457e-07
7.68457e-07
8.18677e-07
8.18677e-07
8.18677e-07
7.89721e-07
7.89721e-07
7.89721e-07
1.65709e-05
1.65709e-05
1.65709e-05
1.99037e-05
1.99037e-05
1.99037e-05
1.98455e-05
1.98455e-05
1.98455e-05
2.0138e-05
2.0138e-05
2.0138e-05
1.82628e-05
1.82628e-05
1.82628e-05
1.7418e-05
1.7418e-05
1.7418e-05
1.74696e-05
1.74696e-05
1.74696e-05
2.29549e-05
2.29549e-05
2.29549e-05
2.3265e-05
2.3265e-05
2.3265e-05
2.30254e-05
2.30254e-05
2.30254e-05
1.73022e-05
1.73022e-05
1.73022e-05
1.72434e-05
1.72434e-05
1.72434e-05
9.65039e-07
9.65039e-07
9.65039e-07
9.42997e-07
9.42997e-07
9.42997e-07
9.17522e-07
9.17522e-07
9.17522e-07
9.10095e-07
9.10095e-07
9.10095e-07
8.58346e-07
8.58346e-07
8.58346e-07
8.80929e-07
8.80929e-07
8.80929e-07
3.81106e-06
3.81106e-06
3.81106e-06
2.47709e-06
2.47709e-06
2.47709e-06
4.96734e-06
4.96734e-06
4.96734e-06
1.71393e-06
1.71393e-06
1.71393e-06
3.33706e-06
3.33706e-06
3.33706e-06
3.40291e-06
3.40291e-06
3.40291e-06
1.08875e-06
1.08875e-06
1.08875e-06
1.17494e-06
1.17494e-06
1.17494e-06
2.32477e-05
2.32477e-05
2.32477e-05
2.32032e-05
2.32032e-05
2.32032e-05
2.3669e-05
2.3669e-05
2.3669e-05
2.34811e-05
2.34811e-05
2.34811e-05
2.33446e-05
2.33446e-05
2.33446e-05
2.38825e-05
2.38825e-05
2.38825e-05
2.38367e-05
2.38367e-05
2.38367e-05
2.34369e-05
2.34369e-05
2.34369e-05
2.36255e-05
2.36255e-05
2.36255e-05
2.40521e-05
2.40521e-05
2.40521e-05
2.40982e-05
2.40982e-05
2.40982e-05
2.3907e-05
2.3907e-05
2.3907e-05
2.38391e-05
2.38391e-05
2.38391e-05
2.37677e-05
2.37677e-05
2.37677e-05
2.35064e-05
2.35064e-05
2.35064e-05
2.33129e-05
2.33129e-05
2.33129e-05
2.29258e-05
2.29258e-05
2.29258e-05
2.27499e-05
2.27499e-05
2.27499e-05
2.37201e-05
2.37201e-05
2.37201e-05
2.35244e-05
2.35244e-05
2.35244e-05
2.36488e-05
2.36488e-05
2.36488e-05
2.33849e-05
2.33849e-05
2.33849e-05
2.32437e-05
2.32437e-05
2.32437e-05
2.31758e-05
2.31758e-05
2.31758e-05
2.31749e-05
2.31749e-05
2.31749e-05
2.31046e-05
2.31046e-05
2.31046e-05
2.28347e-05
2.28347e-05
2.28347e-05
2.26585e-05
2.26585e-05
2.26585e-05
1.90649e-05
1.90649e-05
1.90649e-05
1.93712e-05
1.93712e-05
1.93712e-05
1.94276e-05
1.94276e-05
1.94276e-05
1.86216e-05
1.86216e-05
1.86216e-05
1.84403e-05
1.84403e-05
1.84403e-05
1.85019e-05
1.85019e-05
1.85019e-05
1.89038e-05
1.89038e-05
1.89038e-05
1.90126e-05
1.90126e-05
1.90126e-05
1.92684e-05
1.92684e-05
1.92684e-05
1.92222e-05
1.92222e-05
1.92222e-05
2.109e-05
2.109e-05
2.109e-05
2.121e-05
2.121e-05
2.121e-05
2.08936e-05
2.08936e-05
2.08936e-05
2.09533e-05
2.09533e-05
2.09533e-05
2.13953e-05
2.13953e-05
2.13953e-05
2.1459e-05
2.1459e-05
2.1459e-05
2.03907e-05
2.03907e-05
2.03907e-05
2.07139e-05
2.07139e-05
2.07139e-05
2.00094e-05
2.00094e-05
2.00094e-05
2.05278e-05
2.05278e-05
2.05278e-05
2.05926e-05
2.05926e-05
2.05926e-05
2.03285e-05
2.03285e-05
2.03285e-05
2.02014e-05
2.02014e-05
2.02014e-05
1.99427e-05
1.99427e-05
1.99427e-05
2.05471e-05
2.05471e-05
2.05471e-05
2.03563e-05
2.03563e-05
2.03563e-05
2.04137e-05
2.04137e-05
2.04137e-05
2.06625e-05
2.06625e-05
2.06625e-05
2.08866e-05
2.08866e-05
2.08866e-05
2.10309e-05
2.10309e-05
2.10309e-05
2.08267e-05
2.08267e-05
2.08267e-05
2.10028e-05
2.10028e-05
2.10028e-05
2.24162e-05
2.24162e-05
2.24162e-05
2.18799e-05
2.18799e-05
2.18799e-05
2.23489e-05
2.23489e-05
2.23489e-05
2.2087e-05
2.2087e-05
2.2087e-05
2.2259e-05
2.2259e-05
2.2259e-05
2.23254e-05
2.23254e-05
2.23254e-05
2.18873e-05
2.18873e-05
2.18873e-05
2.21519e-05
2.21519e-05
2.21519e-05
2.20229e-05
2.20229e-05
2.20229e-05
2.22162e-05
2.22162e-05
2.22162e-05
2.09673e-05
2.09673e-05
2.09673e-05
2.11698e-05
2.11698e-05
2.11698e-05
2.07041e-05
2.07041e-05
2.07041e-05
2.14359e-05
2.14359e-05
2.14359e-05
2.16362e-05
2.16362e-05
2.16362e-05
2.11064e-05
2.11064e-05
2.11064e-05
1.90288e-05
1.90288e-05
1.90288e-05
2.02303e-05
2.02303e-05
2.02303e-05
2.01703e-05
2.01703e-05
2.01703e-05
1.98437e-05
1.98437e-05
1.98437e-05
1.95862e-05
1.95862e-05
1.95862e-05
2.13558e-05
2.13558e-05
2.13558e-05
2.08438e-05
2.08438e-05
2.08438e-05
2.09789e-05
2.09789e-05
2.09789e-05
2.22253e-05
2.22253e-05
2.22253e-05
2.20485e-05
2.20485e-05
2.20485e-05
2.19199e-05
2.19199e-05
2.19199e-05
2.17839e-05
2.17839e-05
2.17839e-05
2.20253e-05
2.20253e-05
2.20253e-05
2.18503e-05
2.18503e-05
2.18503e-05
2.17233e-05
2.17233e-05
2.17233e-05
2.19839e-05
2.19839e-05
2.19839e-05
2.17885e-05
2.17885e-05
2.17885e-05
2.16864e-05
2.16864e-05
2.16864e-05
2.16198e-05
2.16198e-05
2.16198e-05
1.97681e-05
1.97681e-05
1.97681e-05
1.94807e-05
1.94807e-05
1.94807e-05
1.9539e-05
1.9539e-05
1.9539e-05
1.98927e-05
1.98927e-05
1.98927e-05
2.01933e-05
2.01933e-05
2.01933e-05
2.01338e-05
2.01338e-05
2.01338e-05
1.91887e-05
1.91887e-05
1.91887e-05
1.98247e-05
1.98247e-05
1.98247e-05
1.9524e-05
1.9524e-05
1.9524e-05
1.91379e-05
1.91379e-05
1.91379e-05
8.04568e-07
8.04568e-07
8.04568e-07
8.19134e-07
8.19134e-07
8.19134e-07
8.01568e-07
8.01568e-07
8.01568e-07
1.51129e-05
1.51129e-05
1.51129e-05
1.29583e-05
1.29583e-05
1.29583e-05
1.30115e-05
1.30115e-05
1.30115e-05
1.60368e-05
1.60368e-05
1.60368e-05
1.50431e-05
1.50431e-05
1.50431e-05
1.74528e-05
1.74528e-05
1.74528e-05
1.74055e-05
1.74055e-05
1.74055e-05
1.60285e-05
1.60285e-05
1.60285e-05
1.66423e-05
1.66423e-05
1.66423e-05
1.6799e-05
1.6799e-05
1.6799e-05
1.67411e-05
1.67411e-05
1.67411e-05
1.52401e-05
1.52401e-05
1.52401e-05
1.60137e-05
1.60137e-05
1.60137e-05
4.16952e-06
4.16952e-06
4.16952e-06
3.95671e-06
3.95671e-06
3.95671e-06
4.05311e-06
4.05311e-06
4.05311e-06
4.13433e-06
4.13433e-06
4.13433e-06
4.02838e-06
4.02838e-06
4.02838e-06
3.77806e-06
3.77806e-06
3.77806e-06
4.01743e-06
4.01743e-06
4.01743e-06
4.0308e-06
4.0308e-06
4.0308e-06
3.9131e-06
3.9131e-06
3.9131e-06
3.91247e-06
3.91247e-06
3.91247e-06
1.89916e-06
1.89916e-06
1.89916e-06
2.58621e-06
2.58621e-06
2.58621e-06
3.01302e-06
3.01302e-06
3.01302e-06
2.66052e-06
2.66052e-06
2.66052e-06
2.38584e-06
2.38584e-06
2.38584e-06
3.0997e-06
3.0997e-06
3.0997e-06
3.25491e-06
3.25491e-06
3.25491e-06
1.6382e-06
1.6382e-06
1.6382e-06
1.84543e-06
1.84543e-06
1.84543e-06
1.19745e-06
1.19745e-06
1.19745e-06
9.86088e-07
9.86088e-07
9.86088e-07
3.15871e-06
3.15871e-06
3.15871e-06
3.43651e-06
3.43651e-06
3.43651e-06
3.66577e-06
3.66577e-06
3.66577e-06
3.53964e-06
3.53964e-06
3.53964e-06
2.50864e-06
2.50864e-06
2.50864e-06
2.92254e-06
2.92254e-06
2.92254e-06
3.06658e-06
3.06658e-06
3.06658e-06
3.44858e-06
3.44858e-06
3.44858e-06
3.33324e-06
3.33324e-06
3.33324e-06
3.22967e-06
3.22967e-06
3.22967e-06
2.88219e-06
2.88219e-06
2.88219e-06
6.58801e-07
6.58801e-07
6.58801e-07
6.38904e-07
6.38904e-07
6.38904e-07
1.01471e-06
1.01471e-06
1.01471e-06
6.58988e-07
6.58988e-07
6.58988e-07
6.00204e-07
6.00204e-07
6.00204e-07
6.77718e-07
6.77718e-07
6.77718e-07
7.43008e-07
7.43008e-07
7.43008e-07
6.21484e-07
6.21484e-07
6.21484e-07
6.1715e-07
6.1715e-07
6.1715e-07
3.10544e-06
3.10544e-06
3.10544e-06
2.85782e-06
2.85782e-06
2.85782e-06
3.79441e-06
3.79441e-06
3.79441e-06
2.5644e-06
2.5644e-06
2.5644e-06
2.70221e-06
2.70221e-06
2.70221e-06
2.93604e-06
2.93604e-06
2.93604e-06
2.83401e-06
2.83401e-06
2.83401e-06
3.84654e-06
3.84654e-06
3.84654e-06
3.78799e-06
3.78799e-06
3.78799e-06
2.00481e-05
2.00481e-05
2.00481e-05
1.97858e-05
1.97858e-05
1.97858e-05
2.65062e-06
2.65062e-06
2.65062e-06
4.40263e-06
4.40263e-06
4.40263e-06
3.2223e-06
3.2223e-06
3.2223e-06
4.94781e-06
4.94781e-06
4.94781e-06
1.39072e-05
1.39072e-05
1.39072e-05
8.26241e-07
8.26241e-07
8.26241e-07
2.58819e-06
2.58819e-06
2.58819e-06
4.73457e-06
4.73457e-06
4.73457e-06
4.6098e-06
4.6098e-06
4.6098e-06
4.16624e-06
4.16624e-06
4.16624e-06
4.31993e-06
4.31993e-06
4.31993e-06
4.10991e-06
4.10991e-06
4.10991e-06
3.02226e-06
3.02226e-06
3.02226e-06
2.79127e-06
2.79127e-06
2.79127e-06
2.86359e-06
2.86359e-06
2.86359e-06
2.76331e-06
2.76331e-06
2.76331e-06
4.39737e-06
4.39737e-06
4.39737e-06
4.71871e-06
4.71871e-06
4.71871e-06
4.63763e-06
4.63763e-06
4.63763e-06
4.06734e-06
4.06734e-06
4.06734e-06
4.01553e-06
4.01553e-06
4.01553e-06
4.1681e-06
4.1681e-06
4.1681e-06
4.32243e-06
4.32243e-06
4.32243e-06
4.26549e-06
4.26549e-06
4.26549e-06
4.25138e-06
4.25138e-06
4.25138e-06
1.85246e-06
1.85246e-06
1.85246e-06
1.9265e-06
1.9265e-06
1.9265e-06
2.26014e-06
2.26014e-06
2.26014e-06
2.08004e-06
2.08004e-06
2.08004e-06
2.15964e-06
2.15964e-06
2.15964e-06
1.96623e-06
1.96623e-06
1.96623e-06
1.98474e-06
1.98474e-06
1.98474e-06
2.07703e-06
2.07703e-06
2.07703e-06
2.15289e-06
2.15289e-06
2.15289e-06
1.69254e-06
1.69254e-06
1.69254e-06
1.68014e-06