<VTKFile type="UnstructuredGrid" version="1.0">
<UnstructuredGrid>
<Piece NumberOfPoints="10830" NumberOfCells="3610">
<Points>
<DataArray type="Float64" NumberOfComponents="3" format="ascii">
2.19217 2.20649 1.07075
2.19928 2.19938 1.045
2.19928 2.19938 1.09646
2.19928 2.19938 1.60008
2.19928 2.19938 1.651
2.19129 2.20737 1.62553
2.19928 2.19938 1.60008
2.19129 2.20737 1.62553
2.17928 2.21938 1.6001
1.30559 3.09307 2.07259
1.31816 3.0805 2.09
1.28831 3.11035 2.09
1.28831 3.11035 2.09
1.28831 3.11035 2.05984
1.30559 3.09307 2.07259
2.19928 2.19938 1.60008
2.17928 2.21938 1.6001
2.1913 2.20736 1.57468
1.29441 3.10425 1.32179
1.28831 3.11035 1.34701
1.28831 3.11035 1.29657
2.19132 2.20734 1.3219
2.19928 2.19938 1.34709
2.17929 2.21937 1.34711
2.19117 2.20749 1.22134
2.19928 2.19938 1.19628
2.19928 2.19938 1.24639
2.17929 2.21937 1.34711
2.19928 2.19938 1.34709
2.19133 2.20733 1.37231
2.19928 2.19938 1.34709
2.19928 2.19938 1.39754
2.19133 2.20733 1.37231
2.17929 2.21937 1.39755
2.19133 2.20733 1.37231
2.19928 2.19938 1.39754
2.17928 2.21938 1.54931
2.1913 2.20736 1.57468
2.16946 2.22921 1.5747
2.16946 2.22921 1.5747
2.1913 2.20736 1.57468
2.17928 2.21938 1.6001
2.16946 2.22921 1.5747
2.15842 2.24024 1.54932
2.17928 2.21938 1.54931
2.16946 2.22921 1.5747
2.17928 2.21938 1.6001
2.15841 2.24025 1.60012
2.19928 2.19938 1.44804
2.19928 2.19938 1.49862
2.19132 2.20734 1.47333
2.19132 2.20734 1.47333
2.17929 2.21937 1.49863
2.16947 2.22919 1.47334
2.19928 2.19938 1.49862
2.17929 2.21937 1.49863
2.19132 2.20734 1.47333
2.19928 2.19938 1.54929
2.1913 2.20736 1.57468
2.17928 2.21938 1.54931
2.19928 2.19938 1.60008
2.1913 2.20736 1.57468
2.19928 2.19938 1.54929
2.17913 2.21954 1.19632
2.19928 2.19938 1.19628
2.19117 2.20749 1.22134
2.17927 2.21939 1.65102
2.19129 2.20737 1.62553
2.19928 2.19938 1.651
1.8956 2.50306 1.83075
1.90602 2.49264 1.80498
1.91643 2.48223 1.83072
1.28831 3.11035 1.045
1.30792 3.09074 1.045
1.29529 3.10337 1.06971
1.34771 3.05096 1.29659
1.32717 3.07149 1.29657
1.33709 3.06157 1.27137
1.30704 3.09162 1.29656
1.32717 3.07149 1.29657
1.31607 3.08259 1.32178
1.30704 3.09162 1.29656
1.29441 3.10425 1.32179
1.28831 3.11035 1.29657
1.31607 3.08259 1.32178
1.29441 3.10425 1.32179
1.30704 3.09162 1.29656
1.2945 3.10417 1.52394
1.28831 3.11035 1.5493
1.28831 3.11035 1.49861
1.3071 3.09157 1.5493
1.31615 3.08252 1.52393
1.32724 3.07142 1.54929
1.28831 3.11035 1.5493
1.2945 3.10417 1.52394
1.3071 3.09157 1.5493
1.3071 3.09157 1.5493
1.2945 3.10417 1.52394
1.31615 3.08252 1.52393
1.30708 3.09158 1.4986
1.32723 3.07143 1.4986
1.31615 3.08252 1.52393
1.30708 3.09158 1.4986
1.2945 3.10417 1.52394
1.28831 3.11035 1.49861
1.31615 3.08252 1.52393
1.2945 3.10417 1.52394
1.30708 3.09158 1.4986
1.28831 3.11035 1.34701
1.29441 3.10425 1.32179
1.30705 3.09161 1.347
1.30705 3.09161 1.347
1.29441 3.10425 1.32179
1.31607 3.08259 1.32178
1.32724 3.07142 1.54929
1.31615 3.08252 1.52393
1.33718 3.06148 1.52393
1.31615 3.08252 1.52393
1.32723 3.07143 1.4986
1.33718 3.06148 1.52393
1.49256 2.90611 1.49867
1.50289 2.89577 1.52401
1.48223 2.91643 1.524
1.48223 2.91643 1.524
1.50289 2.89577 1.52401
1.49257 2.90609 1.54937
1.49257 2.90609 1.54937
1.50289 2.89577 1.52401
1.51323 2.88543 1.54938
1.88521 2.51346 1.805
1.90602 2.49264 1.80498
1.8956 2.50306 1.83075
2.19127 2.20739 1.27156
2.19928 2.19938 1.24639
2.19928 2.19938 1.2967
2.19928 2.19938 1.34709
2.19132 2.20734 1.3219
2.19928 2.19938 1.2967
2.11618 2.28248 1.4481
2.09503 2.30363 1.44811
2.10562 2.29304 1.42285
2.17929 2.21937 1.44805
2.19132 2.20734 1.47333
2.16947 2.22919 1.47334
2.19928 2.19938 1.44804
2.19132 2.20734 1.47333
2.17929 2.21937 1.44805
2.16947 2.22919 1.47334
2.17929 2.21937 1.49863
2.15843 2.24024 1.49865
2.19131 2.20735 1.52395
2.17929 2.21937 1.49863
2.19928 2.19938 1.49862
2.19928 2.19938 1.49862
2.19928 2.19938 1.54929
2.19131 2.20735 1.52395
2.19131 2.20735 1.52395
2.19928 2.19938 1.54929
2.17928 2.21938 1.54931
2.1693 2.22936 1.22137
2.17913 2.21954 1.19632
2.19117 2.20749 1.22134
2.19127 2.20739 1.27156
2.19928 2.19938 1.2967
2.17927 2.21939 1.29674
2.17927 2.21939 1.29674
2.19928 2.19938 1.2967
2.19132 2.20734 1.3219
2.10553 2.29313 1.27161
2.09491 2.30375 1.24643
2.11605 2.28261 1.24643
2.1372 2.26147 1.24645
2.12662 2.27204 1.22126
2.14787 2.25079 1.22131
2.1372 2.26147 1.24645
2.11605 2.28261 1.24643
2.12662 2.27204 1.22126
2.16946 2.2292 1.32193
2.19132 2.20734 1.3219
2.17929 2.21937 1.34711
2.16946 2.2292 1.32193
2.17927 2.21939 1.29674
2.19132 2.20734 1.3219
2.16945 2.22921 1.62555
2.17928 2.21938 1.6001
2.19129 2.20737 1.62553
2.19129 2.20737 1.62553
2.17927 2.21939 1.65102
2.16945 2.22921 1.62555
2.15841 2.24025 1.60012
2.17928 2.21938 1.6001
2.16945 2.22921 1.62555
2.16944 2.22922 1.77905
2.14804 2.25062 1.77906
2.15841 2.24025 1.75337
2.14804 2.25063 1.72774
2.16944 2.22922 1.72772
2.15841 2.24025 1.75337
2.19128 2.20738 1.67653
2.17927 2.21939 1.65102
2.19928 2.19938 1.651
2.16944 2.22922 1.67656
2.17927 2.21939 1.65102
2.19128 2.20738 1.67653
1.93725 2.46141 1.88232
1.94766 2.451 1.90816
1.92679 2.47187 1.9082
2.05276 2.34591 1.75343
2.06331 2.33535 1.72779
2.07386 2.3248 1.75341
2.07386 2.3248 1.75341
2.06331 2.33535 1.72779
2.08443 2.31423 1.72778
2.15841 2.24026 1.70213
2.14804 2.25062 1.67658
2.16944 2.22922 1.67656
2.15841 2.24026 1.70213
2.16944 2.22922 1.72772
2.14804 2.25063 1.72774
2.04222 2.35644 1.72781
2.06331 2.33535 1.72779
2.05276 2.34591 1.75343
1.9897 2.40896 1.49874
1.96874 2.42992 1.49874
1.97921 2.41945 1.47344
1.93736 2.4613 1.47344
1.92692 2.47174 1.49875
1.91649 2.48217 1.47344
1.94781 2.45085 1.49875
1.92692 2.47174 1.49875
1.93736 2.4613 1.47344
1.92691 2.47175 1.39765
1.9478 2.45086 1.39765
1.93736 2.46131 1.42289
1.93736 2.46131 1.42289
1.91648 2.48218 1.42289
1.92691 2.47175 1.39765
1.92691 2.47175 1.39765
1.91648 2.48218 1.42289
1.90605 2.49261 1.39764
1.93736 2.46131 1.42289
1.9478 2.45086 1.39765
1.95826 2.4404 1.4229
1.96871 2.42995 1.34723
1.9792 2.41946 1.37244
1.95825 2.44041 1.37243
1.95825 2.44041 1.37243
1.94778 2.45088 1.34723
1.96871 2.42995 1.34723
1.8126 2.58607 1.52409
1.82295 2.57571 1.49875
1.83332 2.56534 1.52409
1.82295 2.57571 1.49875
1.84369 2.55497 1.49875
1.83332 2.56534 1.52409
1.92692 2.47174 1.44816
1.91648 2.48218 1.42289
1.93736 2.46131 1.42289
1.92692 2.47174 1.44816
1.93736 2.4613 1.47344
1.91649 2.48217 1.47344
1.91649 2.48217 1.47344
1.89565 2.50301 1.47344
1.90606 2.4926 1.44815
1.90606 2.4926 1.44815
1.92692 2.47174 1.44816
1.91649 2.48217 1.47344
1.91648 2.48218 1.42289
1.92692 2.47174 1.44816
1.90606 2.4926 1.44815
1.90605 2.49261 1.39764
1.88523 2.51343 1.39764
1.89563 2.50303 1.37241
1.88521 2.51345 1.34719
1.90603 2.49263 1.34721
1.89563 2.50303 1.37241
1.51322 2.88545 1.49868
1.50289 2.89577 1.52401
1.49256 2.90611 1.49867
1.49256 2.90611 1.49867
1.50288 2.89578 1.47336
1.51322 2.88545 1.49868
1.29442 3.10424 1.11987
1.28831 3.11035 1.14509
1.28831 3.11035 1.09442
1.28831 3.11035 1.045
1.29529 3.10337 1.06971
1.28831 3.11035 1.09442
1.307 3.09167 1.1957
1.28831 3.11035 1.19567
1.29431 3.10435 1.17042
1.28831 3.11035 1.19567
1.28831 3.11035 1.14509
1.29431 3.10435 1.17042
2.19928 2.19938 1.045
2.19217 2.20649 1.07075
2.18013 2.21854 1.045
1.28831 3.11035 1.29657
1.28831 3.11035 1.24614
1.29438 3.10428 1.27136
1.29438 3.10428 1.27136
1.30704 3.09162 1.29656
1.28831 3.11035 1.29657
1.30702 3.09164 1.24613
1.29438 3.10428 1.27136
1.28831 3.11035 1.24614
1.30702 3.09164 1.24613
1.31601 3.08265 1.22094
1.32714 3.07152 1.24616
1.31605 3.08262 1.27135
1.33709 3.06157 1.27137
1.32717 3.07149 1.29657
1.32717 3.07149 1.29657
1.30704 3.09162 1.29656
1.31605 3.08262 1.27135
1.32714 3.07152 1.24616
1.33709 3.06157 1.27137
1.31605 3.08262 1.27135
1.31605 3.08262 1.27135
1.30702 3.09164 1.24613
1.32714 3.07152 1.24616
1.30704 3.09162 1.29656
1.29438 3.10428 1.27136
1.31605 3.08262 1.27135
1.29438 3.10428 1.27136
1.30702 3.09164 1.24613
1.31605 3.08262 1.27135
1.29435 3.10432 1.22091
1.28831 3.11035 1.24614
1.28831 3.11035 1.19567
1.29435 3.10432 1.22091
1.28831 3.11035 1.19567
1.307 3.09167 1.1957
1.307 3.09167 1.1957
1.31601 3.08265 1.22094
1.29435 3.10432 1.22091
1.29435 3.10432 1.22091
1.30702 3.09164 1.24613
1.28831 3.11035 1.24614
1.31601 3.08265 1.22094
1.30702 3.09164 1.24613
1.29435 3.10432 1.22091
1.33717 3.06149 1.47329
1.32723 3.07143 1.4986
1.31613 3.08254 1.47329
1.32723 3.07143 1.4986
1.30708 3.09158 1.4986
1.31613 3.08254 1.47329
1.31613 3.08254 1.47329
1.32722 3.07145 1.448
1.33717 3.06149 1.47329
1.33711 3.06155 1.32179
1.32717 3.07149 1.29657
1.34771 3.05096 1.29659
1.31607 3.08259 1.32178
1.32717 3.07149 1.29657
1.33711 3.06155 1.32179
1.35794 3.04072 1.3218
1.33711 3.06155 1.32179
1.34771 3.05096 1.29659
1.34773 3.05094 1.34701
1.33711 3.06155 1.32179
1.35794 3.04072 1.3218
1.34773 3.05094 1.34701
1.35794 3.04072 1.3218
1.36839 3.03027 1.34702
1.50287 2.89579 1.4228
1.51321 2.88546 1.44807
1.49255 2.90612 1.44807
1.49255 2.90612 1.44807
1.51321 2.88546 1.44807
1.50288 2.89578 1.47336
1.42017 2.9785 1.47332
1.44086 2.9578 1.47333
1.43052 2.96814 1.49863
1.43051 2.96815 1.44804
1.44086 2.9578 1.47333
1.42017 2.9785 1.47332
1.44085 2.95782 1.42277
1.4305 2.96817 1.39752
1.45119 2.94748 1.39753
1.43051 2.96815 1.44804
1.42015 2.97851 1.42276
1.44085 2.95782 1.42277
1.44085 2.95782 1.42277
1.42015 2.97851 1.42276
1.4305 2.96817 1.39752
1.44087 2.95779 1.52398
1.46156 2.9371 1.52399
1.45123 2.94744 1.54934
1.3995 2.99917 1.5747
1.40985 2.98882 1.54932
1.4202 2.97846 1.57471
1.40983 2.98883 1.49862
1.42017 2.9785 1.47332
1.43052 2.96814 1.49863
1.39946 2.9992 1.47331
1.42017 2.9785 1.47332
1.40983 2.98883 1.49862
1.32724 3.07142 1.54929
1.33718 3.06148 1.52393
1.34779 3.05087 1.54929
1.33717 3.06149 1.47329
1.32722 3.07145 1.448
1.34776 3.0509 1.448
1.34776 3.0509 1.448
1.35799 3.04067 1.47329
1.33717 3.06149 1.47329
1.38911 3.00955 1.44801
1.39946 2.9992 1.47331
1.37874 3.01992 1.4733
1.34777 3.05089 1.4986
1.33718 3.06148 1.52393
1.32723 3.07143 1.4986
[...]
<PointData Scalars="View Factor" >
<DataArray type="Float64" Name="View Factor" NumberOfComponents="1" format="ascii">
1.58893e-05
1.58893e-05
1.58893e-05
2.93374e-05
2.93374e-05
2.93374e-05
3.07947e-05
3.07947e-05
3.07947e-05
0.000167909
0.000167909
0.000167909
0.00016975
0.00016975
0.00016975
3.32094e-05
3.32094e-05
3.32094e-05
0.000212794
0.000212794
0.000212794
8.82882e-06
8.82882e-06
8.82882e-06
1.13078e-05
1.13078e-05
1.13078e-05
9.02858e-06
9.02858e-06
9.02858e-06
1.05698e-05
1.05698e-05
1.05698e-05
1.35021e-05
1.35021e-05
1.35021e-05
4.11115e-05
4.11115e-05
4.11115e-05
3.84401e-05
3.84401e-05
3.84401e-05
5.37467e-05
5.37467e-05
5.37467e-05
4.95599e-05
4.95599e-05
4.95599e-05
3.49043e-05
3.49043e-05
3.49043e-05
4.03064e-05
4.03064e-05
4.03064e-05
3.79668e-05
3.79668e-05
3.79668e-05
3.84959e-05
3.84959e-05
3.84959e-05
3.65761e-05
3.65761e-05
3.65761e-05
1.17289e-05
1.17289e-05
1.17289e-05
2.66532e-05
2.66532e-05
2.66532e-05
1.45424e-05
1.45424e-05
1.45424e-05
0.00022987
0.00022987
0.00022987
0.000206943
0.000206943
0.000206943
0.000209387
0.000209387
0.000209387
0.000212829
0.000212829
0.000212829
0.000210706
0.000210706
0.000210706
0.000200171
0.000200171
0.000200171
0.000194965
0.000194965
0.000194965
0.000198157
0.000198157
0.000198157
0.000197191
0.000197191
0.000197191
0.00019695
0.00019695
0.00019695
0.000200195
0.000200195
0.000200195
0.000198198
0.000198198
0.000198198
0.000210652
0.000210652
0.000210652
0.000209634
0.000209634
0.000209634
0.000193861
0.000193861
0.000193861
0.000194852
0.000194852
0.000194852
0.000164398
0.000164398
0.000164398
0.000163288
0.000163288
0.000163288
0.000157305
0.000157305
0.000157305
1.52669e-05
1.52669e-05
1.52669e-05
1.01701e-05
1.01701e-05
1.01701e-05
9.15635e-06
9.15635e-06
9.15635e-06
4.21399e-05
4.21399e-05
4.21399e-05
3.67761e-05
3.67761e-05
3.67761e-05
3.08211e-05
3.08211e-05
3.08211e-05
5.59944e-05
5.59944e-05
5.59944e-05
4.0383e-05
4.0383e-05
4.0383e-05
4.17164e-05
4.17164e-05
4.17164e-05
4.04758e-05
4.04758e-05
4.04758e-05
1.44227e-05
1.44227e-05
1.44227e-05
9.81002e-06
9.81002e-06
9.81002e-06
9.47014e-06
9.47014e-06
9.47014e-06
2.86642e-05
2.86642e-05
2.86642e-05
3.41642e-05
3.41642e-05
3.41642e-05
3.25759e-05
3.25759e-05
3.25759e-05
1.23238e-05
1.23238e-05
1.23238e-05
1.26019e-05
1.26019e-05
1.26019e-05
3.35063e-05
3.35063e-05
3.35063e-05
3.13455e-05
3.13455e-05
3.13455e-05
4.77595e-05
4.77595e-05
4.77595e-05
3.57956e-05
3.57956e-05
3.57956e-05
3.74874e-05
3.74874e-05
3.74874e-05
2.48824e-05
2.48824e-05
2.48824e-05
2.77105e-05
2.77105e-05
2.77105e-05
1.08416e-05
1.08416e-05
1.08416e-05
1.74234e-05
1.74234e-05
1.74234e-05
1.79742e-05
1.79742e-05
1.79742e-05
4.05367e-05
4.05367e-05
4.05367e-05
3.84368e-05
3.84368e-05
3.84368e-05
1.79881e-05
1.79881e-05
1.79881e-05
4.17662e-05
4.17662e-05
4.17662e-05
4.27672e-05
4.27672e-05
4.27672e-05
4.37803e-05
4.37803e-05
4.37803e-05
2.16355e-05
2.16355e-05
2.16355e-05
2.49154e-05
2.49154e-05
2.49154e-05
2.23755e-05
2.23755e-05
2.23755e-05
2.40763e-05
2.40763e-05
2.40763e-05
1.04256e-05
1.04256e-05
1.04256e-05
9.36928e-06
9.36928e-06
9.36928e-06
5.47696e-05
5.47696e-05
5.47696e-05
5.37479e-05
5.37479e-05
5.37479e-05
3.01848e-05
3.01848e-05
3.01848e-05
3.90133e-05
3.90133e-05
3.90133e-05
4.03336e-05
4.03336e-05
4.03336e-05
3.75877e-05
3.75877e-05
3.75877e-05
3.31452e-05
3.31452e-05
3.31452e-05
1.76297e-05
1.76297e-05
1.76297e-05
1.03385e-05
1.03385e-05
1.03385e-05
0.000159517
0.000159517
0.000159517
0.000160589
0.000160589
0.000160589
0.000226407
0.000226407
0.000226407
0.000229896
0.000229896
0.000229896
0.000220644
0.000220644
0.000220644
0.000222904
0.000222904
0.000222904
1.65573e-05
1.65573e-05
1.65573e-05
0.000216097
0.000216097
0.000216097
0.000213923
0.000213923
0.000213923
0.000216132
0.000216132
0.000216132
0.000213745
0.000213745
0.000213745
0.000209289
0.000209289
0.000209289
0.000210471
0.000210471
0.000210471
0.000210363
0.000210363
0.000210363
0.00021264
0.00021264
0.00021264
0.00021289
0.00021289
0.00021289
0.000213978
0.000213978
0.000213978
0.000219466
0.000219466
0.000219466
0.000219513
0.000219513
0.000219513
0.000217328
0.000217328
0.000217328
0.000217249
0.000217249
0.000217249
0.000216203
0.000216203
0.000216203
0.000196844
0.000196844
0.000196844
0.000197962
0.000197962
0.000197962
0.000197848
0.000197848
0.000197848
0.000205888
0.000205888
0.000205888
0.000207152
0.000207152
0.000207152
0.000203617
0.000203617
0.000203617
0.000202566
0.000202566
0.000202566
0.000200289
0.000200289
0.000200289
0.00016405
0.00016405
0.00016405
0.000162904
0.000162904
0.000162904
0.000180074
0.000180074
0.000180074
0.000180991
0.000180991
0.000180991
0.000182527
0.000182527
0.000182527
0.000182846
0.000182846
0.000182846
0.000183775
0.000183775
0.000183775
0.000174058
0.000174058
0.000174058
0.000178827
0.000178827
0.000178827
0.000181288
0.000181288
0.000181288
0.000183426
0.000183426
0.000183426
0.000191692
0.000191692
0.000191692
0.000196635
0.000196635
0.000196635
0.000194465
0.000194465
0.000194465
0.000187731
0.000187731
0.000187731
0.000193664
0.000193664
0.000193664
0.000194641
0.000194641
0.000194641
0.000193479
0.000193479
0.000193479
0.000175239
0.000175239
0.000175239
0.000177226
0.000177226
0.000177226
0.000169746
0.000169746
0.000169746
0.000169255
0.000169255
0.000169255
0.000171441
0.000171441
0.000171441
0.000171098
0.000171098
0.000171098
0.000167089
0.000167089
0.000167089
0.000171972
0.000171972
0.000171972
0.000170479
0.000170479
0.000170479
0.000166017
0.000166017
0.000166017
0.000168524
0.000168524
0.000168524
0.000163857
0.000163857
0.000163857
0.000167568
0.000167568
0.000167568
0.000174681
0.000174681
0.000174681
0.000172298
0.000172298
0.000172298
0.000145288
0.000145288
0.000145288
6.07398e-05
6.07398e-05
6.07398e-05
0.000105375
0.000105375
0.000105375
5.52473e-05
5.52473e-05
5.52473e-05
0.000105494
0.000105494
0.000105494
0.000160041
0.000160041
0.000160041
0.000156247
0.000156247
0.000156247
0.000161084
0.000161084
0.000161084
1.71815e-05
1.71815e-05
1.71815e-05
1.63578e-05
1.63578e-05
1.63578e-05
1.50057e-05
1.50057e-05
1.50057e-05
1.57464e-05
1.57464e-05
1.57464e-05
1.81579e-05
1.81579e-05
1.81579e-05
1.84433e-05
1.84433e-05
1.84433e-05
2.16061e-05
2.16061e-05
2.16061e-05
1.66418e-05
1.66418e-05
1.66418e-05
9.06993e-06
9.06993e-06
9.06993e-06
9.44759e-06
9.44759e-06
9.44759e-06
8.68724e-06
8.68724e-06
8.68724e-06
8.6064e-06
8.6064e-06
8.6064e-06
9.80269e-06
9.80269e-06
9.80269e-06
9.94534e-06
9.94534e-06
9.94534e-06
9.55716e-06
9.55716e-06
9.55716e-06
9.21151e-06
9.21151e-06
9.21151e-06
9.31129e-06
9.31129e-06
9.31129e-06
9.6926e-06
9.6926e-06
9.6926e-06
1.01409e-05
1.01409e-05
1.01409e-05
8.39176e-06
8.39176e-06
8.39176e-06
8.97507e-06
8.97507e-06
8.97507e-06
8.84053e-06
8.84053e-06
8.84053e-06
8.46762e-06
8.46762e-06
8.46762e-06
8.17698e-06
8.17698e-06
8.17698e-06
7.31267e-06
7.31267e-06
7.31267e-06
6.3104e-06
6.3104e-06
6.3104e-06
6.30933e-06
6.30933e-06
6.30933e-06
1.06788e-05
1.06788e-05
1.06788e-05
1.0674e-05
1.0674e-05
1.0674e-05
1.04197e-05
1.04197e-05
1.04197e-05
5.22519e-05
5.22519e-05
5.22519e-05
4.97299e-05
4.97299e-05
4.97299e-05
5.18373e-05
5.18373e-05
5.18373e-05
5.02985e-05
5.02985e-05
5.02985e-05
8.83431e-06
8.83431e-06
8.83431e-06
9.31529e-06
9.31529e-06
9.31529e-06
8.9653e-06
8.9653e-06
8.9653e-06
3.97573e-05
3.97573e-05
3.97573e-05
3.8301e-05
3.8301e-05
3.8301e-05
2.67221e-05
2.67221e-05
2.67221e-05
2.83704e-05
2.83704e-05
2.83704e-05
2.23105e-05
2.23105e-05
2.23105e-05
1.75687e-05
1.75687e-05
1.75687e-05
2.37227e-05
2.37227e-05
2.37227e-05
5.44187e-05
5.44187e-05
5.44187e-05
5.43142e-05
5.43142e-05
5.43142e-05
5.57103e-05
5.57103e-05
5.57103e-05
5.71884e-05
5.71884e-05
5.71884e-05
5.57888e-05
5.57888e-05
5.57888e-05
5.66033e-05
5.66033e-05
5.66033e-05
4.50401e-05
4.50401e-05
4.50401e-05
4.50845e-05
4.50845e-05
4.50845e-05
1.05181e-05
1.05181e-05
1.05181e-05
1.09103e-05
1.09103e-05
1.09103e-05
1.41169e-05
1.41169e-05
1.41169e-05
1.21634e-05
1.21634e-05
1.21634e-05
2.90191e-05
2.90191e-05
2.90191e-05
3.13785e-05
3.13785e-05
3.13785e-05
3.65999e-05
3.65999e-05
3.65999e-05
3.4185e-05
3.4185e-05
3.4185e-05
3.50678e-05
3.50678e-05
3.50678e-05
3.38263e-05
3.38263e-05
3.38263e-05
4.4676e-05
4.4676e-05
4.4676e-05
4.33187e-05
4.33187e-05
4.33187e-05
4.17278e-05
4.17278e-05
4.17278e-05
3.50832e-05
3.50832e-05
3.50832e-05
2.47889e-05
2.47889e-05
2.47889e-05
7.72577e-06
7.72577e-06
7.72577e-06
1.37626e-05
1.37626e-05
1.37626e-05
1.56258e-05
1.56258e-05
1.56258e-05
1.47875e-05
1.47875e-05
1.47875e-05
1.63768e-05
1.63768e-05
1.63768e-05
1.45199e-05
1.45199e-05
1.45199e-05
3.07554e-05
3.07554e-05
3.07554e-05
3.15021e-05
3.15021e-05
3.15021e-05
4.30809e-05
4.30809e-05
4.30809e-05
4.01433e-05
4.01433e-05
4.01433e-05
4.05367e-05
4.05367e-05
4.05367e-05
3.86909e-05
3.86909e-05
3.86909e-05
3.73853e-05
3.73853e-05
3.73853e-05
3.89251e-05
3.89251e-05
3.89251e-05
3.74715e-05
3.74715e-05
3.74715e-05
4.10177e-05
4.10177e-05
4.10177e-05
3.9918e-05
3.9918e-05
3.9918e-05
2.61722e-05
2.61722e-05
2.61722e-05
3.51249e-05
3.51249e-05
3.51249e-05
3.3643e-05
3.3643e-05
3.3643e-05
3.59937e-05
3.59937e-05
3.59937e-05
3.53549e-05
3.53549e-05
3.53549e-05
3.29936e-05
3.29936e-05
3.29936e-05
3.38777e-05
3.38777e-05
3.38777e-05
4.09355e-05
4.09355e-05
4.09355e-05
3.55649e-05
3.55649e-05
3.55649e-05
3.90869e-05
3.90869e-05
3.90869e-05
3.46193e-05
3.46193e-05
3.46193e-05
4.53099e-05
4.53099e-05
4.53099e-05
4.42128e-05
4.42128e-05
4.42128e-05
4.59e-05
4.59e-05
4.59e-05
4.64914e-05
4.64914e-05
4.64914e-05
4.39376e-05
4.39376e-05
4.39376e-05
5.00226e-05
5.00226e-05
5.00226e-05
4.90184e-05
4.90184e-05
4.90184e-05
4.68164e-05
4.68164e-05
4.68164e-05
4.56581e-05
4.56581e-05
4.56581e-05
5.05956e-05
5.05956e-05
5.05956e-05
4.83213e-05
4.83213e-05
4.83213e-05
4.89148e-05
4.89148e-05
4.89148e-05
4.69217e-05
4.69217e-05
4.69217e-05
4.3694e-05
4.3694e-05
4.3694e-05
4.25961e-05
4.25961e-05
4.25961e-05
4.50922e-05
4.50922e-05
4.50922e-05
4.84269e-05
4.84269e-05
4.84269e-05
4.13221e-05
4.13221e-05
4.13221e-05
4.22727e-05
4.22727e-05
4.22727e-05
4.03038e-05
4.03038e-05
4.03038e-05
3.67586e-05
3.67586e-05
3.67586e-05
2.83732e-05
2.83732e-05
2.83732e-05
3.91236e-05
3.91236e-05
3.91236e-05
2.89488e-05
2.89488e-05
2.89488e-05
1.7069e-05
1.7069e-05
1.7069e-05
1.0016e-05
1.0016e-05
1.0016e-05
1.50119e-05
1.50119e-05
1.50119e-05
1.13973e-05
1.13973e-05
1.13973e-05
9.69271e-06
9.69271e-06
9.69271e-06
1.10333e-05
1.10333e-05
1.10333e-05
1.45287e-05
1.45287e-05
1.45287e-05
1.65075e-05
1.65075e-05
1.65075e-05
1.40439e-05
1.40439e-05
1.40439e-05
1.06693e-05
1.06693e-05
1.06693e-05
2.84105e-05
2.84105e-05
2.84105e-05
3.04915e-05
3.04915e-05
3.04915e-05
5.86802e-05
5.86802e-05
5.86802e-05
5.35301e-05
5.35301e-05
5.35301e-05
5.33198e-05
5.33198e-05
5.33198e-05
5.62807e-05
5.62807e-05
5.62807e-05
5.72311e-05
5.72311e-05
5.72311e-05
6.03478e-05
6.03478e-05
6.03478e-05
4.64586e-05
4.64586e-05
4.64586e-05
4.89489e-05
4.89489e-05
4.89489e-05
4.76373e-05
4.76373e-05
4.76373e-05
4.28808e-05
4.28808e-05
4.28808e-05
4.17788e-05
4.17788e-05
4.17788e-05
4.39666e-05
4.39666e-05
4.39666e-05
5.13058e-05
5.13058e-05
5.13058e-05
4.25856e-05
4.25856e-05
4.25856e-05
4.56087e-05
4.56087e-05
4.56087e-05
4.99979e-05
4.99979e-05
4.99979e-05
5.14364e-05
5.14364e-05
5.14364e-05
5.355e-05
5.355e-05
5.355e-05
4.38333e-05
4.38333e-05
4.38333e-05
5.53247e-05
5.53247e-05
5.53247e-05
5.28153e-05
5.28153e-05
5.28153e-05
3.75143e-05
3.75143e-05
3.75143e-05
1.06601e-05
1.06601e-05
1.06601e-05
1.17601e-05
1.17601e-05
1.17601e-05
1.54951e-05
1.54951e-05
1.54951e-05
3.88378e-05
3.88378e-05
3.88378e-05
4.16538e-05
4.16538e-05
4.16538e-05
3.53148e-05
3.53148e-05
3.53148e-05
4.00878e-05
4.00878e-05
4.00878e-05
0.000154837
0.000154837
0.000154837
0.000180016
0.000180016
0.000180016
0.000179105
0.000179105
0.000179105
0.000180355
0.000180355
0.000180355
0.00017024
0.00017024
0.00017024
0.000161376
0.000161376
0.000161376
0.000162628
0.000162628
0.000162628
0.000202359
0.000202359
0.000202359
0.000205713
0.000205713
0.000205713
0.0002034
0.0002034
0.0002034
0.00015901
0.00015901
0.00015901
0.000157846
0.000157846
0.000157846
6.01315e-05
6.01315e-05
6.01315e-05
6.18302e-05
6.18302e-05
6.18302e-05
6.48459e-05
6.48459e-05
6.48459e-05
6.58586e-05
6.58586e-05
6.58586e-05
6.1975e-05
6.1975e-05
6.1975e-05
6.43764e-05
6.43764e-05
6.43764e-05
3.61058e-05
3.61058e-05
3.61058e-05
1.69333e-05
1.69333e-05
1.69333e-05
4.38278e-05
4.38278e-05
4.38278e-05
1.65773e-05
1.65773e-05
1.65773e-05
3.32947e-05
3.32947e-05
3.32947e-05
3.39046e-05
3.39046e-05
3.39046e-05
1.09202e-05
1.09202e-05
1.09202e-05
1.17428e-05
1.17428e-05
1.17428e-05
0.000197149
0.000197149
0.000197149
0.000197168
0.000197168
0.000197168
0.000203244
0.000203244
0.000203244
0.000201204
0.000201204
0.000201204
0.000200226
0.000200226
0.000200226
0.000206371
0.000206371
0.000206371
0.000206397
0.000206397
0.000206397
0.000203063
0.000203063
0.000203063
0.000204342
0.000204342
0.000204342
0.000209583
0.000209583
0.000209583
0.000209553
0.000209553
0.000209553
0.000207446
0.000207446
0.000207446
0.000207496
0.000207496
0.000207496
0.000206439
0.000206439
0.000206439
0.000204097
0.000204097
0.000204097
0.000202947
0.000202947
0.000202947
0.000200513
0.000200513
0.000200513
0.000199276
0.000199276
0.000199276
0.000207257
0.000207257
0.000207257
0.000206088
0.000206088
0.000206088
0.000206198
0.000206198
0.000206198
0.000203997
0.000203997
0.000203997
0.000203779
0.000203779
0.000203779
0.000202748
0.000202748
0.000202748
0.000200893
0.000200893
0.000200893
0.000199868
0.000199868
0.000199868
0.000197639
0.000197639
0.000197639
0.00019646
0.00019646
0.00019646
0.000173429
0.000173429
0.000173429
0.000176044
0.000176044
0.000176044
0.000176942
0.000176942
0.000176942
0.00017025
0.00017025
0.00017025
0.000166664
0.000166664
0.000166664
0.000167868
0.000167868
0.000167868
0.00017027
0.00017027
0.00017027
0.000172389
0.000172389
0.000172389
0.000174253
0.000174253
0.000174253
0.00017331
0.00017331
0.00017331
0.000184365
0.000184365
0.000184365
0.000186244
0.000186244
0.000186244
0.000183144
0.000183144
0.000183144
0.000184074
0.000184074
0.000184074
0.000186522
0.000186522
0.000186522
0.000187469
0.000187469
0.000187469
0.000178259
0.000178259
0.000178259
0.00018037
0.00018037
0.00018037
0.000175258
0.000175258
0.000175258
0.000177646
0.000177646
0.000177646
0.000178553
0.000178553
0.000178553
0.000177353
0.000177353
0.000177353
0.000175568
0.000175568
0.000175568
0.000174376
0.000174376
0.000174376
0.000176137
0.000176137
0.000176137
0.000174973
0.000174973
0.000174973
0.000175861
0.000175861
0.000175861
0.000177932
0.000177932
0.000177932
0.0001791
0.0001791
0.0001791
0.000179356
0.000179356
0.000179356
0.000178195
0.000178195
0.000178195
0.000180918
0.000180918
0.000180918
0.000194252
0.000194252
0.000194252
0.000189891
0.000189891
0.000189891
0.000193261
0.000193261
0.000193261
0.000191093
0.000191093
0.000191093
0.000190552
0.000190552
0.000190552
0.00019153
0.00019153
0.00019153
0.000188207
0.000188207
0.000188207
0.000190342
0.000190342
0.000190342
0.000190128
0.000190128
0.000190128
0.000191311
0.000191311
0.000191311
0.000178446
0.000178446
0.000178446
0.000179587
0.000179587
0.000179587
0.000176396
0.000176396
0.000176396
0.000181645
0.000181645
0.000181645
0.000182778
0.000182778
0.000182778
0.000178681
0.000178681
0.000178681
0.000166657
0.000166657
0.000166657
0.000173198
0.000173198
0.000173198
0.000172336
0.000172336
0.000172336
0.000170315
0.000170315
0.000170315
0.000169155
0.000169155
0.000169155
0.000171232
0.000171232
0.000171232
0.000166611
0.000166611
0.000166611
0.000167948
0.000167948
0.000167948
0.000182745
0.000182745
0.000182745
0.000180915
0.000180915
0.000180915
0.000180029
0.000180029
0.000180029
0.000177279
0.000177279
0.000177279
0.000179987
0.000179987
0.000179987
0.000178188
0.000178188
0.000178188
0.000177324
0.000177324
0.000177324
0.00018001
0.00018001
0.00018001
0.000178221
0.000178221
0.000178221
0.000178006
0.000178006
0.000178006
0.000177104
0.000177104
0.000177104
0.000174939
0.000174939
0.000174939
0.000173721
0.000173721
0.000173721
0.000174609
0.000174609
0.000174609
0.00017673
0.00017673
0.00017673
0.00017795
0.00017795
0.00017795
0.000177049
0.000177049
0.000177049
0.00016938
0.00016938
0.00016938
0.000172616
0.000172616
0.000172616
0.000171431
0.000171431
0.000171431
0.000168463
0.000168463
0.000168463
4.32179e-05
4.32179e-05
4.32179e-05
4.83098e-05
4.83098e-05
4.83098e-05
4.59866e-05
4.59866e-05
4.59866e-05
0.000127135
0.000127135
0.000127135
0.000109416
0.000109416
0.000109416
0.000109323
0.000109323
0.000109323
0.00013713
0.00013713
0.00013713
0.00012629
0.00012629
0.00012629
0.000154169
0.000154169
0.000154169
0.000153123
0.000153123
0.000153123
0.000138959
0.000138959
0.000138959
0.000146236
0.000146236
0.000146236
0.000149213
0.000149213
0.000149213
0.000148229
0.000148229
0.000148229
0.000128918
0.000128918
0.000128918
0.000139917
0.000139917
0.000139917
1.52047e-05
1.52047e-05
1.52047e-05
1.43754e-05
1.43754e-05
1.43754e-05
1.47983e-05
1.47983e-05
1.47983e-05
1.55143e-05
1.55143e-05
1.55143e-05
1.67049e-05
1.67049e-05
1.67049e-05
1.76531e-05
1.76531e-05
1.76531e-05
1.50779e-05
1.50779e-05
1.50779e-05
1.59178e-05
1.59178e-05
1.59178e-05
1.54546e-05
1.54546e-05
1.54546e-05
1.62258e-05
1.62258e-05
1.62258e-05
2.37688e-05
2.37688e-05
2.37688e-05
2.12646e-05
2.12646e-05
2.12646e-05
1.99349e-05
1.99349e-05
1.99349e-05
2.18755e-05
2.18755e-05
2.18755e-05
2.22168e-05
2.22168e-05
2.22168e-05
2.04827e-05
2.04827e-05
2.04827e-05
1.96119e-05
1.96119e-05
1.96119e-05
2.41721e-05
2.41721e-05
2.41721e-05
2.30946e-05
2.30946e-05
2.30946e-05
2.59825e-05
2.59825e-05
2.59825e-05
2.64311e-05
2.64311e-05
2.64311e-05
1.90571e-05
1.90571e-05
1.90571e-05
1.74018e-05
1.74018e-05
1.74018e-05
1.71476e-05
1.71476e-05
1.71476e-05
1.79227e-05
1.79227e-05
1.79227e-05
2.06542e-05
2.06542e-05
2.06542e-05
1.93626e-05
1.93626e-05
1.93626e-05
1.8502e-05
1.8502e-05
1.8502e-05
1.6134e-05
1.6134e-05
1.6134e-05
1.68798e-05
1.68798e-05
1.68798e-05
1.63559e-05
1.63559e-05
1.63559e-05
1.73902e-05
1.73902e-05
1.73902e-05
3.76023e-05
3.76023e-05
3.76023e-05
3.4767e-05
3.4767e-05
3.4767e-05
2.71838e-05
2.71838e-05
2.71838e-05
2.98104e-05
2.98104e-05
2.98104e-05
3.21153e-05
3.21153e-05
3.21153e-05
3.06716e-05
3.06716e-05
3.06716e-05
2.92051e-05
2.92051e-05
2.92051e-05
3.38013e-05
3.38013e-05
3.38013e-05
3.30427e-05
3.30427e-05
3.30427e-05
2.55265e-05
2.55265e-05
2.55265e-05
2.6607e-05
2.6607e-05
2.6607e-05
1.40561e-05
1.40561e-05
1.40561e-05
9.75709e-06
9.75709e-06
9.75709e-06
1.01966e-05
1.01966e-05
1.01966e-05
1.11098e-05
1.11098e-05
1.11098e-05
1.06685e-05
1.06685e-05
1.06685e-05
1.39775e-05
1.39775e-05
1.39775e-05
1.39352e-05
1.39352e-05
1.39352e-05
0.000170597
0.000170597
0.000170597
0.000169456
0.000169456
0.000169456
1.01539e-05
1.01539e-05
1.01539e-05
1.62319e-05
1.62319e-05
1.62319e-05
5.26495e-05
5.26495e-05
5.26495e-05
1.79399e-05
1.79399e-05
1.79399e-05
0.000120964
0.000120964
0.000120964
3.25253e-05
3.25253e-05
3.25253e-05
2.4101e-05
2.4101e-05
2.4101e-05
1.86547e-05
1.86547e-05
1.86547e-05
1.90863e-05
1.90863e-05
1.90863e-05
2.10394e-05
2.10394e-05
2.10394e-05
2.01966e-05
2.01966e-05
2.01966e-05
1.51614e-05
1.51614e-05
1.51614e-05
1.13512e-05
1.13512e-05
1.13512e-05
1.05673e-05
1.05673e-05
1.05673e-05
1.08384e-05
1.08384e-05
1.08384e-05
1.0405e-05
1.0405e-05
1.0405e-05
1.5964e-05
1.5964e-05
1.5964e-05
1.76921e-05
1.76921e-05
1.76921e-05
1.68872e-05
1.68872e-05
1.68872e-05
1.49836e-05
1.49836e-05
1.49836e-05
1.48046e-05
1.48046e-05
1.48046e-05
1.53514e-05
1.53514e-05
1.53514e-05
1.58858e-05
1.58858e-05
1.58858e-05
1.68177e-05
1.68177e-05
1.68177e-05
1.59514e-05
1.59514e-05
1.59514e-05
7.09615e-06
7.09615e-06
7.09615e-06
7.36351e-06
7.36351e-06
7.36351e-06
8.61097e-06
8.61097e-06
8.61097e-06
7.96106e-06
7.96106e-06
7.96106e-06
8.24744e-06
8.24744e-06
8.24744e-06
7.52884e-06
7.52884e-06
7.52884e-06
7.5845e-06
7.5845e-06
7.5845e-06
7.93444e-06
7.93444e-06
7.93444e-06
8.26399e-06
8.26399e-06
8.26399e-06
6.47352e-06