<VTKFile type="UnstructuredGrid" version="1.0">
<UnstructuredGrid>
<Piece NumberOfPoints="10830" NumberOfCells="3610">
<Points>
<DataArray type="Float64" NumberOfComponents="3" format="ascii">
3.11035 1.27826 12.5657
3.11035 1.28831 12.5915
3.11035 1.28831 12.54
3.11035 1.28831 13.0951
3.11035 1.27701 13.1205
3.11035 1.28831 13.146
3.11035 1.28831 13.0951
3.11035 1.26002 13.0951
3.11035 1.27701 13.1205
3.11035 0.0244388 13.5676
3.11035 4.44089e-16 13.585
3.11035 0.0422213 13.585
3.11035 4.44089e-16 13.585
3.11035 0.0244388 13.5676
3.11035 -7.90479e-14 13.5548
3.11035 1.28831 13.0951
3.11035 1.27702 13.0697
3.11035 1.26002 13.0951
3.11035 0.00863377 12.8168
3.11035 1.50546e-13 12.7916
3.11035 1.49658e-13 12.842
3.11035 1.27705 12.8169
3.11035 1.26004 12.8421
3.11035 1.28831 12.8421
3.11035 1.27684 12.7163
3.11035 1.28831 12.7414
3.11035 1.28831 12.6913
3.11035 1.26004 12.8421
3.11035 1.27707 12.8673
3.11035 1.28831 12.8421
3.11035 1.28831 12.8421
3.11035 1.27707 12.8673
3.11035 1.28831 12.8925
3.11035 1.26005 12.8926
3.11035 1.28831 12.8925
3.11035 1.27707 12.8673
3.11035 1.26003 13.0443
3.11035 1.24613 13.0697
3.11035 1.27702 13.0697
3.11035 1.24613 13.0697
3.11035 1.26002 13.0951
3.11035 1.27702 13.0697
3.11035 1.24613 13.0697
3.11035 1.26003 13.0443
3.11035 1.23052 13.0443
3.11035 1.24613 13.0697
3.11035 1.23052 13.0951
3.11035 1.26002 13.0951
3.11035 1.28831 12.943
3.11035 1.27705 12.9683
3.11035 1.28831 12.9936
3.11035 1.27705 12.9683
3.11035 1.24616 12.9683
3.11035 1.26004 12.9936
3.11035 1.28831 12.9936
3.11035 1.27705 12.9683
3.11035 1.26004 12.9936
3.11035 1.28831 13.0443
3.11035 1.26003 13.0443
3.11035 1.27702 13.0697
3.11035 1.28831 13.0951
3.11035 1.28831 13.0443
3.11035 1.27702 13.0697
3.11035 1.25981 12.6913
3.11035 1.27684 12.7163
3.11035 1.28831 12.6913
3.11035 1.26002 13.146
3.11035 1.28831 13.146
3.11035 1.27701 13.1205
3.11035 0.85884 13.3257
3.11035 0.888295 13.3257
3.11035 0.873578 13.3
3.11035 4.44089e-16 12.54
3.11035 0.00987207 12.5647
3.11035 0.0277369 12.54
3.11035 0.0840033 12.7916
3.11035 0.0689903 12.7664
3.11035 0.0549577 12.7916
3.11035 0.0264927 12.7916
3.11035 0.0392653 12.8168
3.11035 0.0549577 12.7916
3.11035 0.0264927 12.7916
3.11035 1.50546e-13 12.7916
3.11035 0.00863377 12.8168
3.11035 0.0392653 12.8168
3.11035 0.0264927 12.7916
3.11035 0.00863377 12.8168
3.11035 0.0087521 13.0189
3.11035 1.48326e-13 12.9936
3.11035 -9.59233e-14 13.0443
3.11035 0.0265703 13.0443
3.11035 0.0550657 13.0443
3.11035 0.0393699 13.0189
3.11035 -9.59233e-14 13.0443
3.11035 0.0265703 13.0443
3.11035 0.0087521 13.0189
3.11035 0.0265703 13.0443
3.11035 0.0393699 13.0189
3.11035 0.0087521 13.0189
3.11035 0.0265544 12.9936
3.11035 0.0393699 13.0189
3.11035 0.0550443 12.9936
3.11035 0.0265544 12.9936
3.11035 1.48326e-13 12.9936
3.11035 0.0087521 13.0189
3.11035 0.0393699 13.0189
3.11035 0.0265544 12.9936
3.11035 0.0087521 13.0189
3.11035 1.49658e-13 12.842
3.11035 0.0265126 12.842
3.11035 0.00863377 12.8168
3.11035 0.0265126 12.842
3.11035 0.0392653 12.8168
3.11035 0.00863377 12.8168
3.11035 0.0550657 13.0443
3.11035 0.0691236 13.0189
3.11035 0.0393699 13.0189
3.11035 0.0393699 13.0189
3.11035 0.0691236 13.0189
3.11035 0.0550443 12.9936
3.11035 0.288852 12.9937
3.11035 0.274248 13.019
3.11035 0.303471 13.019
3.11035 0.274248 13.019
3.11035 0.288872 13.0444
3.11035 0.303471 13.019
3.11035 0.288872 13.0444
3.11035 0.318088 13.0444
3.11035 0.303471 13.019
3.11035 0.844143 13.3
3.11035 0.85884 13.3257
3.11035 0.873578 13.3
3.11035 1.27699 12.7666
3.11035 1.28831 12.7917
3.11035 1.28831 12.7414
3.11035 1.28831 12.8421
3.11035 1.28831 12.7917
3.11035 1.27705 12.8169
3.11035 1.17079 12.9431
3.11035 1.15586 12.9178
3.11035 1.14088 12.9431
3.11035 1.26004 12.9431
3.11035 1.24616 12.9683
3.11035 1.27705 12.9683
3.11035 1.28831 12.943
3.11035 1.26004 12.9431
3.11035 1.27705 12.9683
3.11035 1.24616 12.9683
3.11035 1.23053 12.9936
3.11035 1.26004 12.9936
3.11035 1.27704 13.0189
3.11035 1.28831 12.9936
3.11035 1.26004 12.9936
3.11035 1.28831 12.9936
3.11035 1.27704 13.0189
3.11035 1.28831 13.0443
3.11035 1.27704 13.0189
3.11035 1.26003 13.0443
3.11035 1.28831 13.0443
3.11035 1.24591 12.7164
3.11035 1.27684 12.7163
3.11035 1.25981 12.6913
3.11035 1.27699 12.7666
3.11035 1.26001 12.7917
3.11035 1.28831 12.7917
3.11035 1.26001 12.7917
3.11035 1.27705 12.8169
3.11035 1.28831 12.7917
3.11035 1.15573 12.7666
3.11035 1.1706 12.7414
3.11035 1.1407 12.7414
3.11035 1.20051 12.7415
3.11035 1.21561 12.7163
3.11035 1.18556 12.7163
3.11035 1.20051 12.7415
3.11035 1.18556 12.7163
3.11035 1.1706 12.7414
3.11035 1.24614 12.8169
3.11035 1.26004 12.8421
3.11035 1.27705 12.8169
3.11035 1.24614 12.8169
3.11035 1.27705 12.8169
3.11035 1.26001 12.7917
3.11035 1.24612 13.1206
3.11035 1.27701 13.1205
3.11035 1.26002 13.0951
3.11035 1.27701 13.1205
3.11035 1.24612 13.1206
3.11035 1.26002 13.146
3.11035 1.23052 13.0951
3.11035 1.24612 13.1206
3.11035 1.26002 13.0951
3.11035 1.24611 13.2741
3.11035 1.23051 13.2484
3.11035 1.21584 13.2741
3.11035 1.21584 13.2227
3.11035 1.23051 13.2484
3.11035 1.24611 13.2227
3.11035 1.27699 13.1715
3.11035 1.28831 13.146
3.11035 1.26002 13.146
3.11035 1.24611 13.1716
3.11035 1.27699 13.1715
3.11035 1.26002 13.146
3.11035 0.917741 13.3773
3.11035 0.902954 13.4032
3.11035 0.932465 13.4032
3.11035 1.08109 13.2484
3.11035 1.11094 13.2484
3.11035 1.09602 13.2228
3.11035 1.11094 13.2484
3.11035 1.12589 13.2228
3.11035 1.09602 13.2228
3.11035 1.2305 13.1971
3.11035 1.24611 13.1716
3.11035 1.21584 13.1716
3.11035 1.2305 13.1971
3.11035 1.21584 13.2227
3.11035 1.24611 13.2227
3.11035 1.0662 13.2228
3.11035 1.08109 13.2484
3.11035 1.09602 13.2228
3.11035 0.991917 12.9937
3.11035 0.977089 12.9684
3.11035 0.962274 12.9937
3.11035 0.917902 12.9684
3.11035 0.888384 12.9684
3.11035 0.903138 12.9937
3.11035 0.932681 12.9937
3.11035 0.917902 12.9684
3.11035 0.903138 12.9937
3.11035 0.903119 12.8927
3.11035 0.917893 12.9179
3.11035 0.932664 12.8927
3.11035 0.917893 12.9179
3.11035 0.903119 12.8927
3.11035 0.888374 12.9179
3.11035 0.903119 12.8927
3.11035 0.873625 12.8926
3.11035 0.888374 12.9179
3.11035 0.917893 12.9179
3.11035 0.947463 12.9179
3.11035 0.932664 12.8927
3.11035 0.962233 12.8422
3.11035 0.947444 12.8674
3.11035 0.977066 12.8674
3.11035 0.947444 12.8674
3.11035 0.962233 12.8422
3.11035 0.932637 12.8422
3.11035 0.741456 13.0191
3.11035 0.770765 13.0191
3.11035 0.756104 12.9937
3.11035 0.756104 12.9937
3.11035 0.770765 13.0191
3.11035 0.785431 12.9938
3.11035 0.903133 12.9432
3.11035 0.917893 12.9179
3.11035 0.888374 12.9179
3.11035 0.903133 12.9432
3.11035 0.888384 12.9684
3.11035 0.917902 12.9684
3.11035 0.888384 12.9684
3.11035 0.873639 12.9432
3.11035 0.858913 12.9684
3.11035 0.873639 12.9432
3.11035 0.888384 12.9684
3.11035 0.903133 12.9432
3.11035 0.888374 12.9179
3.11035 0.873639 12.9432
3.11035 0.903133 12.9432
3.11035 0.873625 12.8926
3.11035 0.858884 12.8674
3.11035 0.844177 12.8926
3.11035 0.844153 12.8422
3.11035 0.858884 12.8674
3.11035 0.873599 12.8422
3.11035 0.318069 12.9937
3.11035 0.288852 12.9937
3.11035 0.303471 13.019
3.11035 0.288852 12.9937
3.11035 0.318069 12.9937
3.11035 0.303454 12.9684
3.11035 0.00864568 12.6149
3.11035 -9.63674e-14 12.5894
3.11035 1.49658e-13 12.6401
3.11035 4.44089e-16 12.54
3.11035 -9.63674e-14 12.5894
3.11035 0.00987207 12.5647
3.11035 0.0264295 12.6907
3.11035 0.00849117 12.6654
3.11035 1.50546e-13 12.6907
3.11035 1.50546e-13 12.6907
3.11035 0.00849117 12.6654
3.11035 1.49658e-13 12.6401
3.11035 1.28831 12.54
3.11035 1.26122 12.54
3.11035 1.27826 12.5657
3.11035 1.50546e-13 12.7916
3.11035 0.00859461 12.7664
3.11035 1.50546e-13 12.7411
3.11035 0.00859461 12.7664
3.11035 1.50546e-13 12.7916
3.11035 0.0264927 12.7916
3.11035 0.0264637 12.7411
3.11035 1.50546e-13 12.7411
3.11035 0.00859461 12.7664
3.11035 0.0264637 12.7411
3.11035 0.0549232 12.7412
3.11035 0.0391815 12.7159
3.11035 0.0392276 12.7664
3.11035 0.0549577 12.7916
3.11035 0.0689903 12.7664
3.11035 0.0549577 12.7916
3.11035 0.0392276 12.7664
3.11035 0.0264927 12.7916
3.11035 0.0549232 12.7412
3.11035 0.0392276 12.7664
3.11035 0.0689903 12.7664
3.11035 0.0392276 12.7664
3.11035 0.0549232 12.7412
3.11035 0.0264637 12.7411
3.11035 0.0264927 12.7916
3.11035 0.0392276 12.7664
3.11035 0.00859461 12.7664
3.11035 0.00859461 12.7664
3.11035 0.0392276 12.7664
3.11035 0.0264637 12.7411
3.11035 0.00854014 12.7159
3.11035 1.50546e-13 12.6907
3.11035 1.50546e-13 12.7411
3.11035 0.00854014 12.7159
3.11035 0.0264295 12.6907
3.11035 1.50546e-13 12.6907
3.11035 0.0264295 12.6907
3.11035 0.00854014 12.7159
3.11035 0.0391815 12.7159
3.11035 0.00854014 12.7159
3.11035 1.50546e-13 12.7411
3.11035 0.0264637 12.7411
3.11035 0.0391815 12.7159
3.11035 0.00854014 12.7159
3.11035 0.0264637 12.7411
3.11035 0.0690987 12.9683
3.11035 0.0393425 12.9683
3.11035 0.0550443 12.9936
3.11035 0.0550443 12.9936
3.11035 0.0393425 12.9683
3.11035 0.0265544 12.9936
3.11035 0.0393425 12.9683
3.11035 0.0690987 12.9683
3.11035 0.0550252 12.943
3.11035 0.0690242 12.8168
3.11035 0.0840033 12.7916
3.11035 0.0549577 12.7916
3.11035 0.0392653 12.8168
3.11035 0.0690242 12.8168
3.11035 0.0549577 12.7916
3.11035 0.0984777 12.8168
3.11035 0.0840033 12.7916
3.11035 0.0690242 12.8168
3.11035 0.0840313 12.842
3.11035 0.0984777 12.8168
3.11035 0.0690242 12.8168
3.11035 0.0840313 12.842
3.11035 0.113251 12.842
3.11035 0.0984777 12.8168
3.11035 0.303441 12.9178
3.11035 0.288836 12.9431
3.11035 0.318055 12.9431
3.11035 0.288836 12.9431
3.11035 0.303454 12.9684
3.11035 0.318055 12.9431
3.11035 0.186476 12.9683
3.11035 0.201123 12.9936
3.11035 0.215741 12.9683
3.11035 0.201103 12.943
3.11035 0.186476 12.9683
3.11035 0.215741 12.9683
3.11035 0.215723 12.9178
3.11035 0.230345 12.8925
3.11035 0.201085 12.8925
3.11035 0.201103 12.943
3.11035 0.215723 12.9178
3.11035 0.186456 12.9178
3.11035 0.215723 12.9178
3.11035 0.201085 12.8925
3.11035 0.186456 12.9178
3.11035 0.215762 13.019
3.11035 0.230402 13.0443
3.11035 0.245012 13.019
3.11035 0.157245 13.0697
3.11035 0.186525 13.0697
[...]
<PointData Scalars="View Factor" >
<DataArray type="Float64" Name="View Factor" NumberOfComponents="1" format="ascii">
9.55988e-06
9.55988e-06
9.55988e-06
8.72979e-06
8.72979e-06
8.72979e-06
8.7545e-06
8.7545e-06
8.7545e-06
6.06927e-06
6.06927e-06
6.06927e-06
6.08665e-06
6.08665e-06
6.08665e-06
8.77858e-06
8.77858e-06
8.77858e-06
5.98071e-06
5.98071e-06
5.98071e-06
9.14794e-06
9.14794e-06
9.14794e-06
9.32517e-06
9.32517e-06
9.32517e-06
9.1228e-06
9.1228e-06
9.1228e-06
9.09701e-06
9.09701e-06
9.09701e-06
9.07276e-06
9.07276e-06
9.07276e-06
8.81584e-06
8.81584e-06
8.81584e-06
8.79166e-06
8.79166e-06
8.79166e-06
8.82907e-06
8.82907e-06
8.82907e-06
8.78069e-06
8.78069e-06
8.78069e-06
8.94825e-06
8.94825e-06
8.94825e-06
8.93773e-06
8.93773e-06
8.93773e-06
8.92442e-06
8.92442e-06
8.92442e-06
8.82693e-06
8.82693e-06
8.82693e-06
8.80203e-06
8.80203e-06
8.80203e-06
9.3516e-06
9.3516e-06
9.3516e-06
8.70651e-06
8.70651e-06
8.70651e-06
2.17289e-07
2.17289e-07
2.17289e-07
8.92276e-06
8.92276e-06
8.92276e-06
4.24307e-06
4.24307e-06
4.24307e-06
5.0408e-06
5.0408e-06
5.0408e-06
5.77658e-06
5.77658e-06
5.77658e-06
5.40128e-06
5.40128e-06
5.40128e-06
5.78599e-06
5.78599e-06
5.78599e-06
4.8499e-06
4.8499e-06
4.8499e-06
5.55775e-06
5.55775e-06
5.55775e-06
5.21105e-06
5.21105e-06
5.21105e-06
4.87669e-06
4.87669e-06
4.87669e-06
5.58846e-06
5.58846e-06
5.58846e-06
5.22543e-06
5.22543e-06
5.22543e-06
5.74474e-06
5.74474e-06
5.74474e-06
5.38637e-06
5.38637e-06
5.38637e-06
4.4313e-06
4.4313e-06
4.4313e-06
4.44352e-06
4.44352e-06
4.44352e-06
0
0
0
0
0
0
0
0
0
0
0
0
9.24851e-06
9.24851e-06
9.24851e-06
9.17242e-06
9.17242e-06
9.17242e-06
7.4839e-06
7.4839e-06
7.4839e-06
8.96231e-06
8.96231e-06
8.96231e-06
8.97358e-06
8.97358e-06
8.97358e-06
8.9266e-06
8.9266e-06
8.9266e-06
8.89995e-06
8.89995e-06
8.89995e-06
8.87484e-06
8.87484e-06
8.87484e-06
8.85121e-06
8.85121e-06
8.85121e-06
9.33986e-06
9.33986e-06
9.33986e-06
9.2238e-06
9.2238e-06
9.2238e-06
9.19844e-06
9.19844e-06
9.19844e-06
7.71439e-06
7.71439e-06
7.71439e-06
8.93003e-06
8.93003e-06
8.93003e-06
8.54471e-06
8.54471e-06
8.54471e-06
9.16161e-06
9.16161e-06
9.16161e-06
9.18686e-06
9.18686e-06
9.18686e-06
8.74348e-06
8.74348e-06
8.74348e-06
8.71948e-06
8.71948e-06
8.71948e-06
8.7566e-06
8.7566e-06
8.7566e-06
8.5316e-06
8.5316e-06
8.5316e-06
8.57876e-06
8.57876e-06
8.57876e-06
8.68261e-06
8.68261e-06
8.68261e-06
8.67166e-06
8.67166e-06
8.67166e-06
1.22624e-06
1.22624e-06
1.22624e-06
5.69808e-06
5.69808e-06
5.69808e-06
6.04565e-06
6.04565e-06
6.04565e-06
8.64992e-06
8.64992e-06
8.64992e-06
8.60243e-06
8.60243e-06
8.60243e-06
5.29791e-06
5.29791e-06
5.29791e-06
2.88354e-06
2.88354e-06
2.88354e-06
9.53446e-07
9.53446e-07
9.53446e-07
1.31033e-06
1.31033e-06
1.31033e-06
1.32852e-06
1.32852e-06
1.32852e-06
9.64021e-07
9.64021e-07
9.64021e-07
6.02153e-07
6.02153e-07
6.02153e-07
1.76165e-06
1.76165e-06
1.76165e-06
2.50641e-06
2.50641e-06
2.50641e-06
2.14446e-06
2.14446e-06
2.14446e-06
0
0
0
0
0
0
9.61366e-07
9.61366e-07
9.61366e-07
9.56079e-07
9.56079e-07
9.56079e-07
2.30248e-07
2.30248e-07
2.30248e-07
5.97192e-07
5.97192e-07
5.97192e-07
5.98841e-07
5.98841e-07
5.98841e-07
0
0
0
0
0
0
0
0
0
0
0
0
7.90222e-06
7.90222e-06
7.90222e-06
8.85838e-06
8.85838e-06
8.85838e-06
6.55818e-06
6.55818e-06
6.55818e-06
7.05258e-06
7.05258e-06
7.05258e-06
9.58785e-06
9.58785e-06
9.58785e-06
6.03056e-06
6.03056e-06
6.03056e-06
5.79259e-06
5.79259e-06
5.79259e-06
5.82476e-06
5.82476e-06
5.82476e-06
5.09693e-06
5.09693e-06
5.09693e-06
4.61846e-06
4.61846e-06
4.61846e-06
5.05476e-06
5.05476e-06
5.05476e-06
4.63126e-06
4.63126e-06
4.63126e-06
5.08282e-06
5.08282e-06
5.08282e-06
5.43124e-06
5.43124e-06
5.43124e-06
5.4463e-06
5.4463e-06
5.4463e-06
6.21533e-06
6.21533e-06
6.21533e-06
6.31206e-06
6.31206e-06
6.31206e-06
5.81213e-06
5.81213e-06
5.81213e-06
5.84094e-06
5.84094e-06
5.84094e-06
5.51561e-06
5.51561e-06
5.51561e-06
4.46806e-06
4.46806e-06
4.46806e-06
4.89014e-06
4.89014e-06
4.89014e-06
4.48039e-06
4.48039e-06
4.48039e-06
4.23136e-06
4.23136e-06
4.23136e-06
4.593e-06
4.593e-06
4.593e-06
3.85804e-06
3.85804e-06
3.85804e-06
3.84741e-06
3.84741e-06
3.84741e-06
3.47612e-06
3.47612e-06
3.47612e-06
0
0
0
0
0
0
7.44442e-07
7.44442e-07
7.44442e-07
7.46487e-07
7.46487e-07
7.46487e-07
3.86074e-07
3.86074e-07
3.86074e-07
7.50595e-07
7.50595e-07
7.50595e-07
7.52659e-07
7.52659e-07
7.52659e-07
0
0
0
1.44272e-06
1.44272e-06
1.44272e-06
1.10217e-06
1.10217e-06
1.10217e-06
1.46266e-06
1.46266e-06
1.46266e-06
4.07118e-06
4.07118e-06
4.07118e-06
4.12762e-06
4.12762e-06
4.12762e-06
3.7635e-06
3.7635e-06
3.7635e-06
2.25729e-06
2.25729e-06
2.25729e-06
4.09366e-06
4.09366e-06
4.09366e-06
4.10495e-06
4.10495e-06
4.10495e-06
3.75316e-06
3.75316e-06
3.75316e-06
1.42695e-06
1.42695e-06
1.42695e-06
5.4134e-06
5.4134e-06
5.4134e-06
5.70895e-06
5.70895e-06
5.70895e-06
0
0
0
0
0
0
0
0
0
0
0
0
0
0
0
0
0
0
0
0
0
0
0
0
0
0
0
0
0
0
7.32288e-07
7.32288e-07
7.32288e-07
0
0
0
0
0
0
0
0
0
0
0
0
0
0
0
0
0
0
0
0
0
0
0
0
0
0
0
0
0
0
0
0
0
0
0
0
0
0
0
0
0
0
0
0
0
0
0
0
0
0
0
1.74163e-06
1.74163e-06
1.74163e-06
1.40433e-06
1.40433e-06
1.40433e-06
2.5047e-06
2.5047e-06
2.5047e-06
2.92771e-06
2.92771e-06
2.92771e-06
4.81488e-07
4.81488e-07
4.81488e-07
1.19945e-07
1.19945e-07
1.19945e-07
4.81426e-07
4.81426e-07
4.81426e-07
1.40415e-06
1.40415e-06
1.40415e-06
4.81361e-07
4.81361e-07
4.81361e-07
1.19928e-07
1.19928e-07
1.19928e-07
0
0
0
2.92734e-06
2.92734e-06
2.92734e-06
1.40396e-06
1.40396e-06
1.40396e-06
1.74141e-06
1.74141e-06
1.74141e-06
2.50437e-06
2.50437e-06
2.50437e-06
2.92695e-06
2.92695e-06
2.92695e-06
2.92524e-06
2.92524e-06
2.92524e-06
6.54268e-06
6.54268e-06
6.54268e-06
4.35169e-06
4.35169e-06
4.35169e-06
3.03647e-06
3.03647e-06
3.03647e-06
3.7707e-06
3.7707e-06
3.7707e-06
3.36575e-06
3.36575e-06
3.36575e-06
8.83117e-06
8.83117e-06
8.83117e-06
8.7938e-06
8.7938e-06
8.7938e-06
8.81799e-06
8.81799e-06
8.81799e-06
8.44784e-06
8.44784e-06
8.44784e-06
2.95606e-06
2.95606e-06
2.95606e-06
2.9479e-06
2.9479e-06
2.9479e-06
3.32631e-06
3.32631e-06
3.32631e-06
6.6455e-06
6.6455e-06
6.6455e-06
6.30092e-06
6.30092e-06
6.30092e-06
8.99826e-06
8.99826e-06
8.99826e-06
9.01169e-06
9.01169e-06
9.01169e-06
9.0223e-06
9.0223e-06
9.0223e-06
9.04785e-06
9.04785e-06
9.04785e-06
9.03649e-06
9.03649e-06
9.03649e-06
8.4944e-06
8.4944e-06
8.4944e-06
8.85547e-06
8.85547e-06
8.85547e-06
8.85335e-06
8.85335e-06
8.85335e-06
8.90211e-06
8.90211e-06
8.90211e-06
8.86657e-06
8.86657e-06
8.86657e-06
8.89095e-06
8.89095e-06
8.89095e-06
8.86439e-06
8.86439e-06
8.86439e-06
8.88877e-06
8.88877e-06
8.88877e-06
9.27474e-06
9.27474e-06
9.27474e-06
9.3003e-06
9.3003e-06
9.3003e-06
9.3142e-06
9.3142e-06
9.3142e-06
9.37732e-06
9.37732e-06
9.37732e-06
7.73576e-06
7.73576e-06
7.73576e-06
8.12701e-06
8.12701e-06
8.12701e-06
9.20068e-06
9.20068e-06
9.20068e-06
9.2283e-06
9.2283e-06
9.2283e-06
9.18913e-06
9.18913e-06
9.18913e-06
9.20292e-06
9.20292e-06
9.20292e-06
8.70859e-06
8.70859e-06
8.70859e-06
8.68468e-06
8.68468e-06
8.68468e-06
8.67376e-06
8.67376e-06
8.67376e-06
8.5081e-06
8.5081e-06
8.5081e-06
6.98557e-06
6.98557e-06
6.98557e-06
3.3102e-06
3.3102e-06
3.3102e-06
2.16689e-07
2.16689e-07
2.16689e-07
5.65119e-07
5.65119e-07
5.65119e-07
5.63557e-07
5.63557e-07
5.63557e-07
5.68235e-06
5.68235e-06
5.68235e-06
5.65103e-06
5.65103e-06
5.65103e-06
7.40941e-06
7.40941e-06
7.40941e-06
7.42989e-06
7.42989e-06
7.42989e-06
4.36713e-06
4.36713e-06
4.36713e-06
5.93875e-06
5.93875e-06
5.93875e-06
5.15991e-06
5.15991e-06
5.15991e-06
5.52173e-06
5.52173e-06
5.52173e-06
5.44615e-06
5.44615e-06
5.44615e-06
5.10332e-06
5.10332e-06
5.10332e-06
4.67591e-06
4.67591e-06
4.67591e-06
8.63702e-06
8.63702e-06
8.63702e-06
8.61328e-06
8.61328e-06
8.61328e-06
8.64784e-06
8.64784e-06
8.64784e-06
8.54438e-06
8.54438e-06
8.54438e-06
8.17333e-06
8.17333e-06
8.17333e-06
8.56797e-06
8.56797e-06
8.56797e-06
8.21852e-06
8.21852e-06
8.21852e-06
7.84561e-06
7.84561e-06
7.84561e-06
7.86728e-06
7.86728e-06
7.86728e-06
4.37919e-06
4.37919e-06
4.37919e-06
4.75392e-06
4.75392e-06
4.75392e-06
4.74083e-06
4.74083e-06
4.74083e-06
2.89949e-06
2.89949e-06
2.89949e-06
5.93909e-07
5.93909e-07
5.93909e-07
2.29614e-07
2.29614e-07
2.29614e-07
1.30672e-06
1.30672e-06
1.30672e-06
0
0
0
0
0
0
0
0
0
0
0
0
0
0
0
0
0
0
0
0
0
0
0
0
0
0
0
0
0
0
0
0
0
0
0
0
0
0
0
0
0
0
1.74232e-06
1.74232e-06
1.74232e-06
2.09764e-06
2.09764e-06
2.09764e-06
2.45846e-06
2.45846e-06
2.45846e-06
2.46525e-06
2.46525e-06
2.46525e-06
0
0
0
0
0
0
0
0
0
6.03816e-07
6.03816e-07
6.03816e-07
6.07158e-07
6.07158e-07
6.07158e-07
2.33442e-07
2.33442e-07
2.33442e-07
2.34086e-07
2.34086e-07
2.34086e-07
1.33957e-06
1.33957e-06
1.33957e-06
9.72034e-07
9.72034e-07
9.72034e-07
9.69355e-07
9.69355e-07
9.69355e-07
1.33219e-06
1.33219e-06
1.33219e-06
1.7714e-06
1.7714e-06
1.7714e-06
1.77629e-06
1.77629e-06
1.77629e-06
2.47889e-06
2.47889e-06
2.47889e-06
2.9075e-06
2.9075e-06
2.9075e-06
0
0
0
0
0
0
0
0
0
0
0
0
0
0
0
0
0
0
0
0
0
0
0
0
0
0
0
0
0
0
0
0
0
0
0
0
0
0
0
0
0
0
0
0
0
0
0
0
0
0
0
0
0
0
0
0
0
0
0
0
0
0
0
0
0
0
0
0
0
0
0
0
0
0
0
0
0
0
0
0
0
0
0
0
0
0
0
0
0
0
0
0
0
0
0
0
0
0
0
0
0
0
0
0
0
0
0
0
3.49535e-06
3.49535e-06
3.49535e-06
3.87941e-06
3.87941e-06
3.87941e-06
3.50502e-06
3.50502e-06
3.50502e-06
0
0
0
0
0
0
0
0
0
0
0
0
0
0
0
0
0
0
0
0
0
0
0
0
9.29853e-06
9.29853e-06
9.29853e-06
9.57536e-06
9.57536e-06
9.57536e-06
9.59021e-06
9.59021e-06
9.59021e-06
8.90178e-06
8.90178e-06
8.90178e-06
8.87589e-06
8.87589e-06
8.87589e-06
9.0463e-06
9.0463e-06
9.0463e-06
5.37811e-06
5.37811e-06
5.37811e-06
5.85848e-06
5.85848e-06
5.85848e-06
5.73835e-06
5.73835e-06
5.73835e-06
5.54246e-06
5.54246e-06
5.54246e-06
5.83402e-06
5.83402e-06
5.83402e-06
5.60389e-06
5.60389e-06
5.60389e-06
5.2543e-06
5.2543e-06
5.2543e-06
5.88247e-06
5.88247e-06
5.88247e-06
5.68166e-06
5.68166e-06
5.68166e-06
4.95799e-06
4.95799e-06
4.95799e-06
5.31255e-06
5.31255e-06
5.31255e-06
5.72889e-06
5.72889e-06
5.72889e-06
5.93136e-06
5.93136e-06
5.93136e-06
5.69736e-06
5.69736e-06
5.69736e-06
5.3567e-06
5.3567e-06
5.3567e-06
5.34194e-06
5.34194e-06
5.34194e-06
4.97169e-06
4.97169e-06
4.97169e-06
4.54256e-06
4.54256e-06
4.54256e-06
3.82624e-06
3.82624e-06
3.82624e-06
3.46654e-06
3.46654e-06
3.46654e-06
5.01302e-06
5.01302e-06
5.01302e-06
4.58033e-06
4.58033e-06
4.58033e-06
4.9992e-06
4.9992e-06
4.9992e-06
4.55511e-06
4.55511e-06
4.55511e-06
4.20805e-06
4.20805e-06
4.20805e-06
4.19645e-06
4.19645e-06
4.19645e-06
4.51758e-06
4.51758e-06
4.51758e-06
4.50515e-06
4.50515e-06
4.50515e-06
4.13901e-06
4.13901e-06
4.13901e-06
3.78429e-06
3.78429e-06
3.78429e-06
0
0
0
0
0
0
0
0
0
0
0
0
0
0
0
0
0
0
0
0
0
0
0
0
0
0
0
0
0
0
1.46669e-06
1.46669e-06
1.46669e-06
1.47477e-06
1.47477e-06
1.47477e-06
1.10823e-06
1.10823e-06
1.10823e-06
1.11128e-06
1.11128e-06
1.11128e-06
1.88854e-06
1.88854e-06
1.88854e-06
1.89374e-06
1.89374e-06
1.89374e-06
7.40368e-07
7.40368e-07
7.40368e-07
1.09914e-06
1.09914e-06
1.09914e-06
3.77696e-07
3.77696e-07
3.77696e-07
1.09013e-06
1.09013e-06
1.09013e-06
1.09313e-06
1.09313e-06
1.09313e-06
7.3834e-07
7.3834e-07
7.3834e-07
7.343e-07
7.343e-07
7.343e-07
3.76661e-07
3.76661e-07
3.76661e-07
1.43088e-06
1.43088e-06
1.43088e-06
1.08119e-06
1.08119e-06
1.08119e-06
1.08416e-06
1.08416e-06
1.08416e-06
1.43876e-06
1.43876e-06
1.43876e-06
1.80579e-06
1.80579e-06
1.80579e-06
2.20213e-06
2.20213e-06
2.20213e-06
1.78413e-06
1.78413e-06
1.78413e-06
1.83984e-06
1.83984e-06
1.83984e-06
3.41912e-06
3.41912e-06
3.41912e-06
2.61978e-06
2.61978e-06
2.61978e-06
3.40972e-06
3.40972e-06
3.40972e-06
2.97486e-06
2.97486e-06
2.97486e-06
3.72229e-06
3.72229e-06
3.72229e-06
3.73255e-06
3.73255e-06
3.73255e-06
2.95041e-06
2.95041e-06
2.95041e-06
3.38168e-06
3.38168e-06
3.38168e-06
2.96669e-06
2.96669e-06
2.96669e-06
3.391e-06
3.391e-06
3.391e-06
2.19608e-06
2.19608e-06
2.19608e-06
2.54171e-06
2.54171e-06
2.54171e-06
1.77435e-06
1.77435e-06
1.77435e-06
2.89413e-06
2.89413e-06
2.89413e-06
3.23846e-06
3.23846e-06
3.23846e-06
2.53473e-06
2.53473e-06
2.53473e-06
0
0
0
1.07527e-06
1.07527e-06
1.07527e-06
1.07232e-06
1.07232e-06
1.07232e-06
7.22305e-07
7.22305e-07
7.22305e-07
3.70513e-07
3.70513e-07
3.70513e-07
5.65568e-06
5.65568e-06
5.65568e-06
5.63989e-06
5.63989e-06
5.63989e-06
5.45353e-06
5.45353e-06
5.45353e-06
5.50544e-06
5.50544e-06
5.50544e-06
5.28819e-06
5.28819e-06
5.28819e-06
4.9584e-06
4.9584e-06
4.9584e-06
5.22941e-06
5.22941e-06
5.22941e-06
5.45959e-06
5.45959e-06
5.45959e-06
5.24414e-06
5.24414e-06
5.24414e-06
4.91726e-06
4.91726e-06
4.91726e-06
5.27349e-06
5.27349e-06
5.27349e-06
4.93094e-06
4.93094e-06
4.93094e-06
4.54751e-06
4.54751e-06
4.54751e-06
4.53494e-06
4.53494e-06
4.53494e-06
0
0
0
0
0
0
0
0
0
0
0
0
3.80815e-07
3.80815e-07
3.80815e-07
3.79773e-07
3.79773e-07
3.79773e-07
0
0
0
3.74601e-07
3.74601e-07
3.74601e-07
0
0
0
0
0
0
0
0
0
0
0
0
0
0
0
0
0
0
0
0
0
0
0
0
0
0
0
0
0
0
0
0
0
0
0
0
0
0
0
0
0
0
0
0
0
0
0
0
0
0
0
0
0
0
0
0
0
0
0
0
0
0
0
0
0
0
0
0
0
0
0
0
0
0
0
0
0
0
0
0
0
0
0
0
0
0
0
0
0
0
0
0
0
0
0
0
0
0
0
0
0
0
0
0
0
0
0
0
0
0
0
0
0
0
0
0
0
0
0
0
0
0
0
0
0
0
0
0
0
0
0
0
0
0
0
0
0
0
0
0
0
0
0
0
2.18494e-07
2.18494e-07
2.18494e-07
2.19099e-07
2.19099e-07
2.19099e-07
0
0
0
0
0
0
0
0
0
0
0
0
0
0
0
0
0
0
0
0
0
0
0
0
0
0
0
0
0
0
0
0
0
0
0
0
1.74226e-06
1.74226e-06
1.74226e-06
1.1996e-07
1.1996e-07
1.1996e-07
0
0
0
0
0
0
0
0
0
0
0
0
1.06644e-06
1.06644e-06
1.06644e-06
7.20324e-07
7.20324e-07
7.20324e-07
1.40483e-06
1.40483e-06
1.40483e-06
0
0
0
0
0
0
0
0
0
0
0
0
0
0
0
0
0
0
0
0
0
0
0
0
0
0
0
0
0
0
0
0
0
0
0
0
0
0
0
0
0
0
0
0
0
0
0
0
0
0
0
0
0
0
0
0
0
0
0
0
0
0
0
0
0
0
0
0
0
0
0
0
2.92477e-06
2.92477e-06
2.92477e-06
2.50253e-06
2.50253e-06
2.50253e-06
1.74117e-06
1.74117e-06
1.74117e-06
2.92655e-06
2.92655e-06
2.92655e-06
2.50403e-06
2.50403e-06
2.50403e-06
2.92569e-06
2.92569e-06
2.92569e-06
2.50293e-06
2.50293e-06
2.50293e-06
1.74039e-06
1.74039e-06
1.74039e-06
1.40335e-06
1.40335e-06
1.40335e-06
3.82321e-06
3.82321e-06
3.82321e-06
3.93573e-06
3.93573e-06
3.93573e-06
4.72366e-06
4.72366e-06
4.72366e-06
6.13107e-06
6.13107e-06
6.13107e-06
6.19954e-06
6.19954e-06
6.19954e-06
3.01968e-06
3.01968e-06
3.01968e-06
3.01132e-06
3.01132e-06
3.01132e-06
3.74985e-06
3.74985e-06
3.74985e-06
3.35643e-06
3.35643e-06
3.35643e-06
2.69099e-06
2.69099e-06
2.69099e-06
2.69846e-06
2.69846e-06
2.69846e-06
5.84838e-06
5.84838e-06
5.84838e-06
7.0049e-06
7.0049e-06
7.0049e-06
8.11677e-06
8.11677e-06
8.11677e-06
8.11567e-06
8.11567e-06
8.11567e-06
8.12801e-06
8.12801e-06
8.12801e-06
8.12902e-06
8.12902e-06
8.12902e-06
8.0882e-06
8.0882e-06
8.0882e-06
8.78278e-06
8.78278e-06
8.78278e-06
8.42465e-06
8.42465e-06
8.42465e-06
6.98229e-06
6.98229e-06
6.98229e-06
6.96309e-06
6.96309e-06
6.96309e-06
6.62723e-06
6.62723e-06
6.62723e-06
8.24408e-06
8.24408e-06
8.24408e-06
7.40196e-06
7.40196e-06
7.40196e-06
7.0402e-06
7.0402e-06
7.0402e-06
7.02084e-06
7.02084e-06
7.02084e-06
7.7433e-06
7.7433e-06
7.7433e-06
7.42236e-06
7.42236e-06
7.42236e-06
7.09858e-06
7.09858e-06
7.09858e-06
7.07907e-06
7.07907e-06
7.07907e-06
7.46333e-06
7.46333e-06
7.46333e-06
7.80747e-06
7.80747e-06
7.80747e-06
7.78602e-06
7.78602e-06
7.78602e-06
6.68221e-06
6.68221e-06
6.68221e-06
6.3183e-06
6.3183e-06
6.3183e-06
7.13778e-06
7.13778e-06
7.13778e-06
6.70064e-06
6.70064e-06
6.70064e-06
6.35321e-06
6.35321e-06
6.35321e-06
5.18844e-06
5.18844e-06
5.18844e-06
5.53697e-06
5.53697e-06
5.53697e-06
5.97157e-06
5.97157e-06
5.97157e-06
5.98805e-06
5.98805e-06
5.98805e-06
9.00046e-06
9.00046e-06
9.00046e-06
8.97577e-06
8.97577e-06
8.97577e-06
7.19702e-06
7.19702e-06
7.19702e-06
7.15747e-06
7.15747e-06
7.15747e-06
9.05007e-06
9.05007e-06
9.05007e-06
8.26679e-06
8.26679e-06
8.26679e-06
7.85055e-06
7.85055e-06
7.85055e-06
9.46929e-06
9.46929e-06
9.46929e-06
9.39139e-06
9.39139e-06
9.39139e-06
9.41728e-06
9.41728e-06
9.41728e-06
9.45489e-06
9.45489e-06
9.45489e-06
9.42895e-06
9.42895e-06
9.42895e-06
9.40226e-06
9.40226e-06
9.40226e-06
9.48006e-06
9.48006e-06
9.48006e-06
8.98262e-06
8.98262e-06
8.98262e-06
9.0913e-06
9.0913e-06
9.0913e-06
8.89539e-06
8.89539e-06
8.89539e-06
9.14862e-06
9.14862e-06
9.14862e-06
9.30493e-06
9.30493e-06
9.30493e-06
9.2793e-06
9.2793e-06
9.2793e-06
9.31657e-06
9.31657e-06
9.31657e-06
9.30259e-06
9.30259e-06
9.30259e-06
9.22605e-06
9.22605e-06
9.22605e-06
9.23758e-06
9.23758e-06
9.23758e-06
9.26305e-06
9.26305e-06
9.26305e-06
9.277e-06
9.277e-06
9.277e-06
9.23988e-06
9.23988e-06
9.23988e-06
9.26536e-06
9.26536e-06
9.26536e-06
8.45089e-06
8.45089e-06
8.45089e-06
8.8036e-06
8.8036e-06
8.8036e-06
8.06994e-06
8.06994e-06
8.06994e-06
8.04768e-06
8.04768e-06
8.04768e-06
8.52113e-06
8.52113e-06
8.52113e-06
8.47422e-06
8.47422e-06
8.47422e-06
8.87671e-06
8.87671e-06
8.87671e-06
8.85226e-06
8.85226e-06
8.85226e-06
7.80243e-06
7.80243e-06
7.80243e-06
8.15081e-06
8.15081e-06
8.15081e-06
8.49738e-06
8.49738e-06
8.49738e-06
7.30781e-06
7.30781e-06
7.30781e-06
8.54237e-06
8.54237e-06
8.54237e-06
8.56595e-06
8.56595e-06
8.56595e-06
3.27555e-06
3.27555e-06
3.27555e-06
3.37277e-06
3.37277e-06
3.37277e-06
3.70848e-06
3.70848e-06
3.70848e-06
4.03059e-06
4.03059e-06
4.03059e-06
0
0
0
0
0
0
0
0
0
0
0
0
0
0
0
0
0
0
0
0
0
0
0
0
2.13692e-07
2.13692e-07
2.13692e-07
8.92277e-07
8.92277e-07
8.92277e-07
2.98636e-06
2.98636e-06
2.98636e-06
2.99465e-06
2.99465e-06
2.99465e-06
9.02218e-07
9.02218e-07
9.02218e-07
1.24335e-06
1.24335e-06
1.24335e-06
1.63504e-06
1.63504e-06
1.63504e-06
2.30068e-06
2.30068e-06
2.30068e-06
2.30707e-06
2.30707e-06
2.30707e-06
1.97392e-06
1.97392e-06
1.97392e-06
1.63051e-06
1.63051e-06
1.63051e-06
1.96301e-06
1.96301e-06
1.96301e-06
1.23306e-06
1.23306e-06
1.23306e-06
8.94753e-07
8.94753e-07
8.94753e-07
5.58895e-07
5.58895e-07
5.58895e-07
5.60445e-07
5.60445e-07
5.60445e-07
8.99723e-07
8.99723e-07
8.99723e-07
1.23648e-06
1.23648e-06
1.23648e-06
4.26003e-06
4.26003e-06
4.26003e-06
3.4794e-06
3.4794e-06
3.4794e-06
3.90878e-06
3.90878e-06
3.90878e-06
3.898e-06
3.898e-06
3.898e-06
2.05752e-06
2.05752e-06
2.05752e-06
2.4048e-06
2.4048e-06
2.4048e-06
2.39817e-06
2.39817e-06
2.39817e-06
2.0462e-06
2.0462e-06
2.0462e-06
3.45067e-06
3.45067e-06
3.45067e-06
3.4698e-06
3.4698e-06
3.4698e-06
3.86581e-06
3.86581e-06
3.86581e-06
3.87651e-06
3.87651e-06
3.87651e-06
2.7819e-06
2.7819e-06
2.7819e-06
3.1217e-06
3.1217e-06
3.1217e-06
3.11308e-06
3.11308e-06
3.11308e-06
2.76656e-06
2.76656e-06
2.76656e-06
2.7896e-06
2.7896e-06
2.7896e-06
3.139e-06
3.139e-06
3.139e-06
2.04055e-06
2.04055e-06
2.04055e-06
2.02931e-06
2.02931e-06
2.02931e-06
2.38496e-06
2.38496e-06
2.38496e-06
2.37838e-06
2.37838e-06
2.37838e-06
7.10229e-06
7.10229e-06
7.10229e-06
6.37632e-06
6.37632e-06
6.37632e-06
6.27149e-06
6.27149e-06
6.27149e-06
6.68082e-06
6.68082e-06
6.68082e-06
5.63543e-06
5.63543e-06
5.63543e-06
5.96269e-06
5.96269e-06
5.96269e-06
5.94623e-06
5.94623e-06
5.94623e-06
5.26871e-06
5.26871e-06
5.26871e-06
5.25416e-06
5.25416e-06
5.25416e-06
3.44114e-06
3.44114e-06
3.44114e-06
3.84449e-06
3.84449e-06
3.84449e-06
4.6246e-06
4.6246e-06
4.6246e-06
3.93043e-06
3.93043e-06
3.93043e-06
4.2718e-06
4.2718e-06
4.2718e-06
5.92241e-06
5.92241e-06
5.92241e-06
6.2663e-06
6.2663e-06
6.2663e-06
5.1457e-06
5.1457e-06
5.1457e-06
5.11741e-06
5.11741e-06
5.11741e-06
5.47626e-06
5.47626e-06
5.47626e-06
5.49137e-06
5.49137e-06
5.49137e-06
4.71476e-06
4.71476e-06
4.71476e-06
4.70177e-06
4.70177e-06
4.70177e-06
6.19762e-06
6.19762e-06
6.19762e-06
6.53658e-06
6.53658e-06
6.53658e-06
6.5186e-06
6.5186e-06
6.5186e-06
6.16355e-06
6.16355e-06
6.16355e-06
4.56118e-06
4.56118e-06
4.56118e-06
4.23656e-06
4.23656e-06
4.23656e-06
4.22487e-06
4.22487e-06
4.22487e-06
5.31257e-06
5.31257e-06
5.31257e-06
4.97813e-06
4.97813e-06
4.97813e-06
8.63497e-06
8.63497e-06
8.63497e-06
8.65808e-06
8.65808e-06
8.65808e-06
7.47101e-06
7.47101e-06
7.47101e-06
6.79245e-06
6.79245e-06
6.79245e-06
7.12192e-06
7.12192e-06
7.12192e-06
2.09187e-06
2.09187e-06
2.09187e-06
1.73273e-06
1.73273e-06
1.73273e-06
2.06321e-06
2.06321e-06
2.06321e-06
1.71372e-06
1.71372e-06
1.71372e-06
4.40341e-06
4.40341e-06
4.40341e-06
3.2447e-06
3.2447e-06
3.2447e-06
3.25366e-06
3.25366e-06
3.25366e-06