<VTKFile type="UnstructuredGrid" version="1.0">
<UnstructuredGrid>
<Piece NumberOfPoints="10830" NumberOfCells="3610">
<Points>
<DataArray type="Float64" NumberOfComponents="3" format="ascii">
3.10314 1.29552 9.43075
3.11025 1.28841 9.405
3.11025 1.28841 9.45646
3.11025 1.28841 9.96008
3.11025 1.28841 10.011
3.10226 1.2964 9.98553
3.11025 1.28841 9.96008
3.10226 1.2964 9.98553
3.09025 1.30841 9.9601
2.21656 2.1821 10.4326
2.22913 2.16953 10.45
2.19928 2.19938 10.45
2.19928 2.19938 10.45
2.19928 2.19938 10.4198
2.21656 2.1821 10.4326
3.11025 1.28841 9.96008
3.09025 1.30841 9.9601
3.10227 1.29639 9.93468
2.20538 2.19328 9.68179
2.19928 2.19938 9.70701
2.19928 2.19938 9.65657
3.10229 1.29637 9.6819
3.11025 1.28841 9.70709
3.09026 1.3084 9.70711
3.10214 1.29652 9.58134
3.11025 1.28841 9.55628
3.11025 1.28841 9.60639
3.09026 1.3084 9.70711
3.11025 1.28841 9.70709
3.1023 1.29636 9.73232
3.11025 1.28841 9.70709
3.11025 1.28841 9.75754
3.1023 1.29636 9.73232
3.09026 1.3084 9.75755
3.1023 1.29636 9.73232
3.11025 1.28841 9.75754
3.09025 1.30841 9.90931
3.10227 1.29639 9.93468
3.08043 1.31823 9.9347
3.08043 1.31823 9.9347
3.10227 1.29639 9.93468
3.09025 1.30841 9.9601
3.08043 1.31823 9.9347
3.06939 1.32927 9.90932
3.09025 1.30841 9.90931
3.08043 1.31823 9.9347
3.09025 1.30841 9.9601
3.06938 1.32928 9.96012
3.11025 1.28841 9.80804
3.11025 1.28841 9.85862
3.10229 1.29637 9.83333
3.10229 1.29637 9.83333
3.09026 1.3084 9.85863
3.08044 1.31822 9.83334
3.11025 1.28841 9.85862
3.09026 1.3084 9.85863
3.10229 1.29637 9.83333
3.11025 1.28841 9.90929
3.10227 1.29639 9.93468
3.09025 1.30841 9.90931
3.11025 1.28841 9.96008
3.10227 1.29639 9.93468
3.11025 1.28841 9.90929
3.0901 1.30856 9.55632
3.11025 1.28841 9.55628
3.10214 1.29652 9.58134
3.09024 1.30842 10.011
3.10226 1.2964 9.98553
3.11025 1.28841 10.011
2.80657 1.59209 10.1907
2.81699 1.58167 10.165
2.8274 1.57126 10.1907
2.19928 2.19938 9.405
2.21889 2.17977 9.405
2.20626 2.1924 9.4297
2.25868 2.13998 9.65659
2.23814 2.16052 9.65657
2.24806 2.1506 9.63137
2.21801 2.18065 9.65656
2.23814 2.16052 9.65657
2.22704 2.17162 9.68178
2.21801 2.18065 9.65656
2.20538 2.19328 9.68179
2.19928 2.19938 9.65657
2.22704 2.17162 9.68178
2.20538 2.19328 9.68179
2.21801 2.18065 9.65656
2.20547 2.19319 9.88394
2.19928 2.19938 9.9093
2.19928 2.19938 9.85861
2.21807 2.1806 9.9093
2.22712 2.17155 9.88393
2.23821 2.16045 9.90929
2.19928 2.19938 9.9093
2.20547 2.19319 9.88394
2.21807 2.1806 9.9093
2.21807 2.1806 9.9093
2.20547 2.19319 9.88394
2.22712 2.17155 9.88393
2.21805 2.18061 9.8586
2.2382 2.16046 9.8586
2.22712 2.17155 9.88393
2.21805 2.18061 9.8586
2.20547 2.19319 9.88394
2.19928 2.19938 9.85861
2.22712 2.17155 9.88393
2.20547 2.19319 9.88394
2.21805 2.18061 9.8586
2.19928 2.19938 9.70701
2.20538 2.19328 9.68179
2.21802 2.18064 9.707
2.21802 2.18064 9.707
2.20538 2.19328 9.68179
2.22704 2.17162 9.68178
2.23821 2.16045 9.90929
2.22712 2.17155 9.88393
2.24816 2.15051 9.88393
2.22712 2.17155 9.88393
2.2382 2.16046 9.8586
2.24816 2.15051 9.88393
2.40353 1.99513 9.85867
2.41386 1.9848 9.88401
2.3932 2.00546 9.884
2.3932 2.00546 9.884
2.41386 1.9848 9.88401
2.40354 1.99512 9.90937
2.40354 1.99512 9.90937
2.41386 1.9848 9.88401
2.4242 1.97446 9.90938
2.79618 1.60248 10.165
2.81699 1.58167 10.165
2.80657 1.59209 10.1907
3.10224 1.29642 9.63156
3.11025 1.28841 9.60639
3.11025 1.28841 9.6567
3.11025 1.28841 9.70709
3.10229 1.29637 9.6819
3.11025 1.28841 9.6567
3.02715 1.37151 9.8081
3.006 1.39266 9.80811
3.01659 1.38207 9.78285
3.09026 1.3084 9.80805
3.10229 1.29637 9.83333
3.08044 1.31822 9.83334
3.11025 1.28841 9.80804
3.10229 1.29637 9.83333
3.09026 1.3084 9.80805
3.08044 1.31822 9.83334
3.09026 1.3084 9.85863
3.0694 1.32926 9.85865
3.10228 1.29638 9.88395
3.09026 1.3084 9.85863
3.11025 1.28841 9.85862
3.11025 1.28841 9.85862
3.11025 1.28841 9.90929
3.10228 1.29638 9.88395
3.10228 1.29638 9.88395
3.11025 1.28841 9.90929
3.09025 1.30841 9.90931
3.08027 1.31839 9.58137
3.0901 1.30856 9.55632
3.10214 1.29652 9.58134
3.10224 1.29642 9.63156
3.11025 1.28841 9.6567
3.09024 1.30842 9.65674
3.09024 1.30842 9.65674
3.11025 1.28841 9.6567
3.10229 1.29637 9.6819
3.0165 1.38216 9.63161
3.00588 1.39278 9.60643
3.02702 1.37164 9.60643
3.04817 1.35049 9.60645
3.03759 1.36107 9.58126
3.05884 1.33982 9.58132
3.04817 1.35049 9.60645
3.02702 1.37164 9.60643
3.03759 1.36107 9.58126
3.08043 1.31823 9.68193
3.10229 1.29637 9.6819
3.09026 1.3084 9.70711
3.08043 1.31823 9.68193
3.09024 1.30842 9.65674
3.10229 1.29637 9.6819
3.08042 1.31824 9.98555
3.09025 1.30841 9.9601
3.10226 1.2964 9.98553
3.10226 1.2964 9.98553
3.09024 1.30842 10.011
3.08042 1.31824 9.98555
3.06938 1.32928 9.96012
3.09025 1.30841 9.9601
3.08042 1.31824 9.98555
3.08041 1.31825 10.1391
3.05901 1.33965 10.1391
3.06938 1.32928 10.1134
3.05901 1.33966 10.0877
3.08041 1.31825 10.0877
3.06938 1.32928 10.1134
3.10225 1.29641 10.0365
3.09024 1.30842 10.011
3.11025 1.28841 10.011
3.08041 1.31825 10.0366
3.09024 1.30842 10.011
3.10225 1.29641 10.0365
2.84822 1.55044 10.2423
2.85863 1.54003 10.2682
2.83776 1.5609 10.2682
2.96373 1.43493 10.1134
2.97428 1.42438 10.0878
2.98483 1.41383 10.1134
2.98483 1.41383 10.1134
2.97428 1.42438 10.0878
2.9954 1.40326 10.0878
3.06938 1.32929 10.0621
3.05901 1.33965 10.0366
3.08041 1.31825 10.0366
3.06938 1.32929 10.0621
3.08041 1.31825 10.0877
3.05901 1.33966 10.0877
2.95319 1.44547 10.0878
2.97428 1.42438 10.0878
2.96373 1.43493 10.1134
2.90067 1.49799 9.85874
2.87971 1.51895 9.85874
2.89018 1.50848 9.83344
2.84833 1.55033 9.83344
2.83789 1.56077 9.85875
2.82746 1.5712 9.83344
2.85878 1.53988 9.85875
2.83789 1.56077 9.85875
2.84833 1.55033 9.83344
2.83788 1.56078 9.75765
2.85877 1.53989 9.75766
2.84833 1.55034 9.78289
2.84833 1.55034 9.78289
2.82745 1.57121 9.78289
2.83788 1.56078 9.75765
2.83788 1.56078 9.75765
2.82745 1.57121 9.78289
2.81702 1.58164 9.75764
2.84833 1.55034 9.78289
2.85877 1.53989 9.75766
2.86924 1.52943 9.7829
2.87968 1.51898 9.70723
2.89017 1.50849 9.73244
2.86922 1.52944 9.73244
2.86922 1.52944 9.73244
2.85875 1.53991 9.70723
2.87968 1.51898 9.70723
2.72357 1.6751 9.88409
2.73392 1.66474 9.85875
2.74429 1.65437 9.88409
2.73392 1.66474 9.85875
2.75466 1.644 9.85875
2.74429 1.65437 9.88409
2.83789 1.56077 9.80816
2.82745 1.57121 9.78289
2.84833 1.55034 9.78289
2.83789 1.56077 9.80816
2.84833 1.55033 9.83344
2.82746 1.5712 9.83344
2.82746 1.5712 9.83344
2.80662 1.59204 9.83344
2.81703 1.58163 9.80815
2.81703 1.58163 9.80815
2.83789 1.56077 9.80816
2.82746 1.5712 9.83344
2.82745 1.57121 9.78289
2.83789 1.56077 9.80816
2.81703 1.58163 9.80815
2.81702 1.58164 9.75764
2.7962 1.60246 9.75764
2.8066 1.59206 9.73241
2.79618 1.60248 9.70719
2.81701 1.58166 9.70721
2.8066 1.59206 9.73241
2.42419 1.97447 9.85868
2.41386 1.9848 9.88401
2.40353 1.99513 9.85867
2.40353 1.99513 9.85867
2.41385 1.98481 9.83336
2.42419 1.97447 9.85868
2.20539 2.19327 9.47987
2.19928 2.19938 9.50508
2.19928 2.19938 9.45442
2.19928 2.19938 9.405
2.20626 2.1924 9.4297
2.19928 2.19938 9.45442
2.21797 2.1807 9.5557
2.19928 2.19938 9.55567
2.20528 2.19338 9.53042
2.19928 2.19938 9.55567
2.19928 2.19938 9.50508
2.20528 2.19338 9.53042
3.11025 1.28841 9.405
3.10314 1.29552 9.43075
3.0911 1.30756 9.405
2.19928 2.19938 9.65657
2.19928 2.19938 9.60614
2.20536 2.19331 9.63136
2.20536 2.19331 9.63136
2.21801 2.18065 9.65656
2.19928 2.19938 9.65657
2.21799 2.18067 9.60613
2.20536 2.19331 9.63136
2.19928 2.19938 9.60614
2.21799 2.18067 9.60613
2.22698 2.17168 9.58094
2.23811 2.16055 9.60616
2.22702 2.17165 9.63135
2.24806 2.1506 9.63137
2.23814 2.16052 9.65657
2.23814 2.16052 9.65657
2.21801 2.18065 9.65656
2.22702 2.17165 9.63135
2.23811 2.16055 9.60616
2.24806 2.1506 9.63137
2.22702 2.17165 9.63135
2.22702 2.17165 9.63135
2.21799 2.18067 9.60613
2.23811 2.16055 9.60616
2.21801 2.18065 9.65656
2.20536 2.19331 9.63136
2.22702 2.17165 9.63135
2.20536 2.19331 9.63136
2.21799 2.18067 9.60613
2.22702 2.17165 9.63135
2.20532 2.19334 9.58091
2.19928 2.19938 9.60614
2.19928 2.19938 9.55567
2.20532 2.19334 9.58091
2.19928 2.19938 9.55567
2.21797 2.1807 9.5557
2.21797 2.1807 9.5557
2.22698 2.17168 9.58094
2.20532 2.19334 9.58091
2.20532 2.19334 9.58091
2.21799 2.18067 9.60613
2.19928 2.19938 9.60614
2.22698 2.17168 9.58094
2.21799 2.18067 9.60613
2.20532 2.19334 9.58091
2.24814 2.15052 9.83329
2.2382 2.16046 9.8586
2.2271 2.17156 9.83329
2.2382 2.16046 9.8586
2.21805 2.18061 9.8586
2.2271 2.17156 9.83329
2.2271 2.17156 9.83329
2.23819 2.16048 9.808
2.24814 2.15052 9.83329
2.24809 2.15058 9.68179
2.23814 2.16052 9.65657
2.25868 2.13998 9.65659
2.22704 2.17162 9.68178
2.23814 2.16052 9.65657
2.24809 2.15058 9.68179
2.26891 2.12975 9.6818
2.24809 2.15058 9.68179
2.25868 2.13998 9.65659
2.2587 2.13996 9.70701
2.24809 2.15058 9.68179
2.26891 2.12975 9.6818
2.2587 2.13996 9.70701
2.26891 2.12975 9.6818
2.27936 2.1193 9.70702
2.41384 1.98482 9.7828
2.42418 1.97448 9.80807
2.40352 1.99515 9.80807
2.40352 1.99515 9.80807
2.42418 1.97448 9.80807
2.41385 1.98481 9.83336
2.33114 2.06753 9.83332
2.35183 2.04683 9.83333
2.34149 2.05717 9.85863
2.34148 2.05718 9.80803
2.35183 2.04683 9.83333
2.33114 2.06753 9.83332
2.35182 2.04684 9.78277
2.34147 2.05719 9.75752
2.36216 2.03651 9.75753
2.34148 2.05718 9.80803
2.33112 2.06754 9.78276
2.35182 2.04684 9.78277
2.35182 2.04684 9.78277
2.33112 2.06754 9.78276
2.34147 2.05719 9.75752
2.35184 2.04682 9.88398
2.37253 2.02613 9.88399
2.3622 2.03646 9.90934
2.31047 2.08819 9.9347
2.32082 2.07785 9.90932
2.33117 2.06749 9.93471
2.3208 2.07786 9.85862
2.33114 2.06753 9.83332
2.34149 2.05717 9.85863
2.31043 2.08823 9.83331
2.33114 2.06753 9.83332
2.3208 2.07786 9.85862
2.23821 2.16045 9.90929
2.24816 2.15051 9.88393
2.25876 2.1399 9.90929
2.24814 2.15052 9.83329
2.23819 2.16048 9.808
2.25873 2.13993 9.808
2.25873 2.13993 9.808
2.26896 2.1297 9.83329
2.24814 2.15052 9.83329
2.30008 2.09858 9.80801
2.31043 2.08823 9.83331
2.28971 2.10895 9.8333
2.25874 2.13992 9.8586
2.24816 2.15051 9.88393
2.2382 2.16046 9.8586
2.25874 2.13992 9.8586
[...]
<PointData Scalars="View Factor" >
<DataArray type="Float64" Name="View Factor" NumberOfComponents="1" format="ascii">
0.000887798
0.000887798
0.000887798
0.000694613
0.000694613
0.000694613
0.000695505
0.000695505
0.000695505
6.47424e-05
6.47424e-05
6.47424e-05
3.39208e-05
3.39208e-05
3.39208e-05
0.000700624
0.000700624
0.000700624
0.000183097
0.000183097
0.000183097
0.00078237
0.00078237
0.00078237
0.000829207
0.000829207
0.000829207
0.000776557
0.000776557
0.000776557
0.000775468
0.000775468
0.000775468
0.000765154
0.000765154
0.000765154
0.000701965
0.000701965
0.000701965
0.000696869
0.000696869
0.000696869
0.000697492
0.000697492
0.000697492
0.000687396
0.000687396
0.000687396
0.000741885
0.000741885
0.000741885
0.000728163
0.000728163
0.000728163
0.000732062
0.000732062
0.000732062
0.000710898
0.000710898
0.000710898
0.00070998
0.00070998
0.00070998
0.000830389
0.000830389
0.000830389
0.000685461
0.000685461
0.000685461
3.20778e-05
3.20778e-05
3.20778e-05
6.15953e-05
6.15953e-05
6.15953e-05
0.000263812
0.000263812
0.000263812
0.000289968
0.000289968
0.000289968
0.000174635
0.000174635
0.000174635
0.000237942
0.000237942
0.000237942
0.000121061
0.000121061
0.000121061
0.000257544
0.000257544
0.000257544
0.000125598
0.000125598
0.000125598
0.00014709
0.00014709
0.00014709
0.000268736
0.000268736
0.000268736
0.000144625
0.000144625
0.000144625
0.000159947
0.000159947
0.000159947
0.000217096
0.000217096
0.000217096
0.000258766
0.000258766
0.000258766
0.00025375
0.00025375
0.00025375
0.000259388
0.000259388
0.000259388
9.69242e-05
9.69242e-05
9.69242e-05
8.77074e-05
8.77074e-05
8.77074e-05
8.36447e-05
8.36447e-05
8.36447e-05
3.29275e-05
3.29275e-05
3.29275e-05
0.000810849
0.000810849
0.000810849
0.00079293
0.00079293
0.00079293
0.000685872
0.000685872
0.000685872
0.000733521
0.000733521
0.000733521
0.000742887
0.000742887
0.000742887
0.000718244
0.000718244
0.000718244
0.000726694
0.000726694
0.000726694
0.000725732
0.000725732
0.000725732
0.000716136
0.000716136
0.000716136
0.000819825
0.000819825
0.000819825
0.000800001
0.000800001
0.000800001
0.000794053
0.000794053
0.000794053
0.000744045
0.000744045
0.000744045
0.000781406
0.000781406
0.000781406
0.000769012
0.000769012
0.000769012
0.000778212
0.000778212
0.000778212
0.000784016
0.000784016
0.000784016
0.000686763
0.000686763
0.000686763
0.000681779
0.000681779
0.000681779
0.000682388
0.000682388
0.000682388
0.000630783
0.000630783
0.000630783
0.000639993
0.000639993
0.000639993
0.000680464
0.000680464
0.000680464
0.000671924
0.000671924
0.000671924
0.000307461
0.000307461
0.000307461
0.000573159
0.000573159
0.000573159
0.000582843
0.000582843
0.000582843
0.000654071
0.000654071
0.000654071
0.00064466
0.00064466
0.00064466
0.000565695
0.000565695
0.000565695
0.000531587
0.000531587
0.000531587
0.000361064
0.000361064
0.000361064
0.000386576
0.000386576
0.000386576
0.000359848
0.000359848
0.000359848
0.000327984
0.000327984
0.000327984
0.00027956
0.00027956
0.00027956
0.000434054
0.000434054
0.000434054
0.000535346
0.000535346
0.000535346
0.000499827
0.000499827
0.000499827
0.000127932
0.000127932
0.000127932
0.000136549
0.000136549
0.000136549
0.000342629
0.000342629
0.000342629
0.000362148
0.000362148
0.000362148
0.000196631
0.000196631
0.000196631
0.000210656
0.000210656
0.000210656
0.000236793
0.000236793
0.000236793
0.000279403
0.000279403
0.000279403
0.000247843
0.000247843
0.000247843
0.000102104
0.000102104
0.000102104
0.000113291
0.000113291
0.000113291
4.22895e-05
4.22895e-05
4.22895e-05
4.53997e-05
4.53997e-05
4.53997e-05
5.56032e-05
5.56032e-05
5.56032e-05
4.08234e-05
4.08234e-05
4.08234e-05
0.000889605
0.000889605
0.000889605
0.00010531
0.00010531
0.00010531
0.000148573
0.000148573
0.000148573
9.32546e-05
9.32546e-05
9.32546e-05
0.000256672
0.000256672
0.000256672
0.00026731
0.00026731
0.00026731
0.000280109
0.000280109
0.000280109
0.000257955
0.000257955
0.000257955
0.000262141
0.000262141
0.000262141
0.000186534
0.000186534
0.000186534
0.000158947
0.000158947
0.000158947
4.28415e-05
4.28415e-05
4.28415e-05
5.50955e-05
5.50955e-05
5.50955e-05
0.000107864
0.000107864
0.000107864
7.12455e-05
7.12455e-05
7.12455e-05
0.000115013
0.000115013
0.000115013
0.00027269
0.00027269
0.00027269
0.000275211
0.000275211
0.000275211
0.000280407
0.000280407
0.000280407
0.000274791
0.000274791
0.000274791
0.00028772
0.00028772
0.00028772
0.000272582
0.000272582
0.000272582
0.000281825
0.000281825
0.000281825
0.000275998
0.000275998
0.000275998
0.000157701
0.000157701
0.000157701
0.000140727
0.000140727
0.000140727
0.000118856
0.000118856
0.000118856
0.000132363
0.000132363
0.000132363
0.000187747
0.000187747
0.000187747
0.000165326
0.000165326
0.000165326
0.00018124
0.00018124
0.00018124
8.75625e-05
8.75625e-05
8.75625e-05
7.22393e-05
7.22393e-05
7.22393e-05
0.000112686
0.000112686
0.000112686
0.000118722
0.000118722
0.000118722
0.000244008
0.000244008
0.000244008
0.000277976
0.000277976
0.000277976
0.000267374
0.000267374
0.000267374
0.000132142
0.000132142
0.000132142
0.000255488
0.000255488
0.000255488
0.000262233
0.000262233
0.000262233
0.000259392
0.000259392
0.000259392
5.07396e-05
5.07396e-05
5.07396e-05
3.50798e-05
3.50798e-05
3.50798e-05
4.67684e-05
4.67684e-05
4.67684e-05
0.000101945
0.000101945
0.000101945
9.67923e-05
9.67923e-05
9.67923e-05
7.56973e-05
7.56973e-05
7.56973e-05
8.35648e-05
8.35648e-05
8.35648e-05
8.34452e-05
8.34452e-05
8.34452e-05
8.76626e-05
8.76626e-05
8.76626e-05
7.5791e-05
7.5791e-05
7.5791e-05
7.24153e-05
7.24153e-05
7.24153e-05
6.3172e-05
6.3172e-05
6.3172e-05
6.58665e-05
6.58665e-05
6.58665e-05
6.58104e-05
6.58104e-05
6.58104e-05
7.23899e-05
7.23899e-05
7.23899e-05
5.08232e-05
5.08232e-05
5.08232e-05
4.51257e-05
4.51257e-05
4.51257e-05
4.33357e-05
4.33357e-05
4.33357e-05
3.85586e-05
3.85586e-05
3.85586e-05
4.00904e-05
4.00904e-05
4.00904e-05
6.59434e-05
6.59434e-05
6.59434e-05
7.58581e-05
7.58581e-05
7.58581e-05
7.25068e-05
7.25068e-05
7.25068e-05
2.9699e-05
2.9699e-05
2.9699e-05
2.89872e-05
2.89872e-05
2.89872e-05
3.12739e-05
3.12739e-05
3.12739e-05
3.21201e-05
3.21201e-05
3.21201e-05
3.1698e-05
3.1698e-05
3.1698e-05
3.31572e-05
3.31572e-05
3.31572e-05
4.22609e-05
4.22609e-05
4.22609e-05
3.42862e-05
3.42862e-05
3.42862e-05
1.15594e-05
1.15594e-05
1.15594e-05
1.17158e-05
1.17158e-05
1.17158e-05
1.09748e-05
1.09748e-05
1.09748e-05
1.04303e-05
1.04303e-05
1.04303e-05
1.23782e-05
1.23782e-05
1.23782e-05
1.31149e-05
1.31149e-05
1.31149e-05
1.27468e-05
1.27468e-05
1.27468e-05
1.2064e-05
1.2064e-05
1.2064e-05
1.31146e-05
1.31146e-05
1.31146e-05
1.34999e-05
1.34999e-05
1.34999e-05
1.41624e-05
1.41624e-05
1.41624e-05
1.07401e-05
1.07401e-05
1.07401e-05
1.24124e-05
1.24124e-05
1.24124e-05
1.18975e-05
1.18975e-05
1.18975e-05
1.12956e-05
1.12956e-05
1.12956e-05
1.10489e-05
1.10489e-05
1.10489e-05
1.22823e-05
1.22823e-05
1.22823e-05
0.000503074
0.000503074
0.000503074
0.000402196
0.000402196
0.000402196
0.000463761
0.000463761
0.000463761
0.000489468
0.000489468
0.000489468
0.000475575
0.000475575
0.000475575
0.000683919
0.000683919
0.000683919
0.000683295
0.000683295
0.000683295
0.000688279
0.000688279
0.000688279
0.000674139
0.000674139
0.000674139
0.000569548
0.000569548
0.000569548
0.000564952
0.000564952
0.000564952
0.000591727
0.000591727
0.000591727
0.000654236
0.000654236
0.000654236
0.000648615
0.000648615
0.000648615
0.000748394
0.000748394
0.000748394
0.000744418
0.000744418
0.000744418
0.000758457
0.000758457
0.000758457
0.000759503
0.000759503
0.000759503
0.000749916
0.000749916
0.000749916
0.000684063
0.000684063
0.000684063
0.000688951
0.000688951
0.000688951
0.000702624
0.000702624
0.000702624
0.00071298
0.00071298
0.00071298
0.000698445
0.000698445
0.000698445
0.000703567
0.000703567
0.000703567
0.000712305
0.000712305
0.000712305
0.00071754
0.00071754
0.00071754
0.000812009
0.000812009
0.000812009
0.000818091
0.000818091
0.000818091
0.000813721
0.000813721
0.000813721
0.000836586
0.000836586
0.000836586
0.000749655
0.000749655
0.000749655
0.000762307
0.000762307
0.000762307
0.000779054
0.000779054
0.000779054
0.000769543
0.000769543
0.000769543
0.000768701
0.000768701
0.000768701
0.00076386
0.00076386
0.00076386
0.000672526
0.000672526
0.000672526
0.000667639
0.000667639
0.000667639
0.000658828
0.000658828
0.000658828
0.000626235
0.000626235
0.000626235
0.000573306
0.000573306
0.000573306
0.000456271
0.000456271
0.000456271
3.01445e-05
3.01445e-05
3.01445e-05
3.60132e-05
3.60132e-05
3.60132e-05
3.37336e-05
3.37336e-05
3.37336e-05
0.000568982
0.000568982
0.000568982
0.000560815
0.000560815
0.000560815
0.000599087
0.000599087
0.000599087
0.000603302
0.000603302
0.000603302
0.000592098
0.000592098
0.000592098
0.000638302
0.000638302
0.000638302
0.000619471
0.000619471
0.000619471
0.000631188
0.000631188
0.000631188
0.000608917
0.000608917
0.000608917
0.000601317
0.000601317
0.000601317
0.000588438
0.000588438
0.000588438
0.000658006
0.000658006
0.000658006
0.000653269
0.000653269
0.000653269
0.000667069
0.000667069
0.000667069
0.000626775
0.000626775
0.000626775
0.000617877
0.000617877
0.000617877
0.000631341
0.000631341
0.000631341
0.000626854
0.000626854
0.000626854
0.00061263
0.00061263
0.00061263
0.000617091
0.000617091
0.000617091
0.000596589
0.000596589
0.000596589
0.000615525
0.000615525
0.000615525
0.000611007
0.000611007
0.000611007
0.000539573
0.000539573
0.000539573
0.000168863
0.000168863
0.000168863
0.000175671
0.000175671
0.000175671
0.000394054
0.000394054
0.000394054
0.000103695
0.000103695
0.000103695
0.000100694
0.000100694
0.000100694
0.000138667
0.000138667
0.000138667
0.000147884
0.000147884
0.000147884
0.000164625
0.000164625
0.000164625
0.000171201
0.000171201
0.000171201
0.000144098
0.000144098
0.000144098
0.000160394
0.000160394
0.000160394
0.000124938
0.000124938
0.000124938
0.000120799
0.000120799
0.000120799
0.000109222
0.000109222
0.000109222
0.000103339
0.000103339
0.000103339
0.00010646
0.00010646
0.00010646
0.00011773
0.00011773
0.00011773
0.00042125
0.00042125
0.00042125
0.000470355
0.000470355
0.000470355
0.000507523
0.000507523
0.000507523
0.000511231
0.000511231
0.000511231
5.77954e-05
5.77954e-05
5.77954e-05
9.35539e-05
9.35539e-05
9.35539e-05
6.09066e-05
6.09066e-05
6.09066e-05
0.000286815
0.000286815
0.000286815
0.000254454
0.000254454
0.000254454
0.000281464
0.000281464
0.000281464
0.000263219
0.000263219
0.000263219
0.000365561
0.000365561
0.000365561
0.000273941
0.000273941
0.000273941
0.000292457
0.000292457
0.000292457
0.000359978
0.000359978
0.000359978
0.000440695
0.000440695
0.000440695
0.000444131
0.000444131
0.000444131
0.000519128
0.000519128
0.000519128
0.000543807
0.000543807
0.000543807
0.000131397
0.000131397
0.000131397
0.000146981
0.000146981
0.000146981
8.22743e-05
8.22743e-05
8.22743e-05
8.44617e-05
8.44617e-05
8.44617e-05
0.000135779
0.000135779
0.000135779
0.000126802
0.000126802
0.000126802
7.25836e-05
7.25836e-05
7.25836e-05
7.45304e-05
7.45304e-05
7.45304e-05
7.03161e-05
7.03161e-05
7.03161e-05
6.62953e-05
6.62953e-05
6.62953e-05
6.23919e-05
6.23919e-05
6.23919e-05
6.42304e-05
6.42304e-05
6.42304e-05
0.000151958
0.000151958
0.000151958
0.00018938
0.00018938
0.00018938
0.000176593
0.000176593
0.000176593
0.000157841
0.000157841
0.000157841
0.000111604
0.000111604
0.000111604
0.000115297
0.000115297
0.000115297
0.000184101
0.000184101
0.000184101
0.000132787
0.000132787
0.000132787
0.00014775
0.00014775
0.00014775
0.000212771
0.000212771
0.000212771
0.000241256
0.000241256
0.000241256
0.000256306
0.000256306
0.000256306
0.000274092
0.000274092
0.000274092
0.000205312
0.000205312
0.000205312
0.000191601
0.000191601
0.000191601
0.000224748
0.000224748
0.000224748
0.000199987
0.000199987
0.000199987
0.000175652
0.000175652
0.000175652
0.000194798
0.000194798
0.000194798
0.000187675
0.000187675
0.000187675
0.000181257
0.000181257
0.000181257
0.000176461
0.000176461
0.000176461
0.000193943
0.000193943
0.000193943
0.000183779
0.000183779
0.000183779
0.000256926
0.000256926
0.000256926
0.000249955
0.000249955
0.000249955
0.000244952
0.000244952
0.000244952
0.00018162
0.00018162
0.00018162
0.000166459
0.000166459
0.000166459
0.000127021
0.000127021
0.000127021
0.000122651
0.000122651
0.000122651
0.000110351
0.000110351
0.000110351
0.000103103
0.000103103
0.000103103
9.03121e-05
9.03121e-05
9.03121e-05
9.29826e-05
9.29826e-05
9.29826e-05
0.000821665
0.000821665
0.000821665
0.000878418
0.000878418
0.000878418
0.000873364
0.000873364
0.000873364
0.00076761
0.00076761
0.00076761
0.00079622
0.00079622
0.00079622
0.00080216
0.00080216
0.00080216
0.000689234
0.000689234
0.000689234
0.000698861
0.000698861
0.000698861
9.7803e-05
9.7803e-05
9.7803e-05
0.000117726
0.000117726
0.000117726
0.000155374
0.000155374
0.000155374
0.000155891
0.000155891
0.000155891
0.000191575
0.000191575
0.000191575
0.000205116
0.000205116
0.000205116
0.000235112
0.000235112
0.000235112
0.000314506
0.000314506
0.000314506
0.000273372
0.000273372
0.000273372
0.00023433
0.00023433
0.00023433
0.000231446
0.000231446
0.000231446
0.000244881
0.000244881
0.000244881
0.000291698
0.000291698
0.000291698
0.000296801
0.000296801
0.000296801
0.000318196
0.000318196
0.000318196
0.000313083
0.000313083
0.000313083
0.000296342
0.000296342
0.000296342
0.000283537
0.000283537
0.000283537
0.000305575
0.000305575
0.000305575
0.000295986
0.000295986
0.000295986
0.000311634
0.000311634
0.000311634
0.000308867
0.000308867
0.000308867
0.000292205
0.000292205
0.000292205
0.000299066
0.000299066
0.000299066
0.000306159
0.000306159
0.000306159
0.000298446
0.000298446
0.000298446
0.000287316
0.000287316
0.000287316
0.000286259
0.000286259
0.000286259
0.000157368
0.000157368
0.000157368
0.000165778
0.000165778
0.000165778
0.000181326
0.000181326
0.000181326
0.0001661
0.0001661
0.0001661
0.000119319
0.000119319
0.000119319
0.00013299
0.00013299
0.00013299
0.000113088
0.000113088
0.000113088
0.000140451
0.000140451
0.000140451
0.00013274
0.00013274
0.00013274
0.000119117
0.000119117
0.000119117
0.000132235
0.000132235
0.000132235
0.000165208
0.000165208
0.000165208
0.000139948
0.000139948
0.000139948
0.00015666
0.00015666
0.00015666
0.000139892
0.000139892
0.000139892
0.000156525
0.000156525
0.000156525
9.65195e-05
9.65195e-05
9.65195e-05
0.000101548
0.000101548
0.000101548
8.33453e-05
8.33453e-05
8.33453e-05
7.56581e-05
7.56581e-05
7.56581e-05
8.32657e-05
8.32657e-05
8.32657e-05
8.7481e-05
8.7481e-05
8.7481e-05
7.22906e-05
7.22906e-05
7.22906e-05
7.56873e-05
7.56873e-05
7.56873e-05
5.52295e-05
5.52295e-05
5.52295e-05
5.75622e-05
5.75622e-05
5.75622e-05
6.29944e-05
6.29944e-05
6.29944e-05
6.57681e-05
6.57681e-05
6.57681e-05
6.29222e-05
6.29222e-05
6.29222e-05
5.52163e-05
5.52163e-05
5.52163e-05
5.75798e-05
5.75798e-05
5.75798e-05
7.5627e-05
7.5627e-05
7.5627e-05
0.000271714
0.000271714
0.000271714
0.000205826
0.000205826
0.000205826
0.000261772
0.000261772
0.000261772
0.000241136
0.000241136
0.000241136
0.000239533
0.000239533
0.000239533
0.000245426
0.000245426
0.000245426
0.000218496
0.000218496
0.000218496
0.000238086
0.000238086
0.000238086
0.000232782
0.000232782
0.000232782
0.000245152
0.000245152
0.000245152
5.07193e-05
5.07193e-05
5.07193e-05
0.000162638
0.000162638
0.000162638
4.85967e-05
4.85967e-05
4.85967e-05
0.000185271
0.000185271
0.000185271
0.000200522
0.000200522
0.000200522
0.00015912
0.00015912
0.00015912
4.86977e-05
4.86977e-05
4.86977e-05
4.86242e-05
4.86242e-05
4.86242e-05
4.4875e-05
4.4875e-05
4.4875e-05
4.30591e-05
4.30591e-05
4.30591e-05
4.48989e-05
4.48989e-05
4.48989e-05
3.46158e-05
3.46158e-05
3.46158e-05
0.000181694
0.000181694
0.000181694
0.000160711
0.000160711
0.000160711
4.59321e-05
4.59321e-05
4.59321e-05
4.74905e-05
4.74905e-05
4.74905e-05
8.90344e-05
8.90344e-05
8.90344e-05
4.37811e-05
4.37811e-05
4.37811e-05
3.98853e-05
3.98853e-05
3.98853e-05
4.44845e-05
4.44845e-05
4.44845e-05
8.57432e-05
8.57432e-05
8.57432e-05
4.62826e-05
4.62826e-05
4.62826e-05
8.6744e-05
8.6744e-05
8.6744e-05
0.000203575
0.000203575
0.000203575
0.000201589
0.000201589
0.000201589
9.66627e-05
9.66627e-05
9.66627e-05
0.000101735
0.000101735
0.000101735
0.000112918
0.000112918
0.000112918
0.000118947
0.000118947
0.000118947
0.00011274
0.00011274
0.00011274
0.000101608
0.000101608
0.000101608
6.31012e-05
6.31012e-05
6.31012e-05
6.30418e-05
6.30418e-05
6.30418e-05
6.58018e-05
6.58018e-05
6.58018e-05
5.76407e-05
5.76407e-05
5.76407e-05
4.90565e-05
4.90565e-05
4.90565e-05
5.85501e-05
5.85501e-05
5.85501e-05
5.59929e-05
5.59929e-05
5.59929e-05
5.54932e-05
5.54932e-05
5.54932e-05
4.50623e-05
4.50623e-05
4.50623e-05
4.89484e-05
4.89484e-05
4.89484e-05
4.88772e-05
4.88772e-05
4.88772e-05
5.08911e-05
5.08911e-05
5.08911e-05
6.32564e-05
6.32564e-05
6.32564e-05
5.77889e-05
5.77889e-05
5.77889e-05
5.78927e-05
5.78927e-05
5.78927e-05
5.54219e-05
5.54219e-05
5.54219e-05
7.26156e-05
7.26156e-05
7.26156e-05
6.60356e-05
6.60356e-05
6.60356e-05
6.61386e-05
6.61386e-05
6.61386e-05
6.33523e-05
6.33523e-05
6.33523e-05
2.62298e-05
2.62298e-05
2.62298e-05
2.43718e-05
2.43718e-05
2.43718e-05
2.69423e-05
2.69423e-05
2.69423e-05
2.72876e-05
2.72876e-05
2.72876e-05
3.05049e-05
3.05049e-05
3.05049e-05
3.25612e-05
3.25612e-05
3.25612e-05
2.80177e-05
2.80177e-05
2.80177e-05
2.97206e-05
2.97206e-05
2.97206e-05
3.04979e-05
3.04979e-05
3.04979e-05
3.13122e-05
3.13122e-05
3.13122e-05
4.44713e-05
4.44713e-05
4.44713e-05
4.04047e-05
4.04047e-05
4.04047e-05
3.74723e-05
3.74723e-05
3.74723e-05
3.93282e-05
3.93282e-05
3.93282e-05
4.11997e-05
4.11997e-05
4.11997e-05
3.64745e-05
3.64745e-05
3.64745e-05
3.57141e-05
3.57141e-05
3.57141e-05
4.69867e-05
4.69867e-05
4.69867e-05
4.56738e-05
4.56738e-05
4.56738e-05
5.06893e-05
5.06893e-05
5.06893e-05
5.3389e-05
5.3389e-05
5.3389e-05
3.66202e-05
3.66202e-05
3.66202e-05
3.49397e-05
3.49397e-05
3.49397e-05
3.34251e-05
3.34251e-05
3.34251e-05
3.40503e-05
3.40503e-05
3.40503e-05
4.14812e-05
4.14812e-05
4.14812e-05
3.84681e-05
3.84681e-05
3.84681e-05
3.75112e-05
3.75112e-05
3.75112e-05
3.51512e-05
3.51512e-05
3.51512e-05
3.58312e-05
3.58312e-05
3.58312e-05
3.67236e-05
3.67236e-05
3.67236e-05
3.94254e-05
3.94254e-05
3.94254e-05
7.02939e-05
7.02939e-05
7.02939e-05
6.44337e-05
6.44337e-05
6.44337e-05
5.19769e-05
5.19769e-05
5.19769e-05
5.93108e-05
5.93108e-05
5.93108e-05
6.44492e-05
6.44492e-05
6.44492e-05
5.77158e-05
5.77158e-05
5.77158e-05
5.62625e-05
5.62625e-05
5.62625e-05
6.62433e-05
6.62433e-05
6.62433e-05
6.27149e-05
6.27149e-05
6.27149e-05
3.2873e-05
3.2873e-05
3.2873e-05
3.34115e-05
3.34115e-05
3.34115e-05
1.74603e-05
1.74603e-05
1.74603e-05
1.05423e-05
1.05423e-05
1.05423e-05
1.27305e-05
1.27305e-05
1.27305e-05
1.34529e-05
1.34529e-05
1.34529e-05
1.33551e-05
1.33551e-05
1.33551e-05
2.50316e-05
2.50316e-05
2.50316e-05
2.38211e-05
2.38211e-05
2.38211e-05
3.83711e-05
3.83711e-05
3.83711e-05
3.99203e-05
3.99203e-05
3.99203e-05
1.06692e-05
1.06692e-05
1.06692e-05
1.70845e-05
1.70845e-05
1.70845e-05
3.58007e-05
3.58007e-05
3.58007e-05
1.92521e-05
1.92521e-05
1.92521e-05
1.54836e-05
1.54836e-05
1.54836e-05
5.01436e-05
5.01436e-05
5.01436e-05
3.78622e-05
3.78622e-05
3.78622e-05
2.50972e-05
2.50972e-05
2.50972e-05
2.64656e-05
2.64656e-05
2.64656e-05
2.86995e-05
2.86995e-05
2.86995e-05
2.82446e-05
2.82446e-05
2.82446e-05
1.81104e-05
1.81104e-05
1.81104e-05
1.47799e-05
1.47799e-05
1.47799e-05
1.42795e-05
1.42795e-05
1.42795e-05
1.38668e-05
1.38668e-05
1.38668e-05
1.37596e-05
1.37596e-05
1.37596e-05
2.17286e-05
2.17286e-05
2.17286e-05
2.36302e-05
2.36302e-05
2.36302e-05
2.33808e-05
2.33808e-05
2.33808e-05
1.95552e-05
1.95552e-05
1.95552e-05
1.8697e-05
1.8697e-05
1.8697e-05
1.89508e-05
1.89508e-05
1.89508e-05
2.06365e-05
2.06365e-05
2.06365e-05
2.82098e-05
2.82098e-05
2.82098e-05
2.65554e-05
2.65554e-05
2.65554e-05
1.259e-05
1.259e-05
1.259e-05
1.28945e-05
1.28945e-05
1.28945e-05
1.22361e-05
1.22361e-05
1.22361e-05
1.13578e-05
1.13578e-05
1.13578e-05
1.16156e-05
1.16156e-05
1.16156e-05
1.19747e-05
1.19747e-05
1.19747e-05
1.25754e-05
1.25754e-05
1.25754e-05
1.3248e-05
1.3248e-05
1.3248e-05
1.34539e-05
1.34539e-05
1.34539e-05
0.000376402