<VTKFile type="UnstructuredGrid" version="1.0">
<UnstructuredGrid>
<Piece NumberOfPoints="10830" NumberOfCells="3610">
<Points>
<DataArray type="Float64" NumberOfComponents="3" format="ascii">
3.11035 1.27826 5.25075
3.11035 1.28831 5.27646
3.11035 1.28831 5.225
3.11035 1.28831 5.78008
3.11035 1.27701 5.80553
3.11035 1.28831 5.831
3.11035 1.28831 5.78008
3.11035 1.26002 5.7801
3.11035 1.27701 5.80553
3.11035 0.0244388 6.25259
3.11035 4.44089e-16 6.27
3.11035 0.0422213 6.27
3.11035 4.44089e-16 6.27
3.11035 0.0244388 6.25259
3.11035 -7.90479e-14 6.23984
3.11035 1.28831 5.78008
3.11035 1.27702 5.75468
3.11035 1.26002 5.7801
3.11035 0.00863377 5.50179
3.11035 1.50546e-13 5.47657
3.11035 1.49658e-13 5.52701
3.11035 1.27705 5.5019
3.11035 1.26004 5.52711
3.11035 1.28831 5.52709
3.11035 1.27684 5.40134
3.11035 1.28831 5.42639
3.11035 1.28831 5.37628
3.11035 1.26004 5.52711
3.11035 1.27707 5.55231
3.11035 1.28831 5.52709
3.11035 1.28831 5.52709
3.11035 1.27707 5.55231
3.11035 1.28831 5.57754
3.11035 1.26005 5.57755
3.11035 1.28831 5.57754
3.11035 1.27707 5.55231
3.11035 1.26003 5.72931
3.11035 1.24613 5.7547
3.11035 1.27702 5.75468
3.11035 1.24613 5.7547
3.11035 1.26002 5.7801
3.11035 1.27702 5.75468
3.11035 1.24613 5.7547
3.11035 1.26003 5.72931
3.11035 1.23052 5.72932
3.11035 1.24613 5.7547
3.11035 1.23052 5.78012
3.11035 1.26002 5.7801
3.11035 1.28831 5.62804
3.11035 1.27705 5.65333
3.11035 1.28831 5.67862
3.11035 1.27705 5.65333
3.11035 1.24616 5.65334
3.11035 1.26004 5.67863
3.11035 1.28831 5.67862
3.11035 1.27705 5.65333
3.11035 1.26004 5.67863
3.11035 1.28831 5.72929
3.11035 1.26003 5.72931
3.11035 1.27702 5.75468
3.11035 1.28831 5.78008
3.11035 1.28831 5.72929
3.11035 1.27702 5.75468
3.11035 1.25981 5.37632
3.11035 1.27684 5.40134
3.11035 1.28831 5.37628
3.11035 1.26002 5.83103
3.11035 1.28831 5.831
3.11035 1.27701 5.80553
3.11035 0.85884 6.01075
3.11035 0.888295 6.01072
3.11035 0.873578 5.98498
3.11035 4.44089e-16 5.225
3.11035 0.00987207 5.2497
3.11035 0.0277369 5.225
3.11035 0.0840033 5.47659
3.11035 0.0689903 5.45137
3.11035 0.0549577 5.47657
3.11035 0.0264927 5.47656
3.11035 0.0392653 5.50178
3.11035 0.0549577 5.47657
3.11035 0.0264927 5.47656
3.11035 1.50546e-13 5.47657
3.11035 0.00863377 5.50179
3.11035 0.0392653 5.50178
3.11035 0.0264927 5.47656
3.11035 0.00863377 5.50179
3.11035 0.0087521 5.70394
3.11035 1.48326e-13 5.67861
3.11035 -9.59233e-14 5.7293
3.11035 0.0265703 5.7293
3.11035 0.0550657 5.72929
3.11035 0.0393699 5.70393
3.11035 -9.59233e-14 5.7293
3.11035 0.0265703 5.7293
3.11035 0.0087521 5.70394
3.11035 0.0265703 5.7293
3.11035 0.0393699 5.70393
3.11035 0.0087521 5.70394
3.11035 0.0265544 5.6786
3.11035 0.0393699 5.70393
3.11035 0.0550443 5.6786
3.11035 0.0265544 5.6786
3.11035 1.48326e-13 5.67861
3.11035 0.0087521 5.70394
3.11035 0.0393699 5.70393
3.11035 0.0265544 5.6786
3.11035 0.0087521 5.70394
3.11035 1.49658e-13 5.52701
3.11035 0.0265126 5.527
3.11035 0.00863377 5.50179
3.11035 0.0265126 5.527
3.11035 0.0392653 5.50178
3.11035 0.00863377 5.50179
3.11035 0.0550657 5.72929
3.11035 0.0691236 5.70393
3.11035 0.0393699 5.70393
3.11035 0.0393699 5.70393
3.11035 0.0691236 5.70393
3.11035 0.0550443 5.6786
3.11035 0.288852 5.67867
3.11035 0.274248 5.704
3.11035 0.303471 5.70401
3.11035 0.274248 5.704
3.11035 0.288872 5.72937
3.11035 0.303471 5.70401
3.11035 0.288872 5.72937
3.11035 0.318088 5.72938
3.11035 0.303471 5.70401
3.11035 0.844143 5.985
3.11035 0.85884 6.01075
3.11035 0.873578 5.98498
3.11035 1.27699 5.45156
3.11035 1.28831 5.4767
3.11035 1.28831 5.42639
3.11035 1.28831 5.52709
3.11035 1.28831 5.4767
3.11035 1.27705 5.5019
3.11035 1.17079 5.6281
3.11035 1.15586 5.60285
3.11035 1.14088 5.62811
3.11035 1.26004 5.62805
3.11035 1.24616 5.65334
3.11035 1.27705 5.65333
3.11035 1.28831 5.62804
3.11035 1.26004 5.62805
3.11035 1.27705 5.65333
3.11035 1.24616 5.65334
3.11035 1.23053 5.67865
3.11035 1.26004 5.67863
3.11035 1.27704 5.70395
3.11035 1.28831 5.67862
3.11035 1.26004 5.67863
3.11035 1.28831 5.67862
3.11035 1.27704 5.70395
3.11035 1.28831 5.72929
3.11035 1.27704 5.70395
3.11035 1.26003 5.72931
3.11035 1.28831 5.72929
3.11035 1.24591 5.40137
3.11035 1.27684 5.40134
3.11035 1.25981 5.37632
3.11035 1.27699 5.45156
3.11035 1.26001 5.47674
3.11035 1.28831 5.4767
3.11035 1.26001 5.47674
3.11035 1.27705 5.5019
3.11035 1.28831 5.4767
3.11035 1.15573 5.45161
3.11035 1.1706 5.42643
3.11035 1.1407 5.42643
3.11035 1.20051 5.42645
3.11035 1.21561 5.40131
3.11035 1.18556 5.40126
3.11035 1.20051 5.42645
3.11035 1.18556 5.40126
3.11035 1.1706 5.42643
3.11035 1.24614 5.50193
3.11035 1.26004 5.52711
3.11035 1.27705 5.5019
3.11035 1.24614 5.50193
3.11035 1.27705 5.5019
3.11035 1.26001 5.47674
3.11035 1.24612 5.80555
3.11035 1.27701 5.80553
3.11035 1.26002 5.7801
3.11035 1.27701 5.80553
3.11035 1.24612 5.80555
3.11035 1.26002 5.83103
3.11035 1.23052 5.78012
3.11035 1.24612 5.80555
3.11035 1.26002 5.7801
3.11035 1.24611 5.95905
3.11035 1.23051 5.93337
3.11035 1.21584 5.95906
3.11035 1.21584 5.90774
3.11035 1.23051 5.93337
3.11035 1.24611 5.90772
3.11035 1.27699 5.85653
3.11035 1.28831 5.831
3.11035 1.26002 5.83103
3.11035 1.24611 5.85656
3.11035 1.27699 5.85653
3.11035 1.26002 5.83103
3.11035 0.917741 6.06232
3.11035 0.902954 6.0882
3.11035 0.932465 6.08816
3.11035 1.08109 5.93343
3.11035 1.11094 5.93341
3.11035 1.09602 5.90779
3.11035 1.11094 5.93341
3.11035 1.12589 5.90778
3.11035 1.09602 5.90779
3.11035 1.2305 5.88213
3.11035 1.24611 5.85656
3.11035 1.21584 5.85658
3.11035 1.2305 5.88213
3.11035 1.21584 5.90774
3.11035 1.24611 5.90772
3.11035 1.0662 5.90781
3.11035 1.08109 5.93343
3.11035 1.09602 5.90779
3.11035 0.991917 5.67874
3.11035 0.977089 5.65344
3.11035 0.962274 5.67874
3.11035 0.917902 5.65344
3.11035 0.888384 5.65344
3.11035 0.903138 5.67875
3.11035 0.932681 5.67875
3.11035 0.917902 5.65344
3.11035 0.903138 5.67875
3.11035 0.903119 5.57765
3.11035 0.917893 5.60289
3.11035 0.932664 5.57765
3.11035 0.917893 5.60289
3.11035 0.903119 5.57765
3.11035 0.888374 5.60289
3.11035 0.903119 5.57765
3.11035 0.873625 5.57764
3.11035 0.888374 5.60289
3.11035 0.917893 5.60289
3.11035 0.947463 5.6029
3.11035 0.932664 5.57765
3.11035 0.962233 5.52723
3.11035 0.947444 5.55243
3.11035 0.977066 5.55244
3.11035 0.947444 5.55243
3.11035 0.962233 5.52723
3.11035 0.932637 5.52723
3.11035 0.741456 5.70409
3.11035 0.770765 5.70409
3.11035 0.756104 5.67875
3.11035 0.756104 5.67875
3.11035 0.770765 5.70409
3.11035 0.785431 5.67875
3.11035 0.903133 5.62816
3.11035 0.917893 5.60289
3.11035 0.888374 5.60289
3.11035 0.903133 5.62816
3.11035 0.888384 5.65344
3.11035 0.917902 5.65344
3.11035 0.888384 5.65344
3.11035 0.873639 5.62815
3.11035 0.858913 5.65344
3.11035 0.873639 5.62815
3.11035 0.888384 5.65344
3.11035 0.903133 5.62816
3.11035 0.888374 5.60289
3.11035 0.873639 5.62815
3.11035 0.903133 5.62816
3.11035 0.873625 5.57764
3.11035 0.858884 5.55241
3.11035 0.844177 5.57764
3.11035 0.844153 5.52719
3.11035 0.858884 5.55241
3.11035 0.873599 5.52721
3.11035 0.318069 5.67868
3.11035 0.288852 5.67867
3.11035 0.303471 5.70401
3.11035 0.288852 5.67867
3.11035 0.318069 5.67868
3.11035 0.303454 5.65336
3.11035 0.00864568 5.29987
3.11035 -9.63674e-14 5.27442
3.11035 1.49658e-13 5.32509
3.11035 4.44089e-16 5.225
3.11035 -9.63674e-14 5.27442
3.11035 0.00987207 5.2497
3.11035 0.0264295 5.3757
3.11035 0.00849117 5.35042
3.11035 1.50546e-13 5.37567
3.11035 1.50546e-13 5.37567
3.11035 0.00849117 5.35042
3.11035 1.49658e-13 5.32509
3.11035 1.28831 5.225
3.11035 1.26122 5.225
3.11035 1.27826 5.25075
3.11035 1.50546e-13 5.47657
3.11035 0.00859461 5.45136
3.11035 1.50546e-13 5.42614
3.11035 0.00859461 5.45136
3.11035 1.50546e-13 5.47657
3.11035 0.0264927 5.47656
3.11035 0.0264637 5.42613
3.11035 1.50546e-13 5.42614
3.11035 0.00859461 5.45136
3.11035 0.0264637 5.42613
3.11035 0.0549232 5.42616
3.11035 0.0391815 5.40094
3.11035 0.0392276 5.45135
3.11035 0.0549577 5.47657
3.11035 0.0689903 5.45137
3.11035 0.0549577 5.47657
3.11035 0.0392276 5.45135
3.11035 0.0264927 5.47656
3.11035 0.0549232 5.42616
3.11035 0.0392276 5.45135
3.11035 0.0689903 5.45137
3.11035 0.0392276 5.45135
3.11035 0.0549232 5.42616
3.11035 0.0264637 5.42613
3.11035 0.0264927 5.47656
3.11035 0.0392276 5.45135
3.11035 0.00859461 5.45136
3.11035 0.00859461 5.45136
3.11035 0.0392276 5.45135
3.11035 0.0264637 5.42613
3.11035 0.00854014 5.40091
3.11035 1.50546e-13 5.37567
3.11035 1.50546e-13 5.42614
3.11035 0.00854014 5.40091
3.11035 0.0264295 5.3757
3.11035 1.50546e-13 5.37567
3.11035 0.0264295 5.3757
3.11035 0.00854014 5.40091
3.11035 0.0391815 5.40094
3.11035 0.00854014 5.40091
3.11035 1.50546e-13 5.42614
3.11035 0.0264637 5.42613
3.11035 0.0391815 5.40094
3.11035 0.00854014 5.40091
3.11035 0.0264637 5.42613
3.11035 0.0690987 5.65329
3.11035 0.0393425 5.65329
3.11035 0.0550443 5.6786
3.11035 0.0550443 5.6786
3.11035 0.0393425 5.65329
3.11035 0.0265544 5.6786
3.11035 0.0393425 5.65329
3.11035 0.0690987 5.65329
3.11035 0.0550252 5.628
3.11035 0.0690242 5.50179
3.11035 0.0840033 5.47659
3.11035 0.0549577 5.47657
3.11035 0.0392653 5.50178
3.11035 0.0690242 5.50179
3.11035 0.0549577 5.47657
3.11035 0.0984777 5.5018
3.11035 0.0840033 5.47659
3.11035 0.0690242 5.50179
3.11035 0.0840313 5.52701
3.11035 0.0984777 5.5018
3.11035 0.0690242 5.50179
3.11035 0.0840313 5.52701
3.11035 0.113251 5.52702
3.11035 0.0984777 5.5018
3.11035 0.303441 5.6028
3.11035 0.288836 5.62807
3.11035 0.318055 5.62807
3.11035 0.288836 5.62807
3.11035 0.303454 5.65336
3.11035 0.318055 5.62807
3.11035 0.186476 5.65332
3.11035 0.201123 5.67863
3.11035 0.215741 5.65333
3.11035 0.201103 5.62804
3.11035 0.186476 5.65332
3.11035 0.215741 5.65333
3.11035 0.215723 5.60277
3.11035 0.230345 5.57753
3.11035 0.201085 5.57752
3.11035 0.201103 5.62804
3.11035 0.215723 5.60277
3.11035 0.186456 5.60276
3.11035 0.215723 5.60277
3.11035 0.201085 5.57752
3.11035 0.186456 5.60276
3.11035 0.215762 5.70398
3.11035 0.230402 5.72934
3.11035 0.245012 5.70399
3.11035 0.157245 5.7547
3.11035 0.186525 5.75471
3.11035 0.171881 5.72932
[...]
<PointData Scalars="View Factor" >
<DataArray type="Float64" Name="View Factor" NumberOfComponents="1" format="ascii">
0.000257479
0.000257479
0.000257479
0.000210277
0.000210277
0.000210277
0.000211632
0.000211632
0.000211632
0.000155404
0.000155404
0.000155404
0.000162559
0.000162559
0.000162559
0.000212916
0.000212916
0.000212916
0.000156852
0.000156852
0.000156852
0.000233287
0.000233287
0.000233287
0.000243466
0.000243466
0.000243466
0.00023186
0.00023186
0.00023186
0.000230354
0.000230354
0.000230354
0.000229038
0.000229038
0.000229038
0.000214979
0.000214979
0.000214979
0.00021368
0.00021368
0.00021368
0.000215762
0.000215762
0.000215762
0.000213163
0.000213163
0.000213163
0.00022207
0.00022207
0.00022207
0.000221606
0.000221606
0.000221606
0.000220808
0.000220808
0.000220808
0.000215511
0.000215511
0.000215511
0.000214128
0.000214128
0.000214128
0.000245072
0.000245072
0.000245072
0.000209088
0.000209088
0.000209088
5.144e-06
5.144e-06
5.144e-06
0.000175412
0.000175412
0.000175412
0.000111303
0.000111303
0.000111303
0.000132276
0.000132276
0.000132276
0.000151948
0.000151948
0.000151948
0.000141682
0.000141682
0.000141682
0.000145607
0.000145607
0.000145607
0.000121298
0.000121298
0.000121298
0.00013932
0.00013932
0.00013932
0.000130721
0.000130721
0.000130721
0.000122799
0.000122799
0.000122799
0.000141047
0.000141047
0.000141047
0.000131528
0.000131528
0.000131528
0.000150063
0.000150063
0.000150063
0.000140801
0.000140801
0.000140801
0.000110818
0.000110818
0.000110818
0.000111501
0.000111501
0.000111501
0
0
0
0
0
0
0
0
0
0
0
0
0.000239004
0.000239004
0.000239004
0.000234632
0.000234632
0.000234632
0.000190102
0.000190102
0.000190102
0.000222959
0.000222959
0.000222959
0.000223513
0.000223513
0.000223513
0.000221069
0.000221069
0.000221069
0.00021947
0.00021947
0.00021947
0.000218058
0.000218058
0.000218058
0.000216822
0.000216822
0.000216822
0.000244462
0.000244462
0.000244462
0.00023763
0.00023763
0.00023763
0.000236172
0.000236172
0.000236172
0.000203513
0.000203513
0.000203513
0.000234134
0.000234134
0.000234134
0.000224584
0.000224584
0.000224584
0.00023414
0.00023414
0.00023414
0.000235583
0.000235583
0.000235583
0.000211109
0.000211109
0.000211109
0.000209836
0.000209836
0.000209836
0.000211876
0.000211876
0.000211876
0.000200171
0.000200171
0.000200171
0.000202601
0.000202601
0.000202601
0.000207829
0.000207829
0.000207829
0.000207315
0.000207315
0.000207315
6.68081e-05
6.68081e-05
6.68081e-05
0.000137545
0.000137545
0.000137545
0.0001459
0.0001459
0.0001459
0.000206304
0.000206304
0.000206304
0.000203827
0.000203827
0.000203827
0.000128353
0.000128353
0.000128353
7.37588e-05
7.37588e-05
7.37588e-05
2.43102e-05
2.43102e-05
2.43102e-05
3.34007e-05
3.34007e-05
3.34007e-05
3.44539e-05
3.44539e-05
3.44539e-05
2.4921e-05
2.4921e-05
2.4921e-05
1.55684e-05
1.55684e-05
1.55684e-05
4.56723e-05
4.56723e-05
4.56723e-05
6.57718e-05
6.57718e-05
6.57718e-05
5.63323e-05
5.63323e-05
5.63323e-05
0
0
0
0
0
0
2.47666e-05
2.47666e-05
2.47666e-05
2.44613e-05
2.44613e-05
2.44613e-05
5.85049e-06
5.85049e-06
5.85049e-06
1.52813e-05
1.52813e-05
1.52813e-05
1.53763e-05
1.53763e-05
1.53763e-05
0
0
0
0
0
0
0
0
0
0
0
0
0.000169191
0.000169191
0.000169191
0.000175465
0.000175465
0.000175465
0.000158785
0.000158785
0.000158785
0.00016599
0.00016599
0.00016599
0.000259242
0.000259242
0.000259242
0.000159824
0.000159824
0.000159824
0.000152902
0.000152902
0.000152902
0.000154832
0.000154832
0.000154832
0.00013563
0.00013563
0.00013563
0.000121598
0.000121598
0.000121598
0.000133105
0.000133105
0.000133105
0.000122361
0.000122361
0.000122361
0.000134782
0.000134782
0.000134782
0.000143464
0.000143464
0.000143464
0.000144366
0.000144366
0.000144366
0.000162868
0.000162868
0.000162868
0.000157785
0.000157785
0.000157785
0.000147115
0.000147115
0.000147115
0.000155808
0.000155808
0.000155808
0.000146191
0.000146191
0.000146191
0.000112881
0.000112881
0.000112881
0.000123558
0.000123558
0.000123558
0.000113579
0.000113579
0.000113579
0.000110612
0.000110612
0.000110612
0.000120091
0.000120091
0.000120091
0.000100458
0.000100458
0.000100458
9.98365e-05
9.98365e-05
9.98365e-05
8.98258e-05
8.98258e-05
8.98258e-05
0
0
0
0
0
0
1.82236e-05
1.82236e-05
1.82236e-05
1.8334e-05
1.8334e-05
1.8334e-05
9.54643e-06
9.54643e-06
9.54643e-06
1.8557e-05
1.8557e-05
1.8557e-05
1.86697e-05
1.86697e-05
1.86697e-05
0
0
0
3.50228e-05
3.50228e-05
3.50228e-05
2.70491e-05
2.70491e-05
2.70491e-05
3.60992e-05
3.60992e-05
3.60992e-05
0.000101453
0.000101453
0.000101453
0.000104618
0.000104618
0.000104618
9.50249e-05
9.50249e-05
9.50249e-05
5.63344e-05
5.63344e-05
5.63344e-05
0.000102705
0.000102705
0.000102705
0.000103338
0.000103338
0.000103338
9.44428e-05
9.44428e-05
9.44428e-05
3.41876e-05
3.41876e-05
3.41876e-05
0.000155755
0.000155755
0.000155755
0.00016722
0.00016722
0.00016722
0
0
0
0
0
0
0
0
0
0
0
0
0
0
0
0
0
0
0
0
0
0
0
0
0
0
0
0
0
0
1.75771e-05
1.75771e-05
1.75771e-05
0
0
0
0
0
0
0
0
0
0
0
0
0
0
0
0
0
0
0
0
0
0
0
0
0
0
0
0
0
0
0
0
0
0
0
0
0
0
0
0
0
0
0
0
0
0
0
0
0
0
0
0.000138304
0.000138304
0.000138304
0.00014283
0.00014283
0.00014283
0.000124555
0.000124555
0.000124555
0.000113888
0.000113888
0.000113888
0.000156376
0.000156376
0.000156376
0.000156367
0.000156367
0.000156367
0.000156287
0.000156287
0.000156287
0.000142752
0.000142752
0.000142752
0.000156194
0.000156194
0.000156194
0.000156276
0.000156276
0.000156276
0.000144251
0.000144251
0.000144251
0.000113829
0.000113829
0.000113829
0.000142671
0.000142671
0.000142671
0.000138228
0.000138228
0.000138228
0.000124488
0.000124488
0.000124488
0.000113767
0.000113767
0.000113767
0.000113493
0.000113493
0.000113493
0.000160764
0.000160764
0.000160764
0.000132247
0.000132247
0.000132247
9.21785e-05
9.21785e-05
9.21785e-05
0.000106517
0.000106517
0.000106517
0.000105503
0.000105503
0.000105503
0.000216011
0.000216011
0.000216011
0.000213931
0.000213931
0.000213931
0.000215232
0.000215232
0.000215232
0.000207083
0.000207083
0.000207083
7.80161e-05
7.80161e-05
7.80161e-05
7.75291e-05
7.75291e-05
7.75291e-05
8.79529e-05
8.79529e-05
8.79529e-05
0.000168055
0.000168055
0.000168055
0.000159975
0.000159975
0.000159975
0.000224879
0.000224879
0.000224879
0.000225695
0.000225695
0.000225695
0.000226168
0.000226168
0.000226168
0.000227641
0.000227641
0.000227641
0.000227077
0.000227077
0.000227077
0.000209619
0.000209619
0.000209619
0.000217326
0.000217326
0.000217326
0.000217076
0.000217076
0.000217076
0.000219729
0.000219729
0.000219729
0.00021786
0.00021786
0.00021786
0.000219188
0.000219188
0.000219188
0.000217602
0.000217602
0.000217602
0.000218928
0.000218928
0.000218928
0.000240577
0.000240577
0.000240577
0.000242066
0.000242066
0.000242066
0.000242957
0.000242957
0.000242957
0.000246589
0.000246589
0.000246589
0.000204789
0.000204789
0.000204789
0.000214515
0.000214515
0.000214515
0.000236459
0.000236459
0.000236459
0.000238206
0.000238206
0.000238206
0.000235872
0.000235872
0.000235872
0.000236743
0.000236743
0.000236743
0.000209328
0.000209328
0.000209328
0.000208066
0.000208066
0.000208066
0.000207554
0.000207554
0.000207554
0.000198968
0.000198968
0.000198968
0.000163205
0.000163205
0.000163205
0.000159525
0.000159525
0.000159525
5.11277e-06
5.11277e-06
5.11277e-06
1.35131e-05
1.35131e-05
1.35131e-05
1.34308e-05
1.34308e-05
1.34308e-05
0.000136706
0.000136706
0.000136706
0.000135046
0.000135046
0.000135046
0.000175201
0.000175201
0.000175201
0.000176267
0.000176267
0.000176267
0.00011119
0.00011119
0.00011119
0.000150826
0.000150826
0.000150826
0.000131514
0.000131514
0.000131514
0.000140768
0.000140768
0.000140768
0.000136487
0.000136487
0.000136487
0.000128301
0.000128301
0.000128301
0.000117522
0.000117522
0.000117522
0.000205567
0.000205567
0.000205567
0.00020433
0.00020433
0.00020433
0.000206067
0.000206067
0.000206067
0.000200888
0.000200888
0.000200888
0.000192558
0.000192558
0.000192558
0.000202104
0.000202104
0.000202104
0.0001949
0.0001949
0.0001949
0.000185763
0.000185763
0.000185763
0.000186891
0.000186891
0.000186891
0.000111882
0.000111882
0.000111882
0.00012197
0.00012197
0.00012197
0.000121215
0.000121215
0.000121215
7.46811e-05
7.46811e-05
7.46811e-05
1.50934e-05
1.50934e-05
1.50934e-05
5.8145e-06
5.8145e-06
5.8145e-06
3.31946e-05
3.31946e-05
3.31946e-05
0
0
0
0
0
0
0
0
0
0
0
0
0
0
0
0
0
0
0
0
0
0
0
0
0
0
0
0
0
0
0
0
0
0
0
0
0
0
0
0
0
0
4.45511e-05
4.45511e-05
4.45511e-05
5.35947e-05
5.35947e-05
5.35947e-05
6.29652e-05
6.29652e-05
6.29652e-05
6.33575e-05
6.33575e-05
6.33575e-05
0
0
0
0
0
0
0
0
0
1.56654e-05
1.56654e-05
1.56654e-05
1.58617e-05
1.58617e-05
1.58617e-05
6.03436e-06
6.03436e-06
6.03436e-06
6.07194e-06
6.07194e-06
6.07194e-06
3.51043e-05
3.51043e-05
3.51043e-05
2.53908e-05
2.53908e-05
2.53908e-05
2.5233e-05
2.5233e-05
2.5233e-05
3.46691e-05
3.46691e-05
3.46691e-05
4.62452e-05
4.62452e-05
4.62452e-05
4.65348e-05
4.65348e-05
4.65348e-05
6.41506e-05
6.41506e-05
6.41506e-05
7.51472e-05
7.51472e-05
7.51472e-05
0
0
0
0
0
0
0
0
0
0
0
0
0
0
0
0
0
0
0
0
0
0
0
0
0
0
0
0
0
0
0
0
0
0
0
0
0
0
0
0
0
0
0
0
0
0
0
0
0
0
0
0
0
0
0
0
0
0
0
0
0
0
0
0
0
0
0
0
0
0
0
0
0
0
0
0
0
0
0
0
0
0
0
0
0
0
0
0
0
0
0
0
0
0
0
0
0
0
0
0
0
0
0
0
0
0
0
0
9.09461e-05
9.09461e-05
9.09461e-05
0.000101716
0.000101716
0.000101716
9.15125e-05
9.15125e-05
9.15125e-05
0
0
0
0
0
0
0
0
0
0
0
0
0
0
0
0
0
0
0
0
0
0
0
0
0.00022833
0.00022833
0.00022833
0.000258563
0.000258563
0.000258563
0.000259563
0.000259563
0.000259563
0.00018095
0.00018095
0.00018095
0.000215352
0.000215352
0.000215352
0.000216693
0.000216693
0.000216693
0.000144424
0.000144424
0.000144424
0.000146258
0.000146258
0.000146258
0.000142943
0.000142943
0.000142943
0.000138465
0.000138465
0.000138465
0.000148327
0.000148327
0.000148327
0.000141919
0.000141919
0.000141919
0.00013316
0.00013316
0.00013316
0.000151106
0.000151106
0.000151106
0.000146377
0.000146377
0.000146377
0.000127433
0.000127433
0.000127433
0.000136493
0.000136493
0.000136493
0.000149131
0.000149131
0.000149131
0.000153947
0.000153947
0.000153947
0.000147288
0.000147288
0.000147288
0.000139058
0.000139058
0.000139058
0.000138197
0.000138197
0.000138197
0.000128225
0.000128225
0.000128225
0.000117143
0.000117143
0.000117143
9.8607e-05
9.8607e-05
9.8607e-05
8.92718e-05
8.92718e-05
8.92718e-05
0.000130637
0.000130637
0.000130637
0.000119345
0.000119345
0.000119345
0.000129827
0.000129827
0.000129827
0.000117872
0.000117872
0.000117872
0.000109245
0.000109245
0.000109245
0.000108569
0.000108569
0.000108569
0.000115702
0.000115702
0.000115702
0.000114989
0.000114989
0.000114989
0.000105265
0.000105265
0.000105265
9.62016e-05
9.62016e-05
9.62016e-05
0
0
0
0
0
0
0
0
0
0
0
0
0
0
0
0
0
0
0
0
0
0
0
0
0
0
0
0
0
0
3.63189e-05
3.63189e-05
3.63189e-05
3.67631e-05
3.67631e-05
3.67631e-05
2.73786e-05
2.73786e-05
2.73786e-05
2.7545e-05
2.7545e-05
2.7545e-05
4.70384e-05
4.70384e-05
4.70384e-05
4.7326e-05
4.7326e-05
4.7326e-05
1.80052e-05
1.80052e-05
1.80052e-05
2.6886e-05
2.6886e-05
2.6886e-05
9.09757e-06
9.09757e-06
9.09757e-06
2.64036e-05
2.64036e-05
2.64036e-05
2.65633e-05
2.65633e-05
2.65633e-05
1.78971e-05
1.78971e-05
1.78971e-05
1.7683e-05
1.7683e-05
1.7683e-05
9.04316e-06
9.04316e-06
9.04316e-06
3.43943e-05
3.43943e-05
3.43943e-05
2.59307e-05
2.59307e-05
2.59307e-05
2.60873e-05
2.60873e-05
2.60873e-05
3.48119e-05
3.48119e-05
3.48119e-05
4.37711e-05
4.37711e-05
4.37711e-05
5.3335e-05
5.3335e-05
5.3335e-05
4.31128e-05
4.31128e-05
4.31128e-05
4.48956e-05
4.48956e-05
4.48956e-05
8.65623e-05
8.65623e-05
8.65623e-05
6.57016e-05
6.57016e-05
6.57016e-05
8.60321e-05
8.60321e-05
8.60321e-05
7.47012e-05
7.47012e-05
7.47012e-05
9.2721e-05
9.2721e-05
9.2721e-05
9.32909e-05
9.32909e-05
9.32909e-05
7.33427e-05
7.33427e-05
7.33427e-05
8.44638e-05
8.44638e-05
8.44638e-05
7.42452e-05
7.42452e-05
7.42452e-05
8.49829e-05
8.49829e-05
8.49829e-05
5.30129e-05
5.30129e-05
5.30129e-05
6.14448e-05
6.14448e-05
6.14448e-05
4.25949e-05
4.25949e-05
4.25949e-05
7.02803e-05
7.02803e-05
7.02803e-05
7.87151e-05
7.87151e-05
7.87151e-05
6.10733e-05
6.10733e-05
6.10733e-05
0
0
0
2.56207e-05
2.56207e-05
2.56207e-05
2.54672e-05
2.54672e-05
2.54672e-05
1.70577e-05
1.70577e-05
1.70577e-05
8.72419e-06
8.72419e-06
8.72419e-06
0.00017207
0.00017207
0.00017207
0.000156069
0.000156069
0.000156069
0.000163695
0.000163695
0.000163695
0.000130401
0.000130401
0.000130401
0.000124781
0.000124781
0.000124781
0.000117085
0.000117085
0.000117085
0.000147047
0.000147047
0.000147047
0.000136282
0.000136282
0.000136282
0.000139453
0.000139453
0.000139453
0.000129691
0.000129691
0.000129691
0.000124019
0.000124019
0.000124019
0.000121359
0.000121359
0.000121359
0.000107054
0.000107054
0.000107054
0.000106404
0.000106404
0.000106404
0
0
0
0
0
0
0
0
0
0
0
0
9.26301e-06
9.26301e-06
9.26301e-06
9.20749e-06
9.20749e-06
9.20749e-06
0
0
0
8.93543e-06
8.93543e-06
8.93543e-06
0
0
0
0
0
0
0
0
0
0
0
0
0
0
0
0
0
0
0
0
0
0
0
0
0
0
0
0
0
0
0
0
0
0
0
0
0
0
0
0
0
0
0
0
0
0
0
0
0
0
0
0
0
0
0
0
0
0
0
0
0
0
0
0
0
0
0
0
0
0
0
0
0
0
0
0
0
0
0
0
0
0
0
0
0
0
0
0
0
0
0
0
0
0
0
0
0
0
0
0
0
0
0
0
0
0
0
0
0
0
0
0
0
0
0
0
0
0
0
0
0
0
0
0
0
0
0
0
0
0
0
0
0
0
0
0
0
0
0
0
0
0
0
0
5.20709e-06
5.20709e-06
5.20709e-06
5.23895e-06
5.23895e-06
5.23895e-06
0
0
0
0
0
0
0
0
0
0
0
0
0
0
0
0
0
0
0
0
0
0
0
0
0
0
0
0
0
0
0
0
0
6.48607e-05
6.48607e-05
6.48607e-05
0.000138514
0.000138514
0.000138514
0.000156455
0.000156455
0.000156455
0.000137086
0.000137086
0.000137086
0.000144419
0.000144419
0.000144419
0
0
0
1.36034e-05
1.36034e-05
1.36034e-05
2.51632e-05
2.51632e-05
2.51632e-05
1.69559e-05
1.69559e-05
1.69559e-05
0.000143043
0.000143043
0.000143043
4.51556e-05
4.51556e-05
4.51556e-05
0
0
0
0
0
0
7.31316e-05
7.31316e-05
7.31316e-05
0
0
0
0
0
0
0
0
0
0
0
0
0
0
0
0
0
0
4.50857e-05
4.50857e-05
4.50857e-05
0.000123421
0.000123421
0.000123421
0.000136928
0.000136928
0.000136928
0.000137009
0.000137009
0.000137009
0.000144337
0.000144337
0.000144337
0
0
0
0
0
0
0
0
0
3.58485e-05
3.58485e-05
3.58485e-05
4.50599e-05
4.50599e-05
4.50599e-05
3.587e-05
3.587e-05
3.587e-05
1.36502e-05
1.36502e-05
1.36502e-05
0
0
0
0
0
0
0.000113419
0.000113419
0.000113419
0.00012411
0.00012411
0.00012411
0.000138149
0.000138149
0.000138149
0.000113702
0.000113702
0.000113702
0.000124418
0.000124418
0.000124418
0.000113566
0.000113566
0.000113566
0.000124191
0.000124191
0.000124191
0.00013789
0.00013789
0.00013789
0.000142406
0.000142406
0.000142406
0.000137699
0.000137699
0.000137699
0.000126734
0.000126734
0.000126734
0.000171972
0.000171972
0.000171972
0.000155546
0.000155546
0.000155546
0.000162024
0.000162024
0.000162024
0.000116135
0.000116135
0.000116135
0.000128155
0.000128155
0.000128155
0.000126692
0.000126692
0.000126692
0.000116523
0.000116523
0.000116523
0.000106198
0.000106198
0.000106198
9.34601e-05
9.34601e-05
9.34601e-05
0.000161439
0.000161439
0.000161439
0.000164196
0.000164196
0.000164196
0.000179566
0.000179566
0.000179566
0.00017942
0.00017942
0.00017942
0.000180044
0.000180044
0.000180044
0.000180192
0.000180192
0.000180192
0.000181043
0.000181043
0.000181043
0.000213407
0.000213407
0.000213407
0.000205828
0.000205828
0.000205828
0.000173387
0.000173387
0.000173387
0.000172328
0.000172328
0.000172328
0.000167023
0.000167023
0.000167023
0.00020727
0.00020727
0.00020727
0.000185485
0.000185485
0.000185485
0.000176608
0.000176608
0.000176608
0.000175527
0.000175527
0.000175527
0.000193133
0.000193133
0.000193133
0.000186627
0.000186627
0.000186627
0.000179897
0.000179897
0.000179897
0.000178793
0.000178793
0.000178793
0.000188935
0.000188935
0.000188935
0.000196717
0.000196717
0.000196717
0.000195514
0.000195514
0.000195514
0.000170141
0.000170141
0.000170141
0.000160966
0.000160966
0.000160966
0.000182129
0.000182129
0.000182129
0.000171195
0.000171195
0.000171195
0.00016297
0.00016297
0.00016297
0.000133154
0.000133154
0.000133154
0.000141642
0.000141642
0.000141642
0.000152704
0.000152704
0.000152704
0.000153652
0.000153652
0.000153652
0.000225147
0.000225147
0.000225147
0.000223778
0.000223778
0.000223778
0.000185538
0.000185538
0.000185538
0.000183257
0.000183257
0.000183257
0.000227914
0.000227914
0.000227914
0.000208545
0.000208545
0.000208545
0.000199149
0.000199149
0.000199149
0.000252148
0.000252148
0.000252148
0.000247503
0.000247503
0.000247503
0.000249041
0.000249041
0.000249041
0.000251202
0.000251202
0.000251202
0.000249653
0.000249653
0.000249653
0.00024801
0.00024801
0.00024801
0.000252654
0.000252654
0.000252654
0.000235595
0.000235595
0.000235595
0.000238551
0.000238551
0.000238551
0.000230327
0.000230327
0.000230327
0.000240045
0.000240045
0.000240045
0.000242662
0.000242662
0.000242662
0.000241166
0.000241166
0.000241166
0.000243263
0.000243263
0.000243263
0.000242363
0.000242363
0.000242363
0.000237919
0.000237919
0.000237919
0.000238502
0.000238502
0.000238502
0.000239976
0.000239976
0.000239976
0.000240871
0.000240871
0.000240871
0.000238796
0.000238796
0.000238796
0.000240274
0.000240274
0.000240274
0.000219077
0.000219077
0.000219077
0.000226998
0.000226998
0.000226998
0.000211856
0.000211856
0.000211856
0.000210542
0.000210542
0.000210542
0.000223191
0.000223191
0.000223191
0.000220438
0.000220438
0.000220438
0.000231247
0.000231247
0.000231247
0.00022982
0.00022982
0.00022982
0.000183528
0.000183528
0.000183528
0.000191398
0.000191398
0.000191398
0.000198481
0.000198481
0.000198481
0.000171589
0.000171589
0.000171589
0.000200665
0.000200665
0.000200665
0.000201879
0.000201879
0.000201879
0.000165932
0.000165932
0.000165932
0.000167225
0.000167225
0.000167225
0.00015895
0.00015895
0.00015895
0.000163373
0.000163373
0.000163373
0
0
0
0
0
0
0
0
0
0
0
0
0
0
0
0
0
0
1.35706e-05
1.35706e-05
1.35706e-05
0
0
0
1.81902e-05
1.81902e-05
1.81902e-05
5.00993e-05
5.00993e-05
5.00993e-05
0.000154565
0.000154565
0.000154565
0.000146477
0.000146477
0.000146477
2.14973e-05
2.14973e-05
2.14973e-05
2.97152e-05
2.97152e-05
2.97152e-05
4.95035e-05
4.95035e-05
4.95035e-05
7.77429e-05
7.77429e-05
7.77429e-05
6.43538e-05
6.43538e-05
6.43538e-05
4.68056e-05
4.68056e-05
4.68056e-05
6.45783e-05
6.45783e-05
6.45783e-05
8.01454e-05
8.01454e-05
8.01454e-05
2.9175e-05
2.9175e-05
2.9175e-05
3.3175e-05
3.3175e-05
3.3175e-05
1.31871e-05
1.31871e-05
1.31871e-05
1.32678e-05
1.32678e-05
1.32678e-05
2.13663e-05
2.13663e-05
2.13663e-05
2.93539e-05
2.93539e-05
2.93539e-05
0.000105179
0.000105179
0.000105179
8.54223e-05
8.54223e-05
8.54223e-05
9.64073e-05
9.64073e-05
9.64073e-05
9.58156e-05
9.58156e-05
9.58156e-05
5.13236e-05
5.13236e-05
5.13236e-05
5.99239e-05
5.99239e-05
5.99239e-05
5.95554e-05
5.95554e-05
5.95554e-05
5.06945e-05
5.06945e-05
5.06945e-05
8.38608e-05
8.38608e-05
8.38608e-05
8.48983e-05
8.48983e-05
8.48983e-05
9.40643e-05
9.40643e-05
9.40643e-05
9.46442e-05
9.46442e-05
9.46442e-05
6.80673e-05
6.80673e-05
6.80673e-05
7.62613e-05
7.62613e-05
7.62613e-05
7.57939e-05
7.57939e-05
7.57939e-05
6.72354e-05
6.72354e-05
6.72354e-05
6.84874e-05
6.84874e-05
6.84874e-05
7.72057e-05
7.72057e-05
7.72057e-05
5.03832e-05
5.03832e-05
5.03832e-05
4.97668e-05
4.97668e-05
4.97668e-05
5.88259e-05
5.88259e-05
5.88259e-05
5.84648e-05
5.84648e-05
5.84648e-05
0.000169255
0.000169255
0.000169255
0.000153293
0.000153293
0.000153293
0.000147793
0.000147793
0.000147793
0.000157265
0.000157265
0.000157265
0.000134224
0.000134224
0.000134224
0.000141515
0.000141515
0.000141515
0.000140656
0.000140656
0.000140656
0.000126791
0.000126791
0.000126791
0.000126017
0.000126017
0.000126017
8.33473e-05
8.33473e-05
8.33473e-05
9.29162e-05
9.29162e-05
9.29162e-05
0.000114659
0.000114659
0.000114659
9.76028e-05
9.76028e-05
9.76028e-05
0.000105829
0.000105829
0.000105829
0.000149898
0.000149898
0.000149898
0.000158013
0.000158013
0.000158013
0.000130702
0.000130702
0.000130702
0.000129096
0.000129096
0.000129096
0.000138181
0.000138181
0.000138181
0.000139037
0.000139037
0.000139037
0.000119723
0.000119723
0.000119723
0.000118984
0.000118984
0.000118984
0.000154171
0.000154171
0.000154171
0.00016197
0.00016197
0.00016197
0.000160979
0.000160979
0.000160979
0.00015229
0.00015229
0.00015229
0.000111187
0.000111187
0.000111187
0.000103892
0.000103892