<VTKFile type="UnstructuredGrid" version="1.0">
<UnstructuredGrid>
<Piece NumberOfPoints="10830" NumberOfCells="3610">
<Points>
<DataArray type="Float64" NumberOfComponents="3" format="ascii">
3.10314 1.29552 10.4757
3.11025 1.28841 10.45
3.11025 1.28841 10.5015
3.11025 1.28841 11.0051
3.11025 1.28841 11.056
3.10226 1.2964 11.0305
3.11025 1.28841 11.0051
3.10226 1.2964 11.0305
3.09025 1.30841 11.0051
2.21656 2.1821 11.4776
2.22913 2.16953 11.495
2.19928 2.19938 11.495
2.19928 2.19938 11.495
2.19928 2.19938 11.4648
2.21656 2.1821 11.4776
3.11025 1.28841 11.0051
3.09025 1.30841 11.0051
3.10227 1.29639 10.9797
2.20538 2.19328 10.7268
2.19928 2.19938 10.752
2.19928 2.19938 10.7016
3.10229 1.29637 10.7269
3.11025 1.28841 10.7521
3.09026 1.3084 10.7521
3.10214 1.29652 10.6263
3.11025 1.28841 10.6013
3.11025 1.28841 10.6514
3.09026 1.3084 10.7521
3.11025 1.28841 10.7521
3.1023 1.29636 10.7773
3.11025 1.28841 10.7521
3.11025 1.28841 10.8025
3.1023 1.29636 10.7773
3.09026 1.3084 10.8026
3.1023 1.29636 10.7773
3.11025 1.28841 10.8025
3.09025 1.30841 10.9543
3.10227 1.29639 10.9797
3.08043 1.31823 10.9797
3.08043 1.31823 10.9797
3.10227 1.29639 10.9797
3.09025 1.30841 11.0051
3.08043 1.31823 10.9797
3.06939 1.32927 10.9543
3.09025 1.30841 10.9543
3.08043 1.31823 10.9797
3.09025 1.30841 11.0051
3.06938 1.32928 11.0051
3.11025 1.28841 10.853
3.11025 1.28841 10.9036
3.10229 1.29637 10.8783
3.10229 1.29637 10.8783
3.09026 1.3084 10.9036
3.08044 1.31822 10.8783
3.11025 1.28841 10.9036
3.09026 1.3084 10.9036
3.10229 1.29637 10.8783
3.11025 1.28841 10.9543
3.10227 1.29639 10.9797
3.09025 1.30841 10.9543
3.11025 1.28841 11.0051
3.10227 1.29639 10.9797
3.11025 1.28841 10.9543
3.0901 1.30856 10.6013
3.11025 1.28841 10.6013
3.10214 1.29652 10.6263
3.09024 1.30842 11.056
3.10226 1.2964 11.0305
3.11025 1.28841 11.056
2.80657 1.59209 11.2357
2.81699 1.58167 11.21
2.8274 1.57126 11.2357
2.19928 2.19938 10.45
2.21889 2.17977 10.45
2.20626 2.1924 10.4747
2.25868 2.13998 10.7016
2.23814 2.16052 10.7016
2.24806 2.1506 10.6764
2.21801 2.18065 10.7016
2.23814 2.16052 10.7016
2.22704 2.17162 10.7268
2.21801 2.18065 10.7016
2.20538 2.19328 10.7268
2.19928 2.19938 10.7016
2.22704 2.17162 10.7268
2.20538 2.19328 10.7268
2.21801 2.18065 10.7016
2.20547 2.19319 10.9289
2.19928 2.19938 10.9543
2.19928 2.19938 10.9036
2.21807 2.1806 10.9543
2.22712 2.17155 10.9289
2.23821 2.16045 10.9543
2.19928 2.19938 10.9543
2.20547 2.19319 10.9289
2.21807 2.1806 10.9543
2.21807 2.1806 10.9543
2.20547 2.19319 10.9289
2.22712 2.17155 10.9289
2.21805 2.18061 10.9036
2.2382 2.16046 10.9036
2.22712 2.17155 10.9289
2.21805 2.18061 10.9036
2.20547 2.19319 10.9289
2.19928 2.19938 10.9036
2.22712 2.17155 10.9289
2.20547 2.19319 10.9289
2.21805 2.18061 10.9036
2.19928 2.19938 10.752
2.20538 2.19328 10.7268
2.21802 2.18064 10.752
2.21802 2.18064 10.752
2.20538 2.19328 10.7268
2.22704 2.17162 10.7268
2.23821 2.16045 10.9543
2.22712 2.17155 10.9289
2.24816 2.15051 10.9289
2.22712 2.17155 10.9289
2.2382 2.16046 10.9036
2.24816 2.15051 10.9289
2.40353 1.99513 10.9037
2.41386 1.9848 10.929
2.3932 2.00546 10.929
2.3932 2.00546 10.929
2.41386 1.9848 10.929
2.40354 1.99512 10.9544
2.40354 1.99512 10.9544
2.41386 1.9848 10.929
2.4242 1.97446 10.9544
2.79618 1.60248 11.21
2.81699 1.58167 11.21
2.80657 1.59209 11.2357
3.10224 1.29642 10.6766
3.11025 1.28841 10.6514
3.11025 1.28841 10.7017
3.11025 1.28841 10.7521
3.10229 1.29637 10.7269
3.11025 1.28841 10.7017
3.02715 1.37151 10.8531
3.006 1.39266 10.8531
3.01659 1.38207 10.8278
3.09026 1.3084 10.8531
3.10229 1.29637 10.8783
3.08044 1.31822 10.8783
3.11025 1.28841 10.853
3.10229 1.29637 10.8783
3.09026 1.3084 10.8531
3.08044 1.31822 10.8783
3.09026 1.3084 10.9036
3.0694 1.32926 10.9036
3.10228 1.29638 10.9289
3.09026 1.3084 10.9036
3.11025 1.28841 10.9036
3.11025 1.28841 10.9036
3.11025 1.28841 10.9543
3.10228 1.29638 10.9289
3.10228 1.29638 10.9289
3.11025 1.28841 10.9543
3.09025 1.30841 10.9543
3.08027 1.31839 10.6264
3.0901 1.30856 10.6013
3.10214 1.29652 10.6263
3.10224 1.29642 10.6766
3.11025 1.28841 10.7017
3.09024 1.30842 10.7017
3.09024 1.30842 10.7017
3.11025 1.28841 10.7017
3.10229 1.29637 10.7269
3.0165 1.38216 10.6766
3.00588 1.39278 10.6514
3.02702 1.37164 10.6514
3.04817 1.35049 10.6515
3.03759 1.36107 10.6263
3.05884 1.33982 10.6263
3.04817 1.35049 10.6515
3.02702 1.37164 10.6514
3.03759 1.36107 10.6263
3.08043 1.31823 10.7269
3.10229 1.29637 10.7269
3.09026 1.3084 10.7521
3.08043 1.31823 10.7269
3.09024 1.30842 10.7017
3.10229 1.29637 10.7269
3.08042 1.31824 11.0306
3.09025 1.30841 11.0051
3.10226 1.2964 11.0305
3.10226 1.2964 11.0305
3.09024 1.30842 11.056
3.08042 1.31824 11.0306
3.06938 1.32928 11.0051
3.09025 1.30841 11.0051
3.08042 1.31824 11.0306
3.08041 1.31825 11.1841
3.05901 1.33965 11.1841
3.06938 1.32928 11.1584
3.05901 1.33966 11.1327
3.08041 1.31825 11.1327
3.06938 1.32928 11.1584
3.10225 1.29641 11.0815
3.09024 1.30842 11.056
3.11025 1.28841 11.056
3.08041 1.31825 11.0816
3.09024 1.30842 11.056
3.10225 1.29641 11.0815
2.84822 1.55044 11.2873
2.85863 1.54003 11.3132
2.83776 1.5609 11.3132
2.96373 1.43493 11.1584
2.97428 1.42438 11.1328
2.98483 1.41383 11.1584
2.98483 1.41383 11.1584
2.97428 1.42438 11.1328
2.9954 1.40326 11.1328
3.06938 1.32929 11.1071
3.05901 1.33965 11.0816
3.08041 1.31825 11.0816
3.06938 1.32929 11.1071
3.08041 1.31825 11.1327
3.05901 1.33966 11.1327
2.95319 1.44547 11.1328
2.97428 1.42438 11.1328
2.96373 1.43493 11.1584
2.90067 1.49799 10.9037
2.87971 1.51895 10.9037
2.89018 1.50848 10.8784
2.84833 1.55033 10.8784
2.83789 1.56077 10.9037
2.82746 1.5712 10.8784
2.85878 1.53988 10.9037
2.83789 1.56077 10.9037
2.84833 1.55033 10.8784
2.83788 1.56078 10.8027
2.85877 1.53989 10.8027
2.84833 1.55034 10.8279
2.84833 1.55034 10.8279
2.82745 1.57121 10.8279
2.83788 1.56078 10.8027
2.83788 1.56078 10.8027
2.82745 1.57121 10.8279
2.81702 1.58164 10.8026
2.84833 1.55034 10.8279
2.85877 1.53989 10.8027
2.86924 1.52943 10.8279
2.87968 1.51898 10.7522
2.89017 1.50849 10.7774
2.86922 1.52944 10.7774
2.86922 1.52944 10.7774
2.85875 1.53991 10.7522
2.87968 1.51898 10.7522
2.72357 1.6751 10.9291
2.73392 1.66474 10.9037
2.74429 1.65437 10.9291
2.73392 1.66474 10.9037
2.75466 1.644 10.9038
2.74429 1.65437 10.9291
2.83789 1.56077 10.8532
2.82745 1.57121 10.8279
2.84833 1.55034 10.8279
2.83789 1.56077 10.8532
2.84833 1.55033 10.8784
2.82746 1.5712 10.8784
2.82746 1.5712 10.8784
2.80662 1.59204 10.8784
2.81703 1.58163 10.8532
2.81703 1.58163 10.8532
2.83789 1.56077 10.8532
2.82746 1.5712 10.8784
2.82745 1.57121 10.8279
2.83789 1.56077 10.8532
2.81703 1.58163 10.8532
2.81702 1.58164 10.8026
2.7962 1.60246 10.8026
2.8066 1.59206 10.7774
2.79618 1.60248 10.7522
2.81701 1.58166 10.7522
2.8066 1.59206 10.7774
2.42419 1.97447 10.9037
2.41386 1.9848 10.929
2.40353 1.99513 10.9037
2.40353 1.99513 10.9037
2.41385 1.98481 10.8784
2.42419 1.97447 10.9037
2.20539 2.19327 10.5249
2.19928 2.19938 10.5501
2.19928 2.19938 10.4994
2.19928 2.19938 10.45
2.20626 2.1924 10.4747
2.19928 2.19938 10.4994
2.21797 2.1807 10.6007
2.19928 2.19938 10.6007
2.20528 2.19338 10.5754
2.19928 2.19938 10.6007
2.19928 2.19938 10.5501
2.20528 2.19338 10.5754
3.11025 1.28841 10.45
3.10314 1.29552 10.4757
3.0911 1.30756 10.45
2.19928 2.19938 10.7016
2.19928 2.19938 10.6511
2.20536 2.19331 10.6764
2.20536 2.19331 10.6764
2.21801 2.18065 10.7016
2.19928 2.19938 10.7016
2.21799 2.18067 10.6511
2.20536 2.19331 10.6764
2.19928 2.19938 10.6511
2.21799 2.18067 10.6511
2.22698 2.17168 10.6259
2.23811 2.16055 10.6512
2.22702 2.17165 10.6764
2.24806 2.1506 10.6764
2.23814 2.16052 10.7016
2.23814 2.16052 10.7016
2.21801 2.18065 10.7016
2.22702 2.17165 10.6764
2.23811 2.16055 10.6512
2.24806 2.1506 10.6764
2.22702 2.17165 10.6764
2.22702 2.17165 10.6764
2.21799 2.18067 10.6511
2.23811 2.16055 10.6512
2.21801 2.18065 10.7016
2.20536 2.19331 10.6764
2.22702 2.17165 10.6764
2.20536 2.19331 10.6764
2.21799 2.18067 10.6511
2.22702 2.17165 10.6764
2.20532 2.19334 10.6259
2.19928 2.19938 10.6511
2.19928 2.19938 10.6007
2.20532 2.19334 10.6259
2.19928 2.19938 10.6007
2.21797 2.1807 10.6007
2.21797 2.1807 10.6007
2.22698 2.17168 10.6259
2.20532 2.19334 10.6259
2.20532 2.19334 10.6259
2.21799 2.18067 10.6511
2.19928 2.19938 10.6511
2.22698 2.17168 10.6259
2.21799 2.18067 10.6511
2.20532 2.19334 10.6259
2.24814 2.15052 10.8783
2.2382 2.16046 10.9036
2.2271 2.17156 10.8783
2.2382 2.16046 10.9036
2.21805 2.18061 10.9036
2.2271 2.17156 10.8783
2.2271 2.17156 10.8783
2.23819 2.16048 10.853
2.24814 2.15052 10.8783
2.24809 2.15058 10.7268
2.23814 2.16052 10.7016
2.25868 2.13998 10.7016
2.22704 2.17162 10.7268
2.23814 2.16052 10.7016
2.24809 2.15058 10.7268
2.26891 2.12975 10.7268
2.24809 2.15058 10.7268
2.25868 2.13998 10.7016
2.2587 2.13996 10.752
2.24809 2.15058 10.7268
2.26891 2.12975 10.7268
2.2587 2.13996 10.752
2.26891 2.12975 10.7268
2.27936 2.1193 10.752
2.41384 1.98482 10.8278
2.42418 1.97448 10.8531
2.40352 1.99515 10.8531
2.40352 1.99515 10.8531
2.42418 1.97448 10.8531
2.41385 1.98481 10.8784
2.33114 2.06753 10.8783
2.35183 2.04683 10.8783
2.34149 2.05717 10.9036
2.34148 2.05718 10.853
2.35183 2.04683 10.8783
2.33114 2.06753 10.8783
2.35182 2.04684 10.8278
2.34147 2.05719 10.8025
2.36216 2.03651 10.8025
2.34148 2.05718 10.853
2.33112 2.06754 10.8278
2.35182 2.04684 10.8278
2.35182 2.04684 10.8278
2.33112 2.06754 10.8278
2.34147 2.05719 10.8025
2.35184 2.04682 10.929
2.37253 2.02613 10.929
2.3622 2.03646 10.9543
2.31047 2.08819 10.9797
2.32082 2.07785 10.9543
2.33117 2.06749 10.9797
2.3208 2.07786 10.9036
2.33114 2.06753 10.8783
2.34149 2.05717 10.9036
2.31043 2.08823 10.8783
2.33114 2.06753 10.8783
2.3208 2.07786 10.9036
2.23821 2.16045 10.9543
2.24816 2.15051 10.9289
2.25876 2.1399 10.9543
2.24814 2.15052 10.8783
2.23819 2.16048 10.853
2.25873 2.13993 10.853
2.25873 2.13993 10.853
2.26896 2.1297 10.8783
2.24814 2.15052 10.8783
2.30008 2.09858 10.853
2.31043 2.08823 10.8783
2.28971 2.10895 10.8783
2.25874 2.13992 10.9036
2.24816 2.15051 10.9289
[...]
<PointData Scalars="View Factor" >
<DataArray type="Float64" Name="View Factor" NumberOfComponents="1" format="ascii">
0.000565897
0.000565897
0.000565897
0.000453735
0.000453735
0.000453735
0.000454007
0.000454007
0.000454007
4.32363e-05
4.32363e-05
4.32363e-05
2.2705e-05
2.2705e-05
2.2705e-05
0.000457025
0.000457025
0.000457025
8.03981e-05
8.03981e-05
8.03981e-05
0.000504812
0.000504812
0.000504812
0.000532217
0.000532217
0.000532217
0.000501431
0.000501431
0.000501431
0.000501084
0.000501084
0.000501084
0.000494799
0.000494799
0.000494799
0.000457427
0.000457427
0.000457427
0.000454432
0.000454432
0.000454432
0.000454372
0.000454372
0.000454372
0.000448437
0.000448437
0.000448437
0.000481494
0.000481494
0.000481494
0.000472794
0.000472794
0.000472794
0.000475477
0.000475477
0.000475477
0.000463061
0.000463061
0.000463061
0.000462783
0.000462783
0.000462783
0.000532589
0.000532589
0.000532589
0.000448087
0.000448087
0.000448087
2.57428e-05
2.57428e-05
2.57428e-05
3.90457e-05
3.90457e-05
3.90457e-05
0.00015609
0.00015609
0.00015609
0.000172313
0.000172313
0.000172313
7.19568e-05
7.19568e-05
7.19568e-05
0.000113629
0.000113629
0.000113629
9.15027e-05
9.15027e-05
9.15027e-05
0.000174842
0.000174842
0.000174842
9.32414e-05
9.32414e-05
9.32414e-05
0.000117395
0.000117395
0.000117395
0.000183076
0.000183076
0.000183076
0.000108233
0.000108233
0.000108233
0.000127321
0.000127321
0.000127321
0.000105393
0.000105393
0.000105393
0.000130199
0.000130199
0.000130199
0.000172718
0.000172718
0.000172718
0.000176969
0.000176969
0.000176969
7.70596e-05
7.70596e-05
7.70596e-05
6.97473e-05
6.97473e-05
6.97473e-05
6.65381e-05
6.65381e-05
6.65381e-05
2.64594e-05
2.64594e-05
2.64594e-05
0.000521611
0.000521611
0.000521611
0.000511229
0.000511229
0.000511229
0.000444857
0.000444857
0.000444857
0.000475926
0.000475926
0.000475926
0.000481807
0.000481807
0.000481807
0.000466546
0.000466546
0.000466546
0.000472331
0.000472331
0.000472331
0.000472033
0.000472033
0.000472033
0.00046614
0.00046614
0.00046614
0.000526038
0.000526038
0.000526038
0.000515034
0.000515034
0.000515034
0.000511585
0.000511585
0.000511585
0.000479024
0.000479024
0.000479024
0.000501961
0.000501961
0.000501961
0.000494489
0.000494489
0.000494489
0.000501965
0.000501965
0.000501965
0.000505333
0.000505333
0.000505333
0.00044848
0.00044848
0.00044848
0.000445541
0.000445541
0.000445541
0.000445486
0.000445486
0.000445486
0.000414578
0.000414578
0.000414578
0.000420045
0.000420045
0.000420045
0.000445134
0.000445134
0.000445134
0.000439721
0.000439721
0.000439721
0.000208889
0.000208889
0.000208889
0.000376017
0.000376017
0.000376017
0.000381964
0.000381964
0.000381964
0.000428381
0.000428381
0.000428381
0.000422813
0.000422813
0.000422813
0.000371752
0.000371752
0.000371752
0.000347453
0.000347453
0.000347453
0.000216023
0.000216023
0.000216023
0.00023298
0.00023298
0.00023298
0.000235264
0.000235264
0.000235264
0.000176046
0.000176046
0.000176046
0.000165465
0.000165465
0.000165465
0.000284606
0.000284606
0.000284606
0.000348745
0.000348745
0.000348745
0.000326201
0.000326201
0.000326201
0.000101488
0.000101488
0.000101488
0.000108249
0.000108249
0.000108249
0.000187003
0.000187003
0.000187003
0.000207271
0.000207271
0.000207271
0.000153907
0.000153907
0.000153907
0.000162491
0.000162491
0.000162491
0.000171173
0.000171173
0.000171173
0.000146522
0.000146522
0.000146522
0.000111685
0.000111685
0.000111685
8.11069e-05
8.11069e-05
8.11069e-05
8.9916e-05
8.9916e-05
8.9916e-05
2.69283e-05
2.69283e-05
2.69283e-05
2.88007e-05
2.88007e-05
2.88007e-05
3.53226e-05
3.53226e-05
3.53226e-05
2.61247e-05
2.61247e-05
2.61247e-05
0.000566611
0.000566611
0.000566611
3.42209e-05
3.42209e-05
3.42209e-05
5.58918e-05
5.58918e-05
5.58918e-05
3.60737e-05
3.60737e-05
3.60737e-05
0.000165923
0.000165923
0.000165923
0.000160738
0.000160738
0.000160738
0.000167708
0.000167708
0.000167708
0.000158878
0.000158878
0.000158878
0.000164731
0.000164731
0.000164731
8.2792e-05
8.2792e-05
8.2792e-05
7.27789e-05
7.27789e-05
7.27789e-05
2.52684e-05
2.52684e-05
2.52684e-05
3.49994e-05
3.49994e-05
3.49994e-05
6.8279e-05
6.8279e-05
6.8279e-05
3.4357e-05
3.4357e-05
3.4357e-05
6.77235e-05
6.77235e-05
6.77235e-05
0.000186859
0.000186859
0.000186859
0.000187874
0.000187874
0.000187874
0.000192122
0.000192122
0.000192122
0.0001612
0.0001612
0.0001612
0.000170237
0.000170237
0.000170237
0.000158415
0.000158415
0.000158415
0.000165504
0.000165504
0.000165504
0.000163004
0.000163004
0.000163004
0.000116188
0.000116188
0.000116188
0.000109402
0.000109402
0.000109402
9.42804e-05
9.42804e-05
9.42804e-05
0.000104253
0.000104253
0.000104253
0.000117008
0.000117008
0.000117008
0.00011895
0.00011895
0.00011895
0.000119639
0.000119639
0.000119639
6.95986e-05
6.95986e-05
6.95986e-05
5.75066e-05
5.75066e-05
5.75066e-05
8.94731e-05
8.94731e-05
8.94731e-05
9.42333e-05
9.42333e-05
9.42333e-05
0.000166025
0.000166025
0.000166025
0.000190331
0.000190331
0.000190331
0.000183834
0.000183834
0.000183834
0.00010418
0.00010418
0.00010418
0.000174614
0.000174614
0.000174614
0.00017965
0.00017965
0.00017965
0.000178357
0.000178357
0.000178357
4.04267e-05
4.04267e-05
4.04267e-05
2.715e-05
2.715e-05
2.715e-05
3.11995e-05
3.11995e-05
3.11995e-05
8.09798e-05
8.09798e-05
8.09798e-05
7.69134e-05
7.69134e-05
7.69134e-05
6.0289e-05
6.0289e-05
6.0289e-05
6.64301e-05
6.64301e-05
6.64301e-05
6.63362e-05
6.63362e-05
6.63362e-05
6.96706e-05
6.96706e-05
6.96706e-05
6.0352e-05
6.0352e-05
6.0352e-05
5.75677e-05
5.75677e-05
5.75677e-05
5.02918e-05
5.02918e-05
5.02918e-05
5.25811e-05
5.25811e-05
5.25811e-05
5.24616e-05
5.24616e-05
5.24616e-05
5.75575e-05
5.75575e-05
5.75575e-05
4.05595e-05
4.05595e-05
4.05595e-05
3.60117e-05
3.60117e-05
3.60117e-05
3.46133e-05
3.46133e-05
3.46133e-05
3.09538e-05
3.09538e-05
3.09538e-05
3.1962e-05
3.1962e-05
3.1962e-05
5.2642e-05
5.2642e-05
5.2642e-05
6.04251e-05
6.04251e-05
6.04251e-05
5.76373e-05
5.76373e-05
5.76373e-05
2.37726e-05
2.37726e-05
2.37726e-05
2.31828e-05
2.31828e-05
2.31828e-05
2.51161e-05
2.51161e-05
2.51161e-05
2.58063e-05
2.58063e-05
2.58063e-05
2.53962e-05
2.53962e-05
2.53962e-05
2.66726e-05
2.66726e-05
2.66726e-05
3.37854e-05
3.37854e-05
3.37854e-05
2.75805e-05
2.75805e-05
2.75805e-05
9.62432e-06
9.62432e-06
9.62432e-06
9.67478e-06
9.67478e-06
9.67478e-06
9.11889e-06
9.11889e-06
9.11889e-06
8.78396e-06
8.78396e-06
8.78396e-06
1.02619e-05
1.02619e-05
1.02619e-05
1.06947e-05
1.06947e-05
1.06947e-05
1.05688e-05
1.05688e-05
1.05688e-05
9.96356e-06
9.96356e-06
9.96356e-06
1.08752e-05
1.08752e-05
1.08752e-05
1.10101e-05
1.10101e-05
1.10101e-05
1.16434e-05
1.16434e-05
1.16434e-05
9.04596e-06
9.04596e-06
9.04596e-06
1.02526e-05
1.02526e-05
1.02526e-05
9.90703e-06
9.90703e-06
9.90703e-06
9.38658e-06
9.38658e-06
9.38658e-06
9.30713e-06
9.30713e-06
9.30713e-06
1.03521e-05
1.03521e-05
1.03521e-05
0.000335565
0.000335565
0.000335565
0.00027116
0.00027116
0.00027116
0.000306613
0.000306613
0.000306613
0.000324257
0.000324257
0.000324257
0.000315245
0.000315245
0.000315245
0.000445575
0.000445575
0.000445575
0.000445624
0.000445624
0.000445624
0.000448552
0.000448552
0.000448552
0.000439394
0.000439394
0.000439394
0.0003703
0.0003703
0.0003703
0.000367591
0.000367591
0.000367591
0.000384298
0.000384298
0.000384298
0.000424824
0.000424824
0.000424824
0.000420561
0.000420561
0.000420561
0.000485026
0.000485026
0.000485026
0.000482295
0.000482295
0.000482295
0.000491174
0.000491174
0.000491174
0.000491505
0.000491505
0.000491505
0.0004855
0.0004855
0.0004855
0.000445234
0.000445234
0.000445234
0.000448533
0.000448533
0.000448533
0.000457388
0.000457388
0.000457388
0.000463461
0.000463461
0.000463461
0.000454527
0.000454527
0.000454527
0.00045753
0.00045753
0.00045753
0.000463499
0.000463499
0.000463499
0.00046657
0.00046657
0.00046657
0.00052198
0.00052198
0.00052198
0.000525495
0.000525495
0.000525495
0.000522515
0.000522515
0.000522515
0.000536157
0.000536157
0.000536157
0.000482314
0.000482314
0.000482314
0.000490209
0.000490209
0.000490209
0.000501974
0.000501974
0.000501974
0.000495528
0.000495528
0.000495528
0.000495513
0.000495513
0.000495513
0.000492237
0.000492237
0.000492237
0.000439671
0.000439671
0.000439671
0.000436785
0.000436785
0.000436785
0.000431192
0.000431192
0.000431192
0.000411876
0.000411876
0.000411876
0.000377582
0.000377582
0.000377582
0.00030295
0.00030295
0.00030295
2.41269e-05
2.41269e-05
2.41269e-05
2.89794e-05
2.89794e-05
2.89794e-05
2.7112e-05
2.7112e-05
2.7112e-05
0.000373625
0.000373625
0.000373625
0.0003689
0.0003689
0.0003689
0.000393703
0.000393703
0.000393703
0.000396284
0.000396284
0.000396284
0.000386346
0.000386346
0.000386346
0.000413588
0.000413588
0.000413588
0.000401941
0.000401941
0.000401941
0.000408675
0.000408675
0.000408675
0.000396188
0.000396188
0.000396188
0.000391797
0.000391797
0.000391797
0.000384489
0.000384489
0.000384489
0.00043109
0.00043109
0.00043109
0.000428289
0.000428289
0.000428289
0.000436853
0.000436853
0.000436853
0.000411821
0.000411821
0.000411821
0.000406111
0.000406111
0.000406111
0.000414533
0.000414533
0.000414533
0.000411472
0.000411472
0.000411472
0.000402526
0.000402526
0.000402526
0.000405175
0.000405175
0.000405175
0.000388993
0.000388993
0.000388993
0.000399835
0.000399835
0.000399835
0.000397203
0.000397203
0.000397203
0.000352338
0.000352338
0.000352338
0.000133541
0.000133541
0.000133541
0.000139255
0.000139255
0.000139255
0.000235654
0.000235654
0.000235654
8.24727e-05
8.24727e-05
8.24727e-05
7.98252e-05
7.98252e-05
7.98252e-05
0.000110018
0.000110018
0.000110018
0.000117251
0.000117251
0.000117251
0.000130183
0.000130183
0.000130183
0.000135705
0.000135705
0.000135705
0.000114243
0.000114243
0.000114243
0.000126832
0.000126832
0.000126832
9.94268e-05
9.94268e-05
9.94268e-05
9.60897e-05
9.60897e-05
9.60897e-05
8.68826e-05
8.68826e-05
8.68826e-05
8.19296e-05
8.19296e-05
8.19296e-05
8.46784e-05
8.46784e-05
8.46784e-05
9.36412e-05
9.36412e-05
9.36412e-05
0.000276543
0.000276543
0.000276543
0.000308289
0.000308289
0.000308289
0.000331872
0.000331872
0.000331872
0.000334263
0.000334263
0.000334263
4.61812e-05
4.61812e-05
4.61812e-05
7.46029e-05
7.46029e-05
7.46029e-05
4.86536e-05
4.86536e-05
4.86536e-05
0.000150376
0.000150376
0.000150376
0.000114766
0.000114766
0.000114766
0.000141029
0.000141029
0.000141029
0.000122952
0.000122952
0.000122952
0.000240455
0.000240455
0.000240455
0.000151482
0.000151482
0.000151482
0.000157647
0.000157647
0.000157647
0.000236919
0.000236919
0.000236919
0.000288635
0.000288635
0.000288635
0.000290681
0.000290681
0.000290681
0.00033902
0.00033902
0.00033902
0.00035474
0.00035474
0.00035474
0.000104158
0.000104158
0.000104158
0.000115001
0.000115001
0.000115001
6.52e-05
6.52e-05
6.52e-05
6.71568e-05
6.71568e-05
6.71568e-05
0.000107628
0.000107628
0.000107628
0.000100319
0.000100319
0.000100319
5.77026e-05
5.77026e-05
5.77026e-05
5.94226e-05
5.94226e-05
5.94226e-05
5.58984e-05
5.58984e-05
5.58984e-05
5.27535e-05
5.27535e-05
5.27535e-05
4.98999e-05
4.98999e-05
4.98999e-05
5.11083e-05
5.11083e-05
5.11083e-05
0.000120155
0.000120155
0.000120155
0.000146207
0.000146207
0.000146207
0.000138219
0.000138219
0.000138219
0.000125107
0.000125107
0.000125107
8.86816e-05
8.86816e-05
8.86816e-05
9.17394e-05
9.17394e-05
9.17394e-05
0.000142135
0.000142135
0.000142135
0.000105265
0.000105265
0.000105265
0.000116826
0.000116826
0.000116826
0.000153833
0.000153833
0.000153833
0.000108748
0.000108748
0.000108748
0.000119755
0.000119755
0.000119755
0.00013737
0.00013737
0.00013737
0.000158367
0.000158367
0.000158367
0.000149967
0.000149967
0.000149967
0.000162476
0.000162476
0.000162476
0.00015426
0.00015426
0.00015426
8.17187e-05
8.17187e-05
8.17187e-05
0.000107716
0.000107716
0.000107716
0.000116416
0.000116416
0.000116416
0.000119198
0.000119198
0.000119198
8.24193e-05
8.24193e-05
8.24193e-05
0.000100824
0.000100824
0.000100824
8.86219e-05
8.86219e-05
8.86219e-05
0.000148582
0.000148582
0.000148582
0.0001478
0.0001478
0.0001478
0.000142897
0.000142897
0.000142897
0.000118017
0.000118017
0.000118017
0.000118278
0.000118278
0.000118278
0.000100694
0.000100694
0.000100694
9.70391e-05
9.70391e-05
9.70391e-05
8.74818e-05
8.74818e-05
8.74818e-05
8.18654e-05
8.18654e-05
8.18654e-05
7.1815e-05
7.1815e-05
7.1815e-05
7.39787e-05
7.39787e-05
7.39787e-05
0.00052421
0.00052421
0.00052421
0.000559737
0.000559737
0.000559737
0.000556322
0.000556322
0.000556322
0.000490487
0.000490487
0.000490487
0.000509405
0.000509405
0.000509405
0.000512878
0.000512878
0.000512878
0.000441728
0.000441728
0.000441728
0.000447763
0.000447763
0.000447763
7.32044e-05
7.32044e-05
7.32044e-05
8.72334e-05
8.72334e-05
8.72334e-05
0.000118424
0.000118424
0.000118424
0.000117102
0.000117102
0.000117102
0.000149882
0.000149882
0.000149882
0.00014272
0.00014272
0.00014272
0.000150484
0.000150484
0.000150484
0.000201439
0.000201439
0.000201439
0.000183531
0.000183531
0.000183531
0.000119625
0.000119625
0.000119625
0.000123452
0.000123452
0.000123452
0.000143131
0.000143131
0.000143131
0.000158308
0.000158308
0.000158308
0.000169872
0.000169872
0.000169872
0.000198003
0.000198003
0.000198003
0.00019251
0.00019251
0.00019251
0.000178006
0.000178006
0.000178006
0.000169535
0.000169535
0.000169535
0.000184205
0.000184205
0.000184205
0.000176632
0.000176632
0.000176632
0.000189581
0.000189581
0.000189581
0.000187877
0.000187877
0.000187877
0.000174363
0.000174363
0.000174363
0.000180316
0.000180316
0.000180316
0.000199195
0.000199195
0.000199195
0.000199056
0.000199056
0.000199056
0.000193748
0.000193748
0.000193748
0.000190901
0.000190901
0.000190901
0.000116251
0.000116251
0.000116251
0.000118563
0.000118563
0.000118563
0.000118768
0.000118768
0.000118768
0.000118401
0.000118401
0.000118401
9.4635e-05
9.4635e-05
9.4635e-05
0.000104609
0.000104609
0.000104609
8.97745e-05
8.97745e-05
8.97745e-05
0.000109296
0.000109296
0.000109296
0.000104474
0.000104474
0.000104474
9.44746e-05
9.44746e-05
9.44746e-05
0.000104204
0.000104204
0.000104204
0.000119217
0.000119217
0.000119217
0.000109239
0.000109239
0.000109239
0.000116654
0.000116654
0.000116654
0.000109259
0.000109259
0.000109259
0.000116849
0.000116849
0.000116849
7.67431e-05
7.67431e-05
7.67431e-05
8.0778e-05
8.0778e-05
8.0778e-05
6.62348e-05
6.62348e-05
6.62348e-05
6.02034e-05
6.02034e-05
6.02034e-05
6.62065e-05
6.62065e-05
6.62065e-05
6.95111e-05
6.95111e-05
6.95111e-05
5.75676e-05
5.75676e-05
5.75676e-05
6.02368e-05
6.02368e-05
6.02368e-05
4.41286e-05
4.41286e-05
4.41286e-05
4.59517e-05
4.59517e-05
4.59517e-05
5.01551e-05
5.01551e-05
5.01551e-05
5.2431e-05
5.2431e-05
5.2431e-05
5.01266e-05
5.01266e-05
5.01266e-05
4.41166e-05
4.41166e-05
4.41166e-05
4.59352e-05
4.59352e-05
4.59352e-05
6.01993e-05
6.01993e-05
6.01993e-05
0.000184554
0.000184554
0.000184554
0.000144587
0.000144587
0.000144587
0.000180926
0.000180926
0.000180926
0.000168309
0.000168309
0.000168309
0.000163668
0.000163668
0.000163668
0.00016807
0.00016807
0.00016807
0.000151723
0.000151723
0.000151723
0.000164442
0.000164442
0.000164442
0.000162531
0.000162531
0.000162531
0.000169716
0.000169716
0.000169716
4.04174e-05
4.04174e-05
4.04174e-05
0.000109927
0.000109927
0.000109927
3.88244e-05
3.88244e-05
3.88244e-05
0.000126909
0.000126909
0.000126909
0.000136688
0.000136688
0.000136688
0.000108588
0.000108588
0.000108588
3.88469e-05
3.88469e-05
3.88469e-05
3.88477e-05
3.88477e-05
3.88477e-05
3.5827e-05
3.5827e-05
3.5827e-05
3.44038e-05
3.44038e-05
3.44038e-05
3.58391e-05
3.58391e-05
3.58391e-05
2.3308e-05
2.3308e-05
2.3308e-05
0.000122861
0.000122861
0.000122861
0.000108232
0.000108232
0.000108232
3.43e-05
3.43e-05
3.43e-05
3.51504e-05
3.51504e-05
3.51504e-05
5.95982e-05
5.95982e-05
5.95982e-05
3.01603e-05
3.01603e-05
3.01603e-05
3.05979e-05
3.05979e-05
3.05979e-05
3.11285e-05
3.11285e-05
3.11285e-05
5.73178e-05
5.73178e-05
5.73178e-05
3.35343e-05
3.35343e-05
3.35343e-05
5.79757e-05
5.79757e-05
5.79757e-05
0.000136965
0.000136965
0.000136965
0.000135636
0.000135636
0.000135636
7.68201e-05
7.68201e-05
7.68201e-05
8.0873e-05
8.0873e-05
8.0873e-05
8.96461e-05
8.96461e-05
8.96461e-05
9.43854e-05
9.43854e-05
9.43854e-05
8.95342e-05
8.95342e-05
8.95342e-05
8.07851e-05
8.07851e-05
8.07851e-05
5.02375e-05
5.02375e-05
5.02375e-05
5.01917e-05
5.01917e-05
5.01917e-05
5.25296e-05
5.25296e-05
5.25296e-05
4.60199e-05
4.60199e-05
4.60199e-05
3.91927e-05
3.91927e-05
3.91927e-05
4.65476e-05
4.65476e-05
4.65476e-05
4.47787e-05
4.47787e-05
4.47787e-05
4.43729e-05
4.43729e-05
4.43729e-05
3.5979e-05
3.5979e-05
3.5979e-05
3.90724e-05
3.90724e-05
3.90724e-05
3.90098e-05
3.90098e-05
3.90098e-05
4.06113e-05
4.06113e-05
4.06113e-05
5.03567e-05
5.03567e-05
5.03567e-05
4.61219e-05
4.61219e-05
4.61219e-05
4.61251e-05
4.61251e-05
4.61251e-05
4.43141e-05
4.43141e-05
4.43141e-05
5.77201e-05
5.77201e-05
5.77201e-05
5.27145e-05
5.27145e-05
5.27145e-05
5.27953e-05
5.27953e-05
5.27953e-05
5.04302e-05
5.04302e-05
5.04302e-05
2.07857e-05
2.07857e-05
2.07857e-05
1.93387e-05
1.93387e-05
1.93387e-05
2.13536e-05
2.13536e-05
2.13536e-05
2.17811e-05
2.17811e-05
2.17811e-05
2.44211e-05
2.44211e-05
2.44211e-05
2.60913e-05
2.60913e-05
2.60913e-05
2.23673e-05
2.23673e-05
2.23673e-05
2.38061e-05
2.38061e-05
2.38061e-05
2.44889e-05
2.44889e-05
2.44889e-05
2.51155e-05
2.51155e-05
2.51155e-05
3.53485e-05
3.53485e-05
3.53485e-05
3.21034e-05
3.21034e-05
3.21034e-05
3.01483e-05
3.01483e-05
3.01483e-05
3.12441e-05
3.12441e-05
3.12441e-05
3.28925e-05
3.28925e-05
3.28925e-05
2.93417e-05
2.93417e-05
2.93417e-05
2.86629e-05
2.86629e-05
2.86629e-05
3.73614e-05
3.73614e-05
3.73614e-05
3.63087e-05
3.63087e-05
3.63087e-05
4.06153e-05
4.06153e-05
4.06153e-05
4.25911e-05
4.25911e-05
4.25911e-05
2.94394e-05
2.94394e-05
2.94394e-05
2.81148e-05
2.81148e-05
2.81148e-05
2.67875e-05
2.67875e-05
2.67875e-05
2.7395e-05
2.7395e-05
2.7395e-05
3.29633e-05
3.29633e-05
3.29633e-05
3.09537e-05
3.09537e-05
3.09537e-05
3.02156e-05
3.02156e-05
3.02156e-05
2.82809e-05
2.82809e-05
2.82809e-05
2.88367e-05
2.88367e-05
2.88367e-05
2.95598e-05
2.95598e-05
2.95598e-05
3.17677e-05
3.17677e-05
3.17677e-05
5.62336e-05
5.62336e-05
5.62336e-05
5.13738e-05
5.13738e-05
5.13738e-05
4.14598e-05
4.14598e-05
4.14598e-05
4.73736e-05
4.73736e-05
4.73736e-05
5.15148e-05
5.15148e-05
5.15148e-05
4.6095e-05
4.6095e-05
4.6095e-05
4.49514e-05
4.49514e-05
4.49514e-05
5.28213e-05
5.28213e-05
5.28213e-05
5.01238e-05
5.01238e-05
5.01238e-05
2.61007e-05
2.61007e-05
2.61007e-05
2.66569e-05
2.66569e-05
2.66569e-05
1.40697e-05
1.40697e-05
1.40697e-05
8.80743e-06
8.80743e-06
8.80743e-06
1.038e-05
1.038e-05
1.038e-05
1.10858e-05
1.10858e-05
1.10858e-05
1.09771e-05
1.09771e-05
1.09771e-05
1.98653e-05
1.98653e-05
1.98653e-05
1.89552e-05
1.89552e-05
1.89552e-05
3.06911e-05
3.06911e-05
3.06911e-05
3.17713e-05
3.17713e-05
3.17713e-05
8.80774e-06
8.80774e-06
8.80774e-06
1.36867e-05
1.36867e-05
1.36867e-05
2.84658e-05
2.84658e-05
2.84658e-05
1.52719e-05
1.52719e-05
1.52719e-05
1.24591e-05
1.24591e-05
1.24591e-05
4.00483e-05
4.00483e-05
4.00483e-05
3.02178e-05
3.02178e-05
3.02178e-05
2.00595e-05
2.00595e-05
2.00595e-05
2.11741e-05
2.11741e-05
2.11741e-05
2.30732e-05
2.30732e-05
2.30732e-05
2.26189e-05
2.26189e-05
2.26189e-05
1.45055e-05
1.45055e-05
1.45055e-05
1.20826e-05
1.20826e-05
1.20826e-05
1.17697e-05
1.17697e-05
1.17697e-05
1.14281e-05
1.14281e-05
1.14281e-05
1.13109e-05
1.13109e-05
1.13109e-05
1.72327e-05
1.72327e-05
1.72327e-05
1.88808e-05
1.88808e-05
1.88808e-05
1.85186e-05
1.85186e-05
1.85186e-05
1.56132e-05
1.56132e-05
1.56132e-05
1.49769e-05
1.49769e-05
1.49769e-05
1.5129e-05
1.5129e-05
1.5129e-05
1.64104e-05
1.64104e-05
1.64104e-05
2.2558e-05
2.2558e-05
2.2558e-05
2.11936e-05
2.11936e-05
2.11936e-05
1.06131e-05
1.06131e-05
1.06131e-05
1.07232e-05
1.07232e-05
1.07232e-05
1.01903e-05
1.01903e-05
1.01903e-05
9.56866e-06
9.56866e-06
9.56866e-06
9.65376e-06
9.65376e-06
9.65376e-06
1.00912e-05
1.00912e-05
1.00912e-05
1.04561e-05
1.04561e-05
1.04561e-05
1.10379e-05
1.10379e-05
1.10379e-05
1.11176e-05
1.11176e-05
1.11176e-05
0.000254093
0.000254093
0.000254093
0.000229087