<VTKFile type="UnstructuredGrid" version="1.0">
<UnstructuredGrid>
<Piece NumberOfPoints="10830" NumberOfCells="3610">
<Points>
<DataArray type="Float64" NumberOfComponents="3" format="ascii">
3.10314 1.29552 13.6107
3.11025 1.28841 13.585
3.11025 1.28841 13.6365
3.11025 1.28841 14.1401
3.11025 1.28841 14.191
3.10226 1.2964 14.1655
3.11025 1.28841 14.1401
3.10226 1.2964 14.1655
3.09025 1.30841 14.1401
2.21656 2.1821 14.6126
2.22913 2.16953 14.63
2.19928 2.19938 14.63
2.19928 2.19938 14.63
2.19928 2.19938 14.5998
2.21656 2.1821 14.6126
3.11025 1.28841 14.1401
3.09025 1.30841 14.1401
3.10227 1.29639 14.1147
2.20538 2.19328 13.8618
2.19928 2.19938 13.887
2.19928 2.19938 13.8366
3.10229 1.29637 13.8619
3.11025 1.28841 13.8871
3.09026 1.3084 13.8871
3.10214 1.29652 13.7613
3.11025 1.28841 13.7363
3.11025 1.28841 13.7864
3.09026 1.3084 13.8871
3.11025 1.28841 13.8871
3.1023 1.29636 13.9123
3.11025 1.28841 13.8871
3.11025 1.28841 13.9375
3.1023 1.29636 13.9123
3.09026 1.3084 13.9376
3.1023 1.29636 13.9123
3.11025 1.28841 13.9375
3.09025 1.30841 14.0893
3.10227 1.29639 14.1147
3.08043 1.31823 14.1147
3.08043 1.31823 14.1147
3.10227 1.29639 14.1147
3.09025 1.30841 14.1401
3.08043 1.31823 14.1147
3.06939 1.32927 14.0893
3.09025 1.30841 14.0893
3.08043 1.31823 14.1147
3.09025 1.30841 14.1401
3.06938 1.32928 14.1401
3.11025 1.28841 13.988
3.11025 1.28841 14.0386
3.10229 1.29637 14.0133
3.10229 1.29637 14.0133
3.09026 1.3084 14.0386
3.08044 1.31822 14.0133
3.11025 1.28841 14.0386
3.09026 1.3084 14.0386
3.10229 1.29637 14.0133
3.11025 1.28841 14.0893
3.10227 1.29639 14.1147
3.09025 1.30841 14.0893
3.11025 1.28841 14.1401
3.10227 1.29639 14.1147
3.11025 1.28841 14.0893
3.0901 1.30856 13.7363
3.11025 1.28841 13.7363
3.10214 1.29652 13.7613
3.09024 1.30842 14.191
3.10226 1.2964 14.1655
3.11025 1.28841 14.191
2.80657 1.59209 14.3707
2.81699 1.58167 14.345
2.8274 1.57126 14.3707
2.19928 2.19938 13.585
2.21889 2.17977 13.585
2.20626 2.1924 13.6097
2.25868 2.13998 13.8366
2.23814 2.16052 13.8366
2.24806 2.1506 13.8114
2.21801 2.18065 13.8366
2.23814 2.16052 13.8366
2.22704 2.17162 13.8618
2.21801 2.18065 13.8366
2.20538 2.19328 13.8618
2.19928 2.19938 13.8366
2.22704 2.17162 13.8618
2.20538 2.19328 13.8618
2.21801 2.18065 13.8366
2.20547 2.19319 14.0639
2.19928 2.19938 14.0893
2.19928 2.19938 14.0386
2.21807 2.1806 14.0893
2.22712 2.17155 14.0639
2.23821 2.16045 14.0893
2.19928 2.19938 14.0893
2.20547 2.19319 14.0639
2.21807 2.1806 14.0893
2.21807 2.1806 14.0893
2.20547 2.19319 14.0639
2.22712 2.17155 14.0639
2.21805 2.18061 14.0386
2.2382 2.16046 14.0386
2.22712 2.17155 14.0639
2.21805 2.18061 14.0386
2.20547 2.19319 14.0639
2.19928 2.19938 14.0386
2.22712 2.17155 14.0639
2.20547 2.19319 14.0639
2.21805 2.18061 14.0386
2.19928 2.19938 13.887
2.20538 2.19328 13.8618
2.21802 2.18064 13.887
2.21802 2.18064 13.887
2.20538 2.19328 13.8618
2.22704 2.17162 13.8618
2.23821 2.16045 14.0893
2.22712 2.17155 14.0639
2.24816 2.15051 14.0639
2.22712 2.17155 14.0639
2.2382 2.16046 14.0386
2.24816 2.15051 14.0639
2.40353 1.99513 14.0387
2.41386 1.9848 14.064
2.3932 2.00546 14.064
2.3932 2.00546 14.064
2.41386 1.9848 14.064
2.40354 1.99512 14.0894
2.40354 1.99512 14.0894
2.41386 1.9848 14.064
2.4242 1.97446 14.0894
2.79618 1.60248 14.345
2.81699 1.58167 14.345
2.80657 1.59209 14.3707
3.10224 1.29642 13.8116
3.11025 1.28841 13.7864
3.11025 1.28841 13.8367
3.11025 1.28841 13.8871
3.10229 1.29637 13.8619
3.11025 1.28841 13.8367
3.02715 1.37151 13.9881
3.006 1.39266 13.9881
3.01659 1.38207 13.9628
3.09026 1.3084 13.9881
3.10229 1.29637 14.0133
3.08044 1.31822 14.0133
3.11025 1.28841 13.988
3.10229 1.29637 14.0133
3.09026 1.3084 13.9881
3.08044 1.31822 14.0133
3.09026 1.3084 14.0386
3.0694 1.32926 14.0386
3.10228 1.29638 14.0639
3.09026 1.3084 14.0386
3.11025 1.28841 14.0386
3.11025 1.28841 14.0386
3.11025 1.28841 14.0893
3.10228 1.29638 14.0639
3.10228 1.29638 14.0639
3.11025 1.28841 14.0893
3.09025 1.30841 14.0893
3.08027 1.31839 13.7614
3.0901 1.30856 13.7363
3.10214 1.29652 13.7613
3.10224 1.29642 13.8116
3.11025 1.28841 13.8367
3.09024 1.30842 13.8367
3.09024 1.30842 13.8367
3.11025 1.28841 13.8367
3.10229 1.29637 13.8619
3.0165 1.38216 13.8116
3.00588 1.39278 13.7864
3.02702 1.37164 13.7864
3.04817 1.35049 13.7865
3.03759 1.36107 13.7613
3.05884 1.33982 13.7613
3.04817 1.35049 13.7865
3.02702 1.37164 13.7864
3.03759 1.36107 13.7613
3.08043 1.31823 13.8619
3.10229 1.29637 13.8619
3.09026 1.3084 13.8871
3.08043 1.31823 13.8619
3.09024 1.30842 13.8367
3.10229 1.29637 13.8619
3.08042 1.31824 14.1656
3.09025 1.30841 14.1401
3.10226 1.2964 14.1655
3.10226 1.2964 14.1655
3.09024 1.30842 14.191
3.08042 1.31824 14.1656
3.06938 1.32928 14.1401
3.09025 1.30841 14.1401
3.08042 1.31824 14.1656
3.08041 1.31825 14.3191
3.05901 1.33965 14.3191
3.06938 1.32928 14.2934
3.05901 1.33966 14.2677
3.08041 1.31825 14.2677
3.06938 1.32928 14.2934
3.10225 1.29641 14.2165
3.09024 1.30842 14.191
3.11025 1.28841 14.191
3.08041 1.31825 14.2166
3.09024 1.30842 14.191
3.10225 1.29641 14.2165
2.84822 1.55044 14.4223
2.85863 1.54003 14.4482
2.83776 1.5609 14.4482
2.96373 1.43493 14.2934
2.97428 1.42438 14.2678
2.98483 1.41383 14.2934
2.98483 1.41383 14.2934
2.97428 1.42438 14.2678
2.9954 1.40326 14.2678
3.06938 1.32929 14.2421
3.05901 1.33965 14.2166
3.08041 1.31825 14.2166
3.06938 1.32929 14.2421
3.08041 1.31825 14.2677
3.05901 1.33966 14.2677
2.95319 1.44547 14.2678
2.97428 1.42438 14.2678
2.96373 1.43493 14.2934
2.90067 1.49799 14.0387
2.87971 1.51895 14.0387
2.89018 1.50848 14.0134
2.84833 1.55033 14.0134
2.83789 1.56077 14.0387
2.82746 1.5712 14.0134
2.85878 1.53988 14.0387
2.83789 1.56077 14.0387
2.84833 1.55033 14.0134
2.83788 1.56078 13.9377
2.85877 1.53989 13.9377
2.84833 1.55034 13.9629
2.84833 1.55034 13.9629
2.82745 1.57121 13.9629
2.83788 1.56078 13.9377
2.83788 1.56078 13.9377
2.82745 1.57121 13.9629
2.81702 1.58164 13.9376
2.84833 1.55034 13.9629
2.85877 1.53989 13.9377
2.86924 1.52943 13.9629
2.87968 1.51898 13.8872
2.89017 1.50849 13.9124
2.86922 1.52944 13.9124
2.86922 1.52944 13.9124
2.85875 1.53991 13.8872
2.87968 1.51898 13.8872
2.72357 1.6751 14.0641
2.73392 1.66474 14.0387
2.74429 1.65437 14.0641
2.73392 1.66474 14.0387
2.75466 1.644 14.0388
2.74429 1.65437 14.0641
2.83789 1.56077 13.9882
2.82745 1.57121 13.9629
2.84833 1.55034 13.9629
2.83789 1.56077 13.9882
2.84833 1.55033 14.0134
2.82746 1.5712 14.0134
2.82746 1.5712 14.0134
2.80662 1.59204 14.0134
2.81703 1.58163 13.9882
2.81703 1.58163 13.9882
2.83789 1.56077 13.9882
2.82746 1.5712 14.0134
2.82745 1.57121 13.9629
2.83789 1.56077 13.9882
2.81703 1.58163 13.9882
2.81702 1.58164 13.9376
2.7962 1.60246 13.9376
2.8066 1.59206 13.9124
2.79618 1.60248 13.8872
2.81701 1.58166 13.8872
2.8066 1.59206 13.9124
2.42419 1.97447 14.0387
2.41386 1.9848 14.064
2.40353 1.99513 14.0387
2.40353 1.99513 14.0387
2.41385 1.98481 14.0134
2.42419 1.97447 14.0387
2.20539 2.19327 13.6599
2.19928 2.19938 13.6851
2.19928 2.19938 13.6344
2.19928 2.19938 13.585
2.20626 2.1924 13.6097
2.19928 2.19938 13.6344
2.21797 2.1807 13.7357
2.19928 2.19938 13.7357
2.20528 2.19338 13.7104
2.19928 2.19938 13.7357
2.19928 2.19938 13.6851
2.20528 2.19338 13.7104
3.11025 1.28841 13.585
3.10314 1.29552 13.6107
3.0911 1.30756 13.585
2.19928 2.19938 13.8366
2.19928 2.19938 13.7861
2.20536 2.19331 13.8114
2.20536 2.19331 13.8114
2.21801 2.18065 13.8366
2.19928 2.19938 13.8366
2.21799 2.18067 13.7861
2.20536 2.19331 13.8114
2.19928 2.19938 13.7861
2.21799 2.18067 13.7861
2.22698 2.17168 13.7609
2.23811 2.16055 13.7862
2.22702 2.17165 13.8114
2.24806 2.1506 13.8114
2.23814 2.16052 13.8366
2.23814 2.16052 13.8366
2.21801 2.18065 13.8366
2.22702 2.17165 13.8114
2.23811 2.16055 13.7862
2.24806 2.1506 13.8114
2.22702 2.17165 13.8114
2.22702 2.17165 13.8114
2.21799 2.18067 13.7861
2.23811 2.16055 13.7862
2.21801 2.18065 13.8366
2.20536 2.19331 13.8114
2.22702 2.17165 13.8114
2.20536 2.19331 13.8114
2.21799 2.18067 13.7861
2.22702 2.17165 13.8114
2.20532 2.19334 13.7609
2.19928 2.19938 13.7861
2.19928 2.19938 13.7357
2.20532 2.19334 13.7609
2.19928 2.19938 13.7357
2.21797 2.1807 13.7357
2.21797 2.1807 13.7357
2.22698 2.17168 13.7609
2.20532 2.19334 13.7609
2.20532 2.19334 13.7609
2.21799 2.18067 13.7861
2.19928 2.19938 13.7861
2.22698 2.17168 13.7609
2.21799 2.18067 13.7861
2.20532 2.19334 13.7609
2.24814 2.15052 14.0133
2.2382 2.16046 14.0386
2.2271 2.17156 14.0133
2.2382 2.16046 14.0386
2.21805 2.18061 14.0386
2.2271 2.17156 14.0133
2.2271 2.17156 14.0133
2.23819 2.16048 13.988
2.24814 2.15052 14.0133
2.24809 2.15058 13.8618
2.23814 2.16052 13.8366
2.25868 2.13998 13.8366
2.22704 2.17162 13.8618
2.23814 2.16052 13.8366
2.24809 2.15058 13.8618
2.26891 2.12975 13.8618
2.24809 2.15058 13.8618
2.25868 2.13998 13.8366
2.2587 2.13996 13.887
2.24809 2.15058 13.8618
2.26891 2.12975 13.8618
2.2587 2.13996 13.887
2.26891 2.12975 13.8618
2.27936 2.1193 13.887
2.41384 1.98482 13.9628
2.42418 1.97448 13.9881
2.40352 1.99515 13.9881
2.40352 1.99515 13.9881
2.42418 1.97448 13.9881
2.41385 1.98481 14.0134
2.33114 2.06753 14.0133
2.35183 2.04683 14.0133
2.34149 2.05717 14.0386
2.34148 2.05718 13.988
2.35183 2.04683 14.0133
2.33114 2.06753 14.0133
2.35182 2.04684 13.9628
2.34147 2.05719 13.9375
2.36216 2.03651 13.9375
2.34148 2.05718 13.988
2.33112 2.06754 13.9628
2.35182 2.04684 13.9628
2.35182 2.04684 13.9628
2.33112 2.06754 13.9628
2.34147 2.05719 13.9375
2.35184 2.04682 14.064
2.37253 2.02613 14.064
2.3622 2.03646 14.0893
2.31047 2.08819 14.1147
2.32082 2.07785 14.0893
2.33117 2.06749 14.1147
2.3208 2.07786 14.0386
2.33114 2.06753 14.0133
2.34149 2.05717 14.0386
2.31043 2.08823 14.0133
2.33114 2.06753 14.0133
2.3208 2.07786 14.0386
2.23821 2.16045 14.0893
2.24816 2.15051 14.0639
2.25876 2.1399 14.0893
2.24814 2.15052 14.0133
2.23819 2.16048 13.988
2.25873 2.13993 13.988
2.25873 2.13993 13.988
2.26896 2.1297 14.0133
2.24814 2.15052 14.0133
2.30008 2.09858 13.988
2.31043 2.08823 14.0133
2.28971 2.10895 14.0133
2.25874 2.13992 14.0386
2.24816 2.15051 14.0639
[...]
<PointData Scalars="View Factor" >
<DataArray type="Float64" Name="View Factor" NumberOfComponents="1" format="ascii">
0.0114496
0.0114496
0.0114496
0.0184728
0.0184728
0.0184728
0.0180822
0.0180822
0.0180822
0.00458869
0.00458869
0.00458869
0.00322374
0.00322374
0.00322374
0.0178068
0.0178068
0.0178068
0.000943451
0.000943451
0.000943451
0.0142478
0.0142478
0.0142478
0.0129711
0.0129711
0.0129711
0.014456
0.014456
0.014456
0.0147564
0.0147564
0.0147564
0.0148831
0.0148831
0.0148831
0.0172478
0.0172478
0.0172478
0.0175127
0.0175127
0.0175127
0.0169453
0.0169453
0.0169453
0.0174701
0.0174701
0.0174701
0.0161187
0.0161187
0.0161187
0.0159962
0.0159962
0.0159962
0.0162627
0.0162627
0.0162627
0.0172726
0.0172726
0.0172726
0.0176424
0.0176424
0.0176424
0.0127123
0.0127123
0.0127123
0.0186489
0.0186489
0.0186489
0.00486904
0.00486904
0.00486904
0.000970669
0.000970669
0.000970669
0.00332823
0.00332823
0.00332823
0.00369202
0.00369202
0.00369202
0.00124108
0.00124108
0.00124108
0.0021961
0.0021961
0.0021961
0.00123871
0.00123871
0.00123871
0.0046059
0.0046059
0.0046059
0.00169678
0.00169678
0.00169678
0.00283605
0.00283605
0.00283605
0.00445099
0.00445099
0.00445099
0.00160785
0.00160785
0.00160785
0.0027741
0.0027741
0.0027741
0.00129022
0.00129022
0.00129022
0.00223537
0.00223537
0.00223537
0.00439184
0.00439184
0.00439184
0.0043204
0.0043204
0.0043204
0.000328241
0.000328241
0.000328241
0.00036343
0.00036343
0.00036343
0.000385777
0.000385777
0.000385777
0.00440141
0.00440141
0.00440141
0.0135342
0.0135342
0.0135342
0.0141289
0.0141289
0.0141289
0.0142642
0.0142642
0.0142642
0.01576
0.01576
0.01576
0.0157859
0.0157859
0.0157859
0.0159537
0.0159537
0.0159537
0.0165081
0.0165081
0.0165081
0.0168589
0.0168589
0.0168589
0.0170127
0.0170127
0.0170127
0.0126845
0.0126845
0.0126845
0.0136459
0.0136459
0.0136459
0.0138433
0.0138433
0.0138433
0.0121339
0.0121339
0.0121339
0.0123445
0.0123445
0.0123445
0.0122786
0.0122786
0.0122786
0.0140171
0.0140171
0.0140171
0.0138164
0.0138164
0.0138164
0.0180585
0.0180585
0.0180585
0.0183395
0.0183395
0.0183395
0.0177405
0.0177405
0.0177405
0.0203993
0.0203993
0.0203993
0.0197573
0.0197573
0.0197573
0.0189411
0.0189411
0.0189411
0.0189186
0.0189186
0.0189186
0.0138929
0.0138929
0.0138929
0.0175788
0.0175788
0.0175788
0.0177214
0.0177214
0.0177214
0.0188423
0.0188423
0.0188423
0.0194459
0.0194459
0.0194459
0.0170884
0.0170884
0.0170884
0.0112603
0.0112603
0.0112603
0.0033414
0.0033414
0.0033414
0.00612792
0.00612792
0.00612792
0.00562342
0.00562342
0.00562342
0.00308763
0.00308763
0.00308763
0.000221122
0.000221122
0.000221122
0.00743751
0.00743751
0.00743751
0.00926068
0.00926068
0.00926068
0.00828509
0.00828509
0.00828509
0.000407385
0.000407385
0.000407385
0.000392364
0.000392364
0.000392364
0.00314062
0.00314062
0.00314062
0.0032722
0.0032722
0.0032722
0.000323356
0.000323356
0.000323356
0.00030975
0.00030975
0.00030975
0.000278655
0.000278655
0.000278655
0.000196035
0.000196035
0.000196035
0.000154908
0.000154908
0.000154908
0.000313968
0.000313968
0.000313968
0.000284209
0.000284209
0.000284209
0.000760505
0.000760505
0.000760505
0.000748083
0.000748083
0.000748083
0.00109331
0.00109331
0.00109331
0.000804833
0.000804833
0.000804833
0.0112245
0.0112245
0.0112245
0.000891914
0.000891914
0.000891914
0.00121782
0.00121782
0.00121782
0.00117394
0.00117394
0.00117394
0.00348727
0.00348727
0.00348727
0.00347443
0.00347443
0.00347443
0.00363769
0.00363769
0.00363769
0.00342359
0.00342359
0.00342359
0.00353696
0.00353696
0.00353696
0.00212294
0.00212294
0.00212294
0.0020866
0.0020866
0.0020866
0.000845011
0.000845011
0.000845011
0.00111262
0.00111262
0.00111262
0.00195485
0.00195485
0.00195485
0.00115309
0.00115309
0.00115309
0.00198758
0.00198758
0.00198758
0.00418204
0.00418204
0.00418204
0.0043781
0.0043781
0.0043781
0.00411539
0.00411539
0.00411539
0.00337831
0.00337831
0.00337831
0.00357672
0.00357672
0.00357672
0.00322073
0.00322073
0.00322073
0.00327278
0.00327278
0.00327278
0.00301232
0.00301232
0.00301232
0.000206969
0.000206969
0.000206969
0.000230332
0.000230332
0.000230332
0.000270115
0.000270115
0.000270115
0.000243016
0.000243016
0.000243016
0.000166206
0.000166206
0.000166206
0.000196107
0.000196107
0.000196107
0.000177688
0.000177688
0.000177688
0.000363599
0.000363599
0.000363599
0.000446588
0.000446588
0.000446588
0.000284564
0.000284564
0.000284564
0.000270214
0.000270214
0.000270214
0.00424314
0.00424314
0.00424314
0.003905
0.003905
0.003905
0.00374401
0.00374401
0.00374401
0.000243152
0.000243152
0.000243152
0.00410455
0.00410455
0.00410455
0.00403722
0.00403722
0.00403722
0.00381123
0.00381123
0.00381123
0.000693403
0.000693403
0.000693403
0.00889472
0.00889472
0.00889472
0.00466682
0.00466682
0.00466682
0.000314052
0.000314052
0.000314052
0.000328418
0.000328418
0.000328418
0.000427087
0.000427087
0.000427087
0.000385867
0.000385867
0.000385867
0.000385942
0.000385942
0.000385942
0.000363534
0.000363534
0.000363534
0.000427339
0.000427339
0.000427339
0.000447111
0.000447111
0.000447111
0.00052264
0.00052264
0.00052264
0.000497342
0.000497342
0.000497342
0.000497037
0.000497037
0.000497037
0.000446946
0.000446946
0.000446946
0.000696504
0.000696504
0.000696504
0.000833882
0.000833882
0.000833882
0.000888977
0.000888977
0.000888977
0.00107064
0.00107064
0.00107064
0.00100593
0.00100593
0.00100593
0.000497519
0.000497519
0.000497519
0.000426734
0.000426734
0.000426734
0.000447908
0.000447908
0.000447908
0.00396677
0.00396677
0.00396677
0.00438659
0.00438659
0.00438659
0.00475016
0.00475016
0.00475016
0.00429384
0.00429384
0.00429384
0.00334945
0.00334945
0.00334945
0.00311926
0.00311926
0.00311926
0.00201081
0.00201081
0.00201081
0.0036198
0.0036198
0.0036198
0.00193449
0.00193449
0.00193449
0.00262146
0.00262146
0.00262146
0.000673164
0.000673164
0.000673164
0.000244032
0.000244032
0.000244032
0.00414473
0.00414473
0.00414473
0.00499842
0.00499842
0.00499842
0.0043163
0.0043163
0.0043163
0.00273201
0.00273201
0.00273201
0.00449055
0.00449055
0.00449055
0.00520079
0.00520079
0.00520079
0.00661895
0.00661895
0.00661895
0.000254652
0.000254652
0.000254652
0.00284444
0.00284444
0.00284444
0.00201581
0.00201581
0.00201581
0.000701935
0.000701935
0.000701935
0.000265488
0.000265488
0.000265488
0.000310979
0.000310979
0.000310979
0.0246748
0.0246748
0.0246748
0.0166487
0.0166487
0.0166487
0.0163987
0.0163987
0.0163987
0.0177217
0.0177217
0.0177217
0.0172159
0.0172159
0.0172159
0.0166116
0.0166116
0.0166116
0.0171693
0.0171693
0.0171693
0.0169094
0.0169094
0.0169094
0.0165524
0.0165524
0.0165524
0.00971092
0.00971092
0.00971092
0.00986626
0.00986626
0.00986626
0.0101046
0.0101046
0.0101046
0.0145307
0.0145307
0.0145307
0.0142325
0.0142325
0.0142325
0.0155538
0.0155538
0.0155538
0.0153
0.0153
0.0153
0.0154188
0.0154188
0.0154188
0.0151027
0.0151027
0.0151027
0.0150765
0.0150765
0.0150765
0.0160594
0.0160594
0.0160594
0.0163613
0.0163613
0.0163613
0.0166901
0.0166901
0.0166901
0.0161946
0.0161946
0.0161946
0.0164038
0.0164038
0.0164038
0.0161585
0.0161585
0.0161585
0.0167329
0.0167329
0.0167329
0.0164827
0.0164827
0.0164827
0.0132624
0.0132624
0.0132624
0.0130754
0.0130754
0.0130754
0.0128648
0.0128648
0.0128648
0.0125355
0.0125355
0.0125355
0.0119601
0.0119601
0.0119601
0.0120336
0.0120336
0.0120336
0.0135783
0.0135783
0.0135783
0.0131188
0.0131188
0.0131188
0.0135428
0.0135428
0.0135428
0.0133086
0.0133086
0.0133086
0.0182973
0.0182973
0.0182973
0.0185842
0.0185842
0.0185842
0.0185495
0.0185495
0.0185495
0.0207304
0.0207304
0.0207304
0.0209414
0.0209414
0.0209414
0.0189794
0.0189794
0.0189794
0.00581825
0.00581825
0.00581825
0.00379293
0.00379293
0.00379293
0.00450774
0.00450774
0.00450774
0.0178612
0.0178612
0.0178612
0.0184432
0.0184432
0.0184432
0.0197452
0.0197452
0.0197452
0.0194299
0.0194299
0.0194299
0.0133185
0.0133185
0.0133185
0.0141456
0.0141456
0.0141456
0.0136564
0.0136564
0.0136564
0.0137988
0.0137988
0.0137988
0.0148641
0.0148641
0.0148641
0.014519
0.014519
0.014519
0.0143645
0.0143645
0.0143645
0.0191753
0.0191753
0.0191753
0.0194797
0.0194797
0.0194797
0.0192168
0.0192168
0.0192168
0.0200339
0.0200339
0.0200339
0.0199721
0.0199721
0.0199721
0.0197158
0.0197158
0.0197158
0.0193428
0.0193428
0.0193428
0.0195482
0.0195482
0.0195482
0.0192378
0.0192378
0.0192378
0.0131067
0.0131067
0.0131067
0.0130703
0.0130703
0.0130703
0.0132811
0.0132811
0.0132811
0.0108777
0.0108777
0.0108777
0.000384228
0.000384228
0.000384228
0.000359533
0.000359533
0.000359533
0.00623949
0.00623949
0.00623949
0.000547945
0.000547945
0.000547945
0.000583145
0.000583145
0.000583145
0.000433413
0.000433413
0.000433413
0.000416774
0.000416774
0.000416774
0.000377216
0.000377216
0.000377216
0.000352831
0.000352831
0.000352831
0.00040883
0.00040883
0.00040883
0.000370033
0.000370033
0.000370033
0.000478749
0.000478749
0.000478749
0.000513765
0.000513765
0.000513765
0.000570263
0.000570263
0.000570263
0.000594931
0.000594931
0.000594931
0.000559217
0.000559217
0.000559217
0.000503897
0.000503897
0.000503897
0.00794952
0.00794952
0.00794952
0.00944336
0.00944336
0.00944336
0.010388
0.010388
0.010388
0.0102112
0.0102112
0.0102112
0.00116147
0.00116147
0.00116147
0.00066456
0.00066456
0.00066456
0.00109475
0.00109475
0.00109475
0.000199716
0.000199716
0.000199716
0.000157855
0.000157855
0.000157855
0.000186059
0.000186059
0.000186059
0.000165971
0.000165971
0.000165971
0.00536701
0.00536701
0.00536701
0.00292592
0.00292592
0.00292592
0.00297648
0.00297648
0.00297648
0.00553743
0.00553743
0.00553743
0.00720409
0.00720409
0.00720409
0.00709383
0.00709383
0.00709383
0.00987027
0.00987027
0.00987027
0.0106967
0.0106967
0.0106967
0.000285525
0.000285525
0.000285525
0.000256768
0.000256768
0.000256768
0.000493292
0.000493292
0.000493292
0.000462064
0.000462064
0.000462064
0.000293585
0.000293585
0.000293585
0.000306613
0.000306613
0.000306613
0.000583705
0.000583705
0.000583705
0.000549186
0.000549186
0.000549186
0.000567606
0.000567606
0.000567606
0.000658597
0.000658597
0.000658597
0.000682997
0.000682997
0.000682997
0.000640306
0.000640306
0.000640306
0.00035515
0.00035515
0.00035515
0.000286321
0.000286321
0.000286321
0.000298338
0.000298338
0.000298338
0.000331767
0.000331767
0.000331767
0.000483454
0.000483454
0.000483454
0.000449953
0.000449953
0.000449953
0.000280114
0.000280114
0.000280114
0.00038384
0.00038384
0.00038384
0.000347466
0.000347466
0.000347466
0.000257523
0.000257523
0.000257523
0.0001519
0.0001519
0.0001519
0.000162821
0.000162821
0.000162821
0.000182543
0.000182543
0.000182543
0.00030411
0.00030411
0.00030411
0.000317323
0.000317323
0.000317323
0.000268334
0.000268334
0.000268334
0.000298318
0.000298318
0.000298318
0.000116984
0.000116984
0.000116984
0.000148999
0.000148999
0.000148999
0.000165976
0.000165976
0.000165976
0.000177542
0.000177542
0.000177542
0.000117076
0.000117076
0.000117076
0.000140249
0.000140249
0.000140249
0.000124372
0.000124372
0.000124372
0.00291603
0.00291603
0.00291603
0.00312288
0.00312288
0.00312288
0.00287158
0.00287158
0.00287158
0.000176962
0.000176962
0.000176962
0.000194716
0.000194716
0.000194716
0.000277342
0.000277342
0.000277342
0.000298008
0.000298008
0.000298008
0.000329121
0.000329121
0.000329121
0.000340205
0.000340205
0.000340205
0.000405002
0.000405002
0.000405002
0.000375591
0.000375591
0.000375591
0.0103402
0.0103402
0.0103402
0.0112034
0.0112034
0.0112034
0.0110158
0.0110158
0.0110158
0.00958507
0.00958507
0.00958507
0.0106794
0.0106794
0.0106794
0.0105344
0.0105344
0.0105344
0.0108378
0.0108378
0.0108378
0.0105237
0.0105237
0.0105237
0.0013583
0.0013583
0.0013583
0.00174782
0.00174782
0.00174782
0.00114595
0.00114595
0.00114595
0.00156783
0.00156783
0.00156783
0.0026566
0.0026566
0.0026566
0.00106848
0.00106848
0.00106848
0.00139929
0.00139929
0.00139929
0.00404005
0.00404005
0.00404005
0.00244956
0.00244956
0.00244956
0.00131593
0.00131593
0.00131593
0.00100175
0.00100175
0.00100175
0.00137034
0.00137034
0.00137034
0.0023167
0.0023167
0.0023167
0.00235973
0.00235973
0.00235973
0.00397915
0.00397915
0.00397915
0.00380425
0.00380425
0.00380425
0.0033815
0.0033815
0.0033815
0.00306506
0.00306506
0.00306506
0.00380182
0.00380182
0.00380182
0.0036318
0.0036318
0.0036318
0.00385988
0.00385988
0.00385988
0.00374477
0.00374477
0.00374477
0.00348431
0.00348431
0.00348431
0.00354068
0.00354068
0.00354068
0.003926
0.003926
0.003926
0.00398614
0.00398614
0.00398614
0.00384006
0.00384006
0.00384006
0.00361698
0.00361698
0.00361698
0.000207082
0.000207082
0.000207082
0.000195462
0.000195462
0.000195462
0.000177369
0.000177369
0.000177369
0.000195106
0.000195106
0.000195106
0.000269666
0.000269666
0.000269666
0.000242603
0.000242603
0.000242603
0.000284336
0.000284336
0.000284336
0.000230494
0.000230494
0.000230494
0.000242775
0.000242775
0.000242775
0.000269836
0.000269836
0.000269836
0.000243092
0.000243092
0.000243092
0.000196405
0.000196405
0.000196405
0.000230825
0.000230825
0.000230825
0.000207275
0.000207275
0.000207275
0.00023088
0.00023088
0.00023088
0.000207284
0.000207284
0.000207284
0.000328713
0.000328713
0.000328713
0.000314154
0.000314154
0.000314154
0.000385997
0.000385997
0.000385997
0.000427213
0.000427213
0.000427213
0.000386031
0.000386031
0.000386031
0.000363654
0.000363654
0.000363654
0.000446766
0.000446766
0.000446766
0.000427156
0.000427156
0.000427156
0.00061597
0.00061597
0.00061597
0.000577267
0.000577267
0.000577267
0.000522569
0.000522569
0.000522569
0.000496908
0.000496908
0.000496908
0.000522661
0.000522661
0.000522661
0.000615935
0.000615935
0.000615935
0.000577358
0.000577358
0.000577358
0.000427266
0.000427266
0.000427266
0.0033532
0.0033532
0.0033532
0.00191658
0.00191658
0.00191658
0.00341748
0.00341748
0.00341748
0.00296851
0.00296851
0.00296851
0.0040167
0.0040167
0.0040167
0.00394481
0.00394481
0.00394481
0.00315925
0.00315925
0.00315925
0.0036211
0.0036211
0.0036211
0.00303008
0.00303008
0.00303008
0.00355209
0.00355209
0.00355209
0.000693033
0.000693033
0.000693033
0.00259593
0.00259593
0.00259593
0.000730818
0.000730818
0.000730818
0.00375427
0.00375427
0.00375427
0.00428537
0.00428537
0.00428537
0.00270993
0.00270993
0.00270993
0.000732574
0.000732574
0.000732574
0.000731277
0.000731277
0.000731277
0.000824754
0.000824754
0.000824754
0.000880222
0.000880222
0.000880222
0.000825381
0.000825381
0.000825381
0.00476474
0.00476474
0.00476474
0.00731861
0.00731861
0.00731861
0.00749688
0.00749688
0.00749688
0.00456149
0.00456149
0.00456149
0.00524143
0.00524143
0.00524143
0.0053968
0.0053968
0.0053968
0.00874288
0.00874288
0.00874288
0.00695679
0.00695679
0.00695679
0.00795074
0.00795074
0.00795074
0.00741861
0.00741861
0.00741861
0.00606779
0.00606779
0.00606779
0.00657776
0.00657776
0.00657776
0.00749842
0.00749842
0.00749842
0.00788183
0.00788183
0.00788183
0.000328573
0.000328573
0.000328573
0.000314105
0.000314105
0.000314105
0.000284426
0.000284426
0.000284426
0.000269985
0.000269985
0.000269985
0.000284513
0.000284513
0.000284513
0.000314135
0.000314135
0.000314135
0.000522479
0.000522479
0.000522479
0.000522512
0.000522512
0.000522512
0.000497182
0.000497182
0.000497182
0.000577153
0.000577153
0.000577153
0.00073904
0.00073904
0.00073904
0.0005889
0.0005889
0.0005889
0.000619498
0.000619498
0.000619498
0.000617202
0.000617202
0.000617202
0.000832349
0.000832349
0.000832349
0.000736335
0.000736335
0.000736335
0.000735258
0.000735258
0.000735258
0.000697356
0.000697356
0.000697356
0.000522623
0.000522623
0.000522623
0.000579479
0.000579479
0.000579479
0.000581666
0.000581666
0.000581666
0.000616862
0.000616862
0.000616862
0.00044801
0.00044801
0.00044801
0.000497692
0.000497692
0.000497692
0.000497886
0.000497886
0.000497886
0.000522629
0.000522629
0.000522629
0.00562524
0.00562524
0.00562524
0.00671403
0.00671403
0.00671403
0.00579242
0.00579242
0.00579242
0.00523137
0.00523137
0.00523137
0.00407777
0.00407777
0.00407777
0.00344057
0.00344057
0.00344057
0.00538179
0.00538179
0.00538179
0.00450894
0.00450894
0.00450894
0.00463009
0.00463009
0.00463009
0.00418771
0.00418771
0.00418771
0.00169152
0.00169152
0.00169152
0.00213197
0.00213197
0.00213197
0.00247737
0.00247737
0.00247737
0.00207904
0.00207904
0.00207904
0.00196233
0.00196233
0.00196233
0.00241477
0.00241477
0.00241477
0.00268689
0.00268689
0.00268689
0.00159619
0.00159619
0.00159619
0.0017326
0.0017326
0.0017326
0.001392
0.001392
0.001392
0.00131861
0.00131861
0.00131861
0.00275606
0.00275606
0.00275606
0.00328273
0.00328273
0.00328273
0.00353067
0.00353067
0.00353067
0.00320143
0.00320143
0.00320143
0.00218411
0.00218411
0.00218411
0.00253916
0.00253916
0.00253916
0.00282433
0.00282433
0.00282433
0.00370623
0.00370623
0.00370623
0.0033629
0.0033629
0.0033629
0.00343335
0.00343335
0.00343335
0.00295787
0.00295787
0.00295787
0.000757749
0.000757749
0.000757749
0.000861169
0.000861169
0.000861169
0.00128827
0.00128827
0.00128827
0.00107051
0.00107051
0.00107051
0.000943095
0.000943095
0.000943095
0.00104581
0.00104581
0.00104581
0.00113508
0.00113508
0.00113508
0.000881633
0.000881633
0.000881633
0.000921546
0.000921546
0.000921546
0.00174712
0.00174712
0.00174712
0.00160438
0.00160438
0.00160438
0.00850564
0.00850564
0.00850564
0.00169917
0.00169917
0.00169917
0.00479894
0.00479894
0.00479894
0.00653905
0.00653905
0.00653905
0.00611556
0.00611556
0.00611556
0.00692056
0.00692056
0.00692056
0.00744351
0.00744351
0.00744351
0.00105645
0.00105645
0.00105645
0.000995338
0.000995338
0.000995338
0.00230115
0.00230115
0.00230115
0.00676385
0.00676385
0.00676385
0.0012236
0.0012236
0.0012236
0.00503515
0.00503515
0.00503515
0.00714835
0.00714835
0.00714835
0.0010247
0.0010247
0.0010247
0.00181376
0.00181376
0.00181376
0.00376338
0.00376338
0.00376338
0.00351492
0.00351492
0.00351492
0.00269551
0.00269551
0.00269551
0.00297988
0.00297988
0.00297988
0.0073897
0.0073897
0.0073897
0.00778403
0.00778403
0.00778403
0.00708062
0.00708062
0.00708062
0.0068081
0.0068081
0.0068081
0.00636556
0.00636556
0.00636556
0.00588776
0.00588776
0.00588776
0.00446942
0.00446942
0.00446942
0.00494864
0.00494864
0.00494864
0.00734981
0.00734981
0.00734981
0.00768228
0.00768228
0.00768228
0.00707759
0.00707759
0.00707759
0.00630105
0.00630105
0.00630105
0.0042634
0.0042634
0.0042634
0.00508022
0.00508022
0.00508022
0.000322892
0.000322892
0.000322892
0.000854106
0.000854106
0.000854106
0.00209856
0.00209856
0.00209856
0.000276536
0.000276536
0.000276536
0.000731263
0.000731263
0.000731263
0.000299281
0.000299281
0.000299281
0.000822562
0.000822562
0.000822562
0.00235532
0.00235532
0.00235532
0.00319283
0.00319283
0.00319283
0.0145461
0.0145461
0.0145461
0.0122318
0.0122318
0.0122318
0.0218432
0.0218432
0.0218432
0.0237423
0.0237423
0.0237423
0.0239982
0.0239982
0.0239982
0.0167885
0.0167885
0.0167885
0.0170589
0.0170589
0.0170589
0.0183059
0.0183059
0.0183059
0.0174952
0.0174952
0.0174952
0.0159326
0.0159326
0.0159326
0.0158309
0.0158309
0.0158309
0.0215448
0.0215448
0.0215448
0.0206009
0.0206009
0.0206009
0.0279374
0.0279374
0.0279374
0.0283961
0.0283961
0.0283961
0.0279663
0.0279663
0.0279663
0.0274821
0.0274821
0.0274821
0.0265284
0.0265284
0.0265284
0.0171266
0.0171266
0.0171266
0.0168071
0.0168071
0.0168071
0.0156967
0.0156967
0.0156967
0.0159238
0.0159238
0.0159238
0.0147421
0.0147421
0.0147421
0.0148326
0.0148326
0.0148326
0.0151171
0.0151171
0.0151171
0.0150329
0.0150329
0.0150329
0.0152508
0.0152508
0.0152508
0.0154189
0.0154189
0.0154189
0.014898
0.014898
0.014898
0.0143954
0.0143954
0.0143954
0.0146106
0.0146106
0.0146106
0.0144749
0.0144749
0.0144749
0.0147584
0.0147584
0.0147584
0.014977
0.014977
0.014977
0.0141057
0.0141057
0.0141057
0.0140195
0.0140195
0.0140195
0.0139787
0.0139787
0.0139787
0.0138974
0.0138974
0.0138974
0.0136044
0.0136044
0.0136044
0.0132348
0.0132348
0.0132348
0.0135886
0.0135886
0.0135886
0.0137223
0.0137223
0.0137223
0.0135174
0.0135174
0.0135174
0.0152577
0.0152577
0.0152577
0.0154855
0.0154855
0.0154855
0.0133681
0.0133681
0.0133681
0.0137754
0.0137754
0.0137754
0.0148148
0.0148148
0.0148148
0.0146168
0.0146168
0.0146168
0.014336
0.014336