<VTKFile type="UnstructuredGrid" version="1.0">
<UnstructuredGrid>
<Piece NumberOfPoints="10830" NumberOfCells="3610">
<Points>
<DataArray type="Float64" NumberOfComponents="3" format="ascii">
2.19217 2.20649 1.07075
2.19928 2.19938 1.045
2.19928 2.19938 1.09646
2.19928 2.19938 1.60008
2.19928 2.19938 1.651
2.19129 2.20737 1.62553
2.19928 2.19938 1.60008
2.19129 2.20737 1.62553
2.17928 2.21938 1.6001
1.30559 3.09307 2.07259
1.31816 3.0805 2.09
1.28831 3.11035 2.09
1.28831 3.11035 2.09
1.28831 3.11035 2.05984
1.30559 3.09307 2.07259
2.19928 2.19938 1.60008
2.17928 2.21938 1.6001
2.1913 2.20736 1.57468
1.29441 3.10425 1.32179
1.28831 3.11035 1.34701
1.28831 3.11035 1.29657
2.19132 2.20734 1.3219
2.19928 2.19938 1.34709
2.17929 2.21937 1.34711
2.19117 2.20749 1.22134
2.19928 2.19938 1.19628
2.19928 2.19938 1.24639
2.17929 2.21937 1.34711
2.19928 2.19938 1.34709
2.19133 2.20733 1.37231
2.19928 2.19938 1.34709
2.19928 2.19938 1.39754
2.19133 2.20733 1.37231
2.17929 2.21937 1.39755
2.19133 2.20733 1.37231
2.19928 2.19938 1.39754
2.17928 2.21938 1.54931
2.1913 2.20736 1.57468
2.16946 2.22921 1.5747
2.16946 2.22921 1.5747
2.1913 2.20736 1.57468
2.17928 2.21938 1.6001
2.16946 2.22921 1.5747
2.15842 2.24024 1.54932
2.17928 2.21938 1.54931
2.16946 2.22921 1.5747
2.17928 2.21938 1.6001
2.15841 2.24025 1.60012
2.19928 2.19938 1.44804
2.19928 2.19938 1.49862
2.19132 2.20734 1.47333
2.19132 2.20734 1.47333
2.17929 2.21937 1.49863
2.16947 2.22919 1.47334
2.19928 2.19938 1.49862
2.17929 2.21937 1.49863
2.19132 2.20734 1.47333
2.19928 2.19938 1.54929
2.1913 2.20736 1.57468
2.17928 2.21938 1.54931
2.19928 2.19938 1.60008
2.1913 2.20736 1.57468
2.19928 2.19938 1.54929
2.17913 2.21954 1.19632
2.19928 2.19938 1.19628
2.19117 2.20749 1.22134
2.17927 2.21939 1.65102
2.19129 2.20737 1.62553
2.19928 2.19938 1.651
1.8956 2.50306 1.83075
1.90602 2.49264 1.80498
1.91643 2.48223 1.83072
1.28831 3.11035 1.045
1.30792 3.09074 1.045
1.29529 3.10337 1.06971
1.34771 3.05096 1.29659
1.32717 3.07149 1.29657
1.33709 3.06157 1.27137
1.30704 3.09162 1.29656
1.32717 3.07149 1.29657
1.31607 3.08259 1.32178
1.30704 3.09162 1.29656
1.29441 3.10425 1.32179
1.28831 3.11035 1.29657
1.31607 3.08259 1.32178
1.29441 3.10425 1.32179
1.30704 3.09162 1.29656
1.2945 3.10417 1.52394
1.28831 3.11035 1.5493
1.28831 3.11035 1.49861
1.3071 3.09157 1.5493
1.31615 3.08252 1.52393
1.32724 3.07142 1.54929
1.28831 3.11035 1.5493
1.2945 3.10417 1.52394
1.3071 3.09157 1.5493
1.3071 3.09157 1.5493
1.2945 3.10417 1.52394
1.31615 3.08252 1.52393
1.30708 3.09158 1.4986
1.32723 3.07143 1.4986
1.31615 3.08252 1.52393
1.30708 3.09158 1.4986
1.2945 3.10417 1.52394
1.28831 3.11035 1.49861
1.31615 3.08252 1.52393
1.2945 3.10417 1.52394
1.30708 3.09158 1.4986
1.28831 3.11035 1.34701
1.29441 3.10425 1.32179
1.30705 3.09161 1.347
1.30705 3.09161 1.347
1.29441 3.10425 1.32179
1.31607 3.08259 1.32178
1.32724 3.07142 1.54929
1.31615 3.08252 1.52393
1.33718 3.06148 1.52393
1.31615 3.08252 1.52393
1.32723 3.07143 1.4986
1.33718 3.06148 1.52393
1.49256 2.90611 1.49867
1.50289 2.89577 1.52401
1.48223 2.91643 1.524
1.48223 2.91643 1.524
1.50289 2.89577 1.52401
1.49257 2.90609 1.54937
1.49257 2.90609 1.54937
1.50289 2.89577 1.52401
1.51323 2.88543 1.54938
1.88521 2.51346 1.805
1.90602 2.49264 1.80498
1.8956 2.50306 1.83075
2.19127 2.20739 1.27156
2.19928 2.19938 1.24639
2.19928 2.19938 1.2967
2.19928 2.19938 1.34709
2.19132 2.20734 1.3219
2.19928 2.19938 1.2967
2.11618 2.28248 1.4481
2.09503 2.30363 1.44811
2.10562 2.29304 1.42285
2.17929 2.21937 1.44805
2.19132 2.20734 1.47333
2.16947 2.22919 1.47334
2.19928 2.19938 1.44804
2.19132 2.20734 1.47333
2.17929 2.21937 1.44805
2.16947 2.22919 1.47334
2.17929 2.21937 1.49863
2.15843 2.24024 1.49865
2.19131 2.20735 1.52395
2.17929 2.21937 1.49863
2.19928 2.19938 1.49862
2.19928 2.19938 1.49862
2.19928 2.19938 1.54929
2.19131 2.20735 1.52395
2.19131 2.20735 1.52395
2.19928 2.19938 1.54929
2.17928 2.21938 1.54931
2.1693 2.22936 1.22137
2.17913 2.21954 1.19632
2.19117 2.20749 1.22134
2.19127 2.20739 1.27156
2.19928 2.19938 1.2967
2.17927 2.21939 1.29674
2.17927 2.21939 1.29674
2.19928 2.19938 1.2967
2.19132 2.20734 1.3219
2.10553 2.29313 1.27161
2.09491 2.30375 1.24643
2.11605 2.28261 1.24643
2.1372 2.26147 1.24645
2.12662 2.27204 1.22126
2.14787 2.25079 1.22131
2.1372 2.26147 1.24645
2.11605 2.28261 1.24643
2.12662 2.27204 1.22126
2.16946 2.2292 1.32193
2.19132 2.20734 1.3219
2.17929 2.21937 1.34711
2.16946 2.2292 1.32193
2.17927 2.21939 1.29674
2.19132 2.20734 1.3219
2.16945 2.22921 1.62555
2.17928 2.21938 1.6001
2.19129 2.20737 1.62553
2.19129 2.20737 1.62553
2.17927 2.21939 1.65102
2.16945 2.22921 1.62555
2.15841 2.24025 1.60012
2.17928 2.21938 1.6001
2.16945 2.22921 1.62555
2.16944 2.22922 1.77905
2.14804 2.25062 1.77906
2.15841 2.24025 1.75337
2.14804 2.25063 1.72774
2.16944 2.22922 1.72772
2.15841 2.24025 1.75337
2.19128 2.20738 1.67653
2.17927 2.21939 1.65102
2.19928 2.19938 1.651
2.16944 2.22922 1.67656
2.17927 2.21939 1.65102
2.19128 2.20738 1.67653
1.93725 2.46141 1.88232
1.94766 2.451 1.90816
1.92679 2.47187 1.9082
2.05276 2.34591 1.75343
2.06331 2.33535 1.72779
2.07386 2.3248 1.75341
2.07386 2.3248 1.75341
2.06331 2.33535 1.72779
2.08443 2.31423 1.72778
2.15841 2.24026 1.70213
2.14804 2.25062 1.67658
2.16944 2.22922 1.67656
2.15841 2.24026 1.70213
2.16944 2.22922 1.72772
2.14804 2.25063 1.72774
2.04222 2.35644 1.72781
2.06331 2.33535 1.72779
2.05276 2.34591 1.75343
1.9897 2.40896 1.49874
1.96874 2.42992 1.49874
1.97921 2.41945 1.47344
1.93736 2.4613 1.47344
1.92692 2.47174 1.49875
1.91649 2.48217 1.47344
1.94781 2.45085 1.49875
1.92692 2.47174 1.49875
1.93736 2.4613 1.47344
1.92691 2.47175 1.39765
1.9478 2.45086 1.39765
1.93736 2.46131 1.42289
1.93736 2.46131 1.42289
1.91648 2.48218 1.42289
1.92691 2.47175 1.39765
1.92691 2.47175 1.39765
1.91648 2.48218 1.42289
1.90605 2.49261 1.39764
1.93736 2.46131 1.42289
1.9478 2.45086 1.39765
1.95826 2.4404 1.4229
1.96871 2.42995 1.34723
1.9792 2.41946 1.37244
1.95825 2.44041 1.37243
1.95825 2.44041 1.37243
1.94778 2.45088 1.34723
1.96871 2.42995 1.34723
1.8126 2.58607 1.52409
1.82295 2.57571 1.49875
1.83332 2.56534 1.52409
1.82295 2.57571 1.49875
1.84369 2.55497 1.49875
1.83332 2.56534 1.52409
1.92692 2.47174 1.44816
1.91648 2.48218 1.42289
1.93736 2.46131 1.42289
1.92692 2.47174 1.44816
1.93736 2.4613 1.47344
1.91649 2.48217 1.47344
1.91649 2.48217 1.47344
1.89565 2.50301 1.47344
1.90606 2.4926 1.44815
1.90606 2.4926 1.44815
1.92692 2.47174 1.44816
1.91649 2.48217 1.47344
1.91648 2.48218 1.42289
1.92692 2.47174 1.44816
1.90606 2.4926 1.44815
1.90605 2.49261 1.39764
1.88523 2.51343 1.39764
1.89563 2.50303 1.37241
1.88521 2.51345 1.34719
1.90603 2.49263 1.34721
1.89563 2.50303 1.37241
1.51322 2.88545 1.49868
1.50289 2.89577 1.52401
1.49256 2.90611 1.49867
1.49256 2.90611 1.49867
1.50288 2.89578 1.47336
1.51322 2.88545 1.49868
1.29442 3.10424 1.11987
1.28831 3.11035 1.14509
1.28831 3.11035 1.09442
1.28831 3.11035 1.045
1.29529 3.10337 1.06971
1.28831 3.11035 1.09442
1.307 3.09167 1.1957
1.28831 3.11035 1.19567
1.29431 3.10435 1.17042
1.28831 3.11035 1.19567
1.28831 3.11035 1.14509
1.29431 3.10435 1.17042
2.19928 2.19938 1.045
2.19217 2.20649 1.07075
2.18013 2.21854 1.045
1.28831 3.11035 1.29657
1.28831 3.11035 1.24614
1.29438 3.10428 1.27136
1.29438 3.10428 1.27136
1.30704 3.09162 1.29656
1.28831 3.11035 1.29657
1.30702 3.09164 1.24613
1.29438 3.10428 1.27136
1.28831 3.11035 1.24614
1.30702 3.09164 1.24613
1.31601 3.08265 1.22094
1.32714 3.07152 1.24616
1.31605 3.08262 1.27135
1.33709 3.06157 1.27137
1.32717 3.07149 1.29657
1.32717 3.07149 1.29657
1.30704 3.09162 1.29656
1.31605 3.08262 1.27135
1.32714 3.07152 1.24616
1.33709 3.06157 1.27137
1.31605 3.08262 1.27135
1.31605 3.08262 1.27135
1.30702 3.09164 1.24613
1.32714 3.07152 1.24616
1.30704 3.09162 1.29656
1.29438 3.10428 1.27136
1.31605 3.08262 1.27135
1.29438 3.10428 1.27136
1.30702 3.09164 1.24613
1.31605 3.08262 1.27135
1.29435 3.10432 1.22091
1.28831 3.11035 1.24614
1.28831 3.11035 1.19567
1.29435 3.10432 1.22091
1.28831 3.11035 1.19567
1.307 3.09167 1.1957
1.307 3.09167 1.1957
1.31601 3.08265 1.22094
1.29435 3.10432 1.22091
1.29435 3.10432 1.22091
1.30702 3.09164 1.24613
1.28831 3.11035 1.24614
1.31601 3.08265 1.22094
1.30702 3.09164 1.24613
1.29435 3.10432 1.22091
1.33717 3.06149 1.47329
1.32723 3.07143 1.4986
1.31613 3.08254 1.47329
1.32723 3.07143 1.4986
1.30708 3.09158 1.4986
1.31613 3.08254 1.47329
1.31613 3.08254 1.47329
1.32722 3.07145 1.448
1.33717 3.06149 1.47329
1.33711 3.06155 1.32179
1.32717 3.07149 1.29657
1.34771 3.05096 1.29659
1.31607 3.08259 1.32178
1.32717 3.07149 1.29657
1.33711 3.06155 1.32179
1.35794 3.04072 1.3218
1.33711 3.06155 1.32179
1.34771 3.05096 1.29659
1.34773 3.05094 1.34701
1.33711 3.06155 1.32179
1.35794 3.04072 1.3218
1.34773 3.05094 1.34701
1.35794 3.04072 1.3218
1.36839 3.03027 1.34702
1.50287 2.89579 1.4228
1.51321 2.88546 1.44807
1.49255 2.90612 1.44807
1.49255 2.90612 1.44807
1.51321 2.88546 1.44807
1.50288 2.89578 1.47336
1.42017 2.9785 1.47332
1.44086 2.9578 1.47333
1.43052 2.96814 1.49863
1.43051 2.96815 1.44804
1.44086 2.9578 1.47333
1.42017 2.9785 1.47332
1.44085 2.95782 1.42277
1.4305 2.96817 1.39752
1.45119 2.94748 1.39753
1.43051 2.96815 1.44804
1.42015 2.97851 1.42276
1.44085 2.95782 1.42277
1.44085 2.95782 1.42277
1.42015 2.97851 1.42276
1.4305 2.96817 1.39752
1.44087 2.95779 1.52398
1.46156 2.9371 1.52399
1.45123 2.94744 1.54934
1.3995 2.99917 1.5747
1.40985 2.98882 1.54932
1.4202 2.97846 1.57471
1.40983 2.98883 1.49862
1.42017 2.9785 1.47332
1.43052 2.96814 1.49863
1.39946 2.9992 1.47331
1.42017 2.9785 1.47332
1.40983 2.98883 1.49862
1.32724 3.07142 1.54929
1.33718 3.06148 1.52393
1.34779 3.05087 1.54929
1.33717 3.06149 1.47329
1.32722 3.07145 1.448
1.34776 3.0509 1.448
1.34776 3.0509 1.448
1.35799 3.04067 1.47329
1.33717 3.06149 1.47329
1.38911 3.00955 1.44801
1.39946 2.9992 1.47331
1.37874 3.01992 1.4733
1.34777 3.05089 1.4986
1.33718 3.06148 1.52393
1.32723 3.07143 1.4986
[...]
<PointData Scalars="View Factor" >
<DataArray type="Float64" Name="View Factor" NumberOfComponents="1" format="ascii">
0.000114558
0.000114558
0.000114558
0.000164044
0.000164044
0.000164044
0.000170426
0.000170426
0.000170426
0.00180922
0.00180922
0.00180922
0.0018334
0.0018334
0.0018334
0.000179979
0.000179979
0.000179979
0.00275043
0.00275043
0.00275043
0.000654249
0.000654249
0.000654249
0.000434685
0.000434685
0.000434685
0.000595386
0.000595386
0.000595386
0.000536759
0.000536759
0.000536759
0.000476957
0.000476957
0.000476957
0.000204583
0.000204583
0.000204583
0.000191664
0.000191664
0.000191664
0.000425459
0.000425459
0.000425459
0.000404644
0.000404644
0.000404644
0.000299892
0.000299892
0.000299892
0.000306858
0.000306858
0.000306858
0.00027203
0.00027203
0.00027203
0.000203706
0.000203706
0.000203706
0.000195432
0.000195432
0.000195432
0.000338928
0.000338928
0.000338928
0.000152969
0.000152969
0.000152969
3.92265e-05
3.92265e-05
3.92265e-05
0.00318822
0.00318822
0.00318822
0.00269495
0.00269495
0.00269495
0.00271683
0.00271683
0.00271683
0.00276246
0.00276246
0.00276246
0.00272861
0.00272861
0.00272861
0.00245916
0.00245916
0.00245916
0.0023829
0.0023829
0.0023829
0.00242414
0.00242414
0.00242414
0.00241692
0.00241692
0.00241692
0.00242739
0.00242739
0.00242739
0.00246945
0.00246945
0.00246945
0.00243937
0.00243937
0.00243937
0.0027108
0.0027108
0.0027108
0.00270303
0.00270303
0.00270303
0.00237182
0.00237182
0.00237182
0.00239409
0.00239409
0.00239409
0.00185737
0.00185737
0.00185737
0.00183966
0.00183966
0.00183966
0.00177133
0.00177133
0.00177133
4.10516e-05
4.10516e-05
4.10516e-05
0.000641087
0.000641087
0.000641087
0.000701871
0.000701871
0.000701871
0.000409636
0.000409636
0.000409636
0.000335767
0.000335767
0.000335767
0.000322054
0.000322054
0.000322054
0.000481104
0.000481104
0.000481104
0.000251627
0.000251627
0.000251627
0.000238157
0.000238157
0.000238157
0.000217903
0.000217903
0.000217903
0.000435546
0.000435546
0.000435546
0.000687356
0.000687356
0.000687356
0.000713363
0.000713363
0.000713363
0.000641216
0.000641216
0.000641216
0.000639892
0.000639892
0.000639892
0.000657056
0.000657056
0.000657056
0.000721363
0.000721363
0.000721363
0.000753472
0.000753472
0.000753472
0.000172127
0.000172127
0.000172127
0.000164309
0.000164309
0.000164309
0.000395926
0.000395926
0.000395926
0.000314882
0.000314882
0.000314882
0.00032492
0.00032492
0.00032492
0.00014548
0.00014548
0.00014548
0.00015194
0.00015194
0.00015194
2.76147e-05
2.76147e-05
2.76147e-05
4.99786e-05
4.99786e-05
4.99786e-05
5.23437e-05
5.23437e-05
5.23437e-05
0.00034181
0.00034181
0.00034181
0.000329843
0.000329843
0.000329843
5.24075e-05
5.24075e-05
5.24075e-05
0.000201891
0.000201891
0.000201891
0.000226493
0.000226493
0.000226493
0.000210601
0.000210601
0.000210601
0.000382898
0.000382898
0.000382898
0.000365095
0.000365095
0.000365095
0.000396587
0.000396587
0.000396587
0.000352317
0.000352317
0.000352317
0.000509566
0.000509566
0.000509566
0.000550791
0.000550791
0.000550791
0.000213126
0.000213126
0.000213126
0.000221679
0.000221679
0.000221679
0.000322394
0.000322394
0.000322394
0.000254831
0.000254831
0.000254831
0.000263621
0.000263621
0.000263621
0.0002737
0.0002737
0.0002737
0.00030871
0.00030871
0.00030871
0.000466156
0.000466156
0.000466156
0.000613668
0.000613668
0.000613668
0.00179526
0.00179526
0.00179526
0.00181014
0.00181014
0.00181014
0.00308496
0.00308496
0.00308496
0.00317478
0.00317478
0.00317478
0.00295294
0.00295294
0.00295294
0.00299675
0.00299675
0.00299675
0.000106975
0.000106975
0.000106975
0.00282961
0.00282961
0.00282961
0.00278872
0.00278872
0.00278872
0.00284214
0.00284214
0.00284214
0.00282199
0.00282199
0.00282199
0.00273267
0.00273267
0.00273267
0.0027427
0.0027427
0.0027427
0.0027587
0.0027587
0.0027587
0.00279521
0.00279521
0.00279521
0.0027808
0.0027808
0.0027808
0.00280726
0.00280726
0.00280726
0.00291165
0.00291165
0.00291165
0.00292479
0.00292479
0.00292479
0.00288882
0.00288882
0.00288882
0.00286935
0.00286935
0.00286935
0.00286131
0.00286131
0.00286131
0.00243936
0.00243936
0.00243936
0.00245014
0.00245014
0.00245014
0.0024621
0.0024621
0.0024621
0.00266919
0.00266919
0.00266919
0.00268147
0.00268147
0.00268147
0.00263227
0.00263227
0.00263227
0.00260686
0.00260686
0.00260686
0.00256915
0.00256915
0.00256915
0.00186237
0.00186237
0.00186237
0.00184451
0.00184451
0.00184451
0.00216173
0.00216173
0.00216173
0.00218242
0.00218242
0.00218242
0.00222344
0.00222344
0.00222344
0.00222546
0.00222546
0.00222546
0.00224735
0.00224735
0.00224735
0.00202919
0.00202919
0.00202919
0.00212215
0.00212215
0.00212215
0.00218701
0.00218701
0.00218701
0.0022258
0.0022258
0.0022258
0.00233672
0.00233672
0.00233672
0.00244932
0.00244932
0.00244932
0.00241359
0.00241359
0.00241359
0.00230991
0.00230991
0.00230991
0.00238112
0.00238112
0.00238112
0.00240358
0.00240358
0.00240358
0.00239094
0.00239094
0.00239094
0.0020439
0.0020439
0.0020439
0.00197492
0.00197492
0.00197492
0.00183942
0.00183942
0.00183942
0.00192618
0.00192618
0.00192618
0.00196511
0.00196511
0.00196511
0.00196449
0.00196449
0.00196449
0.00188992
0.00188992
0.00188992
0.00198316
0.00198316
0.00198316
0.00194631
0.00194631
0.00194631
0.00187219
0.00187219
0.00187219
0.00191005
0.00191005
0.00191005
0.0018374
0.0018374
0.0018374
0.00189228
0.00189228
0.00189228
0.00204196
0.00204196
0.00204196
0.00199118
0.00199118
0.00199118
0.00169074
0.00169074
0.00169074
0.000321931
0.000321931
0.000321931
0.000892964
0.000892964
0.000892964
0.000298203
0.000298203
0.000298203
0.000876223
0.000876223
0.000876223
0.00179348
0.00179348
0.00179348
0.00176169
0.00176169
0.00176169
0.00180752
0.00180752
0.00180752
4.60977e-05
4.60977e-05
4.60977e-05
4.41298e-05
4.41298e-05
4.41298e-05
4.04583e-05
4.04583e-05
4.04583e-05
4.23208e-05
4.23208e-05
4.23208e-05
5.00646e-05
5.00646e-05
5.00646e-05
5.10743e-05
5.10743e-05
5.10743e-05
6.29491e-05
6.29491e-05
6.29491e-05
4.59602e-05
4.59602e-05
4.59602e-05
2.04808e-05
2.04808e-05
2.04808e-05
2.12756e-05
2.12756e-05
2.12756e-05
1.93138e-05
1.93138e-05
1.93138e-05
1.92891e-05
1.92891e-05
1.92891e-05
2.24755e-05
2.24755e-05
2.24755e-05
2.28795e-05
2.28795e-05
2.28795e-05
2.19336e-05
2.19336e-05
2.19336e-05
2.07638e-05
2.07638e-05
2.07638e-05
2.13889e-05
2.13889e-05
2.13889e-05
2.23192e-05
2.23192e-05
2.23192e-05
2.37555e-05
2.37555e-05
2.37555e-05
1.88261e-05
1.88261e-05
1.88261e-05
2.02493e-05
2.02493e-05
2.02493e-05
1.99813e-05
1.99813e-05
1.99813e-05
1.88431e-05
1.88431e-05
1.88431e-05
1.83609e-05
1.83609e-05
1.83609e-05
1.64732e-05
1.64732e-05
1.64732e-05
1.41386e-05
1.41386e-05
1.41386e-05
1.42531e-05
1.42531e-05
1.42531e-05
2.69715e-05
2.69715e-05
2.69715e-05
2.69712e-05
2.69712e-05
2.69712e-05
2.65575e-05
2.65575e-05
2.65575e-05
0.00038443
0.00038443
0.00038443
0.000388644
0.000388644
0.000388644
0.000399195
0.000399195
0.000399195
0.000361942
0.000361942
0.000361942
0.000613941
0.000613941
0.000613941
0.000545315
0.000545315
0.000545315
0.000640809
0.000640809
0.000640809
0.000198843
0.000198843
0.000198843
0.000210105
0.000210105
0.000210105
0.00035279
0.00035279
0.00035279
0.00040371
0.00040371
0.00040371
0.00039271
0.00039271
0.00039271
0.000429409
0.000429409
0.000429409
0.0004451
0.0004451
0.0004451
0.000386395
0.000386395
0.000386395
0.00039626
0.00039626
0.00039626
0.000437233
0.000437233
0.000437233
0.000465094
0.000465094
0.000465094
0.000423037
0.000423037
0.000423037
0.000436726
0.000436726
0.000436726
0.000237548
0.000237548
0.000237548
0.000258199
0.000258199
0.000258199
0.000579209
0.000579209
0.000579209
0.000510946
0.000510946
0.000510946
0.000521155
0.000521155
0.000521155
0.000248036
0.000248036
0.000248036
0.00058883
0.00058883
0.00058883
0.000609103
0.000609103
0.000609103
0.000824443
0.000824443
0.000824443
0.000792092
0.000792092
0.000792092
0.000803675
0.000803675
0.000803675
0.00080148
0.00080148
0.00080148
0.000379515
0.000379515
0.000379515
0.000372463
0.000372463
0.000372463
0.000348591
0.000348591
0.000348591
0.000310256
0.000310256
0.000310256
0.000186521
0.000186521
0.000186521
1.81805e-05
1.81805e-05
1.81805e-05
3.66311e-05
3.66311e-05
3.66311e-05
4.31924e-05
4.31924e-05
4.31924e-05
3.97788e-05
3.97788e-05
3.97788e-05
4.64216e-05
4.64216e-05
4.64216e-05
4.00729e-05
4.00729e-05
4.00729e-05
0.000235591
0.000235591
0.000235591
0.000239826
0.000239826
0.000239826
0.000180095
0.000180095
0.000180095
0.000199232
0.000199232
0.000199232
0.000199788
0.000199788
0.000199788
0.000210716
0.000210716
0.000210716
0.000125069
0.000125069
0.000125069
0.000131585
0.000131585
0.000131585
0.000125361
0.000125361
0.000125361
0.000358967
0.000358967
0.000358967
0.000353138
0.000353138
0.000353138
0.000146642
0.000146642
0.000146642
0.000297414
0.000297414
0.000297414
0.000277719
0.000277719
0.000277719
0.000302074
0.000302074
0.000302074
0.000287486
0.000287486
0.000287486
0.000263235
0.000263235
0.000263235
0.000267838
0.000267838
0.000267838
0.000200444
0.000200444
0.000200444
0.000237458
0.000237458
0.000237458
0.000211373
0.000211373
0.000211373
0.000253269
0.000253269
0.000253269
0.000217934
0.000217934
0.000217934
0.000234262
0.000234262
0.000234262
0.000189142
0.000189142
0.000189142
0.000156985
0.000156985
0.000156985
0.000146975
0.000146975
0.000146975
0.000194617
0.000194617
0.000194617
0.000202086
0.000202086
0.000202086
0.000225265
0.000225265
0.000225265
0.000242024
0.000242024
0.000242024
0.000208629
0.000208629
0.000208629
0.000232583
0.000232583
0.000232583
0.000174414
0.000174414
0.000174414
0.00016332
0.00016332
0.00016332
0.000147555
0.000147555
0.000147555
0.000142839
0.000142839
0.000142839
0.000152273
0.000152273
0.000152273
0.000168565
0.000168565
0.000168565
0.00021872
0.00021872
0.00021872
0.000203252
0.000203252
0.000203252
0.000213797
0.000213797
0.000213797
0.00024046
0.00024046
0.00024046
8.71104e-05
8.71104e-05
8.71104e-05
0.000129711
0.000129711
0.000129711
8.98606e-05
8.98606e-05
8.98606e-05
0.000450497
0.000450497
0.000450497
0.000592436
0.000592436
0.000592436
0.000490805
0.000490805
0.000490805
0.000560931
0.000560931
0.000560931
0.000571585
0.000571585
0.000571585
0.000541576
0.000541576
0.000541576
0.000473994
0.000473994
0.000473994
0.000434854
0.000434854
0.000434854
0.000457199
0.000457199
0.000457199
0.000522267
0.000522267
0.000522267
0.000303963
0.000303963
0.000303963
0.000285457
0.000285457
0.000285457
0.000311458
0.000311458
0.000311458
0.00035105
0.00035105
0.00035105
0.000177983
0.000177983
0.000177983
0.000189633
0.000189633
0.000189633
0.00030379
0.00030379
0.00030379
0.000290789
0.000290789
0.000290789
0.000152006
0.000152006
0.000152006
0.000161874
0.000161874
0.000161874
0.000155776
0.000155776
0.000155776
0.000138483
0.000138483
0.000138483
0.000133392
0.000133392
0.000133392
0.000141905
0.000141905
0.000141905
0.000247203
0.000247203
0.000247203
0.000310857
0.000310857
0.000310857
0.000298701
0.000298701
0.000298701
0.000265273
0.000265273
0.000265273
0.000179021
0.000179021
0.000179021
0.000190932
0.000190932
0.000190932
0.000320123
0.000320123
0.000320123
0.000228189
0.000228189
0.000228189
0.000254509
0.000254509
0.000254509
0.000350858
0.000350858
0.000350858
0.000634619
0.000634619
0.000634619
0.000580318
0.000580318
0.000580318
0.000507896
0.000507896
0.000507896
0.000283
0.000283
0.000283
0.000272407
0.000272407
0.000272407
0.000329787
0.000329787
0.000329787
0.000292294
0.000292294
0.000292294
0.00173959
0.00173959
0.00173959
0.00216308
0.00216308
0.00216308
0.00214199
0.00214199
0.00214199
0.00217094
0.00217094
0.00217094
0.00195619
0.00195619
0.00195619
0.00183037
0.00183037
0.00183037
0.00184869
0.00184869
0.00184869
0.00261955
0.00261955
0.00261955
0.00268333
0.00268333
0.00268333
0.00264506
0.00264506
0.00264506
0.00179494
0.00179494
0.00179494
0.00177754
0.00177754
0.00177754
0.000319115
0.000319115
0.000319115
0.000298009
0.000298009
0.000298009
0.00026722
0.00026722
0.00026722
0.000255886
0.000255886
0.000255886
0.000215039
0.000215039
0.000215039
0.000229051
0.000229051
0.000229051
0.000319859
0.000319859
0.000319859
0.000144417
0.000144417
0.000144417
0.00045947
0.00045947
0.00045947
3.99347e-05
3.99347e-05
3.99347e-05
0.000259251
0.000259251
0.000259251
0.000263344
0.000263344
0.000263344
0.000476928
0.000476928
0.000476928
0.000297746
0.000297746
0.000297746
0.00239209
0.00239209
0.00239209
0.00240197
0.00240197
0.00240197
0.00252842
0.00252842
0.00252842
0.00249235
0.00249235
0.00249235
0.002485
0.002485
0.002485
0.00259997
0.00259997
0.00259997
0.00261105
0.00261105
0.00261105
0.00256707
0.00256707
0.00256707
0.00257919
0.00257919
0.00257919
0.00268547
0.00268547
0.00268547
0.00267393
0.00267393
0.00267393
0.00263554
0.00263554
0.00263554
0.00265264
0.00265264
0.00265264
0.00262789
0.00262789
0.00262789
0.00259116
0.00259116
0.00259116
0.00258095
0.00258095
0.00258095
0.0025568
0.0025568
0.0025568
0.00254458
0.00254458
0.00254458
0.00266585
0.00266585
0.00266585
0.00265579
0.00265579
0.00265579
0.00264066
0.00264066
0.00264066
0.00260572
0.00260572
0.00260572
0.00261835
0.00261835
0.00261835
0.00259348
0.00259348
0.00259348
0.00253278
0.00253278
0.00253278
0.0025089
0.0025089
0.0025089
0.00247252
0.00247252
0.00247252
0.00246024
0.00246024
0.00246024
0.00200159
0.00200159
0.00200159
0.00206185
0.00206185
0.00206185
0.00208211
0.00208211
0.00208211
0.00194854
0.00194854
0.00194854
0.00189302
0.00189302
0.00189302
0.00191104
0.00191104
0.00191104
0.00194468
0.00194468
0.00194468
0.00198228
0.00198228
0.00198228
0.00202203
0.00202203
0.00202203
0.00200294
0.00200294
0.00200294
0.00224715
0.00224715
0.00224715
0.00229143
0.00229143
0.00229143
0.00222951
0.00222951
0.00222951
0.00225125
0.00225125
0.00225125
0.00229327
0.00229327
0.00229327
0.00231565
0.00231565
0.00231565
0.0021208
0.0021208
0.0021208
0.0021661
0.0021661
0.0021661
0.00205801
0.00205801
0.00205801
0.0021051
0.0021051
0.0021051
0.00212515
0.00212515
0.00212515
0.00210044
0.00210044
0.00210044
0.0020612
0.0020612
0.0020612
0.00203839
0.00203839
0.00203839
0.00206313
0.00206313
0.00206313
0.00204644
0.00204644
0.00204644
0.00206583
0.00206583
0.00206583
0.00210238
0.00210238
0.00210238
0.00212477
0.00212477
0.00212477
0.00212065
0.00212065
0.00212065
0.00210481
0.00210481
0.00210481
0.00216519
0.00216519
0.00216519
0.00242505
0.00242505
0.00242505
0.00234902
0.00234902
0.00234902
0.00240203
0.00240203
0.00240203
0.00236445
0.00236445
0.00236445
0.00232398
0.00232398
0.00232398
0.00234615
0.00234615
0.00234615
0.00229799
0.00229799
0.00229799
0.00233471
0.00233471
0.00233471
0.00234218
0.00234218
0.00234218
0.00235701
0.00235701
0.00235701
0.00210088
0.00210088
0.00210088
0.00211629
0.00211629
0.00211629
0.00206598
0.00206598
0.00206598
0.00215113
0.00215113
0.00215113
0.00216597
0.00216597
0.00216597
0.00209666
0.00209666
0.00209666
0.00187476
0.00187476
0.00187476
0.00200866
0.00200866
0.00200866
0.00199013
0.00199013
0.00199013
0.00194881
0.00194881
0.00194881
0.00192682
0.00192682
0.00192682
0.00186165
0.00186165
0.00186165
0.00179672
0.00179672
0.00179672
0.00181804
0.00181804
0.00181804
0.0020862
0.0020862
0.0020862
0.00205687
0.00205687
0.00205687
0.00205057
0.00205057
0.00205057
0.00198351
0.00198351
0.00198351
0.00203015
0.00203015
0.00203015
0.00200171
0.00200171
0.00200171
0.00199576
0.00199576
0.00199576
0.00203839
0.00203839
0.00203839
0.00201384
0.00201384
0.00201384
0.00202145
0.00202145
0.00202145
0.00200325
0.00200325
0.00200325
0.00204879
0.00204879
0.00204879
0.00202128
0.00202128
0.00202128
0.00204078
0.00204078
0.00204078
0.00208835
0.00208835
0.00208835
0.00211791
0.00211791
0.00211791
0.00209767
0.00209767
0.00209767
0.00192794
0.00192794
0.00192794
0.00200036
0.00200036
0.00200036
0.00197264
0.00197264
0.00197264
0.00190986
0.00190986
0.00190986
0.000134902
0.000134902
0.000134902
0.00015547
0.00015547
0.00015547
0.000146295
0.000146295
0.000146295
0.00151113
0.00151113
0.00151113
0.0012334
0.0012334
0.0012334
0.00125459
0.00125459
0.00125459
0.00161312
0.00161312
0.00161312
0.00148551
0.00148551
0.00148551
0.00174433
0.00174433
0.00174433
0.0017359
0.0017359
0.0017359
0.001651
0.001651
0.001651
0.00170193
0.00170193
0.00170193
0.00171917
0.00171917
0.00171917
0.00171578
0.00171578
0.00171578
0.0015651
0.0015651
0.0015651
0.00166775
0.00166775
0.00166775
4.0107e-05
4.0107e-05
4.0107e-05
3.74017e-05
3.74017e-05
3.74017e-05
3.9019e-05
3.9019e-05
3.9019e-05
4.12019e-05
4.12019e-05
4.12019e-05
4.48462e-05
4.48462e-05
4.48462e-05
4.87021e-05
4.87021e-05
4.87021e-05
4.00677e-05
4.00677e-05
4.00677e-05
4.29121e-05
4.29121e-05
4.29121e-05
4.16875e-05
4.16875e-05
4.16875e-05
4.35859e-05
4.35859e-05
4.35859e-05
6.9283e-05
6.9283e-05
6.9283e-05
6.08103e-05
6.08103e-05
6.08103e-05
5.65051e-05
5.65051e-05
5.65051e-05
6.25223e-05
6.25223e-05
6.25223e-05
6.47512e-05
6.47512e-05
6.47512e-05
5.80944e-05
5.80944e-05
5.80944e-05
5.52876e-05
5.52876e-05
5.52876e-05
7.16025e-05
7.16025e-05
7.16025e-05
6.73508e-05
6.73508e-05
6.73508e-05
7.7607e-05
7.7607e-05
7.7607e-05
7.97908e-05
7.97908e-05
7.97908e-05
5.3754e-05
5.3754e-05
5.3754e-05
4.82423e-05
4.82423e-05
4.82423e-05
4.73337e-05
4.73337e-05
4.73337e-05
4.9661e-05
4.9661e-05
4.9661e-05
5.90936e-05
5.90936e-05
5.90936e-05
5.49114e-05
5.49114e-05
5.49114e-05
5.22147e-05
5.22147e-05
5.22147e-05
4.45787e-05
4.45787e-05
4.45787e-05
4.68172e-05
4.68172e-05
4.68172e-05
4.53841e-05
4.53841e-05
4.53841e-05
4.91188e-05
4.91188e-05
4.91188e-05
0.0001203
0.0001203
0.0001203
0.000110208
0.000110208
0.000110208
8.20905e-05
8.20905e-05
8.20905e-05
9.25008e-05
9.25008e-05
9.25008e-05
0.000101016
0.000101016
0.000101016
9.51328e-05
9.51328e-05
9.51328e-05
8.96273e-05
8.96273e-05
8.96273e-05
0.000107191
0.000107191
0.000107191
0.000103894
0.000103894
0.000103894
7.26372e-05
7.26372e-05
7.26372e-05
7.71556e-05
7.71556e-05
7.71556e-05
3.47699e-05
3.47699e-05
3.47699e-05
2.19644e-05
2.19644e-05
2.19644e-05
2.34351e-05
2.34351e-05
2.34351e-05
2.56714e-05
2.56714e-05
2.56714e-05
2.49445e-05
2.49445e-05
2.49445e-05
3.63903e-05
3.63903e-05
3.63903e-05
3.57533e-05
3.57533e-05
3.57533e-05
0.0019534
0.0019534
0.0019534
0.00193068
0.00193068
0.00193068
2.27943e-05
2.27943e-05
2.27943e-05
4.08498e-05
4.08498e-05
4.08498e-05
0.000288434
0.000288434
0.000288434
4.62912e-05
4.62912e-05
4.62912e-05
0.00118087
0.00118087
0.00118087
9.95984e-05
9.95984e-05
9.95984e-05
7.01129e-05
7.01129e-05
7.01129e-05
5.01347e-05
5.01347e-05
5.01347e-05
5.10542e-05
5.10542e-05
5.10542e-05
5.8051e-05
5.8051e-05
5.8051e-05
5.54552e-05
5.54552e-05
5.54552e-05
3.82815e-05
3.82815e-05
3.82815e-05
2.68601e-05
2.68601e-05
2.68601e-05
2.44646e-05
2.44646e-05
2.44646e-05
2.50691e-05
2.50691e-05
2.50691e-05
2.43517e-05
2.43517e-05
2.43517e-05
4.14028e-05
4.14028e-05
4.14028e-05
4.68015e-05
4.68015e-05
4.68015e-05
4.4405e-05
4.4405e-05
4.4405e-05
3.74868e-05
3.74868e-05
3.74868e-05
3.74176e-05
3.74176e-05
3.74176e-05
3.83691e-05
3.83691e-05
3.83691e-05
4.05946e-05
4.05946e-05
4.05946e-05
4.5341e-05
4.5341e-05
4.5341e-05
4.23332e-05
4.23332e-05
4.23332e-05
1.59962e-05
1.59962e-05
1.59962e-05
1.64517e-05
1.64517e-05
1.64517e-05
1.94794e-05
1.94794e-05
1.94794e-05
1.7892e-05
1.7892e-05
1.7892e-05
1.83695e-05
1.83695e-05
1.83695e-05
1.6948e-05
1.6948e-05
1.6948e-05
1.69339e-05
1.69339e-05
1.69339e-05
1.7956e-05
1.7956e-05
1.7956e-05
1.86904e-05
1.86904e-05
1.86904e-05
1.44977e-05
1.44977e-05
1.44977e-05
1.45503e-05
1.45503e-05
1.45503e-05
1.70767e-05
1.70767e-05
1.70767e-05
1.41434e-05
1.41434e-05
1.41434e-05
1.44157e-05
1.44157e-05
1.44157e-05
2.42035e-05
2.42035e-05
2.42035e-05
2.26202e-05
2.26202e-05
2.26202e-05
2.41749e-05
2.41749e-05
2.41749e-05
2.46128e-05
2.46128e-05
2.46128e-05
2.46239e-05
2.46239e-05
2.46239e-05
2.65886e-05
2.65886e-05
2.65886e-05
2.2555e-05
2.2555e-05
2.2555e-05
0.000189998
0.000189998
0.000189998
0.000166684
0.000166684
0.000166684
5.82093e-05
5.82093e-05
5.82093e-05
6.36762e-05
6.36762e-05
6.36762e-05
0.000266106
0.000266106
0.000266106
0.000237243
0.000237243
0.000237243
0.00036344
0.00036344
0.00036344
0.000351157
0.000351157
0.000351157
0.000124847