<VTKFile type="UnstructuredGrid" version="1.0">
<UnstructuredGrid>
<Piece NumberOfPoints="10830" NumberOfCells="3610">
<Points>
<DataArray type="Float64" NumberOfComponents="3" format="ascii">
3.11035 1.27826 0.0257489
3.11035 1.28831 0.0514594
3.11035 1.28831 0
3.11035 1.28831 0.555078
3.11035 1.27701 0.580532
3.11035 1.28831 0.605999
3.11035 1.28831 0.555078
3.11035 1.26002 0.555099
3.11035 1.27701 0.580532
3.11035 0.0244388 1.02759
3.11035 4.44089e-16 1.045
3.11035 0.0422213 1.045
3.11035 4.44089e-16 1.045
3.11035 0.0244388 1.02759
3.11035 -7.90479e-14 1.01484
3.11035 1.28831 0.555078
3.11035 1.27702 0.529679
3.11035 1.26002 0.555099
3.11035 0.00863377 0.276786
3.11035 1.50546e-13 0.251574
3.11035 1.49658e-13 0.302009
3.11035 1.27705 0.2769
3.11035 1.26004 0.302114
3.11035 1.28831 0.302091
3.11035 1.27684 0.17634
3.11035 1.28831 0.201394
3.11035 1.28831 0.151284
3.11035 1.26004 0.302114
3.11035 1.27707 0.327315
3.11035 1.28831 0.302091
3.11035 1.28831 0.302091
3.11035 1.27707 0.327315
3.11035 1.28831 0.352537
3.11035 1.26005 0.352551
3.11035 1.28831 0.352537
3.11035 1.27707 0.327315
3.11035 1.26003 0.504308
3.11035 1.24613 0.529697
3.11035 1.27702 0.529679
3.11035 1.24613 0.529697
3.11035 1.26002 0.555099
3.11035 1.27702 0.529679
3.11035 1.24613 0.529697
3.11035 1.26003 0.504308
3.11035 1.23052 0.504324
3.11035 1.24613 0.529697
3.11035 1.23052 0.555118
3.11035 1.26002 0.555099
3.11035 1.28831 0.403041
3.11035 1.27705 0.428326
3.11035 1.28831 0.453619
3.11035 1.27705 0.428326
3.11035 1.24616 0.428339
3.11035 1.26004 0.453633
3.11035 1.28831 0.453619
3.11035 1.27705 0.428326
3.11035 1.26004 0.453633
3.11035 1.28831 0.504291
3.11035 1.26003 0.504308
3.11035 1.27702 0.529679
3.11035 1.28831 0.555078
3.11035 1.28831 0.504291
3.11035 1.27702 0.529679
3.11035 1.25981 0.151322
3.11035 1.27684 0.17634
3.11035 1.28831 0.151284
3.11035 1.26002 0.606025
3.11035 1.28831 0.605999
3.11035 1.27701 0.580532
3.11035 0.85884 0.785748
3.11035 0.888295 0.785725
3.11035 0.873578 0.759978
3.11035 4.44089e-16 0
3.11035 0.00987207 0.024705
3.11035 0.0277369 -5.6077e-14
3.11035 0.0840033 0.251587
3.11035 0.0689903 0.226374
3.11035 0.0549577 0.251567
3.11035 0.0264927 0.251562
3.11035 0.0392653 0.276779
3.11035 0.0549577 0.251567
3.11035 0.0264927 0.251562
3.11035 1.50546e-13 0.251574
3.11035 0.00863377 0.276786
3.11035 0.0392653 0.276779
3.11035 0.0264927 0.251562
3.11035 0.00863377 0.276786
3.11035 0.0087521 0.478941
3.11035 1.48326e-13 0.453605
3.11035 -9.59233e-14 0.504301
3.11035 0.0265703 0.504296
3.11035 0.0550657 0.504293
3.11035 0.0393699 0.478935
3.11035 -9.59233e-14 0.504301
3.11035 0.0265703 0.504296
3.11035 0.0087521 0.478941
3.11035 0.0265703 0.504296
3.11035 0.0393699 0.478935
3.11035 0.0087521 0.478941
3.11035 0.0265544 0.453601
3.11035 0.0393699 0.478935
3.11035 0.0550443 0.453599
3.11035 0.0265544 0.453601
3.11035 1.48326e-13 0.453605
3.11035 0.0087521 0.478941
3.11035 0.0393699 0.478935
3.11035 0.0265544 0.453601
3.11035 0.0087521 0.478941
3.11035 1.49658e-13 0.302009
3.11035 0.0265126 0.302001
3.11035 0.00863377 0.276786
3.11035 0.0265126 0.302001
3.11035 0.0392653 0.276779
3.11035 0.00863377 0.276786
3.11035 0.0550657 0.504293
3.11035 0.0691236 0.478933
3.11035 0.0393699 0.478935
3.11035 0.0393699 0.478935
3.11035 0.0691236 0.478933
3.11035 0.0550443 0.453599
3.11035 0.288852 0.453669
3.11035 0.274248 0.479001
3.11035 0.303471 0.479013
3.11035 0.274248 0.479001
3.11035 0.288872 0.504372
3.11035 0.303471 0.479013
3.11035 0.288872 0.504372
3.11035 0.318088 0.504385
3.11035 0.303471 0.479013
3.11035 0.844143 0.759998
3.11035 0.85884 0.785748
3.11035 0.873578 0.759978
3.11035 1.27699 0.226555
3.11035 1.28831 0.251699
3.11035 1.28831 0.201394
3.11035 1.28831 0.302091
3.11035 1.28831 0.251699
3.11035 1.27705 0.2769
3.11035 1.17079 0.403096
3.11035 1.15586 0.377846
3.11035 1.14088 0.40311
3.11035 1.26004 0.403053
3.11035 1.24616 0.428339
3.11035 1.27705 0.428326
3.11035 1.28831 0.403041
3.11035 1.26004 0.403053
3.11035 1.27705 0.428326
3.11035 1.24616 0.428339
3.11035 1.23053 0.453647
3.11035 1.26004 0.453633
3.11035 1.27704 0.47895
3.11035 1.28831 0.453619
3.11035 1.26004 0.453633
3.11035 1.28831 0.453619
3.11035 1.27704 0.47895
3.11035 1.28831 0.504291
3.11035 1.27704 0.47895
3.11035 1.26003 0.504308
3.11035 1.28831 0.504291
3.11035 1.24591 0.176367
3.11035 1.27684 0.17634
3.11035 1.25981 0.151322
3.11035 1.27699 0.226555
3.11035 1.26001 0.251744
3.11035 1.28831 0.251699
3.11035 1.26001 0.251744
3.11035 1.27705 0.2769
3.11035 1.28831 0.251699
3.11035 1.15573 0.226614
3.11035 1.1706 0.201432
3.11035 1.1407 0.201434
3.11035 1.20051 0.201451
3.11035 1.21561 0.176315
3.11035 1.18556 0.176261
3.11035 1.20051 0.201451
3.11035 1.18556 0.176261
3.11035 1.1706 0.201432
3.11035 1.24614 0.276933
3.11035 1.26004 0.302114
3.11035 1.27705 0.2769
3.11035 1.24614 0.276933
3.11035 1.27705 0.2769
3.11035 1.26001 0.251744
3.11035 1.24612 0.580555
3.11035 1.27701 0.580532
3.11035 1.26002 0.555099
3.11035 1.27701 0.580532
3.11035 1.24612 0.580555
3.11035 1.26002 0.606025
3.11035 1.23052 0.555118
3.11035 1.24612 0.580555
3.11035 1.26002 0.555099
3.11035 1.24611 0.734055
3.11035 1.23051 0.708373
3.11035 1.21584 0.734064
3.11035 1.21584 0.682738
3.11035 1.23051 0.708373
3.11035 1.24611 0.682719
3.11035 1.27699 0.63153
3.11035 1.28831 0.605999
3.11035 1.26002 0.606025
3.11035 1.24611 0.631556
3.11035 1.27699 0.63153
3.11035 1.26002 0.606025
3.11035 0.917741 0.837317
3.11035 0.902954 0.863195
3.11035 0.932465 0.86316
3.11035 1.08109 0.708429
3.11035 1.11094 0.708414
3.11035 1.09602 0.682792
3.11035 1.11094 0.708414
3.11035 1.12589 0.682778
3.11035 1.09602 0.682792
3.11035 1.2305 0.657127
3.11035 1.24611 0.631556
3.11035 1.21584 0.631578
3.11035 1.2305 0.657127
3.11035 1.21584 0.682738
3.11035 1.24611 0.682719
3.11035 1.0662 0.682809
3.11035 1.08109 0.708429
3.11035 1.09602 0.682792
3.11035 0.991917 0.453738
3.11035 0.977089 0.428435
3.11035 0.962274 0.453743
3.11035 0.917902 0.42844
3.11035 0.888384 0.428441
3.11035 0.903138 0.45375
3.11035 0.932681 0.453747
3.11035 0.917902 0.42844
3.11035 0.903138 0.45375
3.11035 0.903119 0.35265
3.11035 0.917893 0.377895
3.11035 0.932664 0.352655
3.11035 0.917893 0.377895
3.11035 0.903119 0.35265
3.11035 0.888374 0.377891
3.11035 0.903119 0.35265
3.11035 0.873625 0.352644
3.11035 0.888374 0.377891
3.11035 0.917893 0.377895
3.11035 0.947463 0.377896
3.11035 0.932664 0.352655
3.11035 0.962233 0.302232
3.11035 0.947444 0.327435
3.11035 0.977066 0.327437
3.11035 0.947444 0.327435
3.11035 0.962233 0.302232
3.11035 0.932637 0.302227
3.11035 0.741456 0.479091
3.11035 0.770765 0.479092
3.11035 0.756104 0.453749
3.11035 0.756104 0.453749
3.11035 0.770765 0.479092
3.11035 0.785431 0.453751
3.11035 0.903133 0.403156
3.11035 0.917893 0.377895
3.11035 0.888374 0.377891
3.11035 0.903133 0.403156
3.11035 0.888384 0.428441
3.11035 0.917902 0.42844
3.11035 0.888384 0.428441
3.11035 0.873639 0.403154
3.11035 0.858913 0.42844
3.11035 0.873639 0.403154
3.11035 0.888384 0.428441
3.11035 0.903133 0.403156
3.11035 0.888374 0.377891
3.11035 0.873639 0.403154
3.11035 0.903133 0.403156
3.11035 0.873625 0.352644
3.11035 0.858884 0.327412
3.11035 0.844177 0.352637
3.11035 0.844153 0.302193
3.11035 0.858884 0.327412
3.11035 0.873599 0.302206
3.11035 0.318069 0.45368
3.11035 0.288852 0.453669
3.11035 0.303471 0.479013
3.11035 0.288852 0.453669
3.11035 0.318069 0.45368
3.11035 0.303454 0.428361
3.11035 0.00864568 0.0748701
3.11035 -9.63674e-14 0.0494157
3.11035 1.49658e-13 0.100085
3.11035 4.44089e-16 0
3.11035 -9.63674e-14 0.0494157
3.11035 0.00987207 0.024705
3.11035 0.0264295 0.150698
3.11035 0.00849117 0.12542
3.11035 1.50546e-13 0.150672
3.11035 1.50546e-13 0.150672
3.11035 0.00849117 0.12542
3.11035 1.49658e-13 0.100085
3.11035 1.28831 0
3.11035 1.26122 1.13803e-14
3.11035 1.27826 0.0257489
3.11035 1.50546e-13 0.251574
3.11035 0.00859461 0.226356
3.11035 1.50546e-13 0.201144
3.11035 0.00859461 0.226356
3.11035 1.50546e-13 0.251574
3.11035 0.0264927 0.251562
3.11035 0.0264637 0.201134
3.11035 1.50546e-13 0.201144
3.11035 0.00859461 0.226356
3.11035 0.0264637 0.201134
3.11035 0.0549232 0.20116
3.11035 0.0391815 0.175937
3.11035 0.0392276 0.226352
3.11035 0.0549577 0.251567
3.11035 0.0689903 0.226374
3.11035 0.0549577 0.251567
3.11035 0.0392276 0.226352
3.11035 0.0264927 0.251562
3.11035 0.0549232 0.20116
3.11035 0.0392276 0.226352
3.11035 0.0689903 0.226374
3.11035 0.0392276 0.226352
3.11035 0.0549232 0.20116
3.11035 0.0264637 0.201134
3.11035 0.0264927 0.251562
3.11035 0.0392276 0.226352
3.11035 0.00859461 0.226356
3.11035 0.00859461 0.226356
3.11035 0.0392276 0.226352
3.11035 0.0264637 0.201134
3.11035 0.00854014 0.175915
3.11035 1.50546e-13 0.150672
3.11035 1.50546e-13 0.201144
3.11035 0.00854014 0.175915
3.11035 0.0264295 0.150698
3.11035 1.50546e-13 0.150672
3.11035 0.0264295 0.150698
3.11035 0.00854014 0.175915
3.11035 0.0391815 0.175937
3.11035 0.00854014 0.175915
3.11035 1.50546e-13 0.201144
3.11035 0.0264637 0.201134
3.11035 0.0391815 0.175937
3.11035 0.00854014 0.175915
3.11035 0.0264637 0.201134
3.11035 0.0690987 0.428289
3.11035 0.0393425 0.428289
3.11035 0.0550443 0.453599
3.11035 0.0550443 0.453599
3.11035 0.0393425 0.428289
3.11035 0.0265544 0.453601
3.11035 0.0393425 0.428289
3.11035 0.0690987 0.428289
3.11035 0.0550252 0.402998
3.11035 0.0690242 0.276785
3.11035 0.0840033 0.251587
3.11035 0.0549577 0.251567
3.11035 0.0392653 0.276779
3.11035 0.0690242 0.276785
3.11035 0.0549577 0.251567
3.11035 0.0984777 0.276801
3.11035 0.0840033 0.251587
3.11035 0.0690242 0.276785
3.11035 0.0840313 0.302008
3.11035 0.0984777 0.276801
3.11035 0.0690242 0.276785
3.11035 0.0840313 0.302008
3.11035 0.113251 0.302022
3.11035 0.0984777 0.276801
3.11035 0.303441 0.3778
3.11035 0.288836 0.403066
3.11035 0.318055 0.403074
3.11035 0.288836 0.403066
3.11035 0.303454 0.428361
3.11035 0.318055 0.403074
3.11035 0.186476 0.428318
3.11035 0.201123 0.453634
3.11035 0.215741 0.428329
3.11035 0.201103 0.403035
3.11035 0.186476 0.428318
[...]
<PointData Scalars="View Factor" >
<DataArray type="Float64" Name="View Factor" NumberOfComponents="1" format="ascii">
0.30574
0.30574
0.30574
0.156888
0.156888
0.156888
0.161162
0.161162
0.161162
0.0658743
0.0658743
0.0658743
0.0730161
0.0730161
0.0730161
0.16487
0.16487
0.16487
0.216378
0.216378
0.216378
0.228242
0.228242
0.228242
0.260816
0.260816
0.260816
0.223604
0.223604
0.223604
0.218109
0.218109
0.218109
0.214486
0.214486
0.214486
0.171578
0.171578
0.171578
0.167742
0.167742
0.167742
0.174641
0.174641
0.174641
0.166916
0.166916
0.166916
0.191909
0.191909
0.191909
0.191756
0.191756
0.191756
0.188528
0.188528
0.188528
0.17249
0.17249
0.17249
0.167963
0.167963
0.167963
0.266864
0.266864
0.266864
0.153948
0.153948
0.153948
0.00368922
0.00368922
0.00368922
0.386767
0.386767
0.386767
0.125823
0.125823
0.125823
0.169546
0.169546
0.169546
0.211659
0.211659
0.211659
0.188523
0.188523
0.188523
0.165634
0.165634
0.165634
0.123526
0.123526
0.123526
0.153811
0.153811
0.153811
0.140959
0.140959
0.140959
0.129212
0.129212
0.129212
0.161102
0.161102
0.161102
0.144229
0.144229
0.144229
0.201057
0.201057
0.201057
0.183601
0.183601
0.183601
0.105362
0.105362
0.105362
0.107676
0.107676
0.107676
0
0
0
0
0
0
0
0
0
0
0
0
0.246226
0.246226
0.246226
0.231959
0.231959
0.231959
0.205916
0.205916
0.205916
0.195988
0.195988
0.195988
0.196936
0.196936
0.196936
0.1909
0.1909
0.1909
0.18442
0.18442
0.18442
0.179641
0.179641
0.179641
0.1764
0.1764
0.1764
0.266039
0.266039
0.266039
0.242443
0.242443
0.242443
0.237664
0.237664
0.237664
0.260355
0.260355
0.260355
0.267055
0.267055
0.267055
0.265259
0.265259
0.265259
0.231993
0.231993
0.231993
0.236735
0.236735
0.236735
0.160276
0.160276
0.160276
0.156645
0.156645
0.156645
0.163156
0.163156
0.163156
0.131607
0.131607
0.131607
0.137943
0.137943
0.137943
0.150442
0.150442
0.150442
0.149588
0.149588
0.149588
0.0239823
0.0239823
0.0239823
0.129802
0.129802
0.129802
0.133486
0.133486
0.133486
0.147953
0.147953
0.147953
0.141211
0.141211
0.141211
0.128108
0.128108
0.128108
0.114987
0.114987
0.114987
0.028788
0.028788
0.028788
0.0426422
0.0426422
0.0426422
0.0475984
0.0475984
0.0475984
0.0313216
0.0313216
0.0313216
0.0179267
0.0179267
0.0179267
0.0682773
0.0682773
0.0682773
0.114196
0.114196
0.114196
0.0945529
0.0945529
0.0945529
0
0
0
0
0
0
0.0306765
0.0306765
0.0306765
0.0294095
0.0294095
0.0294095
0.00572344
0.00572344
0.00572344
0.0168843
0.0168843
0.0168843
0.017228
0.017228
0.017228
0
0
0
0
0
0
0
0
0
0
0
0
0.362162
0.362162
0.362162
0.380685
0.380685
0.380685
0.280972
0.280972
0.280972
0.307101
0.307101
0.307101
0.312175
0.312175
0.312175
0.236536
0.236536
0.236536
0.218303
0.218303
0.218303
0.233925
0.233925
0.233925
0.20233
0.20233
0.20233
0.151768
0.151768
0.151768
0.175951
0.175951
0.175951
0.160509
0.160509
0.160509
0.191984
0.191984
0.191984
0.201594
0.201594
0.201594
0.210013
0.210013
0.210013
0.264301
0.264301
0.264301
0.267221
0.267221
0.267221
0.241924
0.241924
0.241924
0.243351
0.243351
0.243351
0.230157
0.230157
0.230157
0.11241
0.11241
0.11241
0.132124
0.132124
0.132124
0.114829
0.114829
0.114829
0.119767
0.119767
0.119767
0.139404
0.139404
0.139404
0.0960141
0.0960141
0.0960141
0.0926643
0.0926643
0.0926643
0.0736898
0.0736898
0.0736898
0
0
0
0
0
0
0.00582592
0.00582592
0.00582592
0.00589483
0.00589483
0.00589483
0.0028129
0.0028129
0.0028129
0.00603319
0.00603319
0.00603319
0.00610259
0.00610259
0.00610259
0
0
0
0.0134231
0.0134231
0.0134231
0.00959485
0.00959485
0.00959485
0.0143575
0.0143575
0.0143575
0.0881307
0.0881307
0.0881307
0.0977076
0.0977076
0.0977076
0.0797914
0.0797914
0.0797914
0.0290982
0.0290982
0.0290982
0.0918823
0.0918823
0.0918823
0.0937982
0.0937982
0.0937982
0.078258
0.078258
0.078258
0.0126949
0.0126949
0.0126949
0.0920233
0.0920233
0.0920233
0.0708919
0.0708919
0.0708919
0
0
0
0
0
0
0
0
0
0
0
0
0
0
0
0
0
0
0
0
0
0
0
0
0
0
0
0
0
0
0.00541724
0.00541724
0.00541724
0
0
0
0
0
0
0
0
0
0
0
0
0
0
0
0
0
0
0
0
0
0
0
0
0
0
0
0
0
0
0
0
0
0
0
0
0
0
0
0
0
0
0
0
0
0
0
0
0
0
0
0
0
0
0
0
0
0
0
0
0
0
0
0
0
0
0
0
0
0
0
0
0
0
0
0
0
0
0
0
0
0
0
0
0
0
0
0
0
0
0
0
0
0
0
0
0
0
0
0
0
0
0.0808118
0.0808118
0.0808118
0.0386947
0.0386947
0.0386947
0.0701055
0.0701055
0.0701055
0.0847818
0.0847818
0.0847818
0.0762542
0.0762542
0.0762542
0.176752
0.176752
0.176752
0.169831
0.169831
0.169831
0.173719
0.173719
0.173719
0.17489
0.17489
0.17489
0.142442
0.142442
0.142442
0.139217
0.139217
0.139217
0.162532
0.162532
0.162532
0.190256
0.190256
0.190256
0.190667
0.190667
0.190667
0.201233
0.201233
0.201233
0.20464
0.20464
0.20464
0.204743
0.204743
0.204743
0.21001
0.21001
0.21001
0.209057
0.209057
0.209057
0.182961
0.182961
0.182961
0.180768
0.180768
0.180768
0.178605
0.178605
0.178605
0.186736
0.186736
0.186736
0.1817
0.1817
0.1817
0.185792
0.185792
0.185792
0.17945
0.17945
0.17945
0.183486
0.183486
0.183486
0.252117
0.252117
0.252117
0.257008
0.257008
0.257008
0.261073
0.261073
0.261073
0.271826
0.271826
0.271826
0.265911
0.265911
0.265911
0.268335
0.268335
0.268335
0.24071
0.24071
0.24071
0.248601
0.248601
0.248601
0.23977
0.23977
0.23977
0.243691
0.243691
0.243691
0.155842
0.155842
0.155842
0.152289
0.152289
0.152289
0.151427
0.151427
0.151427
0.12854
0.12854
0.12854
0.114689
0.114689
0.114689
0.0648638
0.0648638
0.0648638
0.00360873
0.00360873
0.00360873
0.0109422
0.0109422
0.0109422
0.0106948
0.0106948
0.0106948
0.12662
0.12662
0.12662
0.120466
0.120466
0.120466
0.128474
0.128474
0.128474
0.13159
0.13159
0.13159
0.160273
0.160273
0.160273
0.186137
0.186137
0.186137
0.177936
0.177936
0.177936
0.184293
0.184293
0.184293
0.163776
0.163776
0.163776
0.161748
0.161748
0.161748
0.15358
0.15358
0.15358
0.145386
0.145386
0.145386
0.142037
0.142037
0.142037
0.146161
0.146161
0.146161
0.133949
0.133949
0.133949
0.132315
0.132315
0.132315
0.137137
0.137137
0.137137
0.138717
0.138717
0.138717
0.133734
0.133734
0.133734
0.136947
0.136947
0.136947
0.164195
0.164195
0.164195
0.177438
0.177438
0.177438
0.173292
0.173292
0.173292
0.120766
0.120766
0.120766
0.016209
0.016209
0.016209
0.00561243
0.00561243
0.00561243
0.0416921
0.0416921
0.0416921
0
0
0
0
0
0
0
0
0
0
0
0
0
0
0
0
0
0
0
0
0
0
0
0
0
0
0
0
0
0
0
0
0
0
0
0
0
0
0
0
0
0
0.062293
0.062293
0.062293
0.078505
0.078505
0.078505
0.0967544
0.0967544
0.0967544
0.0991326
0.0991326
0.0991326
0
0
0
0
0
0
0
0
0
0.0182815
0.0182815
0.0182815
0.0190012
0.0190012
0.0190012
0.00629664
0.00629664
0.00629664
0.00641463
0.00641463
0.00641463
0.0507241
0.0507241
0.0507241
0.0333003
0.0333003
0.0333003
0.0326338
0.0326338
0.0326338
0.0486284
0.0486284
0.0486284
0.071396
0.071396
0.071396
0.0729847
0.0729847
0.0729847
0.104006
0.104006
0.104006
0.123727
0.123727
0.123727
0
0
0
0
0
0
0
0
0
0
0
0
0
0
0
0
0
0
0
0
0
0
0
0
0
0
0
0
0
0
0
0
0
0
0
0
0
0
0
0
0
0
0
0
0
0
0
0
0
0
0
0
0
0
0
0
0
0
0
0
0
0
0
0
0
0
0
0
0
0
0
0
0
0
0
0
0
0
0
0
0
0
0
0
0
0
0
0
0
0
0
0
0
0
0
0
0
0
0
0
0
0
0
0
0
0
0
0
0.0801402
0.0801402
0.0801402
0.107812
0.107812
0.107812
0.0860195
0.0860195
0.0860195
0
0
0
0
0
0
0
0
0
0
0
0
0
0
0
0
0
0
0
0
0
0
0
0
0.326859
0.326859
0.326859
0.311471
0.311471
0.311471
0.316128
0.316128
0.316128
0.335317
0.335317
0.335317
0.31197
0.31197
0.31197
0.31721
0.31721
0.31721
0.255445
0.255445
0.255445
0.271082
0.271082
0.271082
0.154393
0.154393
0.154393
0.150258
0.150258
0.150258
0.177462
0.177462
0.177462
0.16484
0.16484
0.16484
0.150933
0.150933
0.150933
0.189853
0.189853
0.189853
0.184413
0.184413
0.184413
0.147346
0.147346
0.147346
0.164969
0.164969
0.164969
0.196819
0.196819
0.196819
0.202773
0.202773
0.202773
0.188496
0.188496
0.188496
0.176013
0.176013
0.176013
0.172285
0.172285
0.172285
0.150517
0.150517
0.150517
0.127415
0.127415
0.127415
0.0893532
0.0893532
0.0893532
0.0724366
0.0724366
0.0724366
0.160261
0.160261
0.160261
0.135327
0.135327
0.135327
0.156975
0.156975
0.156975
0.130024
0.130024
0.130024
0.112144
0.112144
0.112144
0.110016
0.110016
0.110016
0.122285
0.122285
0.122285
0.119767
0.119767
0.119767
0.0997002
0.0997002
0.0997002
0.082912
0.082912
0.082912
0
0
0
0
0
0
0
0
0
0
0
0
0
0
0
0
0
0
0
0
0
0
0
0
0
0
0
0
0
0
0.0145471
0.0145471
0.0145471
0.0149287
0.0149287
0.0149287
0.00983583
0.00983583
0.00983583
0.00995693
0.00995693
0.00995693
0.0215671
0.0215671
0.0215671
0.0218693
0.0218693
0.0218693
0.00568871
0.00568871
0.00568871
0.00947502
0.00947502
0.00947502
0.00257157
0.00257157
0.00257157
0.0091186
0.0091186
0.0091186
0.00923687
0.00923687
0.00923687
0.00562045
0.00562045
0.00562045
0.0054847
0.0054847
0.0054847
0.00254176
0.00254176
0.00254176
0.0128752
0.0128752
0.0128752
0.00876732
0.00876732
0.00876732
0.00888379
0.00888379
0.00888379
0.0132393
0.0132393
0.0132393
0.0185311
0.0185311
0.0185311
0.0253193
0.0253193
0.0253193
0.0180634
0.0180634
0.0180634
0.0194423
0.0194423
0.0194423
0.0663219
0.0663219
0.0663219
0.0384561
0.0384561
0.0384561
0.0651324
0.0651324
0.0651324
0.0490469
0.0490469
0.0490469
0.0737697
0.0737697
0.0737697
0.0752467
0.0752467
0.0752467
0.0465867
0.0465867
0.0465867
0.0616374
0.0616374
0.0616374
0.0482192
0.0482192
0.0482192
0.0627898
0.0627898
0.0627898
0.0249167
0.0249167
0.0249167
0.0320674
0.0320674
0.0320674
0.0175318
0.0175318
0.0175318
0.0411348
0.0411348
0.0411348
0.0508753
0.0508753
0.0508753
0.0315204
0.0315204
0.0315204
0
0
0
0.00853634
0.00853634
0.00853634
0.00842189
0.00842189
0.00842189
0.00508467
0.00508467
0.00508467
0.00236524
0.00236524
0.00236524
0.076186
0.076186
0.076186
0.0587929
0.0587929
0.0587929
0.062809
0.062809
0.062809
0.107121
0.107121
0.107121
0.0994344
0.0994344
0.0994344
0.0915987
0.0915987
0.0915987
0.0899355
0.0899355
0.0899355
0.0993543
0.0993543
0.0993543
0.0922401
0.0922401
0.0922401
0.0850648
0.0850648
0.0850648
0.0969829
0.0969829
0.0969829
0.0871917
0.0871917
0.0871917
0.0790346
0.0790346
0.0790346
0.0771551
0.0771551
0.0771551
0
0
0
0
0
0
0
0
0
0
0
0
0.00266156
0.00266156
0.00266156
0.00263148
0.00263148
0.00263148
0
0
0
0.00248245
0.00248245
0.00248245
0
0
0
0
0
0
0
0
0
0
0
0
0
0
0
0
0
0
0
0
0
0
0
0
0
0
0
0
0
0
0
0
0
0
0
0
0
0
0
0
0
0
0
0
0
0
0
0
0
0
0
0
0
0
0
0
0
0
0
0
0
0
0
0
0
0
0
0
0
0
0
0
0
0
0
0
0
0
0
0
0
0
0
0
0
0
0
0
0
0
0
0
0
0
0
0
0
0
0
0
0
0
0
0
0
0
0
0
0
0
0
0
0
0
0
0
0
0
0
0
0
0
0
0
0
0
0
0
0
0
0
0
0
0
0
0
0
0
0
0
0
0
0
0
0.00385474
0.00385474
0.00385474
0.00393977
0.00393977
0.00393977
0
0
0
0
0
0
0
0
0
0
0
0
0
0
0
0
0
0
0
0
0
0
0
0
0
0
0
0
0
0
0
0
0
0
0
0
0
0
0
0
0
0
0
0
0
0
0
0
0
0
0
0
0
0
0.00819518
0.00819518
0.00819518
0.00501921
0.00501921
0.00501921
0
0
0
0
0
0
0
0
0
0
0
0
0
0
0
0
0
0
0
0
0
0
0
0
0
0
0
0
0
0
0
0
0
0
0
0
0
0
0
0
0
0
0
0
0
0
0
0
0
0
0
0
0
0
0
0
0
0
0
0
0
0
0
0
0
0
0
0
0
0
0
0
0
0
0
0
0
0
0
0
0
0
0
0
0
0
0
0
0
0
0
0
0
0
0
0
0
0
0
0
0
0
0.0326627
0.0326627
0.0326627
0.0258071
0.0258071
0.0258071
0.0809892
0.0809892
0.0809892
0.0770395
0.0770395
0.0770395
0.0801149
0.0801149
0.0801149
0.0664136
0.0664136
0.0664136
0.0646398
0.0646398
0.0646398
0.0803753
0.0803753
0.0803753
0.0742274
0.0742274
0.0742274
0.0596986
0.0596986
0.0596986
0.0613344
0.0613344
0.0613344
0.0991236
0.0991236
0.0991236
0.117505
0.117505
0.117505
0.0852449
0.0852449
0.0852449
0.0844186
0.0844186
0.0844186
0.0857972
0.0857972
0.0857972
0.0866684
0.0866684
0.0866684
0.0894936
0.0894936
0.0894936
0.168924
0.168924
0.168924
0.170958
0.170958
0.170958
0.173141
0.173141
0.173141
0.169168
0.169168
0.169168
0.185972
0.185972
0.185972
0.202233
0.202233
0.202233
0.188387
0.188387
0.188387
0.185486
0.185486
0.185486
0.181301
0.181301
0.181301
0.186735
0.186735
0.186735
0.192669
0.192669
0.192669
0.198453
0.198453
0.198453
0.194063
0.194063
0.194063
0.201434
0.201434
0.201434
0.199648
0.199648
0.199648
0.195277
0.195277
0.195277
0.199026
0.199026
0.199026
0.195043
0.195043
0.195043
0.207429
0.207429
0.207429
0.203511
0.203511
0.203511
0.203996
0.203996
0.203996
0.186443
0.186443
0.186443
0.188604
0.188604
0.188604
0.194851
0.194851
0.194851
0.199308
0.199308
0.199308
0.203781
0.203781
0.203781
0.199424
0.199424
0.199424
0.221366
0.221366
0.221366
0.212014
0.212014
0.212014
0.212678
0.212678
0.212678
0.206688
0.206688
0.206688
0.208586
0.208586
0.208586
0.291148
0.291148
0.291148
0.276042
0.276042
0.276042
0.281072
0.281072
0.281072
0.286785
0.286785
0.286785
0.28179
0.28179
0.28179
0.275608
0.275608
0.275608
0.290541
0.290541
0.290541
0.272263
0.272263
0.272263
0.28278
0.28278
0.28278
0.292239
0.292239
0.292239
0.288066
0.288066
0.288066
0.263579
0.263579
0.263579
0.258547
0.258547
0.258547
0.264453
0.264453
0.264453
0.260325
0.260325
0.260325
0.245554
0.245554
0.245554
0.246356
0.246356
0.246356
0.251225
0.251225
0.251225
0.255364
0.255364
0.255364
0.249522
0.249522
0.249522
0.254462
0.254462
0.254462
0.244581
0.244581
0.244581
0.241724
0.241724
0.241724
0.257559
0.257559
0.257559
0.252227
0.252227
0.252227
0.26
0.26
0.26
0.249662
0.249662
0.249662
0.256786
0.256786
0.256786
0.251709
0.251709
0.251709
0.127514
0.127514
0.127514
0.129215
0.129215
0.129215
0.127775
0.127775
0.127775
0.113908
0.113908
0.113908
0.132395
0.132395
0.132395
0.135542
0.135542
0.135542
0.0564563
0.0564563
0.0564563
0.0631381
0.0631381
0.0631381
0.0722264
0.0722264
0.0722264
0.0758611
0.0758611
0.0758611
0
0
0
0
0
0
0
0
0
0
0
0
0
0
0
0
0
0
0
0
0
0
0
0
0.00339676
0.00339676
0.00339676
0.016566
0.016566
0.016566
0.0595963
0.0595963
0.0595963
0.0612321
0.0612321
0.0612321
0.0182352
0.0182352
0.0182352
0.0271562
0.0271562
0.0271562
0.0352046
0.0352046
0.0352046
0.0519652
0.0519652
0.0519652
0.0533753
0.0533753
0.0533753
0.0448499
0.0448499
0.0448499
0.034308
0.034308
0.034308
0.0425454
0.0425454
0.0425454
0.0252087
0.0252087
0.0252087
0.0169699
0.0169699
0.0169699
0.00998103
0.00998103
0.00998103
0.0102142
0.0102142
0.0102142
0.0178044
0.0178044
0.0178044
0.0258433
0.0258433
0.0258433
0.128062
0.128062
0.128062
0.105007
0.105007
0.105007
0.1194
0.1194
0.1194
0.116349
0.116349
0.116349
0.0660871
0.0660871
0.0660871
0.0791969
0.0791969
0.0791969
0.0771897
0.0771897
0.0771897
0.0628345
0.0628345
0.0628345
0.0970176
0.0970176
0.0970176
0.102282
0.102282
0.102282
0.107595
0.107595
0.107595
0.110447
0.110447
0.110447
0.0823595
0.0823595
0.0823595
0.0916693
0.0916693
0.0916693
0.0892681
0.0892681
0.0892681
0.0781041
0.0781041
0.0781041
0.0845624
0.0845624
0.0845624
0.0966417
0.0966417
0.0966417
0.0612578
0.0612578
0.0612578
0.058203
0.058203
0.058203
0.0733008
0.0733008
0.0733008
0.0714188
0.0714188
0.0714188
0.132595
0.132595
0.132595
0.133449
0.133449
0.133449
0.115191
0.115191
0.115191
0.118102
0.118102
0.118102
0.117493
0.117493
0.117493
0.11799
0.11799
0.11799
0.115097
0.115097
0.115097
0.121832
0.121832
0.121832
0.118799
0.118799
0.118799
0.0944766
0.0944766
0.0944766
0.102086
0.102086
0.102086
0.139072
0.139072
0.139072
0.125703
0.125703
0.125703
0.131363
0.131363
0.131363
0.181882
0.181882
0.181882
0.182118
0.182118
0.182118
0.173785
0.173785
0.173785
0.16569
0.16569
0.16569
0.171772
0.171772
0.171772
0.175876
0.175876
0.175876
0.165201
0.165201
0.165201
0.161258
0.161258
0.161258
0.165861
0.165861
0.165861
0.165603
0.165603
0.165603
0.161743
0.161743
0.161743
0.158161
0.158161
0.158161
0.122529
0.122529
0.122529
0.121666
0.121666
0.121666
0.118571
0.118571
0.118571
0.131351
0.131351
0.131351
0.129492
0.129492
0.129492
0.143634
0.143634
0.143634
0.146418
0.146418
0.146418
0.138028
0.138028
0.138028
0.136624
0.136624
0.136624
0.135819
0.135819
0.135819
0.0766341
0.0766341
0.0766341
0.0594352
0.0594352
0.0594352
0.067763
0.067763
0.067763
0.0540018
0.0540018
0.0540018
0.172235
0.172235
0.172235
0.131322
0.131322
0.131322
0.134583
0.134583
0.134583
0.1426
0.1426
0.1426
0.149732
0.149732
0.149732
0.157382
0.157382
0.157382
0.161229
0.161229
0.161229
0.0158775
0.0158775
0.0158775
0.0269739
0.0269739
0.0269739
0.02757
0.02757
0.02757
0.0152275
0.0152275
0.0152275
0.00528724
0.00528724
0.00528724
0.0053943
0.0053943
0.0053943
0
0
0
0
0
0
0
0
0
0
0
0
0
0
0
0
0
0
0
0
0
0
0
0
0
0
0
0
0
0
0
0
0
0
0
0
0
0
0
0
0
0
0
0
0
0
0
0
0.0637561
0.0637561
0.0637561
0.0667488
0.0667488
0.0667488
0.0843042
0.0843042
0.0843042
0.0823406
0.0823406
0.0823406
0.045576
0.045576
0.045576
0.0445844
0.0445844
0.0445844
0
0
0
0
0
0
0
0
0
0
0
0
0
0
0
0
0
0
0
0
0
0
0
0
0
0
0
0
0
0
0
0
0
0
0
0
0
0
0
0
0
0
0.0346227
0.0346227
0.0346227
0.05018
0.05018
0.05018
0.0514296
0.0514296
0.0514296
0.106499
0.106499
0.106499
0.111596
0.111596
0.111596
0.13289
0.13289
0.13289
0.12979
0.12979
0.12979
0.0903705
0.0903705
0.0903705
0.0883199
0.0883199
0.0883199
0
0
0
0
0
0
0
0
0
0
0
0
0
0
0
0
0
0
0
0
0
0
0
0
0
0
0
0
0
0
0
0
0
0
0
0
0
0
0
0
0
0
0
0
0
0
0
0
0
0
0
0
0
0
0
0
0
0
0
0
0
0
0
0
0
0
0
0
0
0
0
0
0
0
0
0
0
0
0
0
0
0
0
0
0
0
0
0
0
0
0
0
0
0
0
0
0.00606388
0.00606388
0.00606388
0.0059492
0.0059492
0.0059492
0
0
0
0
0
0
0
0
0
0
0
0
0
0
0
0
0
0
0.00284331
0.00284331
0.00284331
0
0
0
0
0
0
0.00272192
0.00272192
0.00272192
0.0027522
0.0027522
0.0027522
0
0
0
0
0
0
0
0
0
0.0559099
0.0559099
0.0559099
0.0587588
0.0587588
0.0587588
0.0486047
0.0486047
0.0486047
0.0428162
0.0428162
0.0428162
0
0
0
0
0
0
0
0
0
0
0
0
0
0
0
0
0
0
0
0
0
0
0
0
0
0
0
0
0
0
0
0
0
0
0
0
0
0
0
0
0
0
0
0
0
0
0
0
0
0
0
0
0
0
0
0
0
0
0
0
0
0
0
0
0
0
0
0
0
0
0
0
0
0
0
0
0
0
0
0
0
0
0
0
0
0
0
0
0
0
0
0
0
0
0
0
0.0550821
0.0550821
0.0550821
0.386535
0.386535
0.386535
0.383654
0.383654
0.383654
0.38666
0.38666
0.38666
0.383507
0.383507
0.383507
0.386361
0.386361
0.386361
0.383351
0.383351
0.383351
0.182788
0.182788
0.182788
0.342684
0.342684
0.342684
0.319359
0.319359
0.319359
0.177375
0.177375
0.177375
0.20951
0.20951
0.20951
0.27743
0.27743
0.27743
0.265068
0.265068
0.265068
0.274635
0.274635
0.274635
0.268744
0.268744
0.268744
0.305815
0.305815
0.305815
0.255974
0.255974
0.255974
0.243764
0.243764
0.243764
0.275556
0.275556
0.275556
0.269833
0.269833
0.269833
0.262549
0.262549
0.262549
0.262421
0.262421
0.262421
0.267143
0.267143
0.267143
0.273611
0.273611
0.273611
0.328842
0.328842
0.328842
0.318573
0.318573
0.318573
0.324054
0.324054
0.324054
0.277291
0.277291
0.277291
0.273847
0.273847
0.273847
0.275888
0.275888
0.275888
0.281265
0.281265
0.281265
0.315456
0.315456
0.315456
0.319918
0.319918
0.319918
0.302159
0.302159
0.302159
0.307568
0.307568
0.307568
0.29773
0.29773
0.29773
0.308378
0.308378
0.308378
0.313548
0.313548
0.313548
0.314209
0.314209
0.314209
0.322893
0.322893
0.322893
0.317979
0.317979
0.317979
0.323507
0.323507
0.323507
0.319264
0.319264
0.319264
0.270203
0.270203
0.270203
0.279148
0.279148
0.279148
0.297591
0.297591
0.297591
0.290221
0.290221
0.290221
0.280384
0.280384
0.280384
0.260373
0.260373
0.260373
0.241864
0.241864
0.241864
0.252816
0.252816
0.252816
0.261309
0.261309
0.261309
0.246813
0.246813
0.246813
0.236812
0.236812
0.236812
0.270609
0.270609
0.270609
0.359459
0.359459
0.359459
0.363562
0.363562
0.363562
0.14375
0.14375
0.14375
0.13344
0.13344
0.13344
0.0827086
0.0827086
0.0827086
0.0862956
0.0862956
0.0862956
0.134584
0.134584
0.134584
0.0986369
0.0986369
0.0986369
0.120753
0.120753
0.120753
0.100842
0.100842
0.100842
0.141128
0.141128
0.141128
0.138083
0.138083
0.138083
0.176412
0.176412
0.176412
0.161384
0.161384
0.161384
0.172495
0.172495
0.172495
0.154364
0.154364
0.154364
0.0687357
0.0687357
0.0687357
0.0699591
0.0699591
0.0699591
0.103758
0.103758
0.103758
0.0844981
0.0844981
0.0844981
0.105822
0.105822
0.105822
0.0877193
0.0877193
0.0877193
0
0
0
0
0
0
0
0
0
0
0
0
0
0
0
0
0
0
0.0299713
0.0299713
0.0299713
0.0390671
0.0390671
0.0390671
0.051573
0.051573
0.051573
0.0507241
0.0507241
0.0507241
0.0421825
0.0421825
0.0421825
0.0532903
0.0532903
0.0532903
0.054158
0.054158
0.054158
0.0102002
0.0102002
0.0102002
0.0151206
0.0151206
0.0151206
0.0273861
0.0273861
0.0273861
0.0139808
0.0139808
0.0139808
0.0137939
0.0137939
0.0137939
0.0197746
0.0197746
0.0197746
0.0261356
0.0261356
0.0261356
0.026549
0.026549
0.026549
0.124267
0.124267
0.124267
0.115341
0.115341
0.115341
0.121123
0.121123
0.121123
0.0849354
0.0849354
0.0849354
0.0829247
0.0829247
0.0829247
0.104503
0.104503
0.104503
0.0938794
0.0938794
0.0938794
0.115411
0.115411
0.115411
0.107123
0.107123
0.107123
0.0985952
0.0985952
0.0985952
0.112541
0.112541
0.112541
0.101033
0.101033
0.101033
0.0890889
0.0890889