<VTKFile type="UnstructuredGrid" version="1.0">
<UnstructuredGrid>
<Piece NumberOfPoints="10830" NumberOfCells="3610">
<Points>
<DataArray type="Float64" NumberOfComponents="3" format="ascii">
3.11035 1.27826 0.0257489
3.11035 1.28831 0.0514594
3.11035 1.28831 0
3.11035 1.28831 0.555078
3.11035 1.27701 0.580532
3.11035 1.28831 0.605999
3.11035 1.28831 0.555078
3.11035 1.26002 0.555099
3.11035 1.27701 0.580532
3.11035 0.0244388 1.02759
3.11035 4.44089e-16 1.045
3.11035 0.0422213 1.045
3.11035 4.44089e-16 1.045
3.11035 0.0244388 1.02759
3.11035 -7.90479e-14 1.01484
3.11035 1.28831 0.555078
3.11035 1.27702 0.529679
3.11035 1.26002 0.555099
3.11035 0.00863377 0.276786
3.11035 1.50546e-13 0.251574
3.11035 1.49658e-13 0.302009
3.11035 1.27705 0.2769
3.11035 1.26004 0.302114
3.11035 1.28831 0.302091
3.11035 1.27684 0.17634
3.11035 1.28831 0.201394
3.11035 1.28831 0.151284
3.11035 1.26004 0.302114
3.11035 1.27707 0.327315
3.11035 1.28831 0.302091
3.11035 1.28831 0.302091
3.11035 1.27707 0.327315
3.11035 1.28831 0.352537
3.11035 1.26005 0.352551
3.11035 1.28831 0.352537
3.11035 1.27707 0.327315
3.11035 1.26003 0.504308
3.11035 1.24613 0.529697
3.11035 1.27702 0.529679
3.11035 1.24613 0.529697
3.11035 1.26002 0.555099
3.11035 1.27702 0.529679
3.11035 1.24613 0.529697
3.11035 1.26003 0.504308
3.11035 1.23052 0.504324
3.11035 1.24613 0.529697
3.11035 1.23052 0.555118
3.11035 1.26002 0.555099
3.11035 1.28831 0.403041
3.11035 1.27705 0.428326
3.11035 1.28831 0.453619
3.11035 1.27705 0.428326
3.11035 1.24616 0.428339
3.11035 1.26004 0.453633
3.11035 1.28831 0.453619
3.11035 1.27705 0.428326
3.11035 1.26004 0.453633
3.11035 1.28831 0.504291
3.11035 1.26003 0.504308
3.11035 1.27702 0.529679
3.11035 1.28831 0.555078
3.11035 1.28831 0.504291
3.11035 1.27702 0.529679
3.11035 1.25981 0.151322
3.11035 1.27684 0.17634
3.11035 1.28831 0.151284
3.11035 1.26002 0.606025
3.11035 1.28831 0.605999
3.11035 1.27701 0.580532
3.11035 0.85884 0.785748
3.11035 0.888295 0.785725
3.11035 0.873578 0.759978
3.11035 4.44089e-16 0
3.11035 0.00987207 0.024705
3.11035 0.0277369 -5.6077e-14
3.11035 0.0840033 0.251587
3.11035 0.0689903 0.226374
3.11035 0.0549577 0.251567
3.11035 0.0264927 0.251562
3.11035 0.0392653 0.276779
3.11035 0.0549577 0.251567
3.11035 0.0264927 0.251562
3.11035 1.50546e-13 0.251574
3.11035 0.00863377 0.276786
3.11035 0.0392653 0.276779
3.11035 0.0264927 0.251562
3.11035 0.00863377 0.276786
3.11035 0.0087521 0.478941
3.11035 1.48326e-13 0.453605
3.11035 -9.59233e-14 0.504301
3.11035 0.0265703 0.504296
3.11035 0.0550657 0.504293
3.11035 0.0393699 0.478935
3.11035 -9.59233e-14 0.504301
3.11035 0.0265703 0.504296
3.11035 0.0087521 0.478941
3.11035 0.0265703 0.504296
3.11035 0.0393699 0.478935
3.11035 0.0087521 0.478941
3.11035 0.0265544 0.453601
3.11035 0.0393699 0.478935
3.11035 0.0550443 0.453599
3.11035 0.0265544 0.453601
3.11035 1.48326e-13 0.453605
3.11035 0.0087521 0.478941
3.11035 0.0393699 0.478935
3.11035 0.0265544 0.453601
3.11035 0.0087521 0.478941
3.11035 1.49658e-13 0.302009
3.11035 0.0265126 0.302001
3.11035 0.00863377 0.276786
3.11035 0.0265126 0.302001
3.11035 0.0392653 0.276779
3.11035 0.00863377 0.276786
3.11035 0.0550657 0.504293
3.11035 0.0691236 0.478933
3.11035 0.0393699 0.478935
3.11035 0.0393699 0.478935
3.11035 0.0691236 0.478933
3.11035 0.0550443 0.453599
3.11035 0.288852 0.453669
3.11035 0.274248 0.479001
3.11035 0.303471 0.479013
3.11035 0.274248 0.479001
3.11035 0.288872 0.504372
3.11035 0.303471 0.479013
3.11035 0.288872 0.504372
3.11035 0.318088 0.504385
3.11035 0.303471 0.479013
3.11035 0.844143 0.759998
3.11035 0.85884 0.785748
3.11035 0.873578 0.759978
3.11035 1.27699 0.226555
3.11035 1.28831 0.251699
3.11035 1.28831 0.201394
3.11035 1.28831 0.302091
3.11035 1.28831 0.251699
3.11035 1.27705 0.2769
3.11035 1.17079 0.403096
3.11035 1.15586 0.377846
3.11035 1.14088 0.40311
3.11035 1.26004 0.403053
3.11035 1.24616 0.428339
3.11035 1.27705 0.428326
3.11035 1.28831 0.403041
3.11035 1.26004 0.403053
3.11035 1.27705 0.428326
3.11035 1.24616 0.428339
3.11035 1.23053 0.453647
3.11035 1.26004 0.453633
3.11035 1.27704 0.47895
3.11035 1.28831 0.453619
3.11035 1.26004 0.453633
3.11035 1.28831 0.453619
3.11035 1.27704 0.47895
3.11035 1.28831 0.504291
3.11035 1.27704 0.47895
3.11035 1.26003 0.504308
3.11035 1.28831 0.504291
3.11035 1.24591 0.176367
3.11035 1.27684 0.17634
3.11035 1.25981 0.151322
3.11035 1.27699 0.226555
3.11035 1.26001 0.251744
3.11035 1.28831 0.251699
3.11035 1.26001 0.251744
3.11035 1.27705 0.2769
3.11035 1.28831 0.251699
3.11035 1.15573 0.226614
3.11035 1.1706 0.201432
3.11035 1.1407 0.201434
3.11035 1.20051 0.201451
3.11035 1.21561 0.176315
3.11035 1.18556 0.176261
3.11035 1.20051 0.201451
3.11035 1.18556 0.176261
3.11035 1.1706 0.201432
3.11035 1.24614 0.276933
3.11035 1.26004 0.302114
3.11035 1.27705 0.2769
3.11035 1.24614 0.276933
3.11035 1.27705 0.2769
3.11035 1.26001 0.251744
3.11035 1.24612 0.580555
3.11035 1.27701 0.580532
3.11035 1.26002 0.555099
3.11035 1.27701 0.580532
3.11035 1.24612 0.580555
3.11035 1.26002 0.606025
3.11035 1.23052 0.555118
3.11035 1.24612 0.580555
3.11035 1.26002 0.555099
3.11035 1.24611 0.734055
3.11035 1.23051 0.708373
3.11035 1.21584 0.734064
3.11035 1.21584 0.682738
3.11035 1.23051 0.708373
3.11035 1.24611 0.682719
3.11035 1.27699 0.63153
3.11035 1.28831 0.605999
3.11035 1.26002 0.606025
3.11035 1.24611 0.631556
3.11035 1.27699 0.63153
3.11035 1.26002 0.606025
3.11035 0.917741 0.837317
3.11035 0.902954 0.863195
3.11035 0.932465 0.86316
3.11035 1.08109 0.708429
3.11035 1.11094 0.708414
3.11035 1.09602 0.682792
3.11035 1.11094 0.708414
3.11035 1.12589 0.682778
3.11035 1.09602 0.682792
3.11035 1.2305 0.657127
3.11035 1.24611 0.631556
3.11035 1.21584 0.631578
3.11035 1.2305 0.657127
3.11035 1.21584 0.682738
3.11035 1.24611 0.682719
3.11035 1.0662 0.682809
3.11035 1.08109 0.708429
3.11035 1.09602 0.682792
3.11035 0.991917 0.453738
3.11035 0.977089 0.428435
3.11035 0.962274 0.453743
3.11035 0.917902 0.42844
3.11035 0.888384 0.428441
3.11035 0.903138 0.45375
3.11035 0.932681 0.453747
3.11035 0.917902 0.42844
3.11035 0.903138 0.45375
3.11035 0.903119 0.35265
3.11035 0.917893 0.377895
3.11035 0.932664 0.352655
3.11035 0.917893 0.377895
3.11035 0.903119 0.35265
3.11035 0.888374 0.377891
3.11035 0.903119 0.35265
3.11035 0.873625 0.352644
3.11035 0.888374 0.377891
3.11035 0.917893 0.377895
3.11035 0.947463 0.377896
3.11035 0.932664 0.352655
3.11035 0.962233 0.302232
3.11035 0.947444 0.327435
3.11035 0.977066 0.327437
3.11035 0.947444 0.327435
3.11035 0.962233 0.302232
3.11035 0.932637 0.302227
3.11035 0.741456 0.479091
3.11035 0.770765 0.479092
3.11035 0.756104 0.453749
3.11035 0.756104 0.453749
3.11035 0.770765 0.479092
3.11035 0.785431 0.453751
3.11035 0.903133 0.403156
3.11035 0.917893 0.377895
3.11035 0.888374 0.377891
3.11035 0.903133 0.403156
3.11035 0.888384 0.428441
3.11035 0.917902 0.42844
3.11035 0.888384 0.428441
3.11035 0.873639 0.403154
3.11035 0.858913 0.42844
3.11035 0.873639 0.403154
3.11035 0.888384 0.428441
3.11035 0.903133 0.403156
3.11035 0.888374 0.377891
3.11035 0.873639 0.403154
3.11035 0.903133 0.403156
3.11035 0.873625 0.352644
3.11035 0.858884 0.327412
3.11035 0.844177 0.352637
3.11035 0.844153 0.302193
3.11035 0.858884 0.327412
3.11035 0.873599 0.302206
3.11035 0.318069 0.45368
3.11035 0.288852 0.453669
3.11035 0.303471 0.479013
3.11035 0.288852 0.453669
3.11035 0.318069 0.45368
3.11035 0.303454 0.428361
3.11035 0.00864568 0.0748701
3.11035 -9.63674e-14 0.0494157
3.11035 1.49658e-13 0.100085
3.11035 4.44089e-16 0
3.11035 -9.63674e-14 0.0494157
3.11035 0.00987207 0.024705
3.11035 0.0264295 0.150698
3.11035 0.00849117 0.12542
3.11035 1.50546e-13 0.150672
3.11035 1.50546e-13 0.150672
3.11035 0.00849117 0.12542
3.11035 1.49658e-13 0.100085
3.11035 1.28831 0
3.11035 1.26122 1.13803e-14
3.11035 1.27826 0.0257489
3.11035 1.50546e-13 0.251574
3.11035 0.00859461 0.226356
3.11035 1.50546e-13 0.201144
3.11035 0.00859461 0.226356
3.11035 1.50546e-13 0.251574
3.11035 0.0264927 0.251562
3.11035 0.0264637 0.201134
3.11035 1.50546e-13 0.201144
3.11035 0.00859461 0.226356
3.11035 0.0264637 0.201134
3.11035 0.0549232 0.20116
3.11035 0.0391815 0.175937
3.11035 0.0392276 0.226352
3.11035 0.0549577 0.251567
3.11035 0.0689903 0.226374
3.11035 0.0549577 0.251567
3.11035 0.0392276 0.226352
3.11035 0.0264927 0.251562
3.11035 0.0549232 0.20116
3.11035 0.0392276 0.226352
3.11035 0.0689903 0.226374
3.11035 0.0392276 0.226352
3.11035 0.0549232 0.20116
3.11035 0.0264637 0.201134
3.11035 0.0264927 0.251562
3.11035 0.0392276 0.226352
3.11035 0.00859461 0.226356
3.11035 0.00859461 0.226356
3.11035 0.0392276 0.226352
3.11035 0.0264637 0.201134
3.11035 0.00854014 0.175915
3.11035 1.50546e-13 0.150672
3.11035 1.50546e-13 0.201144
3.11035 0.00854014 0.175915
3.11035 0.0264295 0.150698
3.11035 1.50546e-13 0.150672
3.11035 0.0264295 0.150698
3.11035 0.00854014 0.175915
3.11035 0.0391815 0.175937
3.11035 0.00854014 0.175915
3.11035 1.50546e-13 0.201144
3.11035 0.0264637 0.201134
3.11035 0.0391815 0.175937
3.11035 0.00854014 0.175915
3.11035 0.0264637 0.201134
3.11035 0.0690987 0.428289
3.11035 0.0393425 0.428289
3.11035 0.0550443 0.453599
3.11035 0.0550443 0.453599
3.11035 0.0393425 0.428289
3.11035 0.0265544 0.453601
3.11035 0.0393425 0.428289
3.11035 0.0690987 0.428289
3.11035 0.0550252 0.402998
3.11035 0.0690242 0.276785
3.11035 0.0840033 0.251587
3.11035 0.0549577 0.251567
3.11035 0.0392653 0.276779
3.11035 0.0690242 0.276785
3.11035 0.0549577 0.251567
3.11035 0.0984777 0.276801
3.11035 0.0840033 0.251587
3.11035 0.0690242 0.276785
3.11035 0.0840313 0.302008
3.11035 0.0984777 0.276801
3.11035 0.0690242 0.276785
3.11035 0.0840313 0.302008
3.11035 0.113251 0.302022
3.11035 0.0984777 0.276801
3.11035 0.303441 0.3778
3.11035 0.288836 0.403066
3.11035 0.318055 0.403074
3.11035 0.288836 0.403066
3.11035 0.303454 0.428361
3.11035 0.318055 0.403074
3.11035 0.186476 0.428318
3.11035 0.201123 0.453634
3.11035 0.215741 0.428329
3.11035 0.201103 0.403035
3.11035 0.186476 0.428318
[...]
<PointData Scalars="View Factor" >
<DataArray type="Float64" Name="View Factor" NumberOfComponents="1" format="ascii">
9.32255e-05
9.32255e-05
9.32255e-05
0.000109952
0.000109952
0.000109952
0.000109418
0.000109418
0.000109418
0.000114772
0.000114772
0.000114772
0.000117853
0.000117853
0.000117853
0.000108857
0.000108857
0.000108857
6.63874e-05
6.63874e-05
6.63874e-05
0.000100903
0.000100903
0.000100903
9.74332e-05
9.74332e-05
9.74332e-05
0.000101408
0.000101408
0.000101408
0.00010189
0.00010189
0.00010189
0.000102429
0.000102429
0.000102429
0.000108067
0.000108067
0.000108067
0.000108622
0.000108622
0.000108622
0.000107839
0.000107839
0.000107839
0.000108949
0.000108949
0.000108949
0.000105015
0.000105015
0.000105015
0.000105351
0.000105351
0.000105351
0.000105576
0.000105576
0.000105576
0.000107748
0.000107748
0.000107748
0.000108271
0.000108271
0.000108271
9.69807e-05
9.69807e-05
9.69807e-05
0.000110551
0.000110551
0.000110551
3.06777e-06
3.06777e-06
3.06777e-06
6.29371e-05
6.29371e-05
6.29371e-05
4.61965e-05
4.61965e-05
4.61965e-05
5.54281e-05
5.54281e-05
5.54281e-05
6.36045e-05
6.36045e-05
6.36045e-05
5.96695e-05
5.96695e-05
5.96695e-05
7.05683e-05
7.05683e-05
7.05683e-05
5.95168e-05
5.95168e-05
5.95168e-05
6.83012e-05
6.83012e-05
6.83012e-05
6.37483e-05
6.37483e-05
6.37483e-05
5.89084e-05
5.89084e-05
5.89084e-05
6.76022e-05
6.76022e-05
6.76022e-05
6.34214e-05
6.34214e-05
6.34214e-05
6.42488e-05
6.42488e-05
6.42488e-05
5.99708e-05
5.99708e-05
5.99708e-05
5.41054e-05
5.41054e-05
5.41054e-05
5.38283e-05
5.38283e-05
5.38283e-05
0
0
0
0
0
0
0
0
0
0
0
0
9.88879e-05
9.88879e-05
9.88879e-05
0.000100374
0.000100374
0.000100374
8.73473e-05
8.73473e-05
8.73473e-05
0.000104819
0.000104819
0.000104819
0.000104513
0.000104513
0.000104513
0.000105664
0.000105664
0.000105664
0.000106114
0.000106114
0.000106114
0.000106626
0.000106626
0.000106626
0.000107199
0.000107199
0.000107199
9.7257e-05
9.7257e-05
9.7257e-05
9.94062e-05
9.94062e-05
9.94062e-05
9.99017e-05
9.99017e-05
9.99017e-05
8.26441e-05
8.26441e-05
8.26441e-05
9.39614e-05
9.39614e-05
9.39614e-05
9.04728e-05
9.04728e-05
9.04728e-05
0.000100691
0.000100691
0.000100691
0.00010019
0.00010019
0.00010019
0.000109744
0.000109744
0.000109744
0.000110311
0.000110311
0.000110311
0.000109511
0.000109511
0.000109511
0.000115107
0.000115107
0.000115107
0.000113905
0.000113905
0.000113905
0.000111124
0.000111124
0.000111124
0.000111459
0.000111459
0.000111459
3.45528e-05
3.45528e-05
3.45528e-05
7.7207e-05
7.7207e-05
7.7207e-05
8.14796e-05
8.14796e-05
8.14796e-05
0.000112136
0.000112136
0.000112136
0.000113311
0.000113311
0.000113311
7.1593e-05
7.1593e-05
7.1593e-05
3.48214e-05
3.48214e-05
3.48214e-05
1.14298e-05
1.14298e-05
1.14298e-05
1.57871e-05
1.57871e-05
1.57871e-05
1.53886e-05
1.53886e-05
1.53886e-05
1.11985e-05
1.11985e-05
1.11985e-05
6.95725e-06
6.95725e-06
6.95725e-06
2.05051e-05
2.05051e-05
2.05051e-05
2.85247e-05
2.85247e-05
2.85247e-05
2.42998e-05
2.42998e-05
2.42998e-05
0
0
0
0
0
0
1.12557e-05
1.12557e-05
1.12557e-05
1.13713e-05
1.13713e-05
1.13713e-05
2.74866e-06
2.74866e-06
2.74866e-06
7.06443e-06
7.06443e-06
7.06443e-06
7.02846e-06
7.02846e-06
7.02846e-06
0
0
0
0
0
0
0
0
0
0
0
0
6.25144e-05
6.25144e-05
6.25144e-05
6.15977e-05
6.15977e-05
6.15977e-05
6.14116e-05
6.14116e-05
6.14116e-05
6.34575e-05
6.34575e-05
6.34575e-05
9.27833e-05
9.27833e-05
9.27833e-05
6.5393e-05
6.5393e-05
6.5393e-05
6.32854e-05
6.32854e-05
6.32854e-05
6.26532e-05
6.26532e-05
6.26532e-05
5.43275e-05
5.43275e-05
5.43275e-05
5.01422e-05
5.01422e-05
5.01422e-05
5.51503e-05
5.51503e-05
5.51503e-05
4.98916e-05
4.98916e-05
4.98916e-05
5.46001e-05
5.46001e-05
5.46001e-05
5.90726e-05
5.90726e-05
5.90726e-05
5.87769e-05
5.87769e-05
5.87769e-05
6.44169e-05
6.44169e-05
6.44169e-05
6.17193e-05
6.17193e-05
6.17193e-05
5.79009e-05
5.79009e-05
5.79009e-05
6.234e-05
6.234e-05
6.234e-05
5.81911e-05
5.81911e-05
5.81911e-05
5.328e-05
5.328e-05
5.328e-05
5.86074e-05
5.86074e-05
5.86074e-05
5.30088e-05
5.30088e-05
5.30088e-05
4.64287e-05
4.64287e-05
4.64287e-05
5.06481e-05
5.06481e-05
5.06481e-05
4.24454e-05
4.24454e-05
4.24454e-05
4.26591e-05
4.26591e-05
4.26591e-05
3.8639e-05
3.8639e-05
3.8639e-05
0
0
0
0
0
0
8.70924e-06
8.70924e-06
8.70924e-06
8.66549e-06
8.66549e-06
8.66549e-06
4.34919e-06
4.34919e-06
4.34919e-06
8.5789e-06
8.5789e-06
8.5789e-06
8.53604e-06
8.53604e-06
8.53604e-06
0
0
0
1.76396e-05
1.76396e-05
1.76396e-05
1.29779e-05
1.29779e-05
1.29779e-05
1.71971e-05
1.71971e-05
1.71971e-05
4.98478e-05
4.98478e-05
4.98478e-05
4.85891e-05
4.85891e-05
4.85891e-05
4.44202e-05
4.44202e-05
4.44202e-05
2.64571e-05
2.64571e-05
2.64571e-05
4.9339e-05
4.9339e-05
4.9339e-05
4.90873e-05
4.90873e-05
4.90873e-05
4.46472e-05
4.46472e-05
4.46472e-05
1.80052e-05
1.80052e-05
1.80052e-05
9.40077e-05
9.40077e-05
9.40077e-05
0.000120171
0.000120171
0.000120171
0
0
0
0
0
0
0
0
0
0
0
0
0
0
0
0
0
0
0
0
0
0
0
0
0
0
0
0
0
0
8.97818e-06
8.97818e-06
8.97818e-06
0
0
0
0
0
0
0
0
0
0
0
0
0
0
0
0
0
0
0
0
0
0
0
0
0
0
0
0
0
0
0
0
0
0
0
0
0
0
0
0
0
0
0
0
0
0
0
0
0
0
0
0.000108177
0.000108177
0.000108177
0.000104603
0.000104603
0.000104603
9.9584e-05
9.9584e-05
9.9584e-05
9.58025e-05
9.58025e-05
9.58025e-05
9.56661e-05
9.56661e-05
9.56661e-05
9.4415e-05
9.4415e-05
9.4415e-05
9.56227e-05
9.56227e-05
9.56227e-05
0.000104554
0.000104554
0.000104554
9.55772e-05
9.55772e-05
9.55772e-05
9.43717e-05
9.43717e-05
9.43717e-05
8.36669e-05
8.36669e-05
8.36669e-05
9.57559e-05
9.57559e-05
9.57559e-05
0.000104503
0.000104503
0.000104503
0.000108124
0.000108124
0.000108124
9.95348e-05
9.95348e-05
9.95348e-05
9.57073e-05
9.57073e-05
9.57073e-05
9.54918e-05
9.54918e-05
9.54918e-05
0.000117633
0.000117633
0.000117633
0.000104232
0.000104232
0.000104232
5.43302e-05
5.43302e-05
5.43302e-05
6.36032e-05
6.36032e-05
6.36032e-05
6.08431e-05
6.08431e-05
6.08431e-05
0.000107929
0.000107929
0.000107929
0.000108715
0.000108715
0.000108715
0.00010816
0.00010816
0.00010816
0.000103919
0.000103919
0.000103919
3.32587e-05
3.32587e-05
3.32587e-05
3.34276e-05
3.34276e-05
3.34276e-05
3.72813e-05
3.72813e-05
3.72813e-05
7.96908e-05
7.96908e-05
7.96908e-05
7.53664e-05
7.53664e-05
7.53664e-05
0.000103987
0.000103987
0.000103987
0.000103766
0.000103766
0.000103766
0.000103437
0.000103437
0.000103437
0.000102945
0.000102945
0.000102945
0.000103245
0.000103245
0.000103245
0.00010286
0.00010286
0.00010286
0.000107379
0.000107379
0.000107379
0.000107289
0.000107289
0.000107289
0.000106202
0.000106202
0.000106202
0.00010706
0.00010706
0.00010706
0.000106516
0.000106516
0.000106516
0.000106969
0.000106969
0.000106969
0.000106426
0.000106426
0.000106426
9.84254e-05
9.84254e-05
9.84254e-05
9.79404e-05
9.79404e-05
9.79404e-05
9.77372e-05
9.77372e-05
9.77372e-05
9.65066e-05
9.65066e-05
9.65066e-05
8.22328e-05
8.22328e-05
8.22328e-05
8.57779e-05
8.57779e-05
8.57779e-05
9.99835e-05
9.99835e-05
9.99835e-05
9.95674e-05
9.95674e-05
9.95674e-05
0.000100273
0.000100273
0.000100273
0.000100064
0.000100064
0.000100064
0.000110646
0.000110646
0.000110646
0.00011122
0.00011122
0.00011122
0.000111555
0.000111555
0.000111555
0.000115715
0.000115715
0.000115715
0.000100041
0.000100041
0.000100041
0.000100094
0.000100094
0.000100094
3.08426e-06
3.08426e-06
3.08426e-06
7.84159e-06
7.84159e-06
7.84159e-06
7.8836e-06
7.8836e-06
7.8836e-06
7.76175e-05
7.76175e-05
7.76175e-05
7.84479e-05
7.84479e-05
7.84479e-05
0.000101562
0.000101562
0.000101562
0.000101026
0.000101026
0.000101026
5.31172e-05
5.31172e-05
5.31172e-05
7.14034e-05
7.14034e-05
7.14034e-05
6.21747e-05
6.21747e-05
6.21747e-05
6.62123e-05
6.62123e-05
6.62123e-05
6.79404e-05
6.79404e-05
6.79404e-05
6.34704e-05
6.34704e-05
6.34704e-05
5.84385e-05
5.84385e-05
5.84385e-05
0.000112381
0.000112381
0.000112381
0.000112968
0.000112968
0.000112968
0.000112039
0.000112039
0.000112039
0.000114854
0.000114854
0.000114854
0.000110607
0.000110607
0.000110607
0.000114253
0.000114253
0.000114253
0.00010945
0.00010945
0.00010945
0.000105983
0.000105983
0.000105983
0.000105426
0.000105426
0.000105426
5.28445e-05
5.28445e-05
5.28445e-05
5.66588e-05
5.66588e-05
5.66588e-05
5.69502e-05
5.69502e-05
5.69502e-05
3.44656e-05
3.44656e-05
3.44656e-05
7.13714e-06
7.13714e-06
7.13714e-06
2.76277e-06
2.76277e-06
2.76277e-06
1.58684e-05
1.58684e-05
1.58684e-05
0
0
0
0
0
0
0
0
0
0
0
0
0
0
0
0
0
0
0
0
0
0
0
0
0
0
0
0
0
0
0
0
0
0
0
0
0
0
0
0
0
0
2.0929e-05
2.0929e-05
2.0929e-05
2.53125e-05
2.53125e-05
2.53125e-05
2.95625e-05
2.95625e-05
2.95625e-05
2.94111e-05
2.94111e-05
2.94111e-05
0
0
0
0
0
0
0
0
0
6.92201e-06
6.92201e-06
6.92201e-06
6.85224e-06
6.85224e-06
6.85224e-06
2.67957e-06
2.67957e-06
2.67957e-06
2.66603e-06
2.66603e-06
2.66603e-06
1.5156e-05
1.5156e-05
1.5156e-05
1.10292e-05
1.10292e-05
1.10292e-05
1.10853e-05
1.10853e-05
1.10853e-05
1.53105e-05
1.53105e-05
1.53105e-05
2.02975e-05
2.02975e-05
2.02975e-05
2.01948e-05
2.01948e-05
2.01948e-05
2.91115e-05
2.91115e-05
2.91115e-05
3.42896e-05
3.42896e-05
3.42896e-05
0
0
0
0
0
0
0
0
0
0
0
0
0
0
0
0
0
0
0
0
0
0
0
0
0
0
0
0
0
0
0
0
0
0
0
0
0
0
0
0
0
0
0
0
0
0
0
0
0
0
0
0
0
0
0
0
0
0
0
0
0
0
0
0
0
0
0
0
0
0
0
0
0
0
0
0
0
0
0
0
0
0
0
0
0
0
0
0
0
0
0
0
0
0
0
0
0
0
0
0
0
0
0
0
0
0
0
0
3.82534e-05
3.82534e-05
3.82534e-05
4.20223e-05
4.20223e-05
4.20223e-05
3.80625e-05
3.80625e-05
3.80625e-05
0
0
0
0
0
0
0
0
0
0
0
0
0
0
0
0
0
0
0
0
0
0
0
0
8.14638e-05
8.14638e-05
8.14638e-05
9.30492e-05
9.30492e-05
9.30492e-05
9.28532e-05
9.28532e-05
9.28532e-05
6.47165e-05
6.47165e-05
6.47165e-05
7.90366e-05
7.90366e-05
7.90366e-05
7.86557e-05
7.86557e-05
7.86557e-05
5.76227e-05
5.76227e-05
5.76227e-05
5.70493e-05
5.70493e-05
5.70493e-05
7.16691e-05
7.16691e-05
7.16691e-05
6.86544e-05
6.86544e-05
6.86544e-05
6.94907e-05
6.94907e-05
6.94907e-05
6.72564e-05
6.72564e-05
6.72564e-05
6.27746e-05
6.27746e-05
6.27746e-05
6.84353e-05
6.84353e-05
6.84353e-05
6.5563e-05
6.5563e-05
6.5563e-05
5.71332e-05
5.71332e-05
5.71332e-05
6.15075e-05
6.15075e-05
6.15075e-05
6.45741e-05
6.45741e-05
6.45741e-05
6.74012e-05
6.74012e-05
6.74012e-05
6.52311e-05
6.52311e-05
6.52311e-05
6.05794e-05
6.05794e-05
6.05794e-05
6.08867e-05
6.08867e-05
6.08867e-05
5.68443e-05
5.68443e-05
5.68443e-05
5.16798e-05
5.16798e-05
5.16798e-05
4.30906e-05
4.30906e-05
4.30906e-05
3.88338e-05
3.88338e-05
3.88338e-05
5.5989e-05
5.5989e-05
5.5989e-05
5.09035e-05
5.09035e-05
5.09035e-05
5.62722e-05
5.62722e-05
5.62722e-05
5.14193e-05
5.14193e-05
5.14193e-05
4.68977e-05
4.68977e-05
4.68977e-05
4.71346e-05
4.71346e-05
4.71346e-05
5.2206e-05
5.2206e-05
5.2206e-05
5.24718e-05
5.24718e-05
5.24718e-05
4.83426e-05
4.83426e-05
4.83426e-05
4.3971e-05
4.3971e-05
4.3971e-05
0
0
0
0
0
0
0
0
0
0
0
0
0
0
0
0
0
0
0
0
0
0
0
0
0
0
0
0
0
0
1.71104e-05
1.71104e-05
1.71104e-05
1.69388e-05
1.69388e-05
1.69388e-05
1.28476e-05
1.28476e-05
1.28476e-05
1.27831e-05
1.27831e-05
1.27831e-05
2.19916e-05
2.19916e-05
2.19916e-05
2.18808e-05
2.18808e-05
2.18808e-05
8.79763e-06
8.79763e-06
8.79763e-06
1.30437e-05
1.30437e-05
1.30437e-05
4.5276e-06
4.5276e-06
4.5276e-06
1.32439e-05
1.32439e-05
1.32439e-05
1.31767e-05
1.31767e-05
1.31767e-05
8.8423e-06
8.8423e-06
8.8423e-06
8.93256e-06
8.93256e-06
8.93256e-06
4.55061e-06
4.55061e-06
4.55061e-06
1.79128e-05
1.79128e-05
1.79128e-05
1.34484e-05
1.34484e-05
1.34484e-05
1.33798e-05
1.33798e-05
1.33798e-05
1.773e-05
1.773e-05
1.773e-05
2.24002e-05
2.24002e-05
2.24002e-05
2.77021e-05
2.77021e-05
2.77021e-05
2.22992e-05
2.22992e-05
2.22992e-05
2.24662e-05
2.24662e-05
2.24662e-05
3.9827e-05
3.9827e-05
3.9827e-05
3.06447e-05
3.06447e-05
3.06447e-05
4.00297e-05
4.00297e-05
4.00297e-05
3.49966e-05
3.49966e-05
3.49966e-05
4.53375e-05
4.53375e-05
4.53375e-05
4.51058e-05
4.51058e-05
4.51058e-05
3.55354e-05
3.55354e-05
3.55354e-05
4.06463e-05
4.06463e-05
4.06463e-05
3.51749e-05
3.51749e-05
3.51749e-05
4.04394e-05
4.04394e-05
4.04394e-05
2.78455e-05
2.78455e-05
2.78455e-05
3.24209e-05
3.24209e-05
3.24209e-05
2.25301e-05
2.25301e-05
2.25301e-05
3.68381e-05
3.68381e-05
3.68381e-05
4.14547e-05
4.14547e-05
4.14547e-05
3.25894e-05
3.25894e-05
3.25894e-05
0
0
0
1.35873e-05
1.35873e-05
1.35873e-05
1.36574e-05
1.36574e-05
1.36574e-05
9.21125e-06
9.21125e-06
9.21125e-06
4.69213e-06
4.69213e-06
4.69213e-06
0.000118656
0.000118656
0.000118656
0.000115238
0.000115238
0.000115238
0.000118645
0.000118645
0.000118645
7.75598e-05
7.75598e-05
7.75598e-05
7.50835e-05
7.50835e-05
7.50835e-05
7.0067e-05
7.0067e-05
7.0067e-05
8.7486e-05
8.7486e-05
8.7486e-05
8.27786e-05
8.27786e-05
8.27786e-05
8.36973e-05
8.36973e-05
8.36973e-05
7.78565e-05
7.78565e-05
7.78565e-05
7.67327e-05
7.67327e-05
7.67327e-05
7.40186e-05
7.40186e-05
7.40186e-05
6.44555e-05
6.44555e-05
6.44555e-05
6.63087e-05
6.63087e-05
6.63087e-05
0
0
0
0
0
0
0
0
0
0
0
0
4.45955e-06
4.45955e-06
4.45955e-06
4.48208e-06
4.48208e-06
4.48208e-06
0
0
0
4.59711e-06
4.59711e-06
4.59711e-06
0
0
0
0
0
0
0
0
0
0
0
0
0
0
0
0
0
0
0
0
0
0
0
0
0
0
0
0
0
0
0
0
0
0
0
0
0
0
0
0
0
0
0
0
0
0
0
0
0
0
0
0
0
0
0
0
0
3.27317e-06
3.27317e-06
3.27317e-06
0
0
0
0
0
0
0
0
0
0
0
0
0
0
0
0
0
0
0
0
0
0
0
0
0
0
0
0
0
0
0
0
0
0
0
0
0
0
0
0
0
0
0
0
0
0
0
0
0
0
0
0
0
0
0
0
0
0
0
0
0
0
0
0
0
0
0
0
0
0
0
0
0
0
0
0
0
0
0
0
0
0
0
0
3.03516e-06
3.03516e-06
3.03516e-06
3.01905e-06
3.01905e-06
3.01905e-06
0
0
0
0
0
0
0
0
0
0
0
0
0
0
0
0
0
0
0
0
0
0
0
0
0
0
0
0
0
0
0
0
0
2.85833e-05
2.85833e-05
2.85833e-05
0.000108321
0.000108321
0.000108321
9.44563e-05
9.44563e-05
9.44563e-05
7.67849e-05
7.67849e-05
7.67849e-05
8.37404e-05
8.37404e-05
8.37404e-05
3.27171e-06
3.27171e-06
3.27171e-06
7.70315e-06
7.70315e-06
7.70315e-06
1.37993e-05
1.37993e-05
1.37993e-05
9.25889e-06
9.25889e-06
9.25889e-06
0.000104737
0.000104737
0.000104737
1.96671e-05
1.96671e-05
1.96671e-05
0
0
0
3.28365e-06
3.28365e-06
3.28365e-06
3.39646e-05
3.39646e-05
3.39646e-05
0
0
0
0
0
0
0
0
0
0
0
0
0
0
0
0
0
0
1.96486e-05
1.96486e-05
1.96486e-05
6.50213e-05
6.50213e-05
6.50213e-05
7.67197e-05
7.67197e-05
7.67197e-05
7.6753e-05
7.6753e-05
7.6753e-05
8.37045e-05
8.37045e-05
8.37045e-05
3.27841e-06
3.27841e-06
3.27841e-06
0
0
0
0
0
0
1.5961e-05
1.5961e-05
1.5961e-05
1.96417e-05
1.96417e-05
1.96417e-05
1.59667e-05
1.59667e-05
1.59667e-05
7.71894e-06
7.71894e-06
7.71894e-06
0
0
0
0
0
0
9.54327e-05
9.54327e-05
9.54327e-05
9.92562e-05
9.92562e-05
9.92562e-05
0.000108069
0.000108069
0.000108069
9.56566e-05
9.56566e-05
9.56566e-05
9.94834e-05
9.94834e-05
9.94834e-05
9.55488e-05
9.55488e-05
9.55488e-05
9.93163e-05
9.93163e-05
9.93163e-05
0.00010789
0.00010789
0.00010789
0.000104336
0.000104336
0.000104336
0.000105753
0.000105753
0.000105753
0.000101658
0.000101658
0.000101658
0.000111776
0.000111776
0.000111776
0.00011516
0.00011516
0.00011516
0.000117424
0.000117424
0.000117424
6.60661e-05
6.60661e-05
6.60661e-05
7.20615e-05
7.20615e-05
7.20615e-05
7.3863e-05
7.3863e-05
7.3863e-05
6.63681e-05
6.63681e-05
6.63681e-05
5.88527e-05
5.88527e-05
5.88527e-05
5.26576e-05
5.26576e-05
5.26576e-05
9.89445e-05
9.89445e-05
9.89445e-05
9.8971e-05
9.8971e-05
9.8971e-05
0.000126684
0.000126684
0.000126684
0.000126557
0.000126557
0.000126557
0.000126239
0.000126239
0.000126239
0.000126376
0.000126376
0.000126376
0.000125589
0.000125589
0.000125589
0.000109041
0.000109041
0.000109041
0.000104454
0.000104454
0.000104454
8.65962e-05
8.65962e-05
8.65962e-05
8.70445e-05
8.70445e-05
8.70445e-05
8.01001e-05
8.01001e-05
8.01001e-05
9.65705e-05
9.65705e-05
9.65705e-05
8.91461e-05
8.91461e-05
8.91461e-05
8.52705e-05
8.52705e-05
8.52705e-05
8.57092e-05
8.57092e-05
8.57092e-05
9.34497e-05
9.34497e-05
9.34497e-05
8.86917e-05
8.86917e-05
8.86917e-05
8.39728e-05
8.39728e-05
8.39728e-05
8.44023e-05
8.44023e-05
8.44023e-05
8.77923e-05
8.77923e-05
8.77923e-05
9.2031e-05
9.2031e-05
9.2031e-05
9.25006e-05
9.25006e-05
9.25006e-05
7.88807e-05
7.88807e-05
7.88807e-05
7.4982e-05
7.4982e-05
7.4982e-05
8.31226e-05
8.31226e-05
8.31226e-05
7.84799e-05
7.84799e-05
7.84799e-05
7.42212e-05
7.42212e-05
7.42212e-05
6.15405e-05
6.15405e-05
6.15405e-05
6.5874e-05
6.5874e-05
6.5874e-05
7.06763e-05
7.06763e-05
7.06763e-05
7.03165e-05
7.03165e-05
7.03165e-05
0.000104073
0.000104073
0.000104073
0.0001046
0.0001046
0.0001046
8.1869e-05
8.1869e-05
8.1869e-05
8.27019e-05
8.27019e-05
8.27019e-05
0.00010303
0.00010303
0.00010303
9.60824e-05
9.60824e-05
9.60824e-05
9.11015e-05
9.11015e-05
9.11015e-05
9.49022e-05
9.49022e-05
9.49022e-05
9.63066e-05
9.63066e-05
9.63066e-05
9.58356e-05
9.58356e-05
9.58356e-05
9.51023e-05
9.51023e-05
9.51023e-05
9.55677e-05
9.55677e-05
9.55677e-05
9.60119e-05
9.60119e-05
9.60119e-05
9.46172e-05
9.46172e-05
9.46172e-05
9.34969e-05
9.34969e-05
9.34969e-05
9.25767e-05
9.25767e-05
9.25767e-05
8.76798e-05
8.76798e-05
8.76798e-05
9.21209e-05
9.21209e-05
9.21209e-05
9.80968e-05
9.80968e-05
9.80968e-05
9.85839e-05
9.85839e-05
9.85839e-05
9.78161e-05
9.78161e-05
9.78161e-05
9.802e-05
9.802e-05
9.802e-05
9.94876e-05
9.94876e-05
9.94876e-05
9.91986e-05
9.91986e-05
9.91986e-05
9.87081e-05
9.87081e-05
9.87081e-05
9.85058e-05
9.85058e-05
9.85058e-05
9.92803e-05
9.92803e-05
9.92803e-05
9.8789e-05
9.8789e-05
9.8789e-05
9.2294e-05
9.2294e-05
9.2294e-05
9.63274e-05
9.63274e-05
9.63274e-05
8.66369e-05
8.66369e-05
8.66369e-05
8.70704e-05
8.70704e-05
8.70704e-05
9.09239e-05
9.09239e-05
9.09239e-05
9.18344e-05
9.18344e-05
9.18344e-05
9.48987e-05
9.48987e-05
9.48987e-05
9.53719e-05
9.53719e-05
9.53719e-05
0.000107108
0.000107108
0.000107108
0.000111192
0.000111192
0.000111192
0.000116071
0.000116071
0.000116071
0.000105128
0.000105128
0.000105128
0.000114756
0.000114756
0.000114756
0.000114155
0.000114155
0.000114155
0.000106507
0.000106507
0.000106507
0.000106635
0.000106635
0.000106635
9.8169e-05
9.8169e-05
9.8169e-05
0.000103703
0.000103703
0.000103703
0
0
0
0
0
0
0
0
0
0
0
0
0
0
0
3.25044e-06
3.25044e-06
3.25044e-06
7.69198e-06
7.69198e-06
7.69198e-06
3.26861e-06
3.26861e-06
3.26861e-06
1.06166e-05
1.06166e-05
1.06166e-05
2.71402e-05
2.71402e-05
2.71402e-05
9.39502e-05
9.39502e-05
9.39502e-05
8.63579e-05
8.63579e-05
8.63579e-05
1.26926e-05
1.26926e-05
1.26926e-05
1.74407e-05
1.74407e-05
1.74407e-05
2.96779e-05
2.96779e-05
2.96779e-05
4.50035e-05
4.50035e-05
4.50035e-05
3.87274e-05
3.87274e-05
3.87274e-05
3.08968e-05
3.08968e-05
3.08968e-05
3.64987e-05
3.64987e-05
3.64987e-05
4.36235e-05
4.36235e-05
4.36235e-05
2.04991e-05
2.04991e-05
2.04991e-05
1.96872e-05
1.96872e-05
1.96872e-05
1.1051e-05
1.1051e-05
1.1051e-05
7.96859e-06
7.96859e-06
7.96859e-06
1.27609e-05
1.27609e-05
1.27609e-05
1.7629e-05
1.7629e-05
1.7629e-05
5.56622e-05
5.56622e-05
5.56622e-05
4.62335e-05
4.62335e-05
4.62335e-05
5.13005e-05
5.13005e-05
5.13005e-05
5.15713e-05
5.15713e-05
5.15713e-05
2.6247e-05
2.6247e-05
2.6247e-05
3.08134e-05
3.08134e-05
3.08134e-05
3.0975e-05
3.0975e-05
3.0975e-05
2.65229e-05
2.65229e-05
2.65229e-05
4.69739e-05
4.69739e-05
4.69739e-05
4.64784e-05
4.64784e-05
4.64784e-05
5.23961e-05
5.23961e-05
5.23961e-05
5.21191e-05
5.21191e-05
5.21191e-05
3.7264e-05
3.7264e-05
3.7264e-05
4.19881e-05
4.19881e-05
4.19881e-05
4.22114e-05
4.22114e-05
4.22114e-05
3.76614e-05
3.76614e-05
3.76614e-05
3.70676e-05
3.70676e-05
3.70676e-05
4.15466e-05
4.15466e-05
4.15466e-05
2.66624e-05
2.66624e-05
2.66624e-05
2.69446e-05
2.69446e-05
2.69446e-05
3.13018e-05
3.13018e-05
3.13018e-05
3.14671e-05
3.14671e-05
3.14671e-05
9.63753e-05
9.63753e-05
9.63753e-05
8.61554e-05
8.61554e-05
8.61554e-05
8.89511e-05
8.89511e-05
8.89511e-05
9.41856e-05
9.41856e-05
9.41856e-05
7.88678e-05
7.88678e-05
7.88678e-05
8.36743e-05
8.36743e-05
8.36743e-05
8.41233e-05
8.41233e-05
8.41233e-05
7.23571e-05
7.23571e-05
7.23571e-05
7.27434e-05
7.27434e-05
7.27434e-05
4.72245e-05
4.72245e-05
4.72245e-05
5.29565e-05
5.29565e-05
5.29565e-05
5.96688e-05
5.96688e-05
5.96688e-05
5.0765e-05
5.0765e-05
5.0765e-05
5.5371e-05
5.5371e-05
5.5371e-05
7.17709e-05
7.17709e-05
7.17709e-05
7.61434e-05
7.61434e-05
7.61434e-05
6.24951e-05
6.24951e-05
6.24951e-05
6.31429e-05
6.31429e-05
6.31429e-05
6.72417e-05
6.72417e-05
6.72417e-05
6.68961e-05
6.68961e-05
6.68961e-05
5.75391e-05
5.75391e-05
5.75391e-05
5.78368e-05
5.78368e-05
5.78368e-05
7.77312e-05
7.77312e-05
7.77312e-05
8.21913e-05