<VTKFile type="UnstructuredGrid" version="1.0">
<UnstructuredGrid>
<Piece NumberOfPoints="10830" NumberOfCells="3610">
<Points>
<DataArray type="Float64" NumberOfComponents="3" format="ascii">
3.10314 1.29552 6.29575
3.11025 1.28841 6.27
3.11025 1.28841 6.32146
3.11025 1.28841 6.82508
3.11025 1.28841 6.876
3.10226 1.2964 6.85053
3.11025 1.28841 6.82508
3.10226 1.2964 6.85053
3.09025 1.30841 6.8251
2.21656 2.1821 7.29759
2.22913 2.16953 7.315
2.19928 2.19938 7.315
2.19928 2.19938 7.315
2.19928 2.19938 7.28484
2.21656 2.1821 7.29759
3.11025 1.28841 6.82508
3.09025 1.30841 6.8251
3.10227 1.29639 6.79968
2.20538 2.19328 6.54679
2.19928 2.19938 6.57201
2.19928 2.19938 6.52157
3.10229 1.29637 6.5469
3.11025 1.28841 6.57209
3.09026 1.3084 6.57211
3.10214 1.29652 6.44634
3.11025 1.28841 6.42128
3.11025 1.28841 6.47139
3.09026 1.3084 6.57211
3.11025 1.28841 6.57209
3.1023 1.29636 6.59731
3.11025 1.28841 6.57209
3.11025 1.28841 6.62254
3.1023 1.29636 6.59731
3.09026 1.3084 6.62255
3.1023 1.29636 6.59731
3.11025 1.28841 6.62254
3.09025 1.30841 6.77431
3.10227 1.29639 6.79968
3.08043 1.31823 6.7997
3.08043 1.31823 6.7997
3.10227 1.29639 6.79968
3.09025 1.30841 6.8251
3.08043 1.31823 6.7997
3.06939 1.32927 6.77432
3.09025 1.30841 6.77431
3.08043 1.31823 6.7997
3.09025 1.30841 6.8251
3.06938 1.32928 6.82512
3.11025 1.28841 6.67304
3.11025 1.28841 6.72362
3.10229 1.29637 6.69833
3.10229 1.29637 6.69833
3.09026 1.3084 6.72363
3.08044 1.31822 6.69834
3.11025 1.28841 6.72362
3.09026 1.3084 6.72363
3.10229 1.29637 6.69833
3.11025 1.28841 6.77429
3.10227 1.29639 6.79968
3.09025 1.30841 6.77431
3.11025 1.28841 6.82508
3.10227 1.29639 6.79968
3.11025 1.28841 6.77429
3.0901 1.30856 6.42132
3.11025 1.28841 6.42128
3.10214 1.29652 6.44634
3.09024 1.30842 6.87602
3.10226 1.2964 6.85053
3.11025 1.28841 6.876
2.80657 1.59209 7.05575
2.81699 1.58167 7.02998
2.8274 1.57126 7.05572
2.19928 2.19938 6.27
2.21889 2.17977 6.27
2.20626 2.1924 6.2947
2.25868 2.13998 6.52159
2.23814 2.16052 6.52157
2.24806 2.1506 6.49637
2.21801 2.18065 6.52156
2.23814 2.16052 6.52157
2.22704 2.17162 6.54678
2.21801 2.18065 6.52156
2.20538 2.19328 6.54679
2.19928 2.19938 6.52157
2.22704 2.17162 6.54678
2.20538 2.19328 6.54679
2.21801 2.18065 6.52156
2.20547 2.19319 6.74894
2.19928 2.19938 6.7743
2.19928 2.19938 6.72361
2.21807 2.1806 6.7743
2.22712 2.17155 6.74893
2.23821 2.16045 6.77429
2.19928 2.19938 6.7743
2.20547 2.19319 6.74894
2.21807 2.1806 6.7743
2.21807 2.1806 6.7743
2.20547 2.19319 6.74894
2.22712 2.17155 6.74893
2.21805 2.18061 6.7236
2.2382 2.16046 6.7236
2.22712 2.17155 6.74893
2.21805 2.18061 6.7236
2.20547 2.19319 6.74894
2.19928 2.19938 6.72361
2.22712 2.17155 6.74893
2.20547 2.19319 6.74894
2.21805 2.18061 6.7236
2.19928 2.19938 6.57201
2.20538 2.19328 6.54679
2.21802 2.18064 6.572
2.21802 2.18064 6.572
2.20538 2.19328 6.54679
2.22704 2.17162 6.54678
2.23821 2.16045 6.77429
2.22712 2.17155 6.74893
2.24816 2.15051 6.74893
2.22712 2.17155 6.74893
2.2382 2.16046 6.7236
2.24816 2.15051 6.74893
2.40353 1.99513 6.72367
2.41386 1.9848 6.74901
2.3932 2.00546 6.749
2.3932 2.00546 6.749
2.41386 1.9848 6.74901
2.40354 1.99512 6.77437
2.40354 1.99512 6.77437
2.41386 1.9848 6.74901
2.4242 1.97446 6.77438
2.79618 1.60248 7.03
2.81699 1.58167 7.02998
2.80657 1.59209 7.05575
3.10224 1.29642 6.49656
3.11025 1.28841 6.47139
3.11025 1.28841 6.5217
3.11025 1.28841 6.57209
3.10229 1.29637 6.5469
3.11025 1.28841 6.5217
3.02715 1.37151 6.6731
3.006 1.39266 6.67311
3.01659 1.38207 6.64785
3.09026 1.3084 6.67305
3.10229 1.29637 6.69833
3.08044 1.31822 6.69834
3.11025 1.28841 6.67304
3.10229 1.29637 6.69833
3.09026 1.3084 6.67305
3.08044 1.31822 6.69834
3.09026 1.3084 6.72363
3.0694 1.32926 6.72365
3.10228 1.29638 6.74895
3.09026 1.3084 6.72363
3.11025 1.28841 6.72362
3.11025 1.28841 6.72362
3.11025 1.28841 6.77429
3.10228 1.29638 6.74895
3.10228 1.29638 6.74895
3.11025 1.28841 6.77429
3.09025 1.30841 6.77431
3.08027 1.31839 6.44637
3.0901 1.30856 6.42132
3.10214 1.29652 6.44634
3.10224 1.29642 6.49656
3.11025 1.28841 6.5217
3.09024 1.30842 6.52174
3.09024 1.30842 6.52174
3.11025 1.28841 6.5217
3.10229 1.29637 6.5469
3.0165 1.38216 6.49661
3.00588 1.39278 6.47143
3.02702 1.37164 6.47143
3.04817 1.35049 6.47145
3.03759 1.36107 6.44626
3.05884 1.33982 6.44631
3.04817 1.35049 6.47145
3.02702 1.37164 6.47143
3.03759 1.36107 6.44626
3.08043 1.31823 6.54693
3.10229 1.29637 6.5469
3.09026 1.3084 6.57211
3.08043 1.31823 6.54693
3.09024 1.30842 6.52174
3.10229 1.29637 6.5469
3.08042 1.31824 6.85055
3.09025 1.30841 6.8251
3.10226 1.2964 6.85053
3.10226 1.2964 6.85053
3.09024 1.30842 6.87602
3.08042 1.31824 6.85055
3.06938 1.32928 6.82512
3.09025 1.30841 6.8251
3.08042 1.31824 6.85055
3.08041 1.31825 7.00405
3.05901 1.33965 7.00406
3.06938 1.32928 6.97837
3.05901 1.33966 6.95274
3.08041 1.31825 6.95272
3.06938 1.32928 6.97837
3.10225 1.29641 6.90153
3.09024 1.30842 6.87602
3.11025 1.28841 6.876
3.08041 1.31825 6.90156
3.09024 1.30842 6.87602
3.10225 1.29641 6.90153
2.84822 1.55044 7.10732
2.85863 1.54003 7.13316
2.83776 1.5609 7.1332
2.96373 1.43493 6.97843
2.97428 1.42438 6.95279
2.98483 1.41383 6.97841
2.98483 1.41383 6.97841
2.97428 1.42438 6.95279
2.9954 1.40326 6.95278
3.06938 1.32929 6.92713
3.05901 1.33965 6.90158
3.08041 1.31825 6.90156
3.06938 1.32929 6.92713
3.08041 1.31825 6.95272
3.05901 1.33966 6.95274
2.95319 1.44547 6.95281
2.97428 1.42438 6.95279
2.96373 1.43493 6.97843
2.90067 1.49799 6.72374
2.87971 1.51895 6.72374
2.89018 1.50848 6.69844
2.84833 1.55033 6.69844
2.83789 1.56077 6.72375
2.82746 1.5712 6.69844
2.85878 1.53988 6.72375
2.83789 1.56077 6.72375
2.84833 1.55033 6.69844
2.83788 1.56078 6.62265
2.85877 1.53989 6.62265
2.84833 1.55034 6.64789
2.84833 1.55034 6.64789
2.82745 1.57121 6.64789
2.83788 1.56078 6.62265
2.83788 1.56078 6.62265
2.82745 1.57121 6.64789
2.81702 1.58164 6.62264
2.84833 1.55034 6.64789
2.85877 1.53989 6.62265
2.86924 1.52943 6.6479
2.87968 1.51898 6.57223
2.89017 1.50849 6.59744
2.86922 1.52944 6.59743
2.86922 1.52944 6.59743
2.85875 1.53991 6.57223
2.87968 1.51898 6.57223
2.72357 1.6751 6.74909
2.73392 1.66474 6.72375
2.74429 1.65437 6.74909
2.73392 1.66474 6.72375
2.75466 1.644 6.72375
2.74429 1.65437 6.74909
2.83789 1.56077 6.67316
2.82745 1.57121 6.64789
2.84833 1.55034 6.64789
2.83789 1.56077 6.67316
2.84833 1.55033 6.69844
2.82746 1.5712 6.69844
2.82746 1.5712 6.69844
2.80662 1.59204 6.69844
2.81703 1.58163 6.67315
2.81703 1.58163 6.67315
2.83789 1.56077 6.67316
2.82746 1.5712 6.69844
2.82745 1.57121 6.64789
2.83789 1.56077 6.67316
2.81703 1.58163 6.67315
2.81702 1.58164 6.62264
2.7962 1.60246 6.62264
2.8066 1.59206 6.59741
2.79618 1.60248 6.57219
2.81701 1.58166 6.57221
2.8066 1.59206 6.59741
2.42419 1.97447 6.72368
2.41386 1.9848 6.74901
2.40353 1.99513 6.72367
2.40353 1.99513 6.72367
2.41385 1.98481 6.69836
2.42419 1.97447 6.72368
2.20539 2.19327 6.34487
2.19928 2.19938 6.37009
2.19928 2.19938 6.31942
2.19928 2.19938 6.27
2.20626 2.1924 6.2947
2.19928 2.19938 6.31942
2.21797 2.1807 6.4207
2.19928 2.19938 6.42067
2.20528 2.19338 6.39542
2.19928 2.19938 6.42067
2.19928 2.19938 6.37009
2.20528 2.19338 6.39542
3.11025 1.28841 6.27
3.10314 1.29552 6.29575
3.0911 1.30756 6.27
2.19928 2.19938 6.52157
2.19928 2.19938 6.47114
2.20536 2.19331 6.49636
2.20536 2.19331 6.49636
2.21801 2.18065 6.52156
2.19928 2.19938 6.52157
2.21799 2.18067 6.47113
2.20536 2.19331 6.49636
2.19928 2.19938 6.47114
2.21799 2.18067 6.47113
2.22698 2.17168 6.44594
2.23811 2.16055 6.47116
2.22702 2.17165 6.49635
2.24806 2.1506 6.49637
2.23814 2.16052 6.52157
2.23814 2.16052 6.52157
2.21801 2.18065 6.52156
2.22702 2.17165 6.49635
2.23811 2.16055 6.47116
2.24806 2.1506 6.49637
2.22702 2.17165 6.49635
2.22702 2.17165 6.49635
2.21799 2.18067 6.47113
2.23811 2.16055 6.47116
2.21801 2.18065 6.52156
2.20536 2.19331 6.49636
2.22702 2.17165 6.49635
2.20536 2.19331 6.49636
2.21799 2.18067 6.47113
2.22702 2.17165 6.49635
2.20532 2.19334 6.44591
2.19928 2.19938 6.47114
2.19928 2.19938 6.42067
2.20532 2.19334 6.44591
2.19928 2.19938 6.42067
2.21797 2.1807 6.4207
2.21797 2.1807 6.4207
2.22698 2.17168 6.44594
2.20532 2.19334 6.44591
2.20532 2.19334 6.44591
2.21799 2.18067 6.47113
2.19928 2.19938 6.47114
2.22698 2.17168 6.44594
2.21799 2.18067 6.47113
2.20532 2.19334 6.44591
2.24814 2.15052 6.69829
2.2382 2.16046 6.7236
2.2271 2.17156 6.69829
2.2382 2.16046 6.7236
2.21805 2.18061 6.7236
2.2271 2.17156 6.69829
2.2271 2.17156 6.69829
2.23819 2.16048 6.673
2.24814 2.15052 6.69829
2.24809 2.15058 6.54679
2.23814 2.16052 6.52157
2.25868 2.13998 6.52159
2.22704 2.17162 6.54678
2.23814 2.16052 6.52157
2.24809 2.15058 6.54679
2.26891 2.12975 6.5468
2.24809 2.15058 6.54679
2.25868 2.13998 6.52159
2.2587 2.13996 6.57201
2.24809 2.15058 6.54679
2.26891 2.12975 6.5468
2.2587 2.13996 6.57201
2.26891 2.12975 6.5468
2.27936 2.1193 6.57202
2.41384 1.98482 6.6478
2.42418 1.97448 6.67307
2.40352 1.99515 6.67307
2.40352 1.99515 6.67307
2.42418 1.97448 6.67307
2.41385 1.98481 6.69836
2.33114 2.06753 6.69832
2.35183 2.04683 6.69833
2.34149 2.05717 6.72363
2.34148 2.05718 6.67304
2.35183 2.04683 6.69833
2.33114 2.06753 6.69832
2.35182 2.04684 6.64777
2.34147 2.05719 6.62252
2.36216 2.03651 6.62253
2.34148 2.05718 6.67304
2.33112 2.06754 6.64776
2.35182 2.04684 6.64777
2.35182 2.04684 6.64777
2.33112 2.06754 6.64776
2.34147 2.05719 6.62252
2.35184 2.04682 6.74898
2.37253 2.02613 6.74899
2.3622 2.03646 6.77434
2.31047 2.08819 6.7997
2.32082 2.07785 6.77432
2.33117 2.06749 6.79971
2.3208 2.07786 6.72362
2.33114 2.06753 6.69832
2.34149 2.05717 6.72363
2.31043 2.08823 6.69831
2.33114 2.06753 6.69832
2.3208 2.07786 6.72362
2.23821 2.16045 6.77429
2.24816 2.15051 6.74893
2.25876 2.1399 6.77429
2.24814 2.15052 6.69829
2.23819 2.16048 6.673
2.25873 2.13993 6.673
2.25873 2.13993 6.673
2.26896 2.1297 6.69829
2.24814 2.15052 6.69829
2.30008 2.09858 6.67301
2.31043 2.08823 6.69831
2.28971 2.10895 6.6983
2.25874 2.13992 6.7236
2.24816 2.15051 6.74893
2.2382 2.16046 6.7236
2.25874 2.13992 6.7236
[...]
<PointData Scalars="View Factor" >
<DataArray type="Float64" Name="View Factor" NumberOfComponents="1" format="ascii">
3.03837e-05
3.03837e-05
3.03837e-05
2.72344e-05
2.72344e-05
2.72344e-05
2.71639e-05
2.71639e-05
2.71639e-05
4.30609e-06
4.30609e-06
4.30609e-06
3.04425e-06
3.04425e-06
3.04425e-06
2.7256e-05
2.7256e-05
2.7256e-05
2.10327e-06
2.10327e-06
2.10327e-06
2.86388e-05
2.86388e-05
2.86388e-05
2.94792e-05
2.94792e-05
2.94792e-05
2.85419e-05
2.85419e-05
2.85419e-05
2.86156e-05
2.86156e-05
2.86156e-05
2.83553e-05
2.83553e-05
2.83553e-05
2.71491e-05
2.71491e-05
2.71491e-05
2.70608e-05
2.70608e-05
2.70608e-05
2.6928e-05
2.6928e-05
2.6928e-05
2.67526e-05
2.67526e-05
2.67526e-05
2.80544e-05
2.80544e-05
2.80544e-05
2.7601e-05
2.7601e-05
2.7601e-05
2.77993e-05
2.77993e-05
2.77993e-05
2.74332e-05
2.74332e-05
2.74332e-05
2.7505e-05
2.7505e-05
2.7505e-05
2.94023e-05
2.94023e-05
2.94023e-05
2.69867e-05
2.69867e-05
2.69867e-05
6.29888e-06
6.29888e-06
6.29888e-06
3.67123e-06
3.67123e-06
3.67123e-06
9.33087e-06
9.33087e-06
9.33087e-06
9.9231e-06
9.9231e-06
9.9231e-06
2.65852e-06
2.65852e-06
2.65852e-06
3.97901e-06
3.97901e-06
3.97901e-06
1.73644e-06
1.73644e-06
1.73644e-06
9.30624e-06
9.30624e-06
9.30624e-06
2.06952e-06
2.06952e-06
2.06952e-06
3.66483e-06
3.66483e-06
3.66483e-06
9.38719e-06
9.38719e-06
9.38719e-06
2.16805e-06
2.16805e-06
2.16805e-06
3.68607e-06
3.68607e-06
3.68607e-06
2.56718e-06
2.56718e-06
2.56718e-06
3.95456e-06
3.95456e-06
3.95456e-06
9.03817e-06
9.03817e-06
9.03817e-06
9.07771e-06
9.07771e-06
9.07771e-06
7.47794e-07
7.47794e-07
7.47794e-07
7.2338e-07
7.2338e-07
7.2338e-07
7.12983e-07
7.12983e-07
7.12983e-07
6.29774e-06
6.29774e-06
6.29774e-06
2.91889e-05
2.91889e-05
2.91889e-05
2.89008e-05
2.89008e-05
2.89008e-05
2.58316e-05
2.58316e-05
2.58316e-05
2.7691e-05
2.7691e-05
2.7691e-05
2.7982e-05
2.7982e-05
2.7982e-05
2.72866e-05
2.72866e-05
2.72866e-05
2.77065e-05
2.77065e-05
2.77065e-05
2.77783e-05
2.77783e-05
2.77783e-05
2.75253e-05
2.75253e-05
2.75253e-05
2.90962e-05
2.90962e-05
2.90962e-05
2.89223e-05
2.89223e-05
2.89223e-05
2.88256e-05
2.88256e-05
2.88256e-05
2.67924e-05
2.67924e-05
2.67924e-05
2.78825e-05
2.78825e-05
2.78825e-05
2.75255e-05
2.75255e-05
2.75255e-05
2.84333e-05
2.84333e-05
2.84333e-05
2.85274e-05
2.85274e-05
2.85274e-05
2.68819e-05
2.68819e-05
2.68819e-05
2.67934e-05
2.67934e-05
2.67934e-05
2.66635e-05
2.66635e-05
2.66635e-05
2.55986e-05
2.55986e-05
2.55986e-05
2.57686e-05
2.57686e-05
2.57686e-05
2.68955e-05
2.68955e-05
2.68955e-05
2.66168e-05
2.66168e-05
2.66168e-05
1.29559e-05
1.29559e-05
1.29559e-05
2.31601e-05
2.31601e-05
2.31601e-05
2.34983e-05
2.34983e-05
2.34983e-05
2.60244e-05
2.60244e-05
2.60244e-05
2.58547e-05
2.58547e-05
2.58547e-05
2.28251e-05
2.28251e-05
2.28251e-05
2.0621e-05
2.0621e-05
2.0621e-05
9.64964e-06
9.64964e-06
9.64964e-06
1.47509e-05
1.47509e-05
1.47509e-05
1.51859e-05
1.51859e-05
1.51859e-05
9.92185e-06
9.92185e-06
9.92185e-06
1.33469e-06
1.33469e-06
1.33469e-06
1.79144e-05
1.79144e-05
1.79144e-05
2.02413e-05
2.02413e-05
2.02413e-05
1.89859e-05
1.89859e-05
1.89859e-05
9.59912e-07
9.59912e-07
9.59912e-07
9.89657e-07
9.89657e-07
9.89657e-07
9.84688e-06
9.84688e-06
9.84688e-06
9.71688e-06
9.71688e-06
9.71688e-06
1.1766e-06
1.1766e-06
1.1766e-06
1.21049e-06
1.21049e-06
1.21049e-06
1.25382e-06
1.25382e-06
1.25382e-06
1.35002e-06
1.35002e-06
1.35002e-06
1.45122e-06
1.45122e-06
1.45122e-06
7.59165e-07
7.59165e-07
7.59165e-07
7.85208e-07
7.85208e-07
7.85208e-07
2.77181e-06
2.77181e-06
2.77181e-06
3.05833e-06
3.05833e-06
3.05833e-06
3.02544e-06
3.02544e-06
3.02544e-06
2.56305e-06
2.56305e-06
2.56305e-06
3.03153e-05
3.03153e-05
3.03153e-05
2.23816e-06
2.23816e-06
2.23816e-06
2.69958e-06
2.69958e-06
2.69958e-06
2.79891e-06
2.79891e-06
2.79891e-06
1.01282e-05
1.01282e-05
1.01282e-05
9.70633e-06
9.70633e-06
9.70633e-06
9.97247e-06
9.97247e-06
9.97247e-06
9.75978e-06
9.75978e-06
9.75978e-06
1.00765e-05
1.00765e-05
1.00765e-05
4.03755e-06
4.03755e-06
4.03755e-06
4.07054e-06
4.07054e-06
4.07054e-06
2.38825e-06
2.38825e-06
2.38825e-06
2.96233e-06
2.96233e-06
2.96233e-06
4.09324e-06
4.09324e-06
4.09324e-06
2.84714e-06
2.84714e-06
2.84714e-06
4.05749e-06
4.05749e-06
4.05749e-06
9.162e-06
9.162e-06
9.162e-06
9.42806e-06
9.42806e-06
9.42806e-06
9.2027e-06
9.2027e-06
9.2027e-06
9.2828e-06
9.2828e-06
9.2828e-06
9.60779e-06
9.60779e-06
9.60779e-06
8.92648e-06
8.92648e-06
8.92648e-06
8.88306e-06
8.88306e-06
8.88306e-06
8.39093e-06
8.39093e-06
8.39093e-06
8.69959e-07
8.69959e-07
8.69959e-07
8.39631e-07
8.39631e-07
8.39631e-07
8.01237e-07
8.01237e-07
8.01237e-07
8.2405e-07
8.2405e-07
8.2405e-07
9.27889e-07
9.27889e-07
9.27889e-07
8.81029e-07
8.81029e-07
8.81029e-07
9.12633e-07
9.12633e-07
9.12633e-07
7.23023e-07
7.23023e-07
7.23023e-07
6.8351e-07
6.8351e-07
6.8351e-07
7.84865e-07
7.84865e-07
7.84865e-07
8.01029e-07
8.01029e-07
8.01029e-07
8.68453e-06
8.68453e-06
8.68453e-06
8.88166e-06
8.88166e-06
8.88166e-06
8.52865e-06
8.52865e-06
8.52865e-06
8.2373e-07
8.2373e-07
8.2373e-07
8.75932e-06
8.75932e-06
8.75932e-06
8.79981e-06
8.79981e-06
8.79981e-06
8.49066e-06
8.49066e-06
8.49066e-06
1.12186e-06
1.12186e-06
1.12186e-06
3.89675e-06
3.89675e-06
3.89675e-06
3.64609e-06
3.64609e-06
3.64609e-06
7.58858e-07
7.58858e-07
7.58858e-07
7.48431e-07
7.48431e-07
7.48431e-07
6.86109e-07
6.86109e-07
6.86109e-07
7.11865e-07
7.11865e-07
7.11865e-07
7.11876e-07
7.11876e-07
7.11876e-07
7.23115e-07
7.23115e-07
7.23115e-07
6.85944e-07
6.85944e-07
6.85944e-07
6.82885e-07
6.82885e-07
6.82885e-07
6.73061e-07
6.73061e-07
6.73061e-07
6.64704e-07
6.64704e-07
6.64704e-07
6.65889e-07
6.65889e-07
6.65889e-07
6.83022e-07
6.83022e-07
6.83022e-07
9.56346e-07
9.56346e-07
9.56346e-07
1.39521e-06
1.39521e-06
1.39521e-06
1.63794e-06
1.63794e-06
1.63794e-06
2.41127e-06
2.41127e-06
2.41127e-06
2.15731e-06
2.15731e-06
2.15731e-06
6.65705e-07
6.65705e-07
6.65705e-07
6.85708e-07
6.85708e-07
6.85708e-07
6.82567e-07
6.82567e-07
6.82567e-07
5.67564e-06
5.67564e-06
5.67564e-06
5.67395e-06
5.67395e-06
5.67395e-06
6.14376e-06
6.14376e-06
6.14376e-06
6.14065e-06
6.14065e-06
6.14065e-06
5.71977e-06
5.71977e-06
5.71977e-06
5.74804e-06
5.74804e-06
5.74804e-06
4.49989e-06
4.49989e-06
4.49989e-06
6.19335e-06
6.19335e-06
6.19335e-06
2.48377e-06
2.48377e-06
2.48377e-06
2.49953e-06
2.49953e-06
2.49953e-06
2.35997e-06
2.35997e-06
2.35997e-06
2.27313e-06
2.27313e-06
2.27313e-06
2.62008e-06
2.62008e-06
2.62008e-06
2.73278e-06
2.73278e-06
2.73278e-06
2.69913e-06
2.69913e-06
2.69913e-06
2.57822e-06
2.57822e-06
2.57822e-06
2.77816e-06
2.77816e-06
2.77816e-06
2.81411e-06
2.81411e-06
2.81411e-06
2.95164e-06
2.95164e-06
2.95164e-06
2.3416e-06
2.3416e-06
2.3416e-06
2.65378e-06
2.65378e-06
2.65378e-06
2.55743e-06
2.55743e-06
2.55743e-06
2.42994e-06
2.42994e-06
2.42994e-06
2.40993e-06
2.40993e-06
2.40993e-06
2.68441e-06
2.68441e-06
2.68441e-06
2.19548e-05
2.19548e-05
2.19548e-05
1.76749e-05
1.76749e-05
1.76749e-05
1.95982e-05
1.95982e-05
1.95982e-05
2.06664e-05
2.06664e-05
2.06664e-05
2.01469e-05
2.01469e-05
2.01469e-05
2.64165e-05
2.64165e-05
2.64165e-05
2.65459e-05
2.65459e-05
2.65459e-05
2.66315e-05
2.66315e-05
2.66315e-05
2.61052e-05
2.61052e-05
2.61052e-05
2.12973e-05
2.12973e-05
2.12973e-05
2.12233e-05
2.12233e-05
2.12233e-05
2.20145e-05
2.20145e-05
2.20145e-05
2.49333e-05
2.49333e-05
2.49333e-05
2.46756e-05
2.46756e-05
2.46756e-05
2.80758e-05
2.80758e-05
2.80758e-05
2.78756e-05
2.78756e-05
2.78756e-05
2.83335e-05
2.83335e-05
2.83335e-05
2.82604e-05
2.82604e-05
2.82604e-05
2.79666e-05
2.79666e-05
2.79666e-05
2.62775e-05
2.62775e-05
2.62775e-05
2.65048e-05
2.65048e-05
2.65048e-05
2.7018e-05
2.7018e-05
2.7018e-05
2.71956e-05
2.71956e-05
2.71956e-05
2.68098e-05
2.68098e-05
2.68098e-05
2.68973e-05
2.68973e-05
2.68973e-05
2.73282e-05
2.73282e-05
2.73282e-05
2.74184e-05
2.74184e-05
2.74184e-05
2.91131e-05
2.91131e-05
2.91131e-05
2.92101e-05
2.92101e-05
2.92101e-05
2.89996e-05
2.89996e-05
2.89996e-05
2.94979e-05
2.94979e-05
2.94979e-05
2.68858e-05
2.68858e-05
2.68858e-05
2.72616e-05
2.72616e-05
2.72616e-05
2.82953e-05
2.82953e-05
2.82953e-05
2.78478e-05
2.78478e-05
2.78478e-05
2.79835e-05
2.79835e-05
2.79835e-05
2.77574e-05
2.77574e-05
2.77574e-05
2.64888e-05
2.64888e-05
2.64888e-05
2.64006e-05
2.64006e-05
2.64006e-05
2.61093e-05
2.61093e-05
2.61093e-05
2.55142e-05
2.55142e-05
2.55142e-05
2.37577e-05
2.37577e-05
2.37577e-05
1.97364e-05
1.97364e-05
1.97364e-05
5.98875e-06
5.98875e-06
5.98875e-06
6.5109e-06
6.5109e-06
6.5109e-06
6.45496e-06
6.45496e-06
6.45496e-06
2.30811e-05
2.30811e-05
2.30811e-05
2.29245e-05
2.29245e-05
2.29245e-05
2.44198e-05
2.44198e-05
2.44198e-05
2.45016e-05
2.45016e-05
2.45016e-05
2.26738e-05
2.26738e-05
2.26738e-05
2.43386e-05
2.43386e-05
2.43386e-05
2.35797e-05
2.35797e-05
2.35797e-05
2.40061e-05
2.40061e-05
2.40061e-05
2.3606e-05
2.3606e-05
2.3606e-05
2.32623e-05
2.32623e-05
2.32623e-05
2.28283e-05
2.28283e-05
2.28283e-05
2.6227e-05
2.6227e-05
2.6227e-05
2.61426e-05
2.61426e-05
2.61426e-05
2.65301e-05
2.65301e-05
2.65301e-05
2.53921e-05
2.53921e-05
2.53921e-05
2.50906e-05
2.50906e-05
2.50906e-05
2.5477e-05
2.5477e-05
2.5477e-05
2.52584e-05
2.52584e-05
2.52584e-05
2.48405e-05
2.48405e-05
2.48405e-05
2.49253e-05
2.49253e-05
2.49253e-05
2.27496e-05
2.27496e-05
2.27496e-05
2.3303e-05
2.3303e-05
2.3303e-05
2.32183e-05
2.32183e-05
2.32183e-05
2.0771e-05
2.0771e-05
2.0771e-05
1.12912e-06
1.12912e-06
1.12912e-06
1.13837e-06
1.13837e-06
1.13837e-06
1.46721e-05
1.46721e-05
1.46721e-05
9.14452e-07
9.14452e-07
9.14452e-07
9.19378e-07
9.19378e-07
9.19378e-07
1.03716e-06
1.03716e-06
1.03716e-06
1.06836e-06
1.06836e-06
1.06836e-06
1.10206e-06
1.10206e-06
1.10206e-06
1.11074e-06
1.11074e-06
1.11074e-06
1.04209e-06
1.04209e-06
1.04209e-06
1.07497e-06
1.07497e-06
1.07497e-06
1.00195e-06
1.00195e-06
1.00195e-06
9.9721e-07
9.9721e-07
9.9721e-07
9.61655e-07
9.61655e-07
9.61655e-07
9.42846e-07
9.42846e-07
9.42846e-07
9.38144e-07
9.38144e-07
9.38144e-07
9.72704e-07
9.72704e-07
9.72704e-07
1.75686e-05
1.75686e-05
1.75686e-05
1.86416e-05
1.86416e-05
1.86416e-05
1.97318e-05
1.97318e-05
1.97318e-05
1.98026e-05
1.98026e-05
1.98026e-05
1.82365e-06
1.82365e-06
1.82365e-06
9.16311e-07
9.16311e-07
9.16311e-07
1.58074e-06
1.58074e-06
1.58074e-06
1.38328e-06
1.38328e-06
1.38328e-06
1.48703e-06
1.48703e-06
1.48703e-06
1.39383e-06
1.39383e-06
1.39383e-06
1.44999e-06
1.44999e-06
1.44999e-06
1.5479e-05
1.5479e-05
1.5479e-05
1.0165e-05
1.0165e-05
1.0165e-05
1.00789e-05
1.00789e-05
1.00789e-05
1.52805e-05
1.52805e-05
1.52805e-05
1.80245e-05
1.80245e-05
1.80245e-05
1.80559e-05
1.80559e-05
1.80559e-05
1.99443e-05
1.99443e-05
1.99443e-05
2.08504e-05
2.08504e-05
2.08504e-05
8.6287e-07
8.6287e-07
8.6287e-07
8.89669e-07
8.89669e-07
8.89669e-07
7.55787e-07
7.55787e-07
7.55787e-07
7.49731e-07
7.49731e-07
7.49731e-07
8.90319e-07
8.90319e-07
8.90319e-07
8.59081e-07
8.59081e-07
8.59081e-07
7.35702e-07
7.35702e-07
7.35702e-07
7.34585e-07
7.34585e-07
7.34585e-07
7.13336e-07
7.13336e-07
7.13336e-07
7.09896e-07
7.09896e-07
7.09896e-07
6.84875e-07
6.84875e-07
6.84875e-07
6.88362e-07
6.88362e-07
6.88362e-07
1.02087e-06
1.02087e-06
1.02087e-06
1.09427e-06
1.09427e-06
1.09427e-06
1.05996e-06
1.05996e-06
1.05996e-06
1.02783e-06
1.02783e-06
1.02783e-06
9.23771e-07
9.23771e-07
9.23771e-07
9.27277e-07
9.27277e-07
9.27277e-07
1.06541e-06
1.06541e-06
1.06541e-06
9.63535e-07
9.63535e-07
9.63535e-07
9.93738e-07
9.93738e-07
9.93738e-07
1.13356e-06
1.13356e-06
1.13356e-06
1.41546e-06
1.41546e-06
1.41546e-06
1.41455e-06
1.41455e-06
1.41455e-06
1.35862e-06
1.35862e-06
1.35862e-06
1.18129e-06
1.18129e-06
1.18129e-06
1.14796e-06
1.14796e-06
1.14796e-06
1.19362e-06
1.19362e-06
1.19362e-06
1.15224e-06
1.15224e-06
1.15224e-06
1.03029e-06
1.03029e-06
1.03029e-06
9.60425e-07
9.60425e-07
9.60425e-07
9.28259e-07
9.28259e-07
9.28259e-07
9.12776e-07
9.12776e-07
9.12776e-07
1.03068e-06
1.03068e-06
1.03068e-06
9.79606e-07
9.79606e-07
9.79606e-07
1.0186e-06
1.0186e-06
1.0186e-06
8.48679e-06
8.48679e-06
8.48679e-06
9.02625e-06
9.02625e-06
9.02625e-06
8.53252e-06
8.53252e-06
8.53252e-06
9.13375e-07
9.13375e-07
9.13375e-07
8.80678e-07
8.80678e-07
8.80678e-07
8.35351e-07
8.35351e-07
8.35351e-07
8.32134e-07
8.32134e-07
8.32134e-07
8.06765e-07
8.06765e-07
8.06765e-07
7.80194e-07
7.80194e-07
7.80194e-07
7.53093e-07
7.53093e-07
7.53093e-07
7.53692e-07
7.53692e-07
7.53692e-07
2.80865e-05
2.80865e-05
2.80865e-05
3.00068e-05
3.00068e-05
3.00068e-05
2.9776e-05
2.9776e-05
2.9776e-05
2.63515e-05
2.63515e-05
2.63515e-05
2.76063e-05
2.76063e-05
2.76063e-05
2.76914e-05
2.76914e-05
2.76914e-05
2.47941e-05
2.47941e-05
2.47941e-05
2.49663e-05
2.49663e-05
2.49663e-05
1.67077e-06
1.67077e-06
1.67077e-06
2.01823e-06
2.01823e-06
2.01823e-06
1.81194e-06
1.81194e-06
1.81194e-06
2.21365e-06
2.21365e-06
2.21365e-06
3.73094e-06
3.73094e-06
3.73094e-06
1.89818e-06
1.89818e-06
1.89818e-06
2.41657e-06
2.41657e-06
2.41657e-06
9.64201e-06
9.64201e-06
9.64201e-06
3.82294e-06
3.82294e-06
3.82294e-06
2.52592e-06
2.52592e-06
2.52592e-06
1.99978e-06
1.99978e-06
1.99978e-06
2.45198e-06
2.45198e-06
2.45198e-06
3.90035e-06
3.90035e-06
3.90035e-06
3.87226e-06
3.87226e-06
3.87226e-06
9.68633e-06
9.68633e-06
9.68633e-06
9.42258e-06
9.42258e-06
9.42258e-06
8.79384e-06
8.79384e-06
8.79384e-06
8.35141e-06
8.35141e-06
8.35141e-06
9.82223e-06
9.82223e-06
9.82223e-06
9.56393e-06
9.56393e-06
9.56393e-06
9.77626e-06
9.77626e-06
9.77626e-06
9.47035e-06
9.47035e-06
9.47035e-06
9.18316e-06
9.18316e-06
9.18316e-06
9.13959e-06
9.13959e-06
9.13959e-06
9.33218e-06
9.33218e-06
9.33218e-06
9.28451e-06
9.28451e-06
9.28451e-06
8.92363e-06
8.92363e-06
8.92363e-06
8.61229e-06
8.61229e-06
8.61229e-06
8.69587e-07
8.69587e-07
8.69587e-07
8.80771e-07
8.80771e-07
8.80771e-07
9.12997e-07
9.12997e-07
9.12997e-07
8.80649e-07
8.80649e-07
8.80649e-07
8.01971e-07
8.01971e-07
8.01971e-07
8.25241e-07
8.25241e-07
8.25241e-07
7.85096e-07
7.85096e-07
7.85096e-07
8.39229e-07
8.39229e-07
8.39229e-07
8.24914e-07
8.24914e-07
8.24914e-07
8.01756e-07
8.01756e-07
8.01756e-07
8.2393e-07
8.2393e-07
8.2393e-07
8.8106e-07
8.8106e-07
8.8106e-07
8.37661e-07
8.37661e-07
8.37661e-07
8.68567e-07
8.68567e-07
8.68567e-07
8.37414e-07
8.37414e-07
8.37414e-07
8.68328e-07
8.68328e-07
8.68328e-07
7.48029e-07
7.48029e-07
7.48029e-07
7.59144e-07
7.59144e-07
7.59144e-07
7.11945e-07
7.11945e-07
7.11945e-07
6.86434e-07
6.86434e-07
6.86434e-07
7.12074e-07
7.12074e-07
7.12074e-07
7.229e-07
7.229e-07
7.229e-07
6.83259e-07
6.83259e-07
6.83259e-07
6.86243e-07
6.86243e-07
6.86243e-07
8.4888e-07
8.4888e-07
8.4888e-07
7.70471e-07
7.70471e-07
7.70471e-07
6.81423e-07
6.81423e-07
6.81423e-07
6.66503e-07
6.66503e-07
6.66503e-07
6.84197e-07
6.84197e-07
6.84197e-07
8.68831e-07
8.68831e-07
8.68831e-07
7.83234e-07
7.83234e-07
7.83234e-07
6.8664e-07
6.8664e-07
6.8664e-07
8.15431e-06
8.15431e-06
8.15431e-06
6.18848e-06
6.18848e-06
6.18848e-06
8.11543e-06
8.11543e-06
8.11543e-06
7.46962e-06
7.46962e-06
7.46962e-06
8.36605e-06
8.36605e-06
8.36605e-06
8.40474e-06
8.40474e-06
8.40474e-06
7.35641e-06
7.35641e-06
7.35641e-06
8.00339e-06
8.00339e-06
8.00339e-06
7.43454e-06
7.43454e-06
7.43454e-06
8.04051e-06
8.04051e-06
8.04051e-06
1.15727e-06
1.15727e-06
1.15727e-06
5.84202e-06
5.84202e-06
5.84202e-06
1.33775e-06
1.33775e-06
1.33775e-06
7.14695e-06
7.14695e-06
7.14695e-06
7.86025e-06
7.86025e-06
7.86025e-06
5.99351e-06
5.99351e-06
5.99351e-06
1.21713e-06
1.21713e-06
1.21713e-06
1.29753e-06
1.29753e-06
1.29753e-06
1.74324e-06
1.74324e-06
1.74324e-06
1.96149e-06
1.96149e-06
1.96149e-06
1.69231e-06
1.69231e-06
1.69231e-06
3.22068e-06
3.22068e-06
3.22068e-06
9.00663e-06
9.00663e-06
9.00663e-06
7.88388e-06
7.88388e-06
7.88388e-06
5.2559e-06
5.2559e-06
5.2559e-06
5.25606e-06
5.25606e-06
5.25606e-06
7.08721e-06
7.08721e-06
7.08721e-06
4.4353e-06
4.4353e-06
4.4353e-06
4.51521e-06
4.51521e-06
4.51521e-06
4.62175e-06
4.62175e-06
4.62175e-06
6.39658e-06
6.39658e-06
6.39658e-06
5.04548e-06
5.04548e-06
5.04548e-06
6.60559e-06
6.60559e-06
6.60559e-06
1.02593e-05
1.02593e-05
1.02593e-05
1.01313e-05
1.01313e-05
1.01313e-05
7.48245e-07
7.48245e-07
7.48245e-07
7.58614e-07
7.58614e-07
7.58614e-07
7.85097e-07
7.85097e-07
7.85097e-07
8.01513e-07
8.01513e-07
8.01513e-07
7.84925e-07
7.84925e-07
7.84925e-07
7.59354e-07
7.59354e-07
7.59354e-07
6.75844e-07
6.75844e-07
6.75844e-07
6.78625e-07
6.78625e-07
6.78625e-07
6.6529e-07
6.6529e-07
6.6529e-07
7.45408e-07
7.45408e-07
7.45408e-07
9.80453e-07
9.80453e-07
9.80453e-07
6.46419e-07
6.46419e-07
6.46419e-07
6.354e-07
6.354e-07
6.354e-07
7.31087e-07
7.31087e-07
7.31087e-07
1.44041e-06
1.44041e-06
1.44041e-06
1.05865e-06
1.05865e-06
1.05865e-06
1.09748e-06
1.09748e-06
1.09748e-06
9.2257e-07
9.2257e-07
9.2257e-07
6.70359e-07
6.70359e-07
6.70359e-07
7.21229e-07
7.21229e-07
7.21229e-07
7.08611e-07
7.08611e-07
7.08611e-07
7.50612e-07
7.50612e-07
7.50612e-07
6.82349e-07
6.82349e-07
6.82349e-07
6.65285e-07
6.65285e-07
6.65285e-07
6.64815e-07
6.64815e-07
6.64815e-07
6.67654e-07
6.67654e-07
6.67654e-07
5.15132e-06
5.15132e-06
5.15132e-06
4.86013e-06
4.86013e-06
4.86013e-06
5.28828e-06
5.28828e-06
5.28828e-06
5.40206e-06
5.40206e-06
5.40206e-06
5.83157e-06
5.83157e-06
5.83157e-06
5.87733e-06
5.87733e-06
5.87733e-06
5.5487e-06
5.5487e-06
5.5487e-06
5.82771e-06
5.82771e-06
5.82771e-06
5.98877e-06
5.98877e-06
5.98877e-06
5.98813e-06
5.98813e-06
5.98813e-06
3.77316e-06
3.77316e-06
3.77316e-06
4.73182e-06
4.73182e-06
4.73182e-06
5.2844e-06
5.2844e-06
5.2844e-06
4.60482e-06
4.60482e-06
4.60482e-06
4.38069e-06
4.38069e-06
4.38069e-06
5.14242e-06
5.14242e-06
5.14242e-06
5.45635e-06
5.45635e-06
5.45635e-06
3.53328e-06
3.53328e-06
3.53328e-06
3.87568e-06
3.87568e-06
3.87568e-06
2.83946e-06
2.83946e-06
2.83946e-06
2.49805e-06
2.49805e-06
2.49805e-06
5.60499e-06
5.60499e-06
5.60499e-06
6.06104e-06
6.06104e-06
6.06104e-06
6.02961e-06
6.02961e-06
6.02961e-06
5.90477e-06
5.90477e-06
5.90477e-06
4.85902e-06
4.85902e-06
4.85902e-06
5.4263e-06
5.4263e-06
5.4263e-06
5.75371e-06
5.75371e-06
5.75371e-06
6.35223e-06
6.35223e-06
6.35223e-06
6.21809e-06
6.21809e-06
6.21809e-06
6.36951e-06
6.36951e-06
6.36951e-06
6.05167e-06
6.05167e-06
6.05167e-06
7.69364e-07
7.69364e-07
7.69364e-07
9.07813e-07
9.07813e-07
9.07813e-07
2.43199e-06
2.43199e-06
2.43199e-06
1.53956e-06
1.53956e-06
1.53956e-06
1.10493e-06
1.10493e-06
1.10493e-06
1.49843e-06
1.49843e-06
1.49843e-06
1.77544e-06
1.77544e-06
1.77544e-06
9.32845e-07
9.32845e-07
9.32845e-07
1.07564e-06
1.07564e-06
1.07564e-06
3.84723e-06
3.84723e-06
3.84723e-06
3.55122e-06
3.55122e-06
3.55122e-06
3.51287e-06
3.51287e-06
3.51287e-06
2.26292e-06
2.26292e-06
2.26292e-06
2.65173e-06
2.65173e-06
2.65173e-06
2.80993e-06
2.80993e-06
2.80993e-06
2.78136e-06
2.78136e-06
2.78136e-06
4.99366e-06
4.99366e-06
4.99366e-06
4.76949e-06
4.76949e-06
4.76949e-06
2.79224e-06
2.79224e-06
2.79224e-06
2.49282e-06
2.49282e-06
2.49282e-06
2.27407e-06
2.27407e-06
2.27407e-06
3.39634e-06
3.39634e-06
3.39634e-06
2.94113e-06
2.94113e-06
2.94113e-06
3.83368e-06
3.83368e-06
3.83368e-06
3.12267e-06
3.12267e-06
3.12267e-06
1.58359e-06
1.58359e-06
1.58359e-06
4.02437e-06
4.02437e-06
4.02437e-06
4.90613e-06
4.90613e-06
4.90613e-06
5.05262e-06
5.05262e-06
5.05262e-06
4.97006e-06
4.97006e-06
4.97006e-06
5.09209e-06
5.09209e-06
5.09209e-06
3.5991e-06
3.5991e-06
3.5991e-06
3.06168e-06
3.06168e-06
3.06168e-06
2.98464e-06
2.98464e-06
2.98464e-06
2.89734e-06
2.89734e-06
2.89734e-06
2.86662e-06
2.86662e-06
2.86662e-06
4.32559e-06
4.32559e-06
4.32559e-06
4.67141e-06
4.67141e-06
4.67141e-06
4.58652e-06
4.58652e-06
4.58652e-06
3.89131e-06
3.89131e-06
3.89131e-06
3.71648e-06
3.71648e-06
3.71648e-06
3.77016e-06
3.77016e-06
3.77016e-06
4.12539e-06
4.12539e-06
4.12539e-06
5.51998e-06
5.51998e-06
5.51998e-06
5.25523e-06
5.25523e-06
5.25523e-06
2.75328e-06
2.75328e-06
2.75328e-06
2.78092e-06
2.78092e-06
2.78092e-06
2.63138e-06
2.63138e-06
2.63138e-06
2.47845e-06
2.47845e-06
2.47845e-06
2.49987e-06
2.49987e-06
2.49987e-06
2.61572e-06
2.61572e-06
2.61572e-06
2.71055e-06
2.71055e-06
2.71055e-06
2.85324e-06
2.85324e-06
2.85324e-06
2.88059e-06
2.88059e-06
2.88059e-06