<VTKFile type="UnstructuredGrid" version="1.0">
<UnstructuredGrid>
<Piece NumberOfPoints="10830" NumberOfCells="3610">
<Points>
<DataArray type="Float64" NumberOfComponents="3" format="ascii">
2.19217 2.20649 6.29575
2.19928 2.19938 6.27
2.19928 2.19938 6.32146
2.19928 2.19938 6.82508
2.19928 2.19938 6.876
2.19129 2.20737 6.85053
2.19928 2.19938 6.82508
2.19129 2.20737 6.85053
2.17928 2.21938 6.8251
1.30559 3.09307 7.29759
1.31816 3.0805 7.315
1.28831 3.11035 7.315
1.28831 3.11035 7.315
1.28831 3.11035 7.28484
1.30559 3.09307 7.29759
2.19928 2.19938 6.82508
2.17928 2.21938 6.8251
2.1913 2.20736 6.79968
1.29441 3.10425 6.54679
1.28831 3.11035 6.57201
1.28831 3.11035 6.52157
2.19132 2.20734 6.5469
2.19928 2.19938 6.57209
2.17929 2.21937 6.57211
2.19117 2.20749 6.44634
2.19928 2.19938 6.42128
2.19928 2.19938 6.47139
2.17929 2.21937 6.57211
2.19928 2.19938 6.57209
2.19133 2.20733 6.59731
2.19928 2.19938 6.57209
2.19928 2.19938 6.62254
2.19133 2.20733 6.59731
2.17929 2.21937 6.62255
2.19133 2.20733 6.59731
2.19928 2.19938 6.62254
2.17928 2.21938 6.77431
2.1913 2.20736 6.79968
2.16946 2.22921 6.7997
2.16946 2.22921 6.7997
2.1913 2.20736 6.79968
2.17928 2.21938 6.8251
2.16946 2.22921 6.7997
2.15842 2.24024 6.77432
2.17928 2.21938 6.77431
2.16946 2.22921 6.7997
2.17928 2.21938 6.8251
2.15841 2.24025 6.82512
2.19928 2.19938 6.67304
2.19928 2.19938 6.72362
2.19132 2.20734 6.69833
2.19132 2.20734 6.69833
2.17929 2.21937 6.72363
2.16947 2.22919 6.69834
2.19928 2.19938 6.72362
2.17929 2.21937 6.72363
2.19132 2.20734 6.69833
2.19928 2.19938 6.77429
2.1913 2.20736 6.79968
2.17928 2.21938 6.77431
2.19928 2.19938 6.82508
2.1913 2.20736 6.79968
2.19928 2.19938 6.77429
2.17913 2.21954 6.42132
2.19928 2.19938 6.42128
2.19117 2.20749 6.44634
2.17927 2.21939 6.87602
2.19129 2.20737 6.85053
2.19928 2.19938 6.876
1.8956 2.50306 7.05575
1.90602 2.49264 7.02998
1.91643 2.48223 7.05572
1.28831 3.11035 6.27
1.30792 3.09074 6.27
1.29529 3.10337 6.2947
1.34771 3.05096 6.52159
1.32717 3.07149 6.52157
1.33709 3.06157 6.49637
1.30704 3.09162 6.52156
1.32717 3.07149 6.52157
1.31607 3.08259 6.54678
1.30704 3.09162 6.52156
1.29441 3.10425 6.54679
1.28831 3.11035 6.52157
1.31607 3.08259 6.54678
1.29441 3.10425 6.54679
1.30704 3.09162 6.52156
1.2945 3.10417 6.74894
1.28831 3.11035 6.7743
1.28831 3.11035 6.72361
1.3071 3.09157 6.7743
1.31615 3.08252 6.74893
1.32724 3.07142 6.77429
1.28831 3.11035 6.7743
1.2945 3.10417 6.74894
1.3071 3.09157 6.7743
1.3071 3.09157 6.7743
1.2945 3.10417 6.74894
1.31615 3.08252 6.74893
1.30708 3.09158 6.7236
1.32723 3.07143 6.7236
1.31615 3.08252 6.74893
1.30708 3.09158 6.7236
1.2945 3.10417 6.74894
1.28831 3.11035 6.72361
1.31615 3.08252 6.74893
1.2945 3.10417 6.74894
1.30708 3.09158 6.7236
1.28831 3.11035 6.57201
1.29441 3.10425 6.54679
1.30705 3.09161 6.572
1.30705 3.09161 6.572
1.29441 3.10425 6.54679
1.31607 3.08259 6.54678
1.32724 3.07142 6.77429
1.31615 3.08252 6.74893
1.33718 3.06148 6.74893
1.31615 3.08252 6.74893
1.32723 3.07143 6.7236
1.33718 3.06148 6.74893
1.49256 2.90611 6.72367
1.50289 2.89577 6.74901
1.48223 2.91643 6.749
1.48223 2.91643 6.749
1.50289 2.89577 6.74901
1.49257 2.90609 6.77437
1.49257 2.90609 6.77437
1.50289 2.89577 6.74901
1.51323 2.88543 6.77438
1.88521 2.51346 7.03
1.90602 2.49264 7.02998
1.8956 2.50306 7.05575
2.19127 2.20739 6.49656
2.19928 2.19938 6.47139
2.19928 2.19938 6.5217
2.19928 2.19938 6.57209
2.19132 2.20734 6.5469
2.19928 2.19938 6.5217
2.11618 2.28248 6.6731
2.09503 2.30363 6.67311
2.10562 2.29304 6.64785
2.17929 2.21937 6.67305
2.19132 2.20734 6.69833
2.16947 2.22919 6.69834
2.19928 2.19938 6.67304
2.19132 2.20734 6.69833
2.17929 2.21937 6.67305
2.16947 2.22919 6.69834
2.17929 2.21937 6.72363
2.15843 2.24024 6.72365
2.19131 2.20735 6.74895
2.17929 2.21937 6.72363
2.19928 2.19938 6.72362
2.19928 2.19938 6.72362
2.19928 2.19938 6.77429
2.19131 2.20735 6.74895
2.19131 2.20735 6.74895
2.19928 2.19938 6.77429
2.17928 2.21938 6.77431
2.1693 2.22936 6.44637
2.17913 2.21954 6.42132
2.19117 2.20749 6.44634
2.19127 2.20739 6.49656
2.19928 2.19938 6.5217
2.17927 2.21939 6.52174
2.17927 2.21939 6.52174
2.19928 2.19938 6.5217
2.19132 2.20734 6.5469
2.10553 2.29313 6.49661
2.09491 2.30375 6.47143
2.11605 2.28261 6.47143
2.1372 2.26147 6.47145
2.12662 2.27204 6.44626
2.14787 2.25079 6.44631
2.1372 2.26147 6.47145
2.11605 2.28261 6.47143
2.12662 2.27204 6.44626
2.16946 2.2292 6.54693
2.19132 2.20734 6.5469
2.17929 2.21937 6.57211
2.16946 2.2292 6.54693
2.17927 2.21939 6.52174
2.19132 2.20734 6.5469
2.16945 2.22921 6.85055
2.17928 2.21938 6.8251
2.19129 2.20737 6.85053
2.19129 2.20737 6.85053
2.17927 2.21939 6.87602
2.16945 2.22921 6.85055
2.15841 2.24025 6.82512
2.17928 2.21938 6.8251
2.16945 2.22921 6.85055
2.16944 2.22922 7.00405
2.14804 2.25062 7.00406
2.15841 2.24025 6.97837
2.14804 2.25063 6.95274
2.16944 2.22922 6.95272
2.15841 2.24025 6.97837
2.19128 2.20738 6.90153
2.17927 2.21939 6.87602
2.19928 2.19938 6.876
2.16944 2.22922 6.90156
2.17927 2.21939 6.87602
2.19128 2.20738 6.90153
1.93725 2.46141 7.10732
1.94766 2.451 7.13316
1.92679 2.47187 7.1332
2.05276 2.34591 6.97843
2.06331 2.33535 6.95279
2.07386 2.3248 6.97841
2.07386 2.3248 6.97841
2.06331 2.33535 6.95279
2.08443 2.31423 6.95278
2.15841 2.24026 6.92713
2.14804 2.25062 6.90158
2.16944 2.22922 6.90156
2.15841 2.24026 6.92713
2.16944 2.22922 6.95272
2.14804 2.25063 6.95274
2.04222 2.35644 6.95281
2.06331 2.33535 6.95279
2.05276 2.34591 6.97843
1.9897 2.40896 6.72374
1.96874 2.42992 6.72374
1.97921 2.41945 6.69844
1.93736 2.4613 6.69844
1.92692 2.47174 6.72375
1.91649 2.48217 6.69844
1.94781 2.45085 6.72375
1.92692 2.47174 6.72375
1.93736 2.4613 6.69844
1.92691 2.47175 6.62265
1.9478 2.45086 6.62265
1.93736 2.46131 6.64789
1.93736 2.46131 6.64789
1.91648 2.48218 6.64789
1.92691 2.47175 6.62265
1.92691 2.47175 6.62265
1.91648 2.48218 6.64789
1.90605 2.49261 6.62264
1.93736 2.46131 6.64789
1.9478 2.45086 6.62265
1.95826 2.4404 6.6479
1.96871 2.42995 6.57223
1.9792 2.41946 6.59744
1.95825 2.44041 6.59743
1.95825 2.44041 6.59743
1.94778 2.45088 6.57223
1.96871 2.42995 6.57223
1.8126 2.58607 6.74909
1.82295 2.57571 6.72375
1.83332 2.56534 6.74909
1.82295 2.57571 6.72375
1.84369 2.55497 6.72375
1.83332 2.56534 6.74909
1.92692 2.47174 6.67316
1.91648 2.48218 6.64789
1.93736 2.46131 6.64789
1.92692 2.47174 6.67316
1.93736 2.4613 6.69844
1.91649 2.48217 6.69844
1.91649 2.48217 6.69844
1.89565 2.50301 6.69844
1.90606 2.4926 6.67315
1.90606 2.4926 6.67315
1.92692 2.47174 6.67316
1.91649 2.48217 6.69844
1.91648 2.48218 6.64789
1.92692 2.47174 6.67316
1.90606 2.4926 6.67315
1.90605 2.49261 6.62264
1.88523 2.51343 6.62264
1.89563 2.50303 6.59741
1.88521 2.51345 6.57219
1.90603 2.49263 6.57221
1.89563 2.50303 6.59741
1.51322 2.88545 6.72368
1.50289 2.89577 6.74901
1.49256 2.90611 6.72367
1.49256 2.90611 6.72367
1.50288 2.89578 6.69836
1.51322 2.88545 6.72368
1.29442 3.10424 6.34487
1.28831 3.11035 6.37009
1.28831 3.11035 6.31942
1.28831 3.11035 6.27
1.29529 3.10337 6.2947
1.28831 3.11035 6.31942
1.307 3.09167 6.4207
1.28831 3.11035 6.42067
1.29431 3.10435 6.39542
1.28831 3.11035 6.42067
1.28831 3.11035 6.37009
1.29431 3.10435 6.39542
2.19928 2.19938 6.27
2.19217 2.20649 6.29575
2.18013 2.21854 6.27
1.28831 3.11035 6.52157
1.28831 3.11035 6.47114
1.29438 3.10428 6.49636
1.29438 3.10428 6.49636
1.30704 3.09162 6.52156
1.28831 3.11035 6.52157
1.30702 3.09164 6.47113
1.29438 3.10428 6.49636
1.28831 3.11035 6.47114
1.30702 3.09164 6.47113
1.31601 3.08265 6.44594
1.32714 3.07152 6.47116
1.31605 3.08262 6.49635
1.33709 3.06157 6.49637
1.32717 3.07149 6.52157
1.32717 3.07149 6.52157
1.30704 3.09162 6.52156
1.31605 3.08262 6.49635
1.32714 3.07152 6.47116
1.33709 3.06157 6.49637
1.31605 3.08262 6.49635
1.31605 3.08262 6.49635
1.30702 3.09164 6.47113
1.32714 3.07152 6.47116
1.30704 3.09162 6.52156
1.29438 3.10428 6.49636
1.31605 3.08262 6.49635
1.29438 3.10428 6.49636
1.30702 3.09164 6.47113
1.31605 3.08262 6.49635
1.29435 3.10432 6.44591
1.28831 3.11035 6.47114
1.28831 3.11035 6.42067
1.29435 3.10432 6.44591
1.28831 3.11035 6.42067
1.307 3.09167 6.4207
1.307 3.09167 6.4207
1.31601 3.08265 6.44594
1.29435 3.10432 6.44591
1.29435 3.10432 6.44591
1.30702 3.09164 6.47113
1.28831 3.11035 6.47114
1.31601 3.08265 6.44594
1.30702 3.09164 6.47113
1.29435 3.10432 6.44591
1.33717 3.06149 6.69829
1.32723 3.07143 6.7236
1.31613 3.08254 6.69829
1.32723 3.07143 6.7236
1.30708 3.09158 6.7236
1.31613 3.08254 6.69829
1.31613 3.08254 6.69829
1.32722 3.07145 6.673
1.33717 3.06149 6.69829
1.33711 3.06155 6.54679
1.32717 3.07149 6.52157
1.34771 3.05096 6.52159
1.31607 3.08259 6.54678
1.32717 3.07149 6.52157
1.33711 3.06155 6.54679
1.35794 3.04072 6.5468
1.33711 3.06155 6.54679
1.34771 3.05096 6.52159
1.34773 3.05094 6.57201
1.33711 3.06155 6.54679
1.35794 3.04072 6.5468
1.34773 3.05094 6.57201
1.35794 3.04072 6.5468
1.36839 3.03027 6.57202
1.50287 2.89579 6.6478
1.51321 2.88546 6.67307
1.49255 2.90612 6.67307
1.49255 2.90612 6.67307
1.51321 2.88546 6.67307
1.50288 2.89578 6.69836
1.42017 2.9785 6.69832
1.44086 2.9578 6.69833
1.43052 2.96814 6.72363
1.43051 2.96815 6.67304
1.44086 2.9578 6.69833
1.42017 2.9785 6.69832
1.44085 2.95782 6.64777
1.4305 2.96817 6.62252
1.45119 2.94748 6.62253
1.43051 2.96815 6.67304
1.42015 2.97851 6.64776
1.44085 2.95782 6.64777
1.44085 2.95782 6.64777
1.42015 2.97851 6.64776
1.4305 2.96817 6.62252
1.44087 2.95779 6.74898
1.46156 2.9371 6.74899
1.45123 2.94744 6.77434
1.3995 2.99917 6.7997
1.40985 2.98882 6.77432
1.4202 2.97846 6.79971
1.40983 2.98883 6.72362
1.42017 2.9785 6.69832
1.43052 2.96814 6.72363
1.39946 2.9992 6.69831
1.42017 2.9785 6.69832
1.40983 2.98883 6.72362
1.32724 3.07142 6.77429
1.33718 3.06148 6.74893
1.34779 3.05087 6.77429
1.33717 3.06149 6.69829
1.32722 3.07145 6.673
1.34776 3.0509 6.673
1.34776 3.0509 6.673
1.35799 3.04067 6.69829
1.33717 3.06149 6.69829
1.38911 3.00955 6.67301
1.39946 2.9992 6.69831
1.37874 3.01992 6.6983
1.34777 3.05089 6.7236
1.33718 3.06148 6.74893
1.32723 3.07143 6.7236
1.34777 3.05089 6.7236
[...]
<PointData Scalars="View Factor" >
<DataArray type="Float64" Name="View Factor" NumberOfComponents="1" format="ascii">
0.00310485
0.00310485
0.00310485
0.00103577
0.00103577
0.00103577
0.00099976
0.00099976
0.00099976
0.0132384
0.0132384
0.0132384
0.0134525
0.0134525
0.0134525
0.00102991
0.00102991
0.00102991
0.0256656
0.0256656
0.0256656
0.00354399
0.00354399
0.00354399
0.00827659
0.00827659
0.00827659
0.00311941
0.00311941
0.00311941
0.00273586
0.00273586
0.00273586
0.00243331
0.00243331
0.00243331
0.00151536
0.00151536
0.00151536
0.00146585
0.00146585
0.00146585
0.00303009
0.00303009
0.00303009
0.00287863
0.00287863
0.00287863
0.00153051
0.00153051
0.00153051
0.00188345
0.00188345
0.00188345
0.00136881
0.00136881
0.00136881
0.0011082
0.0011082
0.0011082
0.00113229
0.00113229
0.00113229
0.00860875
0.00860875
0.00860875
0.000947732
0.000947732
0.000947732
9.06825e-05
9.06825e-05
9.06825e-05
0.0328465
0.0328465
0.0328465
0.025355
0.025355
0.025355
0.0255076
0.0255076
0.0255076
0.0259417
0.0259417
0.0259417
0.0255617
0.0255617
0.0255617
0.0214075
0.0214075
0.0214075
0.020632
0.020632
0.020632
0.0209898
0.0209898
0.0209898
0.0209942
0.0209942
0.0209942
0.0212565
0.0212565
0.0212565
0.021625
0.021625
0.021625
0.0213096
0.0213096
0.0213096
0.0251558
0.0251558
0.0251558
0.0251714
0.0251714
0.0251714
0.0205711
0.0205711
0.0205711
0.0208805
0.0208805
0.0208805
0.0163322
0.0163322
0.0163322
0.0160336
0.0160336
0.0160336
0.0150733
0.0150733
0.0150733
9.90022e-05
9.90022e-05
9.90022e-05
0.00595428
0.00595428
0.00595428
0.00401295
0.00401295
0.00401295
0.00240721
0.00240721
0.00240721
0.00199149
0.00199149
0.00199149
0.00158942
0.00158942
0.00158942
0.00341981
0.00341981
0.00341981
0.00128479
0.00128479
0.00128479
0.00127971
0.00127971
0.00127971
0.00115801
0.00115801
0.00115801
0.00865993
0.00865993
0.00865993
0.00524047
0.00524047
0.00524047
0.00459008
0.00459008
0.00459008
0.00600704
0.00600704
0.00600704
0.00767103
0.00767103
0.00767103
0.00726351
0.00726351
0.00726351
0.00378621
0.00378621
0.00378621
0.0042437
0.0042437
0.0042437
0.00138041
0.00138041
0.00138041
0.00134287
0.00134287
0.00134287
0.00281514
0.00281514
0.00281514
0.0021921
0.0021921
0.0021921
0.00226974
0.00226974
0.00226974
0.000926321
0.000926321
0.000926321
0.00127588
0.00127588
0.00127588
4.95147e-05
4.95147e-05
4.95147e-05
0.000147413
0.000147413
0.000147413
0.000157785
0.000157785
0.000157785
0.0023991
0.0023991
0.0023991
0.00231145
0.00231145
0.00231145
0.000157541
0.000157541
0.000157541
0.000753416
0.000753416
0.000753416
0.00084283
0.00084283
0.00084283
0.000781753
0.000781753
0.000781753
0.0014954
0.0014954
0.0014954
0.00142565
0.00142565
0.00142565
0.00154514
0.00154514
0.00154514
0.00137906
0.00137906
0.00137906
0.00206251
0.00206251
0.00206251
0.00224674
0.00224674
0.00224674
0.000759867
0.000759867
0.000759867
0.000799259
0.000799259
0.000799259
0.00124635
0.00124635
0.00124635
0.000949321
0.000949321
0.000949321
0.000978991
0.000978991
0.000978991
0.00102908
0.00102908
0.00102908
0.00117851
0.00117851
0.00117851
0.00184052
0.00184052
0.00184052
0.00249023
0.00249023
0.00249023
0.0156966
0.0156966
0.0156966
0.0160254
0.0160254
0.0160254
0.0309772
0.0309772
0.0309772
0.0324851
0.0324851
0.0324851
0.028935
0.028935
0.028935
0.0295327
0.0295327
0.0295327
0.0022772
0.0022772
0.0022772
0.0268823
0.0268823
0.0268823
0.0263456
0.0263456
0.0263456
0.0271761
0.0271761
0.0271761
0.0271446
0.0271446
0.0271446
0.0258403
0.0258403
0.0258403
0.0259056
0.0259056
0.0259056
0.0262452
0.0262452
0.0262452
0.0267236
0.0267236
0.0267236
0.026365
0.026365
0.026365
0.0267776
0.0267776
0.0267776
0.0281692
0.0281692
0.0281692
0.0284828
0.0284828
0.0284828
0.0280642
0.0280642
0.0280642
0.0276034
0.0276034
0.0276034
0.0276272
0.0276272
0.0276272
0.0215155
0.0215155
0.0215155
0.0215775
0.0215775
0.0215775
0.0218414
0.0218414
0.0218414
0.0249621
0.0249621
0.0249621
0.0250524
0.0250524
0.0250524
0.0245064
0.0245064
0.0245064
0.0241309
0.0241309
0.0241309
0.0237099
0.0237099
0.0237099
0.0170567
0.0170567
0.0170567
0.0166978
0.0166978
0.0166978
0.0191203
0.0191203
0.0191203
0.0193653
0.0193653
0.0193653
0.019972
0.019972
0.019972
0.0198766
0.0198766
0.0198766
0.0201343
0.0201343
0.0201343
0.0177995
0.0177995
0.0177995
0.0183142
0.0183142
0.0183142
0.0192481
0.0192481
0.0192481
0.0195956
0.0195956
0.0195956
0.0201869
0.0201869
0.0201869
0.0217575
0.0217575
0.0217575
0.0213631
0.0213631
0.0213631
0.0203912
0.0203912
0.0203912
0.0207991
0.0207991
0.0207991
0.0211127
0.0211127
0.0211127
0.0210441
0.0210441
0.0210441
0.0172792
0.0172792
0.0172792
0.0150925
0.0150925
0.0150925
0.0135573
0.0135573
0.0135573
0.0170823
0.0170823
0.0170823
0.0173704
0.0173704
0.0173704
0.0170881
0.0170881
0.0170881
0.0164916
0.0164916
0.0164916
0.0173532
0.0173532
0.0173532
0.0170893
0.0170893
0.0170893
0.0162118
0.0162118
0.0162118
0.0165316
0.0165316
0.0165316
0.0156499
0.0156499
0.0156499
0.0162517
0.0162517
0.0162517
0.017572
0.017572
0.017572
0.0172633
0.0172633
0.0172633
0.0127328
0.0127328
0.0127328
0.00140687
0.00140687
0.00140687
0.00507543
0.00507543
0.00507543
0.00131396
0.00131396
0.00131396
0.00498419
0.00498419
0.00498419
0.0151673
0.0151673
0.0151673
0.0147909
0.0147909
0.0147909
0.0154509
0.0154509
0.0154509
0.00010963
0.00010963
0.00010963
0.000100699
0.000100699
0.000100699
9.32448e-05
9.32448e-05
9.32448e-05
0.000101728
0.000101728
0.000101728
0.000124579
0.000124579
0.000124579
0.000130293
0.000130293
0.000130293
0.000182694
0.000182694
0.000182694
0.000115639
0.000115639
0.000115639
1.95297e-05
1.95297e-05
1.95297e-05
2.15106e-05
2.15106e-05
2.15106e-05
1.76174e-05
1.76174e-05
1.76174e-05
1.62397e-05
1.62397e-05
1.62397e-05
2.48688e-05
2.48688e-05
2.48688e-05
2.62415e-05
2.62415e-05
2.62415e-05
2.4334e-05
2.4334e-05
2.4334e-05
2.10471e-05
2.10471e-05
2.10471e-05
2.37908e-05
2.37908e-05
2.37908e-05
2.56671e-05
2.56671e-05
2.56671e-05
3.00474e-05
3.00474e-05
3.00474e-05
1.58879e-05
1.58879e-05
1.58879e-05
2.05766e-05
2.05766e-05
2.05766e-05
1.9101e-05
1.9101e-05
1.9101e-05
1.72291e-05
1.72291e-05
1.72291e-05
1.55312e-05
1.55312e-05
1.55312e-05
1.40536e-05
1.40536e-05
1.40536e-05
1.24242e-05
1.24242e-05
1.24242e-05
1.22767e-05
1.22767e-05
1.22767e-05
5.12885e-05
5.12885e-05
5.12885e-05
5.13431e-05
5.13431e-05
5.13431e-05
4.80702e-05
4.80702e-05
4.80702e-05
0.00268194
0.00268194
0.00268194
0.00275153
0.00275153
0.00275153
0.00282715
0.00282715
0.00282715
0.00246866
0.00246866
0.00246866
0.00259704
0.00259704
0.00259704
0.00222418
0.00222418
0.00222418
0.00279563
0.00279563
0.00279563
0.000749506
0.000749506
0.000749506
0.000793719
0.000793719
0.000793719
0.0017402
0.0017402
0.0017402
0.00226037
0.00226037
0.00226037
0.00196685
0.00196685
0.00196685
0.00215358
0.00215358
0.00215358
0.0024228
0.0024228
0.0024228
0.00260678
0.00260678
0.00260678
0.00275485
0.00275485
0.00275485
0.00311596
0.00311596
0.00311596
0.00331015
0.00331015
0.00331015
0.00299157
0.00299157
0.00299157
0.00307983
0.00307983
0.00307983
0.00163586
0.00163586
0.00163586
0.0017045
0.0017045
0.0017045
0.00678947
0.00678947
0.00678947
0.00758216
0.00758216
0.00758216
0.00803909
0.00803909
0.00803909
0.00850324
0.00850324
0.00850324
0.00663226
0.00663226
0.00663226
0.00736236
0.00736236
0.00736236
0.00576782
0.00576782
0.00576782
0.00576916
0.00576916
0.00576916
0.00533921
0.00533921
0.00533921
0.00531303
0.00531303
0.00531303
0.00269749
0.00269749
0.00269749
0.0026448
0.0026448
0.0026448
0.00244929
0.00244929
0.00244929
0.00215572
0.00215572
0.00215572
0.00105125
0.00105125
0.00105125
2.35283e-05
2.35283e-05
2.35283e-05
8.25962e-05
8.25962e-05
8.25962e-05
0.000109404
0.000109404
0.000109404
9.62346e-05
9.62346e-05
9.62346e-05
0.000133146
0.000133146
0.000133146
0.00010377
0.00010377
0.00010377
0.00155381
0.00155381
0.00155381
0.00158671
0.00158671
0.00158671
0.000667597
0.000667597
0.000667597
0.000750265
0.000750265
0.000750265
0.000751366
0.000751366
0.000751366
0.000795017
0.000795017
0.000795017
0.00045503
0.00045503
0.00045503
0.000480946
0.000480946
0.000480946
0.000455227
0.000455227
0.000455227
0.00254699
0.00254699
0.00254699
0.00250142
0.00250142
0.00250142
0.00124535
0.00124535
0.00124535
0.00205281
0.00205281
0.00205281
0.00189707
0.00189707
0.00189707
0.00208968
0.00208968
0.00208968
0.00197219
0.00197219
0.00197219
0.0017843
0.0017843
0.0017843
0.00181806
0.00181806
0.00181806
0.000752555
0.000752555
0.000752555
0.000894327
0.000894327
0.000894327
0.000796549
0.000796549
0.000796549
0.00095937
0.00095937
0.00095937
0.000806366
0.000806366
0.000806366
0.000868889
0.000868889
0.000868889
0.000694315
0.000694315
0.000694315
0.00055804
0.00055804
0.00055804
0.000520984
0.000520984
0.000520984
0.000702482
0.000702482
0.000702482
0.00073739
0.00073739
0.00073739
0.000830616
0.000830616
0.000830616
0.000894543
0.000894543
0.000894543
0.000758393
0.000758393
0.000758393
0.000854451
0.000854451
0.000854451
0.000627725
0.000627725
0.000627725
0.0005844
0.0005844
0.0005844
0.000528834
0.000528834
0.000528834
0.000507201
0.000507201
0.000507201
0.000543568
0.000543568
0.000543568
0.000600809
0.000600809
0.000600809
0.000816389
0.000816389
0.000816389
0.000756747
0.000756747
0.000756747
0.00080007
0.00080007
0.00080007
0.000900605
0.000900605
0.000900605
0.000284365
0.000284365
0.000284365
0.000453578
0.000453578
0.000453578
0.000299544
0.000299544
0.000299544
0.00178296
0.00178296
0.00178296
0.00240972
0.00240972
0.00240972
0.00195594
0.00195594
0.00195594
0.00226116
0.00226116
0.00226116
0.00232852
0.00232852
0.00232852
0.00218722
0.00218722
0.00218722
0.00189155
0.00189155
0.00189155
0.00172477
0.00172477
0.00172477
0.00182799
0.00182799
0.00182799
0.00211265
0.00211265
0.00211265
0.00118038
0.00118038
0.00118038
0.00109726
0.00109726
0.00109726
0.00110643
0.00110643
0.00110643
0.00124818
0.00124818
0.00124818
0.000609598
0.000609598
0.000609598
0.000650966
0.000650966
0.000650966
0.00108505
0.00108505
0.00108505
0.00103188
0.00103188
0.00103188
0.000511832
0.000511832
0.000511832
0.000544619
0.000544619
0.000544619
0.000521611
0.000521611
0.000521611
0.00046089
0.00046089
0.00046089
0.000443624
0.000443624
0.000443624
0.000469671
0.000469671
0.000469671
0.000900919
0.000900919
0.000900919
0.00115236
0.00115236
0.00115236
0.00109297
0.00109297
0.00109297
0.000968934
0.000968934
0.000968934
0.000632715
0.000632715
0.000632715
0.000678655
0.000678655
0.000678655
0.00118186
0.00118186
0.00118186
0.000819103
0.000819103
0.000819103
0.000923534
0.000923534
0.000923534
0.00132141
0.00132141
0.00132141
0.00256999
0.00256999
0.00256999
0.00233438
0.00233438
0.00233438
0.00201824
0.00201824
0.00201824
0.00106064
0.00106064
0.00106064
0.00100822
0.00100822
0.00100822
0.00125106
0.00125106
0.00125106
0.00109174
0.00109174
0.00109174
0.017136
0.017136
0.017136
0.0196281
0.0196281
0.0196281
0.0194167
0.0194167
0.0194167
0.0195686
0.0195686
0.0195686
0.0187011
0.0187011
0.0187011
0.0175187
0.0175187
0.0175187
0.0179111
0.0179111
0.0179111
0.0244533
0.0244533
0.0244533
0.0252776
0.0252776
0.0252776
0.0248353
0.0248353
0.0248353
0.0166961
0.0166961
0.0166961
0.016297
0.016297
0.016297
0.00112729
0.00112729
0.00112729
0.00105164
0.00105164
0.00105164
0.000929317
0.000929317
0.000929317
0.000880164
0.000880164
0.000880164
0.000733958
0.000733958
0.000733958
0.000785294
0.000785294
0.000785294
0.00261346
0.00261346
0.00261346
0.00302838
0.00302838
0.00302838
0.00477913
0.00477913
0.00477913
0.000310246
0.000310246
0.000310246
0.00433364
0.00433364
0.00433364
0.00344974
0.00344974
0.00344974
0.00646649
0.00646649
0.00646649
0.00762054
0.00762054
0.00762054
0.0204757
0.0204757
0.0204757
0.0206809
0.0206809
0.0206809
0.0223889
0.0223889
0.0223889
0.0219504
0.0219504
0.0219504
0.021957
0.021957
0.021957
0.0234232
0.0234232
0.0234232
0.0236676
0.0236676
0.0236676
0.0232679
0.0232679
0.0232679
0.0233218
0.0233218
0.0233218
0.0247737
0.0247737
0.0247737
0.0245141
0.0245141
0.0245141
0.0240295
0.0240295
0.0240295
0.0244113
0.0244113
0.0244113
0.0240416
0.0240416
0.0240416
0.0236244
0.0236244
0.0236244
0.0235604
0.0235604
0.0235604
0.0234013
0.0234013
0.0234013
0.0233487
0.0233487
0.0233487
0.0247338
0.0247338
0.0247338
0.024669
0.024669
0.024669
0.0243572
0.0243572
0.0243572
0.0239235
0.0239235
0.0239235
0.0242037
0.0242037
0.0242037
0.0238353
0.0238353
0.0238353
0.0228545
0.0228545
0.0228545
0.0225106
0.0225106
0.0225106
0.0220884
0.0220884
0.0220884
0.0220184
0.0220184
0.0220184
0.0182734
0.0182734
0.0182734
0.0187843
0.0187843
0.0187843
0.0190338
0.0190338
0.0190338
0.0179317
0.0179317
0.0179317
0.0169603
0.0169603
0.0169603
0.0172729
0.0172729
0.0172729
0.0173853
0.0173853
0.0173853
0.0179688
0.0179688
0.0179688
0.0182222
0.0182222
0.0182222
0.0179492
0.0179492
0.0179492
0.0198601
0.0198601
0.0198601
0.0204162
0.0204162
0.0204162
0.0197645
0.0197645
0.0197645
0.0200299
0.0200299
0.0200299
0.0202936
0.0202936
0.0202936
0.0205849
0.0205849
0.0205849
0.0186207
0.0186207
0.0186207
0.0189935
0.0189935
0.0189935
0.0179935
0.0179935
0.0179935
0.0182344
0.0182344
0.0182344
0.0184856
0.0184856
0.0184856
0.0183542
0.0183542
0.0183542
0.0178385
0.0178385
0.0178385
0.0177269
0.0177269
0.0177269
0.0175347
0.0175347
0.0175347
0.0174477
0.0174477
0.0174477
0.0177109
0.0177109
0.0177109
0.0180534
0.0180534
0.0180534
0.0181637
0.0181637
0.0181637
0.0179754
0.0179754
0.0179754
0.0179053
0.0179053
0.0179053
0.0186754
0.0186754
0.0186754
0.0216361
0.0216361
0.0216361
0.0207943
0.0207943
0.0207943
0.0213115
0.0213115
0.0213115
0.0208949
0.0208949
0.0208949
0.0201236
0.0201236
0.0201236
0.020423
0.020423
0.020423
0.0199936
0.0199936
0.0199936
0.020376
0.020376
0.020376
0.0205871
0.0205871
0.0205871
0.0206798
0.0206798
0.0206798
0.0177225
0.0177225
0.0177225
0.0177921
0.0177921
0.0177921
0.0173976
0.0173976
0.0173976
0.0181065
0.0181065
0.0181065
0.0181642
0.0181642
0.0181642
0.0175329
0.0175329
0.0175329
0.0157625
0.0157625
0.0157625
0.0169385
0.0169385
0.0169385
0.0166869
0.0166869
0.0166869
0.0162878
0.0162878
0.0162878
0.0161552
0.0161552
0.0161552
0.0137774
0.0137774
0.0137774
0.0131807
0.0131807
0.0131807
0.0133982
0.0133982
0.0133982
0.0164588
0.0164588
0.0164588
0.0161443
0.0161443
0.0161443
0.0161408
0.0161408
0.0161408
0.0152428
0.0152428
0.0152428
0.0157641
0.0157641
0.0157641
0.0154642
0.0154642
0.0154642
0.0154625
0.0154625
0.0154625
0.0159145
0.0159145
0.0159145
0.0156849
0.0156849
0.0156849
0.015871
0.015871
0.015871
0.0156454
0.0156454
0.0156454
0.0180733
0.0180733
0.0180733
0.0179114
0.0179114
0.0179114
0.0181892
0.0181892
0.0181892
0.0186107
0.0186107
0.0186107
0.0187699
0.0187699
0.0187699
0.0185202
0.0185202
0.0185202
0.016545
0.016545
0.016545
0.0171923
0.0171923
0.0171923
0.0169933
0.0169933
0.0169933
0.0162781
0.0162781
0.0162781
0.000424045
0.000424045
0.000424045
0.000502415
0.000502415
0.000502415
0.000475174
0.000475174
0.000475174
0.0103078
0.0103078
0.0103078
0.00784283
0.00784283
0.00784283
0.00797598
0.00797598
0.00797598
0.011558
0.011558
0.011558
0.0101328
0.0101328
0.0101328
0.0142487
0.0142487
0.0142487
0.0139973
0.0139973
0.0139973
0.0119589
0.0119589
0.0119589
0.0129527
0.0129527
0.0129527
0.0136746
0.0136746
0.0136746
0.0134198
0.0134198
0.0134198
0.0106823
0.0106823
0.0106823
0.0121736
0.0121736
0.0121736
8.17853e-05
8.17853e-05
8.17853e-05
7.50024e-05
7.50024e-05
7.50024e-05
7.98325e-05
7.98325e-05
7.98325e-05
9.13228e-05
9.13228e-05
9.13228e-05
0.000107048
0.000107048
0.000107048
0.000121654
0.000121654
0.000121654
8.91116e-05
8.91116e-05
8.91116e-05
9.82588e-05
9.82588e-05
9.82588e-05
9.57719e-05
9.57719e-05
9.57719e-05
0.000104411
0.000104411
0.000104411
0.000214676
0.000214676
0.000214676
0.000172641
0.000172641
0.000172641
0.000155772
0.000155772
0.000155772
0.000176762
0.000176762
0.000176762
0.000187143
0.000187143
0.000187143
0.000159498
0.000159498
0.000159498
0.000147636
0.000147636
0.000147636
0.000222081
0.000222081
0.000222081
0.000209595
0.000209595
0.000209595
0.000248827
0.000248827
0.000248827
0.000254544
0.000254544
0.000254544
0.000144103
0.000144103
0.000144103
0.000123981
0.000123981
0.000123981
0.000118673
0.000118673
0.000118673
0.000127165
0.000127165
0.000127165
0.000168442
0.000168442
0.000168442
0.000151976
0.000151976
0.000151976
0.000140505
0.000140505
0.000140505
0.000112547
0.000112547
0.000112547
0.000120738
0.000120738
0.000120738
0.000117434
0.000117434
0.000117434
0.000133114
0.000133114
0.000133114
0.000408513
0.000408513
0.000408513
0.000368338
0.000368338
0.000368338
0.000260716
0.000260716
0.000260716
0.000306981
0.000306981
0.000306981
0.000339601
0.000339601
0.000339601
0.000314265
0.000314265
0.000314265
0.000290372
0.000290372
0.000290372
0.000359969
0.000359969
0.000359969
0.000347655
0.000347655
0.000347655
0.00019966
0.00019966
0.00019966
0.00021567
0.00021567
0.00021567
5.81658e-05
5.81658e-05
5.81658e-05
2.07785e-05
2.07785e-05
2.07785e-05
2.68054e-05
2.68054e-05
2.68054e-05
3.20774e-05
3.20774e-05
3.20774e-05
3.1375e-05
3.1375e-05
3.1375e-05
7.32142e-05
7.32142e-05
7.32142e-05
6.72992e-05
6.72992e-05
6.72992e-05
0.0161881
0.0161881
0.0161881
0.0160392
0.0160392
0.0160392
2.28589e-05
2.28589e-05
2.28589e-05
6.97692e-05
6.97692e-05
6.97692e-05
0.0012706
0.0012706
0.0012706
8.96592e-05
8.96592e-05
8.96592e-05
0.00773036
0.00773036
0.00773036
0.000316378
0.000316378
0.000316378
0.000199939
0.000199939
0.000199939
0.000112236
0.000112236
0.000112236
0.000119481
0.000119481
0.000119481
0.000145027
0.000145027
0.000145027
0.000135708
0.000135708
0.000135708
6.61458e-05
6.61458e-05
6.61458e-05
3.66828e-05
3.66828e-05
3.66828e-05
3.07457e-05
3.07457e-05
3.07457e-05
3.14163e-05
3.14163e-05
3.14163e-05
3.07165e-05
3.07165e-05
3.07165e-05
8.18458e-05
8.18458e-05
8.18458e-05
0.000101798
0.000101798
0.000101798
8.92418e-05
8.92418e-05
8.92418e-05
6.86871e-05
6.86871e-05
6.86871e-05
6.48913e-05
6.48913e-05
6.48913e-05
7.00418e-05
7.00418e-05
7.00418e-05
7.50918e-05
7.50918e-05
7.50918e-05
0.000103094
0.000103094
0.000103094
9.35007e-05
9.35007e-05
9.35007e-05
1.36731e-05
1.36731e-05
1.36731e-05
1.52056e-05
1.52056e-05
1.52056e-05
1.86662e-05
1.86662e-05
1.86662e-05
1.51685e-05
1.51685e-05
1.51685e-05
1.68348e-05
1.68348e-05
1.68348e-05
1.44296e-05
1.44296e-05
1.44296e-05
1.562e-05
1.562e-05
1.562e-05
1.73235e-05
1.73235e-05
1.73235e-05
1.91253e-05
1.91253e-05
1.91253e-05
1.34969e-05
1.34969e-05
1.34969e-05
1.2504e-05
1.2504e-05
1.2504e-05
2.0193e-05
2.0193e-05
2.0193e-05
1.23979e-05
1.23979e-05
1.23979e-05
1.35043e-05
1.35043e-05
1.35043e-05
3.99095e-05
3.99095e-05
3.99095e-05
3.52083e-05
3.52083e-05
3.52083e-05
3.9982e-05
3.9982e-05
3.9982e-05
4.35404e-05
4.35404e-05
4.35404e-05
4.34874e-05
4.34874e-05
4.34874e-05
4.7958e-05
4.7958e-05
4.7958e-05
3.56755e-05
3.56755e-05
3.56755e-05
0.00107115
0.00107115
0.00107115
0.00132905
0.00132905
0.00132905
0.000598342
0.000598342
0.000598342
0.000637421
0.000637421
0.000637421
0.00178362
0.00178362
0.00178362
0.00155538
0.00155538
0.00155538
0.00254486
0.00254486
0.00254486
0.00240456
0.00240456
0.00240456
0.000454679
0.000454679
0.000454679
0.000409408
0.000409408
0.000409408
0.00066509
0.00066509
0.00066509
0.00284862
0.00284862
0.00284862
0.00194369
0.00194369
0.00194369
0.000626593
0.000626593
0.000626593
0.000561266
0.000561266
0.000561266
0.0023268
0.0023268
0.0023268
0.00204339
0.00204339
0.00204339
0.000889399
0.000889399
0.000889399
0.000792539
0.000792539
0.000792539
0.00226625
0.00226625
0.00226625
0.00258613
0.00258613
0.00258613
0.00249355
0.00249355
0.00249355
0.00094769
0.00094769
0.00094769
0.000890879
0.000890879
0.000890879
0.00115661
0.00115661
0.00115661
0.00108047
0.00108047
0.00108047
0.00115982
0.00115982
0.00115982
0.000951834
0.000951834
0.000951834
0.000892528
0.000892528
0.000892528
0.000949678
0.000949678
0.000949678
0.00108391
0.00108391
0.00108391
0.00380803
0.00380803
0.00380803
0.00366312
0.00366312
0.00366312
0.00173207
0.00173207
0.00173207
0.00131587
0.00131587
0.00131587
0.00413512
0.00413512
0.00413512
0.00297729
0.00297729
0.00297729
0.0028282
0.0028282
0.0028282
0.00697371
0.00697371
0.00697371
0.00869702