<VTKFile type="UnstructuredGrid" version="1.0">
<UnstructuredGrid>
<Piece NumberOfPoints="10830" NumberOfCells="3610">
<Points>
<DataArray type="Float64" NumberOfComponents="3" format="ascii">
3.10314 1.29552 0.0257489
3.11025 1.28841 0
3.11025 1.28841 0.0514594
3.11025 1.28841 0.555078
3.11025 1.28841 0.605999
3.10226 1.2964 0.580532
3.11025 1.28841 0.555078
3.10226 1.2964 0.580532
3.09025 1.30841 0.555099
2.21656 2.1821 1.02759
2.22913 2.16953 1.045
2.19928 2.19938 1.045
2.19928 2.19938 1.045
2.19928 2.19938 1.01484
2.21656 2.1821 1.02759
3.11025 1.28841 0.555078
3.09025 1.30841 0.555099
3.10227 1.29639 0.529679
2.20538 2.19328 0.276786
2.19928 2.19938 0.302009
2.19928 2.19938 0.251574
3.10229 1.29637 0.2769
3.11025 1.28841 0.302091
3.09026 1.3084 0.302114
3.10214 1.29652 0.17634
3.11025 1.28841 0.151284
3.11025 1.28841 0.201394
3.09026 1.3084 0.302114
3.11025 1.28841 0.302091
3.1023 1.29636 0.327315
3.11025 1.28841 0.302091
3.11025 1.28841 0.352537
3.1023 1.29636 0.327315
3.09026 1.3084 0.352551
3.1023 1.29636 0.327315
3.11025 1.28841 0.352537
3.09025 1.30841 0.504308
3.10227 1.29639 0.529679
3.08043 1.31823 0.529697
3.08043 1.31823 0.529697
3.10227 1.29639 0.529679
3.09025 1.30841 0.555099
3.08043 1.31823 0.529697
3.06939 1.32927 0.504324
3.09025 1.30841 0.504308
3.08043 1.31823 0.529697
3.09025 1.30841 0.555099
3.06938 1.32928 0.555118
3.11025 1.28841 0.403041
3.11025 1.28841 0.453619
3.10229 1.29637 0.428326
3.10229 1.29637 0.428326
3.09026 1.3084 0.453633
3.08044 1.31822 0.428339
3.11025 1.28841 0.453619
3.09026 1.3084 0.453633
3.10229 1.29637 0.428326
3.11025 1.28841 0.504291
3.10227 1.29639 0.529679
3.09025 1.30841 0.504308
3.11025 1.28841 0.555078
3.10227 1.29639 0.529679
3.11025 1.28841 0.504291
3.0901 1.30856 0.151322
3.11025 1.28841 0.151284
3.10214 1.29652 0.17634
3.09024 1.30842 0.606025
3.10226 1.2964 0.580532
3.11025 1.28841 0.605999
2.80657 1.59209 0.785748
2.81699 1.58167 0.759978
2.8274 1.57126 0.785725
2.19928 2.19938 0
2.21889 2.17977 -5.6077e-14
2.20626 2.1924 0.024705
2.25868 2.13998 0.251587
2.23814 2.16052 0.251567
2.24806 2.1506 0.226374
2.21801 2.18065 0.251562
2.23814 2.16052 0.251567
2.22704 2.17162 0.276779
2.21801 2.18065 0.251562
2.20538 2.19328 0.276786
2.19928 2.19938 0.251574
2.22704 2.17162 0.276779
2.20538 2.19328 0.276786
2.21801 2.18065 0.251562
2.20547 2.19319 0.478941
2.19928 2.19938 0.504301
2.19928 2.19938 0.453605
2.21807 2.1806 0.504296
2.22712 2.17155 0.478935
2.23821 2.16045 0.504293
2.19928 2.19938 0.504301
2.20547 2.19319 0.478941
2.21807 2.1806 0.504296
2.21807 2.1806 0.504296
2.20547 2.19319 0.478941
2.22712 2.17155 0.478935
2.21805 2.18061 0.453601
2.2382 2.16046 0.453599
2.22712 2.17155 0.478935
2.21805 2.18061 0.453601
2.20547 2.19319 0.478941
2.19928 2.19938 0.453605
2.22712 2.17155 0.478935
2.20547 2.19319 0.478941
2.21805 2.18061 0.453601
2.19928 2.19938 0.302009
2.20538 2.19328 0.276786
2.21802 2.18064 0.302001
2.21802 2.18064 0.302001
2.20538 2.19328 0.276786
2.22704 2.17162 0.276779
2.23821 2.16045 0.504293
2.22712 2.17155 0.478935
2.24816 2.15051 0.478933
2.22712 2.17155 0.478935
2.2382 2.16046 0.453599
2.24816 2.15051 0.478933
2.40353 1.99513 0.453669
2.41386 1.9848 0.479013
2.3932 2.00546 0.479001
2.3932 2.00546 0.479001
2.41386 1.9848 0.479013
2.40354 1.99512 0.504372
2.40354 1.99512 0.504372
2.41386 1.9848 0.479013
2.4242 1.97446 0.504385
2.79618 1.60248 0.759998
2.81699 1.58167 0.759978
2.80657 1.59209 0.785748
3.10224 1.29642 0.226555
3.11025 1.28841 0.201394
3.11025 1.28841 0.251699
3.11025 1.28841 0.302091
3.10229 1.29637 0.2769
3.11025 1.28841 0.251699
3.02715 1.37151 0.403096
3.006 1.39266 0.40311
3.01659 1.38207 0.377846
3.09026 1.3084 0.403053
3.10229 1.29637 0.428326
3.08044 1.31822 0.428339
3.11025 1.28841 0.403041
3.10229 1.29637 0.428326
3.09026 1.3084 0.403053
3.08044 1.31822 0.428339
3.09026 1.3084 0.453633
3.0694 1.32926 0.453647
3.10228 1.29638 0.47895
3.09026 1.3084 0.453633
3.11025 1.28841 0.453619
3.11025 1.28841 0.453619
3.11025 1.28841 0.504291
3.10228 1.29638 0.47895
3.10228 1.29638 0.47895
3.11025 1.28841 0.504291
3.09025 1.30841 0.504308
3.08027 1.31839 0.176367
3.0901 1.30856 0.151322
3.10214 1.29652 0.17634
3.10224 1.29642 0.226555
3.11025 1.28841 0.251699
3.09024 1.30842 0.251744
3.09024 1.30842 0.251744
3.11025 1.28841 0.251699
3.10229 1.29637 0.2769
3.0165 1.38216 0.226614
3.00588 1.39278 0.201434
3.02702 1.37164 0.201432
3.04817 1.35049 0.201451
3.03759 1.36107 0.176261
3.05884 1.33982 0.176315
3.04817 1.35049 0.201451
3.02702 1.37164 0.201432
3.03759 1.36107 0.176261
3.08043 1.31823 0.276933
3.10229 1.29637 0.2769
3.09026 1.3084 0.302114
3.08043 1.31823 0.276933
3.09024 1.30842 0.251744
3.10229 1.29637 0.2769
3.08042 1.31824 0.580555
3.09025 1.30841 0.555099
3.10226 1.2964 0.580532
3.10226 1.2964 0.580532
3.09024 1.30842 0.606025
3.08042 1.31824 0.580555
3.06938 1.32928 0.555118
3.09025 1.30841 0.555099
3.08042 1.31824 0.580555
3.08041 1.31825 0.734055
3.05901 1.33965 0.734064
3.06938 1.32928 0.708373
3.05901 1.33966 0.682738
3.08041 1.31825 0.682719
3.06938 1.32928 0.708373
3.10225 1.29641 0.63153
3.09024 1.30842 0.606025
3.11025 1.28841 0.605999
3.08041 1.31825 0.631556
3.09024 1.30842 0.606025
3.10225 1.29641 0.63153
2.84822 1.55044 0.837317
2.85863 1.54003 0.86316
2.83776 1.5609 0.863195
2.96373 1.43493 0.708429
2.97428 1.42438 0.682792
2.98483 1.41383 0.708414
2.98483 1.41383 0.708414
2.97428 1.42438 0.682792
2.9954 1.40326 0.682778
3.06938 1.32929 0.657127
3.05901 1.33965 0.631578
3.08041 1.31825 0.631556
3.06938 1.32929 0.657127
3.08041 1.31825 0.682719
3.05901 1.33966 0.682738
2.95319 1.44547 0.682809
2.97428 1.42438 0.682792
2.96373 1.43493 0.708429
2.90067 1.49799 0.453738
2.87971 1.51895 0.453743
2.89018 1.50848 0.428435
2.84833 1.55033 0.42844
2.83789 1.56077 0.45375
2.82746 1.5712 0.428441
2.85878 1.53988 0.453747
2.83789 1.56077 0.45375
2.84833 1.55033 0.42844
2.83788 1.56078 0.35265
2.85877 1.53989 0.352655
2.84833 1.55034 0.377895
2.84833 1.55034 0.377895
2.82745 1.57121 0.377891
2.83788 1.56078 0.35265
2.83788 1.56078 0.35265
2.82745 1.57121 0.377891
2.81702 1.58164 0.352644
2.84833 1.55034 0.377895
2.85877 1.53989 0.352655
2.86924 1.52943 0.377896
2.87968 1.51898 0.302232
2.89017 1.50849 0.327437
2.86922 1.52944 0.327435
2.86922 1.52944 0.327435
2.85875 1.53991 0.302227
2.87968 1.51898 0.302232
2.72357 1.6751 0.479091
2.73392 1.66474 0.453749
2.74429 1.65437 0.479092
2.73392 1.66474 0.453749
2.75466 1.644 0.453751
2.74429 1.65437 0.479092
2.83789 1.56077 0.403156
2.82745 1.57121 0.377891
2.84833 1.55034 0.377895
2.83789 1.56077 0.403156
2.84833 1.55033 0.42844
2.82746 1.5712 0.428441
2.82746 1.5712 0.428441
2.80662 1.59204 0.42844
2.81703 1.58163 0.403154
2.81703 1.58163 0.403154
2.83789 1.56077 0.403156
2.82746 1.5712 0.428441
2.82745 1.57121 0.377891
2.83789 1.56077 0.403156
2.81703 1.58163 0.403154
2.81702 1.58164 0.352644
2.7962 1.60246 0.352637
2.8066 1.59206 0.327412
2.79618 1.60248 0.302193
2.81701 1.58166 0.302206
2.8066 1.59206 0.327412
2.42419 1.97447 0.45368
2.41386 1.9848 0.479013
2.40353 1.99513 0.453669
2.40353 1.99513 0.453669
2.41385 1.98481 0.428361
2.42419 1.97447 0.45368
2.20539 2.19327 0.0748701
2.19928 2.19938 0.100085
2.19928 2.19938 0.0494157
2.19928 2.19938 0
2.20626 2.1924 0.024705
2.19928 2.19938 0.0494157
2.21797 2.1807 0.150698
2.19928 2.19938 0.150672
2.20528 2.19338 0.12542
2.19928 2.19938 0.150672
2.19928 2.19938 0.100085
2.20528 2.19338 0.12542
3.11025 1.28841 0
3.10314 1.29552 0.0257489
3.0911 1.30756 1.13803e-14
2.19928 2.19938 0.251574
2.19928 2.19938 0.201144
2.20536 2.19331 0.226356
2.20536 2.19331 0.226356
2.21801 2.18065 0.251562
2.19928 2.19938 0.251574
2.21799 2.18067 0.201134
2.20536 2.19331 0.226356
2.19928 2.19938 0.201144
2.21799 2.18067 0.201134
2.22698 2.17168 0.175937
2.23811 2.16055 0.20116
2.22702 2.17165 0.226352
2.24806 2.1506 0.226374
2.23814 2.16052 0.251567
2.23814 2.16052 0.251567
2.21801 2.18065 0.251562
2.22702 2.17165 0.226352
2.23811 2.16055 0.20116
2.24806 2.1506 0.226374
2.22702 2.17165 0.226352
2.22702 2.17165 0.226352
2.21799 2.18067 0.201134
2.23811 2.16055 0.20116
2.21801 2.18065 0.251562
2.20536 2.19331 0.226356
2.22702 2.17165 0.226352
2.20536 2.19331 0.226356
2.21799 2.18067 0.201134
2.22702 2.17165 0.226352
2.20532 2.19334 0.175915
2.19928 2.19938 0.201144
2.19928 2.19938 0.150672
2.20532 2.19334 0.175915
2.19928 2.19938 0.150672
2.21797 2.1807 0.150698
2.21797 2.1807 0.150698
2.22698 2.17168 0.175937
2.20532 2.19334 0.175915
2.20532 2.19334 0.175915
2.21799 2.18067 0.201134
2.19928 2.19938 0.201144
2.22698 2.17168 0.175937
2.21799 2.18067 0.201134
2.20532 2.19334 0.175915
2.24814 2.15052 0.428289
2.2382 2.16046 0.453599
2.2271 2.17156 0.428289
2.2382 2.16046 0.453599
2.21805 2.18061 0.453601
2.2271 2.17156 0.428289
2.2271 2.17156 0.428289
2.23819 2.16048 0.402998
2.24814 2.15052 0.428289
2.24809 2.15058 0.276785
2.23814 2.16052 0.251567
2.25868 2.13998 0.251587
2.22704 2.17162 0.276779
2.23814 2.16052 0.251567
2.24809 2.15058 0.276785
2.26891 2.12975 0.276801
2.24809 2.15058 0.276785
2.25868 2.13998 0.251587
2.2587 2.13996 0.302008
2.24809 2.15058 0.276785
2.26891 2.12975 0.276801
2.2587 2.13996 0.302008
2.26891 2.12975 0.276801
2.27936 2.1193 0.302022
2.41384 1.98482 0.3778
2.42418 1.97448 0.403074
2.40352 1.99515 0.403066
2.40352 1.99515 0.403066
2.42418 1.97448 0.403074
2.41385 1.98481 0.428361
2.33114 2.06753 0.428318
2.35183 2.04683 0.428329
2.34149 2.05717 0.453634
2.34148 2.05718 0.403035
2.35183 2.04683 0.428329
2.33114 2.06753 0.428318
2.35182 2.04684 0.377773
2.34147 2.05719 0.352518
2.36216 2.03651 0.352528
2.34148 2.05718 0.403035
2.33112 2.06754 0.377762
2.35182 2.04684 0.377773
2.35182 2.04684 0.377773
2.33112 2.06754 0.377762
2.34147 2.05719 0.352518
2.35184 2.04682 0.478975
2.37253 2.02613 0.478988
2.3622 2.03646 0.504344
2.31047 2.08819 0.529699
2.32082 2.07785 0.504317
2.33117 2.06749 0.529712
2.3208 2.07786 0.453623
2.33114 2.06753 0.428318
2.34149 2.05717 0.453634
2.31043 2.08823 0.428308
[...]
<PointData Scalars="View Factor" >
<DataArray type="Float64" Name="View Factor" NumberOfComponents="1" format="ascii">
0.00147047
0.00147047
0.00147047
0.00111619
0.00111619
0.00111619
0.00111857
0.00111857
0.00111857
0.000109891
0.000109891
0.000109891
5.82726e-05
5.82726e-05
5.82726e-05
0.00112778
0.00112778
0.00112778
0.000671888
0.000671888
0.000671888
0.00127642
0.00127642
0.00127642
0.0013617
0.0013617
0.0013617
0.00126578
0.00126578
0.00126578
0.0012629
0.0012629
0.0012629
0.00124492
0.00124492
0.00124492
0.00113137
0.00113137
0.00113137
0.00112217
0.00112217
0.00112217
0.00112459
0.00112459
0.00112459
0.00110636
0.00110636
0.00110636
0.00120167
0.00120167
0.00120167
0.00117881
0.00117881
0.00117881
0.00118466
0.00118466
0.00118466
0.00114634
0.00114634
0.00114634
0.00114389
0.00114389
0.00114389
0.00136487
0.00136487
0.00136487
0.00110049
0.00110049
0.00110049
0.000105347
0.000105347
0.000105347
0.000764527
0.000764527
0.000764527
0.000676879
0.000676879
0.000676879
0.000673865
0.000673865
0.000673865
0.000676484
0.000676484
0.000676484
0.000672532
0.000672532
0.000672532
0.000250939
0.000250939
0.000250939
0.000452384
0.000452384
0.000452384
0.000230806
0.000230806
0.000230806
0.000255955
0.000255955
0.000255955
0.000476416
0.000476416
0.000476416
0.000273033
0.000273033
0.000273033
0.000270886
0.000270886
0.000270886
0.00065769
0.00065769
0.00065769
0.00066536
0.00066536
0.00066536
0.000451286
0.000451286
0.000451286
0.000463445
0.000463445
0.000463445
0.000262538
0.000262538
0.000262538
0.000241527
0.000241527
0.000241527
0.000231781
0.000231781
0.000231781
0.000107265
0.000107265
0.000107265
0.00132783
0.00132783
0.00132783
0.00129489
0.00129489
0.00129489
0.00112104
0.00112104
0.00112104
0.00118855
0.00118855
0.00118855
0.00120434
0.00120434
0.00120434
0.00116216
0.00116216
0.00116216
0.00117493
0.00117493
0.00117493
0.00117237
0.00117237
0.00117237
0.0011558
0.0011558
0.0011558
0.00134679
0.00134679
0.00134679
0.0013088
0.0013088
0.0013088
0.00129788
0.00129788
0.00129788
0.00122846
0.00122846
0.00122846
0.00128314
0.00128314
0.00128314
0.00126478
0.00126478
0.00126478
0.00127015
0.00127015
0.00127015
0.0012808
0.0012808
0.0012808
0.00110396
0.00110396
0.00110396
0.00109499
0.00109499
0.00109499
0.00109734
0.00109734
0.00109734
0.001006
0.001006
0.001006
0.00102244
0.00102244
0.00102244
0.00109152
0.00109152
0.00109152
0.00107729
0.00107729
0.00107729
0.000524148
0.000524148
0.000524148
0.000927353
0.000927353
0.000927353
0.000941245
0.000941245
0.000941245
0.00104763
0.00104763
0.00104763
0.00103078
0.00103078
0.00103078
0.000920987
0.000920987
0.000920987
0.000956832
0.000956832
0.000956832
0.000787788
0.000787788
0.000787788
0.000910195
0.000910195
0.000910195
0.000949711
0.000949711
0.000949711
0.000927924
0.000927924
0.000927924
0.000721717
0.000721717
0.000721717
0.00095757
0.00095757
0.00095757
0.00100576
0.00100576
0.00100576
0.0009978
0.0009978
0.0009978
0.000342557
0.000342557
0.000342557
0.000362562
0.000362562
0.000362562
0.000902303
0.000902303
0.000902303
0.000829352
0.000829352
0.000829352
0.000500215
0.000500215
0.000500215
0.00053117
0.00053117
0.00053117
0.000585931
0.000585931
0.000585931
0.000776804
0.000776804
0.000776804
0.000899496
0.000899496
0.000899496
0.000274041
0.000274041
0.000274041
0.000299504
0.000299504
0.000299504
0.000740928
0.000740928
0.000740928
0.000759333
0.000759333
0.000759333
0.000716015
0.000716015
0.000716015
0.000722848
0.000722848
0.000722848
0.00147488
0.00147488
0.00147488
0.000688355
0.000688355
0.000688355
0.00068196
0.00068196
0.00068196
0.000693076
0.000693076
0.000693076
0.000696037
0.000696037
0.000696037
0.00068085
0.00068085
0.00068085
0.000679326
0.000679326
0.000679326
0.000686382
0.000686382
0.000686382
0.000690411
0.000690411
0.000690411
0.000683486
0.000683486
0.000683486
0.000689024
0.000689024
0.000689024
0.000705331
0.000705331
0.000705331
0.000710228
0.000710228
0.000710228
0.000706056
0.000706056
0.000706056
0.00069872
0.00069872
0.00069872
0.00070031
0.00070031
0.00070031
0.000491945
0.000491945
0.000491945
0.000490351
0.000490351
0.000490351
0.000508379
0.000508379
0.000508379
0.000671438
0.000671438
0.000671438
0.000669948
0.000669948
0.000669948
0.000667619
0.000667619
0.000667619
0.000662266
0.000662266
0.000662266
0.000658284
0.000658284
0.000658284
0.00039595
0.00039595
0.00039595
0.00035999
0.00035999
0.00035999
0.000312044
0.000312044
0.000312044
0.000342056
0.000342056
0.000342056
0.000482438
0.000482438
0.000482438
0.000414275
0.000414275
0.000414275
0.000457989
0.000457989
0.000457989
0.000241011
0.000241011
0.000241011
0.000204611
0.000204611
0.000204611
0.000298239
0.000298239
0.000298239
0.000311829
0.000311829
0.000311829
0.000438107
0.000438107
0.000438107
0.000511744
0.000511744
0.000511744
0.000497098
0.000497098
0.000497098
0.000341636
0.000341636
0.000341636
0.00046322
0.00046322
0.00046322
0.000477875
0.000477875
0.000477875
0.000479801
0.000479801
0.000479801
0.000151651
0.000151651
0.000151651
5.83964e-05
5.83964e-05
5.83964e-05
8.09762e-05
8.09762e-05
8.09762e-05
0.000273706
0.000273706
0.000273706
0.000262287
0.000262287
0.000262287
0.000213221
0.000213221
0.000213221
0.000231514
0.000231514
0.000231514
0.000231315
0.000231315
0.000231315
0.00024124
0.00024124
0.00024124
0.000213402
0.000213402
0.000213402
0.000204913
0.000204913
0.000204913
0.00018263
0.00018263
0.00018263
0.000189501
0.000189501
0.000189501
0.000189305
0.000189305
0.000189305
0.000204757
0.000204757
0.000204757
0.000152089
0.000152089
0.000152089
0.000136879
0.000136879
0.000136879
0.000132043
0.000132043
0.000132043
0.000119524
0.000119524
0.000119524
0.000123346
0.000123346
0.000123346
0.00018966
0.00018966
0.00018966
0.000213604
0.000213604
0.000213604
0.000205075
0.000205075
0.000205075
9.69593e-05
9.69593e-05
9.69593e-05
9.52936e-05
9.52936e-05
9.52936e-05
0.000102788
0.000102788
0.000102788
0.000104694
0.000104694
0.000104694
0.000103023
0.000103023
0.000103023
0.000107587
0.000107587
0.000107587
0.000133577
0.000133577
0.000133577
0.000111251
0.000111251
0.000111251
4.12301e-05
4.12301e-05
4.12301e-05
4.16948e-05
4.16948e-05
4.16948e-05
3.9211e-05
3.9211e-05
3.9211e-05
3.76691e-05
3.76691e-05
3.76691e-05
4.39071e-05
4.39071e-05
4.39071e-05
4.57982e-05
4.57982e-05
4.57982e-05
4.51966e-05
4.51966e-05
4.51966e-05
4.29171e-05
4.29171e-05
4.29171e-05
4.64813e-05
4.64813e-05
4.64813e-05
4.71236e-05
4.71236e-05
4.71236e-05
4.95627e-05
4.95627e-05
4.95627e-05
3.8773e-05
3.8773e-05
3.8773e-05
4.41381e-05
4.41381e-05
4.41381e-05
4.24187e-05
4.24187e-05
4.24187e-05
4.03409e-05
4.03409e-05
4.03409e-05
3.98711e-05
3.98711e-05
3.98711e-05
4.42459e-05
4.42459e-05
4.42459e-05
0.000800603
0.000800603
0.000800603
0.000656186
0.000656186
0.000656186
0.000799706
0.000799706
0.000799706
0.000818899
0.000818899
0.000818899
0.000806285
0.000806285
0.000806285
0.00110256
0.00110256
0.00110256
0.00110017
0.00110017
0.00110017
0.00110918
0.00110918
0.00110918
0.00108712
0.00108712
0.00108712
0.00103057
0.00103057
0.00103057
0.00102205
0.00102205
0.00102205
0.00104719
0.00104719
0.00104719
0.00107081
0.00107081
0.00107081
0.00106374
0.00106374
0.00106374
0.00121435
0.00121435
0.00121435
0.00120838
0.00120838
0.00120838
0.00123184
0.00123184
0.00123184
0.00123461
0.00123461
0.00123461
0.0012184
0.0012184
0.0012184
0.00110507
0.00110507
0.00110507
0.00111165
0.00111165
0.00111165
0.00113386
0.00113386
0.00113386
0.00115262
0.00115262
0.00115262
0.00112755
0.00112755
0.00112755
0.00113683
0.00113683
0.00113683
0.00115007
0.00115007
0.00115007
0.00115955
0.00115955
0.00115955
0.00133092
0.00133092
0.00133092
0.00134214
0.00134214
0.00134214
0.00133552
0.00133552
0.00133552
0.00137635
0.00137635
0.00137635
0.00123885
0.00123885
0.00123885
0.00125711
0.00125711
0.00125711
0.0012732
0.0012732
0.0012732
0.00125865
0.00125865
0.00125865
0.00125562
0.00125562
0.00125562
0.0012482
0.0012482
0.0012482
0.00107959
0.00107959
0.00107959
0.00107082
0.00107082
0.00107082
0.00105617
0.00105617
0.00105617
0.000997894
0.000997894
0.000997894
0.000914534
0.000914534
0.000914534
0.000767045
0.000767045
0.000767045
9.90528e-05
9.90528e-05
9.90528e-05
0.00011672
0.00011672
0.00011672
0.000109828
0.000109828
0.000109828
0.000919869
0.000919869
0.000919869
0.000905127
0.000905127
0.000905127
0.000958263
0.000958263
0.000958263
0.000966039
0.000966039
0.000966039
0.000994127
0.000994127
0.000994127
0.00104794
0.00104794
0.00104794
0.00102511
0.00102511
0.00102511
0.00104078
0.00104078
0.00104078
0.000999
0.000999
0.000999
0.00099204
0.00099204
0.00099204
0.000976993
0.000976993
0.000976993
0.00105354
0.00105354
0.00105354
0.00104505
0.00104505
0.00104505
0.00106858
0.00106858
0.00106858
0.00099997
0.00099997
0.00099997
0.000986002
0.000986002
0.000986002
0.00100812
0.00100812
0.00100812
0.00100212
0.00100212
0.00100212
0.000979949
0.000979949
0.000979949
0.000987928
0.000987928
0.000987928
0.00100232
0.00100232
0.00100232
0.00102629
0.00102629
0.00102629
0.00101789
0.00101789
0.00101789
0.000972649
0.000972649
0.000972649
0.000439446
0.000439446
0.000439446
0.000455048
0.000455048
0.000455048
0.000895738
0.000895738
0.000895738
0.000288518
0.000288518
0.000288518
0.000280696
0.000280696
0.000280696
0.000370484
0.000370484
0.000370484
0.000391782
0.000391782
0.000391782
0.000428756
0.000428756
0.000428756
0.000443814
0.000443814
0.000443814
0.000382043
0.000382043
0.000382043
0.000418058
0.000418058
0.000418058
0.000340535
0.000340535
0.000340535
0.000330208
0.000330208
0.000330208
0.000303458
0.000303458
0.000303458
0.000287865
0.000287865
0.000287865
0.000296003
0.000296003
0.000296003
0.000322055
0.000322055
0.000322055
0.000926576
0.000926576
0.000926576
0.000934133
0.000934133
0.000934133
0.000949374
0.000949374
0.000949374
0.000957173
0.000957173
0.000957173
0.000174488
0.000174488
0.000174488
0.000265933
0.000265933
0.000265933
0.000183248
0.000183248
0.000183248
0.000796811
0.000796811
0.000796811
0.000922889
0.000922889
0.000922889
0.000822478
0.000822478
0.000822478
0.000882941
0.000882941
0.000882941
0.000973569
0.000973569
0.000973569
0.000957499
0.000957499
0.000957499
0.000949602
0.000949602
0.000949602
0.000957565
0.000957565
0.000957565
0.000973473
0.000973473
0.000973473
0.000981602
0.000981602
0.000981602
0.000973045
0.000973045
0.000973045
0.000980701
0.000980701
0.000980701
0.000342797
0.000342797
0.000342797
0.000376401
0.000376401
0.000376401
0.000230403
0.000230403
0.000230403
0.000236087
0.000236087
0.000236087
0.000354001
0.000354001
0.000354001
0.000332643
0.000332643
0.000332643
0.000208085
0.000208085
0.000208085
0.000212971
0.000212971
0.000212971
0.000201704
0.000201704
0.000201704
0.000192512
0.000192512
0.000192512
0.000182816
0.000182816
0.000182816
0.000186625
0.000186625
0.000186625
0.000396663
0.000396663
0.000396663
0.000479012
0.000479012
0.000479012
0.000450622
0.000450622
0.000450622
0.000410098
0.000410098
0.000410098
0.000305737
0.000305737
0.000305737
0.000314938
0.000314938
0.000314938
0.000466008
0.000466008
0.000466008
0.000352828
0.000352828
0.000352828
0.000385952
0.000385952
0.000385952
0.000528155
0.000528155
0.000528155
0.00087615
0.00087615
0.00087615
0.000860324
0.000860324
0.000860324
0.000801514
0.000801514
0.000801514
0.000518108
0.000518108
0.000518108
0.000487802
0.000487802
0.000487802
0.00055702
0.00055702
0.00055702
0.000505067
0.000505067
0.000505067
0.000621419
0.000621419
0.000621419
0.00053308
0.00053308
0.00053308
0.000483107
0.000483107
0.000483107
0.000458387
0.000458387
0.000458387
0.000620833
0.000620833
0.000620833
0.000559475
0.000559475
0.000559475
0.000602187
0.000602187
0.000602187
0.000669233
0.000669233
0.000669233
0.000678481
0.000678481
0.000678481
0.000674655
0.000674655
0.000674655
0.000460592
0.000460592
0.000460592
0.000416505
0.000416505
0.000416505
0.000331589
0.000331589
0.000331589
0.000322121
0.000322121
0.000322121
0.000294385
0.000294385
0.000294385
0.000277355
0.000277355
0.000277355
0.000248543
0.000248543
0.000248543
0.000255143
0.000255143
0.000255143
0.00136826
0.00136826
0.00136826
0.00145553
0.00145553
0.00145553
0.00144778
0.00144778
0.00144778
0.00129957
0.00129957
0.00129957
0.0013255
0.0013255
0.0013255
0.00133658
0.00133658
0.00133658
0.00116097
0.00116097
0.00116097
0.00118059
0.00118059
0.00118059
0.000196862
0.000196862
0.000196862
0.000213081
0.000213081
0.000213081
0.000326282
0.000326282
0.000326282
0.000298073
0.000298073
0.000298073
0.000312825
0.000312825
0.000312825
0.000434935
0.000434935
0.000434935
0.000481725
0.000481725
0.000481725
0.000585631
0.000585631
0.000585631
0.000457483
0.000457483
0.000457483
0.000626431
0.000626431
0.000626431
0.000584217
0.000584217
0.000584217
0.000533165
0.000533165
0.000533165
0.000606101
0.000606101
0.000606101
0.000558504
0.000558504
0.000558504
0.000609678
0.000609678
0.000609678
0.00061881
0.00061881
0.00061881
0.000635939
0.000635939
0.000635939
0.000644934
0.000644934
0.000644934
0.00066288
0.00066288
0.00066288
0.000664576
0.000664576
0.000664576
0.000650641
0.000650641
0.000650641
0.000639383
0.000639383
0.000639383
0.000660473
0.000660473
0.000660473
0.000647684
0.000647684
0.000647684
0.000569631
0.000569631
0.000569631
0.000547014
0.000547014
0.000547014
0.000531444
0.000531444
0.000531444
0.00053798
0.00053798
0.00053798
0.000395316
0.000395316
0.000395316
0.000415157
0.000415157
0.000415157
0.000459031
0.000459031
0.000459031
0.00041573
0.00041573
0.00041573
0.000313043
0.000313043
0.000313043
0.000343149
0.000343149
0.000343149
0.000299101
0.000299101
0.000299101
0.000359434
0.000359434
0.000359434
0.000342657
0.000342657
0.000342657
0.00031267
0.00031267
0.00031267
0.000341816
0.000341816
0.000341816
0.000413897
0.000413897
0.000413897
0.000358314
0.000358314
0.000358314
0.000394207
0.000394207
0.000394207
0.000358092
0.000358092
0.000358092
0.000393953
0.000393953
0.000393953
0.000261835
0.000261835
0.000261835
0.000273092
0.000273092
0.000273092
0.00023113
0.00023113
0.00023113
0.000213103
0.000213103
0.000213103
0.000230986
0.000230986
0.000230986
0.000240816
0.000240816
0.000240816
0.000204641
0.000204641
0.000204641
0.000213128
0.000213128
0.000213128
0.000162847
0.000162847
0.000162847
0.00016908
0.00016908
0.00016908
0.000182352
0.000182352
0.000182352
0.000189223
0.000189223
0.000189223
0.00018228
0.00018228
0.00018228
0.000162824
0.000162824
0.000162824
0.000169084
0.000169084
0.000169084
0.000213007
0.000213007
0.000213007
0.000521912
0.000521912
0.000521912
0.000490622
0.000490622
0.000490622
0.000501103
0.000501103
0.000501103
0.000486016
0.000486016
0.000486016
0.000437169
0.000437169
0.000437169
0.000449869
0.000449869
0.000449869
0.000436479
0.000436479
0.000436479
0.000450109
0.000450109
0.000450109
0.000467835
0.000467835
0.000467835
0.000465477
0.000465477
0.000465477
0.000151616
0.000151616
0.000151616
0.000325613
0.000325613
0.000325613
0.000146246
0.000146246
0.000146246
0.000362351
0.000362351
0.000362351
0.000366442
0.000366442
0.000366442
0.000314279
0.000314279
0.000314279
0.000146423
0.000146423
0.000146423
0.000146297
0.000146297
0.000146297
0.000136286
0.000136286
0.000136286
0.000131689
0.000131689
0.000131689
0.000136331
0.000136331
0.000136331
6.01555e-05
6.01555e-05
6.01555e-05
0.000289877
0.000289877
0.000289877
0.000258958
0.000258958
0.000258958
7.35748e-05
7.35748e-05
7.35748e-05
8.7138e-05
8.7138e-05
8.7138e-05
0.000157743
0.000157743
0.000157743
7.956e-05
7.956e-05
7.956e-05
6.45597e-05
6.45597e-05
6.45597e-05
8.1338e-05
8.1338e-05
8.1338e-05
0.000149898
0.000149898
0.000149898
8.52804e-05
8.52804e-05
8.52804e-05
0.000152478
0.000152478
0.000152478
0.000334382
0.000334382
0.000334382
0.000330587
0.000330587
0.000330587
0.000262041
0.000262041
0.000262041
0.000273426
0.000273426
0.000273426
0.000298769
0.000298769
0.000298769
0.000312329
0.000312329
0.000312329
0.000298469
0.000298469
0.000298469
0.000273196
0.000273196
0.000273196
0.000182498
0.000182498
0.000182498
0.000182443
0.000182443
0.000182443
0.000189364
0.000189364
0.000189364
0.000169282
0.000169282
0.000169282
0.000147064
0.000147064
0.000147064
0.000170389
0.000170389
0.000170389
0.000164463
0.000164463
0.000164463
0.000163453
0.000163453
0.000163453
0.000136748
0.000136748
0.000136748
0.000146756
0.000146756
0.000146756
0.000146623
0.000146623
0.000146623
0.00015213
0.00015213
0.00015213
0.000182792
0.000182792
0.000182792
0.000169199
0.000169199
0.000169199
0.000169342
0.000169342
0.000169342
0.000163307
0.000163307
0.000163307
0.000205275
0.000205275
0.000205275
0.000189853
0.000189853
0.000189853
0.000190064
0.000190064
0.000190064
0.000182916
0.000182916
0.000182916
8.59284e-05
8.59284e-05
8.59284e-05
8.16778e-05
8.16778e-05
8.16778e-05
8.82181e-05
8.82181e-05
8.82181e-05
8.96747e-05
8.96747e-05
8.96747e-05
9.9537e-05
9.9537e-05
9.9537e-05
0.000105772
0.000105772
0.000105772
9.20259e-05
9.20259e-05
9.20259e-05
9.77882e-05
9.77882e-05
9.77882e-05
0.000100293
0.000100293
0.000100293
0.000102116
0.000102116
0.000102116
0.000138715
0.000138715
0.000138715
0.000127434
0.000127434
0.000127434
0.000119717
0.000119717
0.000119717
0.000124109
0.000124109
0.000124109
0.000130139
0.000130139
0.000130139
0.000116594
0.000116594
0.000116594
0.000114413
0.000114413
0.000114413
0.000145485
0.000145485
0.000145485
0.000142381
0.000142381
0.000142381
0.000155539
0.000155539
0.000155539
0.000162692
0.000162692
0.000162692
0.000117431
0.000117431
0.000117431
0.000113245
0.000113245
0.000113245
0.000108519
0.000108519
0.000108519
0.000110425
0.000110425
0.000110425
0.000130754
0.000130754
0.000130754
0.000122828
0.000122828
0.000122828
0.000120441
0.000120441
0.000120441
0.000113994
0.000113994
0.000113994
0.000116068
0.000116068
0.000116068
0.000118891
0.000118891
0.000118891
0.000126436
0.000126436
0.000126436
0.00020547
0.00020547
0.00020547
0.000191001
0.000191001
0.000191001
0.000158486
0.000158486
0.000158486
0.000178559
0.000178559
0.000178559
0.000191767
0.000191767
0.000191767
0.000173864
0.000173864
0.000173864
0.000169964
0.000169964
0.000169964
0.000196241
0.000196241
0.000196241
0.000186727
0.000186727
0.000186727
0.000104066
0.000104066
0.000104066
0.000105929
0.000105929
0.000105929
5.94522e-05
5.94522e-05
5.94522e-05
3.76455e-05
3.76455e-05
3.76455e-05
4.44737e-05
4.44737e-05
4.44737e-05
4.73064e-05
4.73064e-05
4.73064e-05
4.67762e-05
4.67762e-05
4.67762e-05
8.38467e-05
8.38467e-05
8.38467e-05
8.00547e-05
8.00547e-05
8.00547e-05
0.000119022
0.000119022
0.000119022
0.000122973
0.000122973
0.000122973
3.80136e-05
3.80136e-05
3.80136e-05
5.75529e-05
5.75529e-05
5.75529e-05
0.00011176
0.00011176
0.00011176
6.47634e-05
6.47634e-05
6.47634e-05
5.28515e-05
5.28515e-05
5.28515e-05
0.000151836
0.000151836
0.000151836
0.000119796
0.000119796
0.000119796
8.27099e-05
8.27099e-05
8.27099e-05
8.65741e-05
8.65741e-05
8.65741e-05
9.33617e-05
9.33617e-05
9.33617e-05
9.1987e-05
9.1987e-05
9.1987e-05
6.09008e-05
6.09008e-05
6.09008e-05
5.13495e-05
5.13495e-05
5.13495e-05
5.01721e-05
5.01721e-05
5.01721e-05
4.8742e-05
4.8742e-05
4.8742e-05
4.81737e-05
4.81737e-05
4.81737e-05
7.2957e-05
7.2957e-05
7.2957e-05
7.78433e-05
7.78433e-05
7.78433e-05
7.67421e-05
7.67421e-05
7.67421e-05
6.54562e-05
6.54562e-05
6.54562e-05
6.28473e-05
6.28473e-05
6.28473e-05
6.34598e-05
6.34598e-05
6.34598e-05
6.95148e-05
6.95148e-05
6.95148e-05
9.27866e-05
9.27866e-05
9.27866e-05
8.73118e-05
8.73118e-05
8.73118e-05
4.53336e-05
4.53336e-05
4.53336e-05
4.59516e-05
4.59516e-05
4.59516e-05
4.36081e-05
4.36081e-05
4.36081e-05
4.09692e-05
4.09692e-05
4.09692e-05
4.14663e-05
4.14663e-05
4.14663e-05
4.31572e-05
4.31572e-05
4.31572e-05
4.4835e-05
4.4835e-05
4.4835e-05
4.71525e-05
4.71525e-05
4.71525e-05
4.77794e-05
4.77794e-05
4.77794e-05
0.000615268
0.000615268
0.000615268
0.000553421
0.000553421
0.000553421
0.000797338
0.000797338
0.000797338
0.000783656
0.000783656
0.000783656
0.00079535
0.00079535
0.00079535
0.000785264
0.000785264
0.000785264
0.000777858
0.000777858
0.000777858
0.000805822
0.000805822
0.000805822
0.000799815
0.000799815
0.000799815
0.000771795
0.000771795