<VTKFile type="UnstructuredGrid" version="1.0">
<UnstructuredGrid>
<Piece NumberOfPoints="10830" NumberOfCells="3610">
<Points>
<DataArray type="Float64" NumberOfComponents="3" format="ascii">
1.27826 3.11035 8.38575
1.28831 3.11035 8.36
1.28831 3.11035 8.41146
1.28831 3.11035 8.91508
1.28831 3.11035 8.966
1.27701 3.11035 8.94053
1.28831 3.11035 8.91508
1.27701 3.11035 8.94053
1.26002 3.11035 8.9151
0.0244388 3.11035 9.38759
0.0422213 3.11035 9.405
0 3.11035 9.405
0 3.11035 9.405
-7.89601e-14 3.11035 9.37484
0.0244388 3.11035 9.38759
1.28831 3.11035 8.91508
1.26002 3.11035 8.9151
1.27702 3.11035 8.88968
0.00863377 3.11035 8.63679
1.49469e-13 3.11035 8.66201
1.49791e-13 3.11035 8.61157
1.27705 3.11035 8.6369
1.28831 3.11035 8.66209
1.26004 3.11035 8.66211
1.27684 3.11035 8.53634
1.28831 3.11035 8.51128
1.28831 3.11035 8.56139
1.26004 3.11035 8.66211
1.28831 3.11035 8.66209
1.27707 3.11035 8.68731
1.28831 3.11035 8.66209
1.28831 3.11035 8.71254
1.27707 3.11035 8.68731
1.26005 3.11035 8.71255
1.27707 3.11035 8.68731
1.28831 3.11035 8.71254
1.26003 3.11035 8.86431
1.27702 3.11035 8.88968
1.24613 3.11035 8.8897
1.24613 3.11035 8.8897
1.27702 3.11035 8.88968
1.26002 3.11035 8.9151
1.24613 3.11035 8.8897
1.23052 3.11035 8.86432
1.26003 3.11035 8.86431
1.24613 3.11035 8.8897
1.26002 3.11035 8.9151
1.23052 3.11035 8.91512
1.28831 3.11035 8.76304
1.28831 3.11035 8.81362
1.27705 3.11035 8.78833
1.27705 3.11035 8.78833
1.26004 3.11035 8.81363
1.24616 3.11035 8.78834
1.28831 3.11035 8.81362
1.26004 3.11035 8.81363
1.27705 3.11035 8.78833
1.28831 3.11035 8.86429
1.27702 3.11035 8.88968
1.26003 3.11035 8.86431
1.28831 3.11035 8.91508
1.27702 3.11035 8.88968
1.28831 3.11035 8.86429
1.25981 3.11035 8.51132
1.28831 3.11035 8.51128
1.27684 3.11035 8.53634
1.26002 3.11035 8.96603
1.27701 3.11035 8.94053
1.28831 3.11035 8.966
0.85884 3.11035 9.14575
0.873578 3.11035 9.11998
0.888295 3.11035 9.14572
0 3.11035 8.36
0.0277369 3.11035 8.36
0.00987207 3.11035 8.3847
0.0840033 3.11035 8.61159
0.0549577 3.11035 8.61157
0.0689903 3.11035 8.58637
0.0264927 3.11035 8.61156
0.0549577 3.11035 8.61157
0.0392653 3.11035 8.63678
0.0264927 3.11035 8.61156
0.00863377 3.11035 8.63679
1.49791e-13 3.11035 8.61157
0.0392653 3.11035 8.63678
0.00863377 3.11035 8.63679
0.0264927 3.11035 8.61156
0.0087521 3.11035 8.83894
-9.63464e-14 3.11035 8.8643
1.47962e-13 3.11035 8.81361
0.0265703 3.11035 8.8643
0.0393699 3.11035 8.83893
0.0550657 3.11035 8.86429
-9.63464e-14 3.11035 8.8643
0.0087521 3.11035 8.83894
0.0265703 3.11035 8.8643
0.0265703 3.11035 8.8643
0.0087521 3.11035 8.83894
0.0393699 3.11035 8.83893
0.0265544 3.11035 8.8136
0.0550443 3.11035 8.8136
0.0393699 3.11035 8.83893
0.0265544 3.11035 8.8136
0.0087521 3.11035 8.83894
1.47962e-13 3.11035 8.81361
0.0393699 3.11035 8.83893
0.0087521 3.11035 8.83894
0.0265544 3.11035 8.8136
1.49469e-13 3.11035 8.66201
0.00863377 3.11035 8.63679
0.0265126 3.11035 8.662
0.0265126 3.11035 8.662
0.00863377 3.11035 8.63679
0.0392653 3.11035 8.63678
0.0550657 3.11035 8.86429
0.0393699 3.11035 8.83893
0.0691236 3.11035 8.83893
0.0393699 3.11035 8.83893
0.0550443 3.11035 8.8136
0.0691236 3.11035 8.83893
0.288852 3.11035 8.81367
0.303471 3.11035 8.83901
0.274248 3.11035 8.839
0.274248 3.11035 8.839
0.303471 3.11035 8.83901
0.288872 3.11035 8.86437
0.288872 3.11035 8.86437
0.303471 3.11035 8.83901
0.318088 3.11035 8.86438
0.844143 3.11035 9.12
0.873578 3.11035 9.11998
0.85884 3.11035 9.14575
1.27699 3.11035 8.58656
1.28831 3.11035 8.56139
1.28831 3.11035 8.6117
1.28831 3.11035 8.66209
1.27705 3.11035 8.6369
1.28831 3.11035 8.6117
1.17079 3.11035 8.7631
1.14088 3.11035 8.76311
1.15586 3.11035 8.73785
1.26004 3.11035 8.76305
1.27705 3.11035 8.78833
1.24616 3.11035 8.78834
1.28831 3.11035 8.76304
1.27705 3.11035 8.78833
1.26004 3.11035 8.76305
1.24616 3.11035 8.78834
1.26004 3.11035 8.81363
1.23053 3.11035 8.81365
1.27704 3.11035 8.83895
1.26004 3.11035 8.81363
1.28831 3.11035 8.81362
1.28831 3.11035 8.81362
1.28831 3.11035 8.86429
1.27704 3.11035 8.83895
1.27704 3.11035 8.83895
1.28831 3.11035 8.86429
1.26003 3.11035 8.86431
1.24591 3.11035 8.53637
1.25981 3.11035 8.51132
1.27684 3.11035 8.53634
1.27699 3.11035 8.58656
1.28831 3.11035 8.6117
1.26001 3.11035 8.61174
1.26001 3.11035 8.61174
1.28831 3.11035 8.6117
1.27705 3.11035 8.6369
1.15573 3.11035 8.58661
1.1407 3.11035 8.56143
1.1706 3.11035 8.56143
1.20051 3.11035 8.56145
1.18556 3.11035 8.53626
1.21561 3.11035 8.53631
1.20051 3.11035 8.56145
1.1706 3.11035 8.56143
1.18556 3.11035 8.53626
1.24614 3.11035 8.63693
1.27705 3.11035 8.6369
1.26004 3.11035 8.66211
1.24614 3.11035 8.63693
1.26001 3.11035 8.61174
1.27705 3.11035 8.6369
1.24612 3.11035 8.94055
1.26002 3.11035 8.9151
1.27701 3.11035 8.94053
1.27701 3.11035 8.94053
1.26002 3.11035 8.96603
1.24612 3.11035 8.94055
1.23052 3.11035 8.91512
1.26002 3.11035 8.9151
1.24612 3.11035 8.94055
1.24611 3.11035 9.09406
1.21584 3.11035 9.09406
1.23051 3.11035 9.06837
1.21584 3.11035 9.04274
1.24611 3.11035 9.04272
1.23051 3.11035 9.06837
1.27699 3.11035 8.99153
1.26002 3.11035 8.96603
1.28831 3.11035 8.966
1.24611 3.11035 8.99156
1.26002 3.11035 8.96603
1.27699 3.11035 8.99153
0.917741 3.11035 9.19732
0.932465 3.11035 9.22316
0.902954 3.11035 9.2232
1.08109 3.11035 9.06843
1.09602 3.11035 9.04279
1.11094 3.11035 9.06841
1.11094 3.11035 9.06841
1.09602 3.11035 9.04279
1.12589 3.11035 9.04278
1.2305 3.11035 9.01713
1.21584 3.11035 8.99158
1.24611 3.11035 8.99156
1.2305 3.11035 9.01713
1.24611 3.11035 9.04272
1.21584 3.11035 9.04274
1.0662 3.11035 9.04281
1.09602 3.11035 9.04279
1.08109 3.11035 9.06843
0.991917 3.11035 8.81374
0.962274 3.11035 8.81374
0.977089 3.11035 8.78843
0.917902 3.11035 8.78844
0.903138 3.11035 8.81375
0.888384 3.11035 8.78844
0.932681 3.11035 8.81375
0.903138 3.11035 8.81375
0.917902 3.11035 8.78844
0.903119 3.11035 8.71265
0.932664 3.11035 8.71266
0.917893 3.11035 8.7379
0.917893 3.11035 8.7379
0.888374 3.11035 8.73789
0.903119 3.11035 8.71265
0.903119 3.11035 8.71265
0.888374 3.11035 8.73789
0.873625 3.11035 8.71264
0.917893 3.11035 8.7379
0.932664 3.11035 8.71266
0.947463 3.11035 8.7379
0.962233 3.11035 8.66223
0.977066 3.11035 8.68744
0.947444 3.11035 8.68744
0.947444 3.11035 8.68744
0.932637 3.11035 8.66223
0.962233 3.11035 8.66223
0.741456 3.11035 8.83909
0.756104 3.11035 8.81375
0.770765 3.11035 8.83909
0.756104 3.11035 8.81375
0.785431 3.11035 8.81375
0.770765 3.11035 8.83909
0.903133 3.11035 8.76316
0.888374 3.11035 8.73789
0.917893 3.11035 8.7379
0.903133 3.11035 8.76316
0.917902 3.11035 8.78844
0.888384 3.11035 8.78844
0.888384 3.11035 8.78844
0.858913 3.11035 8.78844
0.873639 3.11035 8.76315
0.873639 3.11035 8.76315
0.903133 3.11035 8.76316
0.888384 3.11035 8.78844
0.888374 3.11035 8.73789
0.903133 3.11035 8.76316
0.873639 3.11035 8.76315
0.873625 3.11035 8.71264
0.844177 3.11035 8.71264
0.858884 3.11035 8.68741
0.844153 3.11035 8.66219
0.873599 3.11035 8.66221
0.858884 3.11035 8.68741
0.318069 3.11035 8.81368
0.303471 3.11035 8.83901
0.288852 3.11035 8.81367
0.288852 3.11035 8.81367
0.303454 3.11035 8.78836
0.318069 3.11035 8.81368
0.00864568 3.11035 8.43487
1.4958e-13 3.11035 8.46009
-9.64495e-14 3.11035 8.40942
0 3.11035 8.36
0.00987207 3.11035 8.3847
-9.64495e-14 3.11035 8.40942
0.0264295 3.11035 8.5107
1.50097e-13 3.11035 8.51067
0.00849117 3.11035 8.48542
1.50097e-13 3.11035 8.51067
1.4958e-13 3.11035 8.46009
0.00849117 3.11035 8.48542
1.28831 3.11035 8.36
1.27826 3.11035 8.38575
1.26122 3.11035 8.36
1.49791e-13 3.11035 8.61157
1.50032e-13 3.11035 8.56114
0.00859461 3.11035 8.58636
0.00859461 3.11035 8.58636
0.0264927 3.11035 8.61156
1.49791e-13 3.11035 8.61157
0.0264637 3.11035 8.56113
0.00859461 3.11035 8.58636
1.50032e-13 3.11035 8.56114
0.0264637 3.11035 8.56113
0.0391815 3.11035 8.53594
0.0549232 3.11035 8.56116
0.0392276 3.11035 8.58635
0.0689903 3.11035 8.58637
0.0549577 3.11035 8.61157
0.0549577 3.11035 8.61157
0.0264927 3.11035 8.61156
0.0392276 3.11035 8.58635
0.0549232 3.11035 8.56116
0.0689903 3.11035 8.58637
0.0392276 3.11035 8.58635
0.0392276 3.11035 8.58635
0.0264637 3.11035 8.56113
0.0549232 3.11035 8.56116
0.0264927 3.11035 8.61156
0.00859461 3.11035 8.58636
0.0392276 3.11035 8.58635
0.00859461 3.11035 8.58636
0.0264637 3.11035 8.56113
0.0392276 3.11035 8.58635
0.00854014 3.11035 8.53591
1.50032e-13 3.11035 8.56114
1.50097e-13 3.11035 8.51067
0.00854014 3.11035 8.53591
1.50097e-13 3.11035 8.51067
0.0264295 3.11035 8.5107
0.0264295 3.11035 8.5107
0.0391815 3.11035 8.53594
0.00854014 3.11035 8.53591
0.00854014 3.11035 8.53591
0.0264637 3.11035 8.56113
1.50032e-13 3.11035 8.56114
0.0391815 3.11035 8.53594
0.0264637 3.11035 8.56113
0.00854014 3.11035 8.53591
0.0690987 3.11035 8.78829
0.0550443 3.11035 8.8136
0.0393425 3.11035 8.78829
0.0550443 3.11035 8.8136
0.0265544 3.11035 8.8136
0.0393425 3.11035 8.78829
0.0393425 3.11035 8.78829
0.0550252 3.11035 8.763
0.0690987 3.11035 8.78829
0.0690242 3.11035 8.63679
0.0549577 3.11035 8.61157
0.0840033 3.11035 8.61159
0.0392653 3.11035 8.63678
0.0549577 3.11035 8.61157
0.0690242 3.11035 8.63679
0.0984777 3.11035 8.6368
0.0690242 3.11035 8.63679
0.0840033 3.11035 8.61159
0.0840313 3.11035 8.66201
0.0690242 3.11035 8.63679
0.0984777 3.11035 8.6368
0.0840313 3.11035 8.66201
0.0984777 3.11035 8.6368
0.113251 3.11035 8.66202
0.303441 3.11035 8.7378
0.318055 3.11035 8.76307
0.288836 3.11035 8.76307
0.288836 3.11035 8.76307
0.318055 3.11035 8.76307
0.303454 3.11035 8.78836
0.186476 3.11035 8.78832
0.215741 3.11035 8.78833
0.201123 3.11035 8.81363
0.201103 3.11035 8.76304
0.215741 3.11035 8.78833
0.186476 3.11035 8.78832
0.215723 3.11035 8.73777
0.201085 3.11035 8.71252
0.230345 3.11035 8.71253
0.201103 3.11035 8.76304
0.186456 3.11035 8.73776
0.215723 3.11035 8.73777
0.215723 3.11035 8.73777
0.186456 3.11035 8.73776
0.201085 3.11035 8.71252
0.215762 3.11035 8.83897
0.245012 3.11035 8.83899
0.230402 3.11035 8.86434
0.157245 3.11035 8.8897
0.171881 3.11035 8.86432
0.186525 3.11035 8.88971
0.171857 3.11035 8.81362
0.186476 3.11035 8.78832
[...]
<PointData Scalars="View Factor" >
<DataArray type="Float64" Name="View Factor" NumberOfComponents="1" format="ascii">
2.68234e-05
2.68234e-05
2.68234e-05
2.40447e-05
2.40447e-05
2.40447e-05
2.4127e-05
2.4127e-05
2.4127e-05
1.32321e-05
1.32321e-05
1.32321e-05
1.42523e-05
1.42523e-05
1.42523e-05
2.42067e-05
2.42067e-05
2.42067e-05
1.68842e-05
1.68842e-05
1.68842e-05
2.5437e-05
2.5437e-05
2.5437e-05
2.60313e-05
2.60313e-05
2.60313e-05
2.53528e-05
2.53528e-05
2.53528e-05
2.52661e-05
2.52661e-05
2.52661e-05
2.51855e-05
2.51855e-05
2.51855e-05
2.43309e-05
2.43309e-05
2.43309e-05
2.42507e-05
2.42507e-05
2.42507e-05
2.43756e-05
2.43756e-05
2.43756e-05
2.42151e-05
2.42151e-05
2.42151e-05
2.47698e-05
2.47698e-05
2.47698e-05
2.47359e-05
2.47359e-05
2.47359e-05
2.4691e-05
2.4691e-05
2.4691e-05
2.43671e-05
2.43671e-05
2.43671e-05
2.4284e-05
2.4284e-05
2.4284e-05
2.61207e-05
2.61207e-05
2.61207e-05
2.39682e-05
2.39682e-05
2.39682e-05
7.23593e-07
7.23593e-07
7.23593e-07
1.70037e-05
1.70037e-05
1.70037e-05
1.17761e-05
1.17761e-05
1.17761e-05
1.40502e-05
1.40502e-05
1.40502e-05
1.61703e-05
1.61703e-05
1.61703e-05
1.51814e-05
1.51814e-05
1.51814e-05
2.0841e-05
2.0841e-05
2.0841e-05
2.04441e-05
2.04441e-05
2.04441e-05
2.12016e-05
2.12016e-05
2.12016e-05
2.05096e-05
2.05096e-05
2.05096e-05
1.85246e-05
1.85246e-05
1.85246e-05
1.96559e-05
1.96559e-05
1.96559e-05
1.9619e-05
1.9619e-05
1.9619e-05
1.60628e-05
1.60628e-05
1.60628e-05
1.51309e-05
1.51309e-05
1.51309e-05
1.96018e-05
1.96018e-05
1.96018e-05
1.84978e-05
1.84978e-05
1.84978e-05
1.22361e-05
1.22361e-05
1.22361e-05
1.45837e-05
1.45837e-05
1.45837e-05
1.54439e-05
1.54439e-05
1.54439e-05
0
0
0
2.57736e-05
2.57736e-05
2.57736e-05
2.55185e-05
2.55185e-05
2.55185e-05
2.19104e-05
2.19104e-05
2.19104e-05
2.48178e-05
2.48178e-05
2.48178e-05
2.48546e-05
2.48546e-05
2.48546e-05
2.46996e-05
2.46996e-05
2.46996e-05
2.46096e-05
2.46096e-05
2.46096e-05
2.45256e-05
2.45256e-05
2.45256e-05
2.44476e-05
2.44476e-05
2.44476e-05
2.6082e-05
2.6082e-05
2.6082e-05
2.56912e-05
2.56912e-05
2.56912e-05
2.56061e-05
2.56061e-05
2.56061e-05
2.26771e-05
2.26771e-05
2.26771e-05
2.60147e-05
2.60147e-05
2.60147e-05
2.50271e-05
2.50271e-05
2.50271e-05
2.54835e-05
2.54835e-05
2.54835e-05
2.55681e-05
2.55681e-05
2.55681e-05
2.40912e-05
2.40912e-05
2.40912e-05
2.40118e-05
2.40118e-05
2.40118e-05
2.41353e-05
2.41353e-05
2.41353e-05
2.33933e-05
2.33933e-05
2.33933e-05
2.35486e-05
2.35486e-05
2.35486e-05
2.38892e-05
2.38892e-05
2.38892e-05
2.38537e-05
2.38537e-05
2.38537e-05
3.66139e-06
3.66139e-06
3.66139e-06
1.73763e-05
1.73763e-05
1.73763e-05
1.85678e-05
1.85678e-05
1.85678e-05
2.37833e-05
2.37833e-05
2.37833e-05
2.36266e-05
2.36266e-05
2.36266e-05
1.68408e-05
1.68408e-05
1.68408e-05
1.3997e-05
1.3997e-05
1.3997e-05
9.16357e-06
9.16357e-06
9.16357e-06
1.10595e-05
1.10595e-05
1.10595e-05
4.03184e-06
4.03184e-06
4.03184e-06
2.89136e-06
2.89136e-06
2.89136e-06
1.89285e-06
1.89285e-06
1.89285e-06
5.15908e-06
5.15908e-06
5.15908e-06
7.49993e-06
7.49993e-06
7.49993e-06
6.36639e-06
6.36639e-06
6.36639e-06
1.22061e-05
1.22061e-05
1.22061e-05
1.09872e-05
1.09872e-05
1.09872e-05
2.88176e-06
2.88176e-06
2.88176e-06
6.75304e-06
6.75304e-06
6.75304e-06
5.04992e-06
5.04992e-06
5.04992e-06
4.97043e-06
4.97043e-06
4.97043e-06
2.24256e-06
2.24256e-06
2.24256e-06
0
0
0
0
0
0
1.10151e-05
1.10151e-05
1.10151e-05
8.48058e-06
8.48058e-06
8.48058e-06
1.75777e-05
1.75777e-05
1.75777e-05
1.77551e-05
1.77551e-05
1.77551e-05
1.65535e-05
1.65535e-05
1.65535e-05
1.74007e-05
1.74007e-05
1.74007e-05
2.69186e-05
2.69186e-05
2.69186e-05
1.70541e-05
1.70541e-05
1.70541e-05
1.62243e-05
1.62243e-05
1.62243e-05
1.63331e-05
1.63331e-05
1.63331e-05
1.42391e-05
1.42391e-05
1.42391e-05
1.29583e-05
1.29583e-05
1.29583e-05
1.40971e-05
1.40971e-05
1.40971e-05
1.30016e-05
1.30016e-05
1.30016e-05
1.41916e-05
1.41916e-05
1.41916e-05
1.52831e-05
1.52831e-05
1.52831e-05
1.53342e-05
1.53342e-05
1.53342e-05
1.72262e-05
1.72262e-05
1.72262e-05
1.6498e-05
1.6498e-05
1.6498e-05
1.54889e-05
1.54889e-05
1.54889e-05
1.63878e-05
1.63878e-05
1.63878e-05
1.54371e-05
1.54371e-05
1.54371e-05
1.60363e-05
1.60363e-05
1.60363e-05
1.7412e-05
1.7412e-05
1.7412e-05
1.47008e-05
1.47008e-05
1.47008e-05
1.17369e-05
1.17369e-05
1.17369e-05
1.28722e-05
1.28722e-05
1.28722e-05
1.05629e-05
1.05629e-05
1.05629e-05
1.05278e-05
1.05278e-05
1.05278e-05
9.36178e-06
9.36178e-06
9.36178e-06
3.81481e-07
3.81481e-07
3.81481e-07
3.25033e-06
3.25033e-06
3.25033e-06
8.21405e-06
8.21405e-06
8.21405e-06
5.63163e-06
5.63163e-06
5.63163e-06
3.82083e-07
3.82083e-07
3.82083e-07
1.49812e-06
1.49812e-06
1.49812e-06
1.50307e-06
1.50307e-06
1.50307e-06
1.4586e-05
1.4586e-05
1.4586e-05
1.95469e-05
1.95469e-05
1.95469e-05
1.01882e-05
1.01882e-05
1.01882e-05
9.80315e-06
9.80315e-06
9.80315e-06
1.96198e-05
1.96198e-05
1.96198e-05
1.30172e-05
1.30172e-05
1.30172e-05
1.28549e-05
1.28549e-05
1.28549e-05
9.16456e-06
9.16456e-06
9.16456e-06
1.72902e-05
1.72902e-05
1.72902e-05
1.59424e-05
1.59424e-05
1.59424e-05
1.44444e-05
1.44444e-05
1.44444e-05
1.88431e-05
1.88431e-05
1.88431e-05
1.49766e-05
1.49766e-05
1.49766e-05
1.3629e-05
1.3629e-05
1.3629e-05
1.1016e-05
1.1016e-05
1.1016e-05
1.22371e-05
1.22371e-05
1.22371e-05
1.76212e-05
1.76212e-05
1.76212e-05
1.54453e-05
1.54453e-05
1.54453e-05
1.54465e-05
1.54465e-05
1.54465e-05
1.45849e-05
1.45849e-05
1.45849e-05
1.76198e-05
1.76198e-05
1.76198e-05
1.86749e-05
1.86749e-05
1.86749e-05
2.16854e-05
2.16854e-05
2.16854e-05
2.07086e-05
2.07086e-05
2.07086e-05
2.09326e-05
2.09326e-05
2.09326e-05
1.86763e-05
1.86763e-05
1.86763e-05
1.79001e-05
1.79001e-05
1.79001e-05
1.3988e-05
1.3988e-05
1.3988e-05
1.27501e-05
1.27501e-05
1.27501e-05
9.49136e-06
9.49136e-06
9.49136e-06
1.06389e-05
1.06389e-05
1.06389e-05
2.0707e-05
2.0707e-05
2.0707e-05
1.76183e-05
1.76183e-05
1.76183e-05
1.86734e-05
1.86734e-05
1.86734e-05
0
0
0
0
0
0
0
0
0
0
0
0
0
0
0
0
0
0
4.10488e-06
4.10488e-06
4.10488e-06
0
0
0
0
0
0
0
0
0
0
0
0
0
0
0
0
0
0
0
0
0
0
0
0
0
0
0
0
0
0
0
0
0
0
0
0
0
0
0
0
0
0
0
0
0
0
0
0
0
0
0
0
0
0
1.62235e-05
1.62235e-05
1.62235e-05
6.52201e-06
6.52201e-06
6.52201e-06
8.82586e-06
8.82586e-06
8.82586e-06
1.08805e-05
1.08805e-05
1.08805e-05
9.83762e-06
9.83762e-06
9.83762e-06
2.4384e-05
2.4384e-05
2.4384e-05
2.42593e-05
2.42593e-05
2.42593e-05
2.43395e-05
2.43395e-05
2.43395e-05
2.43478e-05
2.43478e-05
2.43478e-05
8.68617e-06
8.68617e-06
8.68617e-06
8.65727e-06
8.65727e-06
8.65727e-06
9.84975e-06
9.84975e-06
9.84975e-06
2.12616e-05
2.12616e-05
2.12616e-05
2.02344e-05
2.02344e-05
2.02344e-05
2.49369e-05
2.49369e-05
2.49369e-05
2.49824e-05
2.49824e-05
2.49824e-05
2.50166e-05
2.50166e-05
2.50166e-05
2.51023e-05
2.51023e-05
2.51023e-05
2.50651e-05
2.50651e-05
2.50651e-05
2.45092e-05
2.45092e-05
2.45092e-05
2.44646e-05
2.44646e-05
2.44646e-05
2.44562e-05
2.44562e-05
2.44562e-05
2.46182e-05
2.46182e-05
2.46182e-05
2.45008e-05
2.45008e-05
2.45008e-05
2.45818e-05
2.45818e-05
2.45818e-05
2.44921e-05
2.44921e-05
2.44921e-05
2.45731e-05
2.45731e-05
2.45731e-05
2.58622e-05
2.58622e-05
2.58622e-05
2.59481e-05
2.59481e-05
2.59481e-05
2.59956e-05
2.59956e-05
2.59956e-05
2.62073e-05
2.62073e-05
2.62073e-05
2.27528e-05
2.27528e-05
2.27528e-05
2.39318e-05
2.39318e-05
2.39318e-05
2.56152e-05
2.56152e-05
2.56152e-05
2.57094e-05
2.57094e-05
2.57094e-05
2.55772e-05
2.55772e-05
2.55772e-05
2.56242e-05
2.56242e-05
2.56242e-05
2.39765e-05
2.39765e-05
2.39765e-05
2.38974e-05
2.38974e-05
2.38974e-05
2.3862e-05
2.3862e-05
2.3862e-05
2.3316e-05
2.3316e-05
2.3316e-05
2.0126e-05
2.0126e-05
2.0126e-05
9.64302e-06
9.64302e-06
9.64302e-06
7.21193e-07
7.21193e-07
7.21193e-07
1.74884e-06
1.74884e-06
1.74884e-06
1.74304e-06
1.74304e-06
1.74304e-06
1.67385e-05
1.67385e-05
1.67385e-05
1.62774e-05
1.62774e-05
1.62774e-05
2.14529e-05
2.14529e-05
2.14529e-05
2.15436e-05
2.15436e-05
2.15436e-05
1.80852e-05
1.80852e-05
1.80852e-05
1.98202e-05
1.98202e-05
1.98202e-05
1.8373e-05
1.8373e-05
1.8373e-05
1.86696e-05
1.86696e-05
1.86696e-05
2.23698e-05
2.23698e-05
2.23698e-05
2.17286e-05
2.17286e-05
2.17286e-05
2.18585e-05
2.18585e-05
2.18585e-05
2.374e-05
2.374e-05
2.374e-05
2.36617e-05
2.36617e-05
2.36617e-05
2.3775e-05
2.3775e-05
2.3775e-05
2.3436e-05
2.3436e-05
2.3436e-05
2.34012e-05
2.34012e-05
2.34012e-05
2.35137e-05
2.35137e-05
2.35137e-05
2.35565e-05
2.35565e-05
2.35565e-05
2.26297e-05
2.26297e-05
2.26297e-05
2.27749e-05
2.27749e-05
2.27749e-05
1.69197e-05
1.69197e-05
1.69197e-05
1.59601e-05
1.59601e-05
1.59601e-05
1.70982e-05
1.70982e-05
1.70982e-05
1.06759e-05
1.06759e-05
1.06759e-05
9.69366e-06
9.69366e-06
9.69366e-06
7.69408e-06
7.69408e-06
7.69408e-06
1.31673e-05
1.31673e-05
1.31673e-05
1.75752e-05
1.75752e-05
1.75752e-05
1.86206e-05
1.86206e-05
1.86206e-05
1.21975e-05
1.21975e-05
1.21975e-05
1.09793e-05
1.09793e-05
1.09793e-05
8.45267e-06
8.45267e-06
8.45267e-06
7.1364e-06
7.1364e-06
7.1364e-06
1.0982e-05
1.0982e-05
1.0982e-05
8.4548e-06
8.4548e-06
8.4548e-06
1.45382e-05
1.45382e-05
1.45382e-05
1.54071e-05
1.54071e-05
1.54071e-05
1.75669e-05
1.75669e-05
1.75669e-05
1.86162e-05
1.86162e-05
1.86162e-05
1.75711e-05
1.75711e-05
1.75711e-05
1.54109e-05
1.54109e-05
1.54109e-05
1.07566e-05
1.07566e-05
1.07566e-05
1.25294e-05
1.25294e-05
1.25294e-05
1.23483e-05
1.23483e-05
1.23483e-05
1.04484e-05
1.04484e-05
1.04484e-05
1.27228e-05
1.27228e-05
1.27228e-05
2.06441e-05
2.06441e-05
2.06441e-05
1.39572e-05
1.39572e-05
1.39572e-05
1.89915e-06
1.89915e-06
1.89915e-06
1.90649e-06
1.90649e-06
1.90649e-06
7.88798e-07
7.88798e-07
7.88798e-07
7.91425e-07
7.91425e-07
7.91425e-07
4.07229e-06
4.07229e-06
4.07229e-06
2.92035e-06
2.92035e-06
2.92035e-06
2.91065e-06
2.91065e-06
2.91065e-06
4.04527e-06
4.04527e-06
4.04527e-06
5.19353e-06
5.19353e-06
5.19353e-06
5.21085e-06
5.21085e-06
5.21085e-06
7.40074e-06
7.40074e-06
7.40074e-06
8.76867e-06
8.76867e-06
8.76867e-06
7.15013e-06
7.15013e-06
7.15013e-06
4.40899e-06
4.40899e-06
4.40899e-06
1.86469e-05
1.86469e-05
1.86469e-05
1.75997e-05
1.75997e-05
1.75997e-05
7.14886e-06
7.14886e-06
7.14886e-06
8.46918e-06
8.46918e-06
8.46918e-06
2.16559e-05
2.16559e-05
2.16559e-05
2.06779e-05
2.06779e-05
2.06779e-05
2.16596e-05
2.16596e-05
2.16596e-05
2.13718e-05
2.13718e-05
2.13718e-05
2.0654e-05
2.0654e-05
2.0654e-05
2.13753e-05
2.13753e-05
2.13753e-05
8.45884e-06
8.45884e-06
8.45884e-06
3.32219e-06
3.32219e-06
3.32219e-06
4.40362e-06
4.40362e-06
4.40362e-06
7.14154e-06
7.14154e-06
7.14154e-06
1.54181e-05
1.54181e-05
1.54181e-05
1.45483e-05
1.45483e-05
1.45483e-05
3.32296e-06
3.32296e-06
3.32296e-06
1.09896e-05
1.09896e-05
1.09896e-05
8.46075e-06
8.46075e-06
8.46075e-06
3.80461e-07
3.80461e-07
3.80461e-07
0
0
0
0
0
0
0
0
0
3.31969e-06
3.31969e-06
3.31969e-06
4.4004e-06
4.4004e-06
4.4004e-06
3.85333e-07
3.85333e-07
3.85333e-07
3.32055e-06
3.32055e-06
3.32055e-06
0
0
0
0
0
0
0
0
0
0
0
0
0
0
0
0
0
0
0
0
0
9.42423e-06
9.42423e-06
9.42423e-06
1.06334e-05
1.06334e-05
1.06334e-05
9.45563e-06
9.45563e-06
9.45563e-06
0
0
0
0
0
0
7.15134e-06
7.15134e-06
7.15134e-06
8.47064e-06
8.47064e-06
8.47064e-06
1.10023e-05
1.10023e-05
1.10023e-05
1.22224e-05
1.22224e-05
1.22224e-05
1.5439e-05
1.5439e-05
1.5439e-05
1.45676e-05
1.45676e-05
1.45676e-05
2.42083e-05
2.42083e-05
2.42083e-05
2.68771e-05
2.68771e-05
2.68771e-05
2.69283e-05
2.69283e-05
2.69283e-05
1.85217e-05
1.85217e-05
1.85217e-05
2.33697e-05
2.33697e-05
2.33697e-05
2.34468e-05
2.34468e-05
2.34468e-05
1.58531e-05
1.58531e-05
1.58531e-05
1.59595e-05
1.59595e-05
1.59595e-05
2.28369e-05
2.28369e-05
2.28369e-05
2.19677e-05
2.19677e-05
2.19677e-05
1.83819e-05
1.83819e-05
1.83819e-05
1.87588e-05
1.87588e-05
1.87588e-05
1.7628e-05
1.7628e-05
1.7628e-05
1.65504e-05
1.65504e-05
1.65504e-05
1.58505e-05
1.58505e-05
1.58505e-05
1.37725e-05
1.37725e-05
1.37725e-05
1.48813e-05
1.48813e-05
1.48813e-05
1.60094e-05
1.60094e-05
1.60094e-05
1.67163e-05
1.67163e-05
1.67163e-05
1.59033e-05
1.59033e-05
1.59033e-05
1.50305e-05
1.50305e-05
1.50305e-05
1.49806e-05
1.49806e-05
1.49806e-05
1.38183e-05
1.38183e-05
1.38183e-05
1.2702e-05
1.2702e-05
1.2702e-05
1.0458e-05
1.0458e-05
1.0458e-05
9.33073e-06
9.33073e-06
9.33073e-06
1.39569e-05
1.39569e-05
1.39569e-05
1.28294e-05
1.28294e-05
1.28294e-05
1.39105e-05
1.39105e-05
1.39105e-05
1.27443e-05
1.27443e-05
1.27443e-05
1.1659e-05
1.1659e-05
1.1659e-05
1.16203e-05
1.16203e-05
1.16203e-05
1.26179e-05
1.26179e-05
1.26179e-05
1.2576e-05
1.2576e-05
1.2576e-05
1.16379e-05
1.16379e-05
1.16379e-05
1.03201e-05
1.03201e-05
1.03201e-05
3.81516e-07
3.81516e-07
3.81516e-07
0
0
0
0
0
0
0
0
0
7.1595e-06
7.1595e-06
7.1595e-06
4.4094e-06
4.4094e-06
4.4094e-06
8.48132e-06
8.48132e-06
8.48132e-06
3.23426e-06
3.23426e-06
3.23426e-06
4.40977e-06
4.40977e-06
4.40977e-06
7.1601e-06
7.1601e-06
7.1601e-06
7.47373e-06
7.47373e-06
7.47373e-06
3.74631e-06
3.74631e-06
3.74631e-06
5.3244e-06
5.3244e-06
5.3244e-06
2.95601e-06
2.95601e-06
2.95601e-06
7.2507e-06
7.2507e-06
7.2507e-06
5.16945e-06
5.16945e-06
5.16945e-06
1.29862e-05
1.29862e-05
1.29862e-05
1.2456e-05
1.2456e-05
1.2456e-05
1.55829e-05
1.55829e-05
1.55829e-05
1.83451e-05
1.83451e-05
1.83451e-05
1.63929e-05
1.63929e-05
1.63929e-05
1.51901e-05
1.51901e-05
1.51901e-05
1.90243e-05
1.90243e-05
1.90243e-05
1.77272e-05
1.77272e-05
1.77272e-05
2.12225e-05
2.12225e-05
2.12225e-05
2.17156e-05
2.17156e-05
2.17156e-05
2.19741e-05
2.19741e-05
2.19741e-05
2.1266e-05
2.1266e-05
2.1266e-05
2.22163e-05
2.22163e-05
2.22163e-05
2.15163e-05
2.15163e-05
2.15163e-05
2.19747e-05
2.19747e-05
2.19747e-05
1.89662e-05
1.89662e-05
1.89662e-05
9.42017e-06
9.42017e-06
9.42017e-06
9.06255e-06
9.06255e-06
9.06255e-06
1.10395e-05
1.10395e-05
1.10395e-05
1.10095e-05
1.10095e-05
1.10095e-05
1.86982e-05
1.86982e-05
1.86982e-05
1.73764e-05
1.73764e-05
1.73764e-05
1.62552e-05
1.62552e-05
1.62552e-05
1.60558e-05
1.60558e-05
1.60558e-05
1.2853e-05
1.2853e-05
1.2853e-05
1.44729e-05
1.44729e-05
1.44729e-05
1.93582e-05
1.93582e-05
1.93582e-05
1.86589e-05
1.86589e-05
1.86589e-05
1.80368e-05
1.80368e-05
1.80368e-05
1.99209e-05
1.99209e-05
1.99209e-05
1.9338e-05
1.9338e-05
1.9338e-05
1.67709e-05
1.67709e-05
1.67709e-05
1.65697e-05
1.65697e-05
1.65697e-05
1.73595e-05
1.73595e-05
1.73595e-05
1.50434e-05
1.50434e-05
1.50434e-05
1.34259e-05
1.34259e-05
1.34259e-05
1.41441e-05
1.41441e-05
1.41441e-05
1.43332e-05
1.43332e-05
1.43332e-05
1.20939e-05
1.20939e-05
1.20939e-05
1.2462e-05
1.2462e-05
1.2462e-05
1.52828e-05
1.52828e-05
1.52828e-05
1.45395e-05
1.45395e-05
1.45395e-05
1.36963e-05
1.36963e-05
1.36963e-05
1.43458e-05
1.43458e-05
1.43458e-05
1.51301e-05
1.51301e-05
1.51301e-05
1.43943e-05
1.43943e-05
1.43943e-05
1.356e-05
1.356e-05
1.356e-05
1.4491e-05
1.4491e-05
1.4491e-05
1.36053e-05
1.36053e-05
1.36053e-05
1.26341e-05
1.26341e-05
1.26341e-05
1.25922e-05
1.25922e-05
1.25922e-05
1.2238e-05
1.2238e-05
1.2238e-05
1.10169e-05
1.10169e-05
1.10169e-05
8.482e-06
8.482e-06
8.482e-06
7.16064e-06
7.16064e-06
7.16064e-06
8.72833e-06
8.72833e-06
8.72833e-06
1.12298e-05
1.12298e-05
1.12298e-05
2.16871e-05
2.16871e-05
2.16871e-05
2.17299e-05
2.17299e-05
2.17299e-05
2.07101e-05
2.07101e-05
2.07101e-05
2.14054e-05
2.14054e-05
2.14054e-05
1.65605e-05
1.65605e-05
1.65605e-05
2.1388e-05
2.1388e-05
2.1388e-05
2.06664e-05
2.06664e-05
2.06664e-05
2.06784e-05
2.06784e-05
2.06784e-05
1.39894e-05
1.39894e-05
1.39894e-05
1.65641e-05
1.65641e-05
1.65641e-05
1.65657e-05
1.65657e-05
1.65657e-05
1.78985e-05
1.78985e-05
1.78985e-05
2.16836e-05
2.16836e-05
2.16836e-05
2.1402e-05
2.1402e-05
2.1402e-05
2.14001e-05
2.14001e-05
2.14001e-05
2.06803e-05
2.06803e-05
2.06803e-05
1.86717e-05
1.86717e-05
1.86717e-05
2.07051e-05
2.07051e-05
2.07051e-05
2.07031e-05
2.07031e-05
2.07031e-05
2.16816e-05
2.16816e-05
2.16816e-05
0
0
0
0
0
0
0
0
0
0
0
0
0
0
0
0
0
0
0
0
0
0
0
0
0
0
0
0
0
0
6.17773e-06
6.17773e-06
6.17773e-06
3.1044e-06
3.1044e-06
3.1044e-06
1.16873e-06
1.16873e-06
1.16873e-06
3.10498e-06
3.10498e-06
3.10498e-06
4.10566e-06
4.10566e-06
4.10566e-06
1.16895e-06
1.16895e-06
1.16895e-06
2.32002e-07
2.32002e-07
2.32002e-07
7.2497e-06
7.2497e-06
7.2497e-06
6.17653e-06
6.17653e-06
6.17653e-06
9.47287e-06
9.47287e-06
9.47287e-06
1.06041e-05
1.06041e-05
1.06041e-05
2.31958e-07
2.31958e-07
2.31958e-07
0
0
0
0
0
0
0
0
0
3.1038e-06
3.1038e-06
3.1038e-06
1.16851e-06
1.16851e-06
1.16851e-06
2.31914e-07
2.31914e-07
2.31914e-07
0
0
0
0
0
0
7.28417e-07
7.28417e-07
7.28417e-07
9.56497e-07
9.56497e-07
9.56497e-07
2.0639e-05
2.0639e-05
2.0639e-05
1.78648e-05
1.78648e-05
1.78648e-05
1.06062e-05
1.06062e-05
1.06062e-05
1.39601e-05
1.39601e-05
1.39601e-05
1.65289e-05
1.65289e-05
1.65289e-05
1.39629e-05
1.39629e-05
1.39629e-05
1.27254e-05
1.27254e-05
1.27254e-05
1.78612e-05
1.78612e-05
1.78612e-05
1.65323e-05
1.65323e-05
1.65323e-05
3.10801e-06
3.10801e-06
3.10801e-06
4.11035e-06
4.11035e-06
4.11035e-06
0
0
0
0
0
0
0
0
0
0
0
0
0
0
0
0
0
0
0
0
0
1.09999e-05
1.09999e-05
1.09999e-05
1.14465e-05
1.14465e-05
1.14465e-05
0
0
0
0
0
0
7.26369e-06
7.26369e-06
7.26369e-06
0
0
0
0
0
0
1.27347e-05
1.27347e-05
1.27347e-05
4.10785e-06
4.10785e-06
4.10785e-06
0
0
0
0
0
0
0
0
0
0
0
0
0
0
0
0
0
0
0
0
0
0
0
0
0
0
0
0
0
0
0
0
0
0
0
0
0
0
0
0
0
0
0
0
0
0
0
0
0
0
0
0
0
0
0
0
0
0
0
0
0
0
0
0
0
0
0
0
0
0
0
0
0
0
0
0
0
0
0
0
0
5.53638e-06
5.53638e-06
5.53638e-06
4.53163e-06
4.53163e-06
4.53163e-06
1.36045e-05
1.36045e-05
1.36045e-05
1.4265e-05
1.4265e-05
1.4265e-05
1.52707e-05
1.52707e-05
1.52707e-05
8.76728e-06
8.76728e-06
8.76728e-06
8.73814e-06
8.73814e-06
8.73814e-06
1.08083e-05
1.08083e-05
1.08083e-05
9.80493e-06
9.80493e-06
9.80493e-06
7.75737e-06
7.75737e-06
7.75737e-06
7.78325e-06
7.78325e-06
7.78325e-06
1.68286e-05
1.68286e-05
1.68286e-05
2.01928e-05
2.01928e-05
2.01928e-05
2.20359e-05
2.20359e-05
2.20359e-05
2.20312e-05
2.20312e-05
2.20312e-05
2.20717e-05
2.20717e-05
2.20717e-05
2.20762e-05
2.20762e-05
2.20762e-05
2.21561e-05
2.21561e-05
2.21561e-05
2.42234e-05
2.42234e-05
2.42234e-05
2.42676e-05
2.42676e-05
2.42676e-05
2.33862e-05
2.33862e-05
2.33862e-05
2.3661e-05
2.3661e-05
2.3661e-05
2.17293e-05
2.17293e-05
2.17293e-05
2.40955e-05
2.40955e-05
2.40955e-05
2.29342e-05
2.29342e-05
2.29342e-05
2.25032e-05
2.25032e-05
2.25032e-05
2.28294e-05
2.28294e-05
2.28294e-05
2.35943e-05
2.35943e-05
2.35943e-05
2.26971e-05
2.26971e-05
2.26971e-05
2.14065e-05
2.14065e-05
2.14065e-05
2.1793e-05
2.1793e-05
2.1793e-05
2.21831e-05
2.21831e-05
2.21831e-05
2.32005e-05
2.32005e-05
2.32005e-05
2.33444e-05
2.33444e-05
2.33444e-05
2.02872e-05
2.02872e-05
2.02872e-05
1.95987e-05
1.95987e-05
1.95987e-05
2.07992e-05
2.07992e-05
2.07992e-05
1.97434e-05
1.97434e-05
1.97434e-05
1.85898e-05
1.85898e-05
1.85898e-05
1.64758e-05
1.64758e-05
1.64758e-05
1.77832e-05
1.77832e-05
1.77832e-05
1.83934e-05
1.83934e-05
1.83934e-05
1.7566e-05
1.7566e-05
1.7566e-05
2.49457e-05
2.49457e-05
2.49457e-05
2.48634e-05
2.48634e-05
2.48634e-05
2.10072e-05
2.10072e-05
2.10072e-05
2.08683e-05
2.08683e-05
2.08683e-05
2.51112e-05
2.51112e-05
2.51112e-05
2.40648e-05
2.40648e-05
2.40648e-05
2.29967e-05
2.29967e-05
2.29967e-05
2.65184e-05
2.65184e-05
2.65184e-05
2.62555e-05
2.62555e-05
2.62555e-05
2.63429e-05
2.63429e-05
2.63429e-05
2.6469e-05
2.6469e-05
2.6469e-05
2.63814e-05
2.63814e-05
2.63814e-05
2.62909e-05
2.62909e-05
2.62909e-05
2.65534e-05
2.65534e-05
2.65534e-05
2.61015e-05
2.61015e-05
2.61015e-05
2.62761e-05
2.62761e-05
2.62761e-05
2.54483e-05
2.54483e-05
2.54483e-05
2.63639e-05
2.63639e-05
2.63639e-05
2.59668e-05
2.59668e-05
2.59668e-05
2.58807e-05
2.58807e-05
2.58807e-05
2.60052e-05
2.60052e-05
2.60052e-05
2.59574e-05
2.59574e-05
2.59574e-05
2.57003e-05
2.57003e-05
2.57003e-05
2.57382e-05
2.57382e-05
2.57382e-05
2.58237e-05
2.58237e-05
2.58237e-05
2.58714e-05
2.58714e-05
2.58714e-05
2.57475e-05
2.57475e-05
2.57475e-05
2.58331e-05
2.58331e-05
2.58331e-05
2.46964e-05
2.46964e-05
2.46964e-05
2.55862e-05
2.55862e-05
2.55862e-05
2.37728e-05
2.37728e-05
2.37728e-05
2.36938e-05
2.36938e-05
2.36938e-05
2.49439e-05
2.49439e-05
2.49439e-05
2.47786e-05
2.47786e-05
2.47786e-05
2.58423e-05
2.58423e-05
2.58423e-05
2.57566e-05
2.57566e-05
2.57566e-05
2.24368e-05
2.24368e-05
2.24368e-05
2.33239e-05