<VTKFile type="UnstructuredGrid" version="1.0">
<UnstructuredGrid>
<Piece NumberOfPoints="10830" NumberOfCells="3610">
<Points>
<DataArray type="Float64" NumberOfComponents="3" format="ascii">
2.19217 2.20649 3.16075
2.19928 2.19938 3.135
2.19928 2.19938 3.18646
2.19928 2.19938 3.69008
2.19928 2.19938 3.741
2.19129 2.20737 3.71553
2.19928 2.19938 3.69008
2.19129 2.20737 3.71553
2.17928 2.21938 3.6901
1.30559 3.09307 4.16259
1.31816 3.0805 4.18
1.28831 3.11035 4.18
1.28831 3.11035 4.18
1.28831 3.11035 4.14984
1.30559 3.09307 4.16259
2.19928 2.19938 3.69008
2.17928 2.21938 3.6901
2.1913 2.20736 3.66468
1.29441 3.10425 3.41179
1.28831 3.11035 3.43701
1.28831 3.11035 3.38657
2.19132 2.20734 3.4119
2.19928 2.19938 3.43709
2.17929 2.21937 3.43711
2.19117 2.20749 3.31134
2.19928 2.19938 3.28628
2.19928 2.19938 3.33639
2.17929 2.21937 3.43711
2.19928 2.19938 3.43709
2.19133 2.20733 3.46231
2.19928 2.19938 3.43709
2.19928 2.19938 3.48754
2.19133 2.20733 3.46231
2.17929 2.21937 3.48755
2.19133 2.20733 3.46231
2.19928 2.19938 3.48754
2.17928 2.21938 3.63931
2.1913 2.20736 3.66468
2.16946 2.22921 3.6647
2.16946 2.22921 3.6647
2.1913 2.20736 3.66468
2.17928 2.21938 3.6901
2.16946 2.22921 3.6647
2.15842 2.24024 3.63932
2.17928 2.21938 3.63931
2.16946 2.22921 3.6647
2.17928 2.21938 3.6901
2.15841 2.24025 3.69012
2.19928 2.19938 3.53804
2.19928 2.19938 3.58862
2.19132 2.20734 3.56333
2.19132 2.20734 3.56333
2.17929 2.21937 3.58863
2.16947 2.22919 3.56334
2.19928 2.19938 3.58862
2.17929 2.21937 3.58863
2.19132 2.20734 3.56333
2.19928 2.19938 3.63929
2.1913 2.20736 3.66468
2.17928 2.21938 3.63931
2.19928 2.19938 3.69008
2.1913 2.20736 3.66468
2.19928 2.19938 3.63929
2.17913 2.21954 3.28632
2.19928 2.19938 3.28628
2.19117 2.20749 3.31134
2.17927 2.21939 3.74102
2.19129 2.20737 3.71553
2.19928 2.19938 3.741
1.8956 2.50306 3.92075
1.90602 2.49264 3.89498
1.91643 2.48223 3.92072
1.28831 3.11035 3.135
1.30792 3.09074 3.135
1.29529 3.10337 3.1597
1.34771 3.05096 3.38659
1.32717 3.07149 3.38657
1.33709 3.06157 3.36137
1.30704 3.09162 3.38656
1.32717 3.07149 3.38657
1.31607 3.08259 3.41178
1.30704 3.09162 3.38656
1.29441 3.10425 3.41179
1.28831 3.11035 3.38657
1.31607 3.08259 3.41178
1.29441 3.10425 3.41179
1.30704 3.09162 3.38656
1.2945 3.10417 3.61394
1.28831 3.11035 3.6393
1.28831 3.11035 3.58861
1.3071 3.09157 3.6393
1.31615 3.08252 3.61393
1.32724 3.07142 3.63929
1.28831 3.11035 3.6393
1.2945 3.10417 3.61394
1.3071 3.09157 3.6393
1.3071 3.09157 3.6393
1.2945 3.10417 3.61394
1.31615 3.08252 3.61393
1.30708 3.09158 3.5886
1.32723 3.07143 3.5886
1.31615 3.08252 3.61393
1.30708 3.09158 3.5886
1.2945 3.10417 3.61394
1.28831 3.11035 3.58861
1.31615 3.08252 3.61393
1.2945 3.10417 3.61394
1.30708 3.09158 3.5886
1.28831 3.11035 3.43701
1.29441 3.10425 3.41179
1.30705 3.09161 3.437
1.30705 3.09161 3.437
1.29441 3.10425 3.41179
1.31607 3.08259 3.41178
1.32724 3.07142 3.63929
1.31615 3.08252 3.61393
1.33718 3.06148 3.61393
1.31615 3.08252 3.61393
1.32723 3.07143 3.5886
1.33718 3.06148 3.61393
1.49256 2.90611 3.58867
1.50289 2.89577 3.61401
1.48223 2.91643 3.614
1.48223 2.91643 3.614
1.50289 2.89577 3.61401
1.49257 2.90609 3.63937
1.49257 2.90609 3.63937
1.50289 2.89577 3.61401
1.51323 2.88543 3.63938
1.88521 2.51346 3.895
1.90602 2.49264 3.89498
1.8956 2.50306 3.92075
2.19127 2.20739 3.36156
2.19928 2.19938 3.33639
2.19928 2.19938 3.3867
2.19928 2.19938 3.43709
2.19132 2.20734 3.4119
2.19928 2.19938 3.3867
2.11618 2.28248 3.5381
2.09503 2.30363 3.53811
2.10562 2.29304 3.51285
2.17929 2.21937 3.53805
2.19132 2.20734 3.56333
2.16947 2.22919 3.56334
2.19928 2.19938 3.53804
2.19132 2.20734 3.56333
2.17929 2.21937 3.53805
2.16947 2.22919 3.56334
2.17929 2.21937 3.58863
2.15843 2.24024 3.58865
2.19131 2.20735 3.61395
2.17929 2.21937 3.58863
2.19928 2.19938 3.58862
2.19928 2.19938 3.58862
2.19928 2.19938 3.63929
2.19131 2.20735 3.61395
2.19131 2.20735 3.61395
2.19928 2.19938 3.63929
2.17928 2.21938 3.63931
2.1693 2.22936 3.31137
2.17913 2.21954 3.28632
2.19117 2.20749 3.31134
2.19127 2.20739 3.36156
2.19928 2.19938 3.3867
2.17927 2.21939 3.38674
2.17927 2.21939 3.38674
2.19928 2.19938 3.3867
2.19132 2.20734 3.4119
2.10553 2.29313 3.36161
2.09491 2.30375 3.33643
2.11605 2.28261 3.33643
2.1372 2.26147 3.33645
2.12662 2.27204 3.31126
2.14787 2.25079 3.31131
2.1372 2.26147 3.33645
2.11605 2.28261 3.33643
2.12662 2.27204 3.31126
2.16946 2.2292 3.41193
2.19132 2.20734 3.4119
2.17929 2.21937 3.43711
2.16946 2.2292 3.41193
2.17927 2.21939 3.38674
2.19132 2.20734 3.4119
2.16945 2.22921 3.71555
2.17928 2.21938 3.6901
2.19129 2.20737 3.71553
2.19129 2.20737 3.71553
2.17927 2.21939 3.74102
2.16945 2.22921 3.71555
2.15841 2.24025 3.69012
2.17928 2.21938 3.6901
2.16945 2.22921 3.71555
2.16944 2.22922 3.86905
2.14804 2.25062 3.86906
2.15841 2.24025 3.84337
2.14804 2.25063 3.81774
2.16944 2.22922 3.81772
2.15841 2.24025 3.84337
2.19128 2.20738 3.76653
2.17927 2.21939 3.74102
2.19928 2.19938 3.741
2.16944 2.22922 3.76656
2.17927 2.21939 3.74102
2.19128 2.20738 3.76653
1.93725 2.46141 3.97232
1.94766 2.451 3.99816
1.92679 2.47187 3.9982
2.05276 2.34591 3.84343
2.06331 2.33535 3.81779
2.07386 2.3248 3.84341
2.07386 2.3248 3.84341
2.06331 2.33535 3.81779
2.08443 2.31423 3.81778
2.15841 2.24026 3.79213
2.14804 2.25062 3.76658
2.16944 2.22922 3.76656
2.15841 2.24026 3.79213
2.16944 2.22922 3.81772
2.14804 2.25063 3.81774
2.04222 2.35644 3.81781
2.06331 2.33535 3.81779
2.05276 2.34591 3.84343
1.9897 2.40896 3.58874
1.96874 2.42992 3.58874
1.97921 2.41945 3.56344
1.93736 2.4613 3.56344
1.92692 2.47174 3.58875
1.91649 2.48217 3.56344
1.94781 2.45085 3.58875
1.92692 2.47174 3.58875
1.93736 2.4613 3.56344
1.92691 2.47175 3.48765
1.9478 2.45086 3.48765
1.93736 2.46131 3.51289
1.93736 2.46131 3.51289
1.91648 2.48218 3.51289
1.92691 2.47175 3.48765
1.92691 2.47175 3.48765
1.91648 2.48218 3.51289
1.90605 2.49261 3.48764
1.93736 2.46131 3.51289
1.9478 2.45086 3.48765
1.95826 2.4404 3.5129
1.96871 2.42995 3.43723
1.9792 2.41946 3.46244
1.95825 2.44041 3.46243
1.95825 2.44041 3.46243
1.94778 2.45088 3.43723
1.96871 2.42995 3.43723
1.8126 2.58607 3.61409
1.82295 2.57571 3.58875
1.83332 2.56534 3.61409
1.82295 2.57571 3.58875
1.84369 2.55497 3.58875
1.83332 2.56534 3.61409
1.92692 2.47174 3.53816
1.91648 2.48218 3.51289
1.93736 2.46131 3.51289
1.92692 2.47174 3.53816
1.93736 2.4613 3.56344
1.91649 2.48217 3.56344
1.91649 2.48217 3.56344
1.89565 2.50301 3.56344
1.90606 2.4926 3.53815
1.90606 2.4926 3.53815
1.92692 2.47174 3.53816
1.91649 2.48217 3.56344
1.91648 2.48218 3.51289
1.92692 2.47174 3.53816
1.90606 2.4926 3.53815
1.90605 2.49261 3.48764
1.88523 2.51343 3.48764
1.89563 2.50303 3.46241
1.88521 2.51345 3.43719
1.90603 2.49263 3.43721
1.89563 2.50303 3.46241
1.51322 2.88545 3.58868
1.50289 2.89577 3.61401
1.49256 2.90611 3.58867
1.49256 2.90611 3.58867
1.50288 2.89578 3.56336
1.51322 2.88545 3.58868
1.29442 3.10424 3.20987
1.28831 3.11035 3.23509
1.28831 3.11035 3.18442
1.28831 3.11035 3.135
1.29529 3.10337 3.1597
1.28831 3.11035 3.18442
1.307 3.09167 3.2857
1.28831 3.11035 3.28567
1.29431 3.10435 3.26042
1.28831 3.11035 3.28567
1.28831 3.11035 3.23509
1.29431 3.10435 3.26042
2.19928 2.19938 3.135
2.19217 2.20649 3.16075
2.18013 2.21854 3.135
1.28831 3.11035 3.38657
1.28831 3.11035 3.33614
1.29438 3.10428 3.36136
1.29438 3.10428 3.36136
1.30704 3.09162 3.38656
1.28831 3.11035 3.38657
1.30702 3.09164 3.33613
1.29438 3.10428 3.36136
1.28831 3.11035 3.33614
1.30702 3.09164 3.33613
1.31601 3.08265 3.31094
1.32714 3.07152 3.33616
1.31605 3.08262 3.36135
1.33709 3.06157 3.36137
1.32717 3.07149 3.38657
1.32717 3.07149 3.38657
1.30704 3.09162 3.38656
1.31605 3.08262 3.36135
1.32714 3.07152 3.33616
1.33709 3.06157 3.36137
1.31605 3.08262 3.36135
1.31605 3.08262 3.36135
1.30702 3.09164 3.33613
1.32714 3.07152 3.33616
1.30704 3.09162 3.38656
1.29438 3.10428 3.36136
1.31605 3.08262 3.36135
1.29438 3.10428 3.36136
1.30702 3.09164 3.33613
1.31605 3.08262 3.36135
1.29435 3.10432 3.31091
1.28831 3.11035 3.33614
1.28831 3.11035 3.28567
1.29435 3.10432 3.31091
1.28831 3.11035 3.28567
1.307 3.09167 3.2857
1.307 3.09167 3.2857
1.31601 3.08265 3.31094
1.29435 3.10432 3.31091
1.29435 3.10432 3.31091
1.30702 3.09164 3.33613
1.28831 3.11035 3.33614
1.31601 3.08265 3.31094
1.30702 3.09164 3.33613
1.29435 3.10432 3.31091
1.33717 3.06149 3.56329
1.32723 3.07143 3.5886
1.31613 3.08254 3.56329
1.32723 3.07143 3.5886
1.30708 3.09158 3.5886
1.31613 3.08254 3.56329
1.31613 3.08254 3.56329
1.32722 3.07145 3.538
1.33717 3.06149 3.56329
1.33711 3.06155 3.41179
1.32717 3.07149 3.38657
1.34771 3.05096 3.38659
1.31607 3.08259 3.41178
1.32717 3.07149 3.38657
1.33711 3.06155 3.41179
1.35794 3.04072 3.4118
1.33711 3.06155 3.41179
1.34771 3.05096 3.38659
1.34773 3.05094 3.43701
1.33711 3.06155 3.41179
1.35794 3.04072 3.4118
1.34773 3.05094 3.43701
1.35794 3.04072 3.4118
1.36839 3.03027 3.43702
1.50287 2.89579 3.5128
1.51321 2.88546 3.53807
1.49255 2.90612 3.53807
1.49255 2.90612 3.53807
1.51321 2.88546 3.53807
1.50288 2.89578 3.56336
1.42017 2.9785 3.56332
1.44086 2.9578 3.56333
1.43052 2.96814 3.58863
1.43051 2.96815 3.53804
1.44086 2.9578 3.56333
1.42017 2.9785 3.56332
1.44085 2.95782 3.51277
1.4305 2.96817 3.48752
1.45119 2.94748 3.48753
1.43051 2.96815 3.53804
1.42015 2.97851 3.51276
1.44085 2.95782 3.51277
1.44085 2.95782 3.51277
1.42015 2.97851 3.51276
1.4305 2.96817 3.48752
1.44087 2.95779 3.61398
1.46156 2.9371 3.61399
1.45123 2.94744 3.63934
1.3995 2.99917 3.6647
1.40985 2.98882 3.63932
1.4202 2.97846 3.66471
1.40983 2.98883 3.58862
1.42017 2.9785 3.56332
1.43052 2.96814 3.58863
1.39946 2.9992 3.56331
1.42017 2.9785 3.56332
1.40983 2.98883 3.58862
1.32724 3.07142 3.63929
1.33718 3.06148 3.61393
1.34779 3.05087 3.63929
1.33717 3.06149 3.56329
1.32722 3.07145 3.538
1.34776 3.0509 3.538
1.34776 3.0509 3.538
1.35799 3.04067 3.56329
1.33717 3.06149 3.56329
1.38911 3.00955 3.53801
1.39946 2.9992 3.56331
1.37874 3.01992 3.5633
1.34777 3.05089 3.5886
1.33718 3.06148 3.61393
1.32723 3.07143 3.5886
[...]
<PointData Scalars="View Factor" >
<DataArray type="Float64" Name="View Factor" NumberOfComponents="1" format="ascii">
3.84731e-05
3.84731e-05
3.84731e-05
7.67689e-05
7.67689e-05
7.67689e-05
8.01249e-05
8.01249e-05
8.01249e-05
0.000698936
0.000698936
0.000698936
0.000707497
0.000707497
0.000707497
8.56157e-05
8.56157e-05
8.56157e-05
0.00097585
0.00097585
0.00097585
0.000196062
0.000196062
0.000196062
3.62729e-05
3.62729e-05
3.62729e-05
0.000213618
0.000213618
0.000213618
0.000225991
0.000225991
0.000225991
0.000223922
0.000223922
0.000223922
0.000107469
0.000107469
0.000107469
0.000100358
0.000100358
0.000100358
0.000176062
0.000176062
0.000176062
0.000165845
0.000165845
0.000165845
0.000150249
0.000150249
0.000150249
0.000155262
0.000155262
0.000155262
0.000135796
0.000135796
0.000135796
9.84892e-05
9.84892e-05
9.84892e-05
9.31075e-05
9.31075e-05
9.31075e-05
3.02573e-05
3.02573e-05
3.02573e-05
7.09202e-05
7.09202e-05
7.09202e-05
2.4812e-05
2.4812e-05
2.4812e-05
0.00109402
0.00109402
0.00109402
0.000948505
0.000948505
0.000948505
0.000961315
0.000961315
0.000961315
0.000978168
0.000978168
0.000978168
0.00096723
0.00096723
0.00096723
0.000893617
0.000893617
0.000893617
0.000867483
0.000867483
0.000867483
0.000882642
0.000882642
0.000882642
0.000879223
0.000879223
0.000879223
0.000880195
0.000880195
0.000880195
0.000895644
0.000895644
0.000895644
0.000885659
0.000885659
0.000885659
0.000963781
0.000963781
0.000963781
0.000960117
0.000960117
0.000960117
0.000861931
0.000861931
0.000861931
0.000868246
0.000868246
0.000868246
0.000684516
0.000684516
0.000684516
0.000679365
0.000679365
0.000679365
0.000652049
0.000652049
0.000652049
2.60034e-05
2.60034e-05
2.60034e-05
9.95468e-05
9.95468e-05
9.95468e-05
0.000177374
0.000177374
0.000177374
0.000195683
0.000195683
0.000195683
0.000169012
0.000169012
0.000169012
0.000163401
0.000163401
0.000163401
0.000204253
0.000204253
0.000204253
0.000124712
0.000124712
0.000124712
0.000116182
0.000116182
0.000116182
0.000106148
0.000106148
0.000106148
4.88246e-05
4.88246e-05
4.88246e-05
0.000126632
0.000126632
0.000126632
0.00015296
0.00015296
0.00015296
0.000125639
0.000125639
0.000125639
0.000133627
0.000133627
0.000133627
0.000132971
0.000132971
0.000132971
0.00020198
0.00020198
0.00020198
0.000180782
0.000180782
0.000180782
8.8091e-05
8.8091e-05
8.8091e-05
8.25874e-05
8.25874e-05
8.25874e-05
0.000161363
0.000161363
0.000161363
0.000126823
0.000126823
0.000126823
0.000131285
0.000131285
0.000131285
6.71429e-05
6.71429e-05
6.71429e-05
7.27815e-05
7.27815e-05
7.27815e-05
1.7591e-05
1.7591e-05
1.7591e-05
3.07369e-05
3.07369e-05
3.07369e-05
3.1903e-05
3.1903e-05
3.1903e-05
0.000139181
0.000139181
0.000139181
0.000133803
0.000133803
0.000133803
3.19447e-05
3.19447e-05
3.19447e-05
0.000115154
0.000115154
0.000115154
0.000128957
0.000128957
0.000128957
0.000120078
0.000120078
0.000120078
0.00020964
0.00020964
0.00020964
0.000203328
0.000203328
0.000203328
0.000217201
0.000217201
0.000217201
0.000196244
0.000196244
0.000196244
0.000217859
0.000217859
0.000217859
0.000213278
0.000213278
0.000213278
0.000122166
0.000122166
0.000122166
0.000126851
0.000126851
0.000126851
0.000181129
0.000181129
0.000181129
0.000143804
0.000143804
0.000143804
0.000148766
0.000148766
0.000148766
0.000155054
0.000155054
0.000155054
0.000173814
0.000173814
0.000173814
0.000239964
0.000239964
0.000239964
0.000237115
0.000237115
0.000237115
0.000661858
0.000661858
0.000661858
0.000666927
0.000666927
0.000666927
0.00106755
0.00106755
0.00106755
0.00109166
0.00109166
0.00109166
0.00103059
0.00103059
0.00103059
0.00104364
0.00104364
0.00104364
3.48865e-05
3.48865e-05
3.48865e-05
0.000997808
0.000997808
0.000997808
0.000985449
0.000985449
0.000985449
0.00100021
0.00100021
0.00100021
0.000990354
0.000990354
0.000990354
0.000962363
0.000962363
0.000962363
0.000968491
0.000968491
0.000968491
0.000969529
0.000969529
0.000969529
0.000982979
0.000982979
0.000982979
0.000981717
0.000981717
0.000981717
0.000989016
0.000989016
0.000989016
0.00102039
0.00102039
0.00102039
0.00102291
0.00102291
0.00102291
0.00101146
0.00101146
0.00101146
0.0010077
0.0010077
0.0010077
0.0010039
0.0010039
0.0010039
0.00088101
0.00088101
0.00088101
0.000886668
0.000886668
0.000886668
0.00088747
0.00088747
0.00088747
0.000941451
0.000941451
0.000941451
0.000948201
0.000948201
0.000948201
0.000928333
0.000928333
0.000928333
0.000921465
0.000921465
0.000921465
0.000909299
0.000909299
0.000909299
0.000682071
0.000682071
0.000682071
0.000676875
0.000676875
0.000676875
0.000787664
0.000787664
0.000787664
0.000793323
0.000793323
0.000793323
0.000802401
0.000802401
0.000802401
0.000805228
0.000805228
0.000805228
0.000811198
0.000811198
0.000811198
0.000745023
0.000745023
0.000745023
0.000779631
0.000779631
0.000779631
0.000796294
0.000796294
0.000796294
0.000808347
0.000808347
0.000808347
0.000849538
0.000849538
0.000849538
0.00088112
0.00088112
0.00088112
0.000868879
0.000868879
0.000868879
0.000833083
0.000833083
0.000833083
0.000862046
0.000862046
0.000862046
0.000868328
0.000868328
0.000868328
0.000862557
0.000862557
0.000862557
0.000757314
0.000757314
0.000757314
0.000751127
0.000751127
0.000751127
0.000708732
0.000708732
0.000708732
0.000707704
0.000707704
0.000707704
0.000721638
0.000721638
0.000721638
0.000724139
0.000724139
0.000724139
0.000697195
0.000697195
0.000697195
0.000729535
0.000729535
0.000729535
0.000716193
0.000716193
0.000716193
0.000692055
0.000692055
0.000692055
0.00070575
0.00070575
0.00070575
0.000681868
0.000681868
0.000681868
0.000700567
0.000700567
0.000700567
0.000753119
0.000753119
0.000753119
0.00073409
0.00073409
0.00073409
0.000598026
0.000598026
0.000598026
0.000155919
0.000155919
0.000155919
0.000376178
0.000376178
0.000376178
0.000143481
0.000143481
0.000143481
0.000368672
0.000368672
0.000368672
0.00066456
0.00066456
0.00066456
0.000647244
0.000647244
0.000647244
0.000669458
0.000669458
0.000669458
2.92516e-05
2.92516e-05
2.92516e-05
2.79622e-05
2.79622e-05
2.79622e-05
2.56011e-05
2.56011e-05
2.56011e-05
2.68181e-05
2.68181e-05
2.68181e-05
3.12429e-05
3.12429e-05
3.12429e-05
3.18677e-05
3.18677e-05
3.18677e-05
3.8529e-05
3.8529e-05
3.8529e-05
2.86426e-05
2.86426e-05
2.86426e-05
1.34198e-05
1.34198e-05
1.34198e-05
1.39021e-05
1.39021e-05
1.39021e-05
1.27408e-05
1.27408e-05
1.27408e-05
1.25031e-05
1.25031e-05
1.25031e-05
1.47563e-05
1.47563e-05
1.47563e-05
1.50623e-05
1.50623e-05
1.50623e-05
1.43912e-05
1.43912e-05
1.43912e-05
1.35588e-05
1.35588e-05
1.35588e-05
1.40251e-05
1.40251e-05
1.40251e-05
1.4684e-05
1.4684e-05
1.4684e-05
1.55788e-05
1.55788e-05
1.55788e-05
1.21949e-05
1.21949e-05
1.21949e-05
1.32145e-05
1.32145e-05
1.32145e-05
1.30842e-05
1.30842e-05
1.30842e-05
1.24223e-05
1.24223e-05
1.24223e-05
1.18861e-05
1.18861e-05
1.18861e-05
1.064e-05
1.064e-05
1.064e-05
9.15333e-06
9.15333e-06
9.15333e-06
9.186e-06
9.186e-06
9.186e-06
1.75185e-05
1.75185e-05
1.75185e-05
1.75048e-05
1.75048e-05
1.75048e-05
1.6928e-05
1.6928e-05
1.6928e-05
0.0001635
0.0001635
0.0001635
0.000161869
0.000161869
0.000161869
0.000167157
0.000167157
0.000167157
0.000154528
0.000154528
0.000154528
0.000192572
0.000192572
0.000192572
0.000210396
0.000210396
0.000210396
0.000181726
0.000181726
0.000181726
0.000113607
0.000113607
0.000113607
0.000119833
0.000119833
0.000119833
0.000180086
0.000180086
0.000180086
0.000202596
0.000202596
0.000202596
0.000199636
0.000199636
0.000199636
0.000214198
0.000214198
0.000214198
0.000220547
0.000220547
0.000220547
0.000166963
0.000166963
0.000166963
0.00016948
0.00016948
0.00016948
0.00018191
0.00018191
0.00018191
0.000195947
0.000195947
0.000195947
0.000179369
0.000179369
0.000179369
0.000186306
0.000186306
0.000186306
0.000123497
0.000123497
0.000123497
0.000132631
0.000132631
0.000132631
7.06065e-05
7.06065e-05
7.06065e-05
4.79874e-05
4.79874e-05
4.79874e-05
5.7585e-05
5.7585e-05
5.7585e-05
3.05495e-05
3.05495e-05
3.05495e-05
0.00010541
0.00010541
0.00010541
0.000116303
0.000116303
0.000116303
0.000236922
0.000236922
0.000236922
0.00020679
0.00020679
0.00020679
0.000238483
0.000238483
0.000238483
0.000224209
0.000224209
0.000224209
0.000153682
0.000153682
0.000153682
0.000150429
0.000150429
0.000150429
0.000142195
0.000142195
0.000142195
0.000124768
0.000124768
0.000124768
8.0324e-05
8.0324e-05
8.0324e-05
1.18649e-05
1.18649e-05
1.18649e-05
2.30369e-05
2.30369e-05
2.30369e-05
2.6897e-05
2.6897e-05
2.6897e-05
2.51879e-05
2.51879e-05
2.51879e-05
2.86422e-05
2.86422e-05
2.86422e-05
2.4874e-05
2.4874e-05
2.4874e-05
9.88957e-05
9.88957e-05
9.88957e-05
0.000100868
0.000100868
0.000100868
0.00010302
0.00010302
0.00010302
0.000113781
0.000113781
0.000113781
0.00011415
0.00011415
0.00011415
0.000120165
0.000120165
0.000120165
7.29178e-05
7.29178e-05
7.29178e-05
7.64116e-05
7.64116e-05
7.64116e-05
7.30909e-05
7.30909e-05
7.30909e-05
0.000144351
0.000144351
0.000144351
0.000141634
0.000141634
0.000141634
6.84328e-05
6.84328e-05
6.84328e-05
0.000121419
0.000121419
0.000121419
0.000114195
0.000114195
0.000114195
0.00012361
0.00012361
0.00012361
0.0001186
0.0001186
0.0001186
0.000109247
0.000109247
0.000109247
0.000111349
0.000111349
0.000111349
0.000114476
0.000114476
0.000114476
0.000134385
0.000134385
0.000134385
0.00012052
0.00012052
0.00012052
0.000143552
0.000143552
0.000143552
0.000124264
0.000124264
0.000124264
0.000133386
0.000133386
0.000133386
0.000108061
0.000108061
0.000108061
9.12744e-05
9.12744e-05
9.12744e-05
8.57432e-05
8.57432e-05
8.57432e-05
0.000111487
0.000111487
0.000111487
0.00011558
0.00011558
0.00011558
0.000128454
0.000128454
0.000128454
0.000137816
0.000137816
0.000137816
0.000119339
0.000119339
0.000119339
0.000132641
0.000132641
0.000132641
0.000101102
0.000101102
0.000101102
9.43583e-05
9.43583e-05
9.43583e-05
8.57507e-05
8.57507e-05
8.57507e-05
8.31114e-05
8.31114e-05
8.31114e-05
8.85124e-05
8.85124e-05
8.85124e-05
9.74074e-05
9.74074e-05
9.74074e-05
0.000124531
0.000124531
0.000124531
0.000115886
0.000115886
0.000115886
0.000121749
0.000121749
0.000121749
0.000135741
0.000135741
0.000135741
5.21481e-05
5.21481e-05
5.21481e-05
7.574e-05
7.574e-05
7.574e-05
5.36434e-05
5.36434e-05
5.36434e-05
0.000231957
0.000231957
0.000231957
0.000229152
0.000229152
0.000229152
0.000240673
0.000240673
0.000240673
0.000239804
0.000239804
0.000239804
0.000221205
0.000221205
0.000221205
0.00023177
0.00023177
0.00023177
0.000232498
0.000232498
0.000232498
0.000223961
0.000223961
0.000223961
0.000224334
0.000224334
0.000224334
0.000223609
0.000223609
0.000223609
0.000170843
0.000170843
0.000170843
0.000160845
0.000160845
0.000160845
0.000177771
0.000177771
0.000177771
0.000198606
0.000198606
0.000198606
0.000104106
0.000104106
0.000104106
0.000110552
0.000110552
0.000110552
0.000173172
0.000173172
0.000173172
0.0001663
0.0001663
0.0001663
8.93383e-05
8.93383e-05
8.93383e-05
9.4675e-05
9.4675e-05
9.4675e-05
9.1601e-05
9.1601e-05
9.1601e-05
8.13937e-05
8.13937e-05
8.13937e-05
7.92825e-05
7.92825e-05
7.92825e-05
8.34489e-05
8.34489e-05
8.34489e-05
0.000141023
0.000141023
0.000141023
0.00017614
0.00017614
0.00017614
0.00016862
0.00016862
0.00016862
0.000151117
0.000151117
0.000151117
0.000103415
0.000103415
0.000103415
0.000110755
0.000110755
0.000110755
0.000181415
0.000181415
0.000181415
0.000130608
0.000130608
0.000130608
0.000145221
0.000145221
0.000145221
0.000197551
0.000197551
0.000197551
0.000245094
0.000245094
0.000245094
0.000247994
0.000247994
0.000247994
0.000248865
0.000248865
0.000248865
0.000160322
0.000160322
0.000160322
0.000153729
0.000153729
0.000153729
0.000185672
0.000185672
0.000185672
0.000165593
0.000165593
0.000165593
0.000635747
0.000635747
0.000635747
0.000780702
0.000780702
0.000780702
0.000774717
0.000774717
0.000774717
0.00078549
0.00078549
0.00078549
0.000708375
0.000708375
0.000708375
0.000667758
0.000667758
0.000667758
0.000672882
0.000672882
0.000672882
0.000922863
0.000922863
0.000922863
0.000942179
0.000942179
0.000942179
0.000929724
0.000929724
0.000929724
0.000657844
0.000657844
0.000657844
0.000652849
0.000652849
0.000652849
0.000182215
0.000182215
0.000182215
0.000170499
0.000170499
0.000170499
0.000153135
0.000153135
0.000153135
0.000147056
0.000147056
0.000147056
0.00012478
0.00012478
0.00012478
0.000133327
0.000133327
0.000133327
0.000110668
0.000110668
0.000110668
5.08448e-05
5.08448e-05
5.08448e-05
0.000166782
0.000166782
0.000166782
1.02581e-05
1.02581e-05
1.02581e-05
9.25402e-05
9.25402e-05
9.25402e-05
9.35509e-05
9.35509e-05
9.35509e-05
2.94543e-05
2.94543e-05
2.94543e-05
6.61753e-06
6.61753e-06
6.61753e-06
0.000874335
0.000874335
0.000874335
0.000876287
0.000876287
0.000876287
0.000913388
0.000913388
0.000913388
0.000902169
0.000902169
0.000902169
0.00089869
0.00089869
0.00089869
0.000933667
0.000933667
0.000933667
0.00093582
0.00093582
0.00093582
0.000919712
0.000919712
0.000919712
0.000925387
0.000925387
0.000925387
0.000956712
0.000956712
0.000956712
0.000954479
0.000954479
0.000954479
0.000942705
0.000942705
0.000942705
0.000946034
0.000946034
0.000946034
0.000939092
0.000939092
0.000939092
0.000926483
0.000926483
0.000926483
0.000920593
0.000920593
0.000920593
0.000907998
0.000907998
0.000907998
0.000902646
0.000902646
0.000902646
0.000947211
0.000947211
0.000947211
0.000941196
0.000941196
0.000941196
0.000940243
0.000940243
0.000940243
0.000927427
0.000927427
0.000927427
0.000927599
0.000927599
0.000927599
0.000920808
0.000920808
0.000920808
0.000907184
0.000907184
0.000907184
0.000900543
0.000900543
0.000900543
0.000887591
0.000887591
0.000887591
0.000881701
0.000881701
0.000881701
0.000729357
0.000729357
0.000729357
0.000749358
0.000749358
0.000749358
0.000755086
0.000755086
0.000755086
0.000710767
0.000710767
0.000710767
0.000694986
0.000694986
0.000694986
0.00070007
0.00070007
0.00070007
0.000713118
0.000713118
0.000713118
0.000723776
0.000723776
0.000723776
0.000738041
0.000738041
0.000738041
0.00073269
0.00073269
0.00073269
0.000813944
0.000813944
0.000813944
0.000825731
0.000825731
0.000825731
0.000807706
0.000807706
0.000807706
0.000813586
0.000813586
0.000813586
0.000827154
0.000827154
0.000827154
0.00083306
0.00083306
0.00083306
0.000775816
0.000775816
0.000775816
0.000790405
0.000790405
0.000790405
0.000755648
0.000755648
0.000755648
0.000773317
0.000773317
0.000773317
0.000779009
0.000779009
0.000779009
0.000769945
0.000769945
0.000769945
0.000758701
0.000758701
0.000758701
0.000749994
0.000749994
0.000749994
0.000762962
0.000762962
0.000762962
0.000756553
0.000756553
0.000756553
0.000762111
0.000762111
0.000762111
0.000774074
0.000774074
0.000774074
0.000781485
0.000781485
0.000781485
0.000781715
0.000781715
0.000781715
0.000775945
0.000775945
0.000775945
0.000792708
0.000792708
0.000792708
0.000870089
0.000870089
0.000870089
0.000844898
0.000844898
0.000844898
0.000863734
0.000863734
0.000863734
0.000851055
0.000851055
0.000851055
0.000843899
0.000843899
0.000843899
0.000850091
0.000850091
0.000850091
0.000832987
0.000832987
0.000832987
0.000845043
0.000845043
0.000845043
0.000845086
0.000845086
0.000845086
0.000851226
0.000851226
0.000851226
0.000776096
0.000776096
0.000776096
0.000781598
0.000781598
0.000781598
0.000764852
0.000764852
0.000764852
0.000792672
0.000792672
0.000792672
0.000797988
0.000797988
0.000797988
0.000776012
0.000776012
0.000776012
0.000697741
0.000697741
0.000697741
0.000745252
0.000745252
0.000745252
0.000739844
0.000739844
0.000739844
0.000725602
0.000725602
0.000725602
0.000717255
0.000717255
0.000717255
0.000716204
0.000716204
0.000716204
0.000693737
0.000693737
0.000693737
0.00070079
0.00070079
0.00070079
0.000784577
0.000784577
0.000784577
0.000775025
0.000775025
0.000775025
0.000771983
0.000771983
0.000771983
0.000752976
0.000752976
0.000752976
0.00076779
0.00076779
0.00076779
0.000758466
0.000758466
0.000758466
0.000755547
0.000755547
0.000755547
0.000769496
0.000769496
0.000769496
0.000760981
0.000760981
0.000760981
0.000761973
0.000761973
0.000761973
0.000756554
0.000756554
0.000756554
0.000750679
0.000750679
0.000750679
0.000740537
0.000740537
0.000740537
0.000746228
0.000746228
0.000746228
0.000762205
0.000762205
0.000762205
0.000772962
0.000772962
0.000772962
0.000767076
0.000767076
0.000767076
0.000713489
0.000713489
0.000713489
0.000738932
0.000738932
0.000738932
0.000728704
0.000728704
0.000728704
0.000708284
0.000708284
0.000708284
8.07193e-05
8.07193e-05
8.07193e-05
9.16459e-05
9.16459e-05
9.16459e-05
8.71599e-05
8.71599e-05
8.71599e-05
0.000563911
0.000563911
0.000563911
0.000502225
0.000502225
0.000502225
0.000511611
0.000511611
0.000511611
0.000576171
0.000576171
0.000576171
0.000564978
0.000564978
0.000564978
0.000637755
0.000637755
0.000637755
0.000633123
0.000633123
0.000633123
0.000576878
0.000576878
0.000576878
0.000601793
0.000601793
0.000601793
0.000615013
0.000615013
0.000615013
0.00061051
0.00061051
0.00061051
0.00055729
0.00055729
0.00055729
0.000577713
0.000577713
0.000577713
2.55923e-05
2.55923e-05
2.55923e-05
2.39638e-05
2.39638e-05
2.39638e-05
2.49527e-05
2.49527e-05
2.49527e-05
2.59571e-05
2.59571e-05
2.59571e-05
2.84438e-05
2.84438e-05
2.84438e-05
3.0378e-05
3.0378e-05
3.0378e-05
2.52304e-05
2.52304e-05
2.52304e-05
2.71776e-05
2.71776e-05
2.71776e-05
2.639e-05
2.639e-05
2.639e-05
2.76317e-05
2.76317e-05
2.76317e-05
4.26274e-05
4.26274e-05
4.26274e-05
3.76108e-05
3.76108e-05
3.76108e-05
3.49051e-05
3.49051e-05
3.49051e-05
3.86876e-05
3.86876e-05
3.86876e-05
3.96497e-05
3.96497e-05
3.96497e-05
3.59037e-05
3.59037e-05
3.59037e-05
3.42071e-05
3.42071e-05
3.42071e-05
4.35364e-05
4.35364e-05
4.35364e-05
4.14205e-05
4.14205e-05
4.14205e-05
4.71619e-05
4.71619e-05
4.71619e-05
4.84626e-05
4.84626e-05
4.84626e-05
3.32428e-05
3.32428e-05
3.32428e-05
3.00735e-05
3.00735e-05
3.00735e-05
2.95111e-05
2.95111e-05
2.95111e-05
3.09714e-05
3.09714e-05
3.09714e-05
3.65332e-05
3.65332e-05
3.65332e-05
3.39058e-05
3.39058e-05
3.39058e-05
3.22769e-05
3.22769e-05
3.22769e-05
2.77706e-05
2.77706e-05
2.77706e-05
2.91732e-05
2.91732e-05
2.91732e-05
2.82694e-05
2.82694e-05
2.82694e-05
3.03396e-05
3.03396e-05
3.03396e-05
7.13663e-05
7.13663e-05
7.13663e-05
6.54852e-05
6.54852e-05
6.54852e-05
4.98801e-05
4.98801e-05
4.98801e-05
5.52409e-05
5.52409e-05
5.52409e-05
5.99467e-05
5.99467e-05
5.99467e-05
5.68364e-05
5.68364e-05
5.68364e-05
5.36767e-05
5.36767e-05
5.36767e-05
6.36663e-05
6.36663e-05
6.36663e-05
6.15843e-05
6.15843e-05
6.15843e-05
4.5017e-05
4.5017e-05
4.5017e-05
4.74318e-05
4.74318e-05
4.74318e-05
2.25936e-05
2.25936e-05
2.25936e-05
1.44219e-05
1.44219e-05
1.44219e-05
1.54382e-05
1.54382e-05
1.54382e-05
1.69569e-05
1.69569e-05
1.69569e-05
1.63795e-05
1.63795e-05
1.63795e-05
2.3304e-05
2.3304e-05
2.3304e-05
2.27841e-05
2.27841e-05
2.27841e-05
0.000729074
0.000729074
0.000729074
0.000720547
0.000720547
0.000720547
1.49261e-05
1.49261e-05
1.49261e-05
2.62466e-05
2.62466e-05
2.62466e-05
0.000137948
0.000137948
0.000137948
2.98334e-05
2.98334e-05
2.98334e-05
0.000471474
0.000471474
0.000471474
5.9764e-05
5.9764e-05
5.9764e-05
4.29977e-05
4.29977e-05
4.29977e-05
3.18567e-05
3.18567e-05
3.18567e-05
3.24692e-05
3.24692e-05
3.24692e-05
3.63214e-05
3.63214e-05
3.63214e-05
3.46839e-05
3.46839e-05
3.46839e-05
2.4542e-05
2.4542e-05
2.4542e-05
1.77552e-05
1.77552e-05
1.77552e-05
1.61387e-05
1.61387e-05
1.61387e-05
1.6548e-05
1.6548e-05
1.6548e-05
1.59798e-05
1.59798e-05
1.59798e-05
2.6589e-05
2.6589e-05
2.6589e-05
2.95689e-05
2.95689e-05
2.95689e-05
2.83997e-05
2.83997e-05
2.83997e-05
2.45626e-05
2.45626e-05
2.45626e-05
2.39717e-05
2.39717e-05
2.39717e-05
2.51575e-05
2.51575e-05
2.51575e-05
2.59443e-05
2.59443e-05
2.59443e-05
2.87441e-05
2.87441e-05
2.87441e-05
2.66835e-05
2.66835e-05
2.66835e-05
1.03267e-05
1.03267e-05
1.03267e-05
1.08153e-05
1.08153e-05
1.08153e-05
1.27478e-05
1.27478e-05
1.27478e-05
1.15755e-05
1.15755e-05
1.15755e-05
1.21027e-05
1.21027e-05
1.21027e-05
1.09524e-05
1.09524e-05
1.09524e-05
1.11379e-05
1.11379e-05
1.11379e-05
1.17311e-05
1.17311e-05
1.17311e-05
1.21762e-05
1.21762e-05
1.21762e-05
9.51376e-06
9.51376e-06
9.51376e-06
9.38066e-06
9.38066e-06
9.38066e-06
1.11548e-05
1.11548e-05
1.11548e-05