<VTKFile type="UnstructuredGrid" version="1.0">
<UnstructuredGrid>
<Piece NumberOfPoints="10830" NumberOfCells="3610">
<Points>
<DataArray type="Float64" NumberOfComponents="3" format="ascii">
3.10314 1.29552 2.11575
3.11025 1.28841 2.09
3.11025 1.28841 2.14146
3.11025 1.28841 2.64508
3.11025 1.28841 2.696
3.10226 1.2964 2.67053
3.11025 1.28841 2.64508
3.10226 1.2964 2.67053
3.09025 1.30841 2.6451
2.21656 2.1821 3.11759
2.22913 2.16953 3.135
2.19928 2.19938 3.135
2.19928 2.19938 3.135
2.19928 2.19938 3.10484
2.21656 2.1821 3.11759
3.11025 1.28841 2.64508
3.09025 1.30841 2.6451
3.10227 1.29639 2.61968
2.20538 2.19328 2.36679
2.19928 2.19938 2.39201
2.19928 2.19938 2.34157
3.10229 1.29637 2.3669
3.11025 1.28841 2.39209
3.09026 1.3084 2.39211
3.10214 1.29652 2.26634
3.11025 1.28841 2.24128
3.11025 1.28841 2.29139
3.09026 1.3084 2.39211
3.11025 1.28841 2.39209
3.1023 1.29636 2.41732
3.11025 1.28841 2.39209
3.11025 1.28841 2.44254
3.1023 1.29636 2.41732
3.09026 1.3084 2.44255
3.1023 1.29636 2.41732
3.11025 1.28841 2.44254
3.09025 1.30841 2.59431
3.10227 1.29639 2.61968
3.08043 1.31823 2.6197
3.08043 1.31823 2.6197
3.10227 1.29639 2.61968
3.09025 1.30841 2.6451
3.08043 1.31823 2.6197
3.06939 1.32927 2.59432
3.09025 1.30841 2.59431
3.08043 1.31823 2.6197
3.09025 1.30841 2.6451
3.06938 1.32928 2.64512
3.11025 1.28841 2.49304
3.11025 1.28841 2.54362
3.10229 1.29637 2.51833
3.10229 1.29637 2.51833
3.09026 1.3084 2.54363
3.08044 1.31822 2.51834
3.11025 1.28841 2.54362
3.09026 1.3084 2.54363
3.10229 1.29637 2.51833
3.11025 1.28841 2.59429
3.10227 1.29639 2.61968
3.09025 1.30841 2.59431
3.11025 1.28841 2.64508
3.10227 1.29639 2.61968
3.11025 1.28841 2.59429
3.0901 1.30856 2.24132
3.11025 1.28841 2.24128
3.10214 1.29652 2.26634
3.09024 1.30842 2.69602
3.10226 1.2964 2.67053
3.11025 1.28841 2.696
2.80657 1.59209 2.87575
2.81699 1.58167 2.84998
2.8274 1.57126 2.87572
2.19928 2.19938 2.09
2.21889 2.17977 2.09
2.20626 2.1924 2.11471
2.25868 2.13998 2.34159
2.23814 2.16052 2.34157
2.24806 2.1506 2.31637
2.21801 2.18065 2.34156
2.23814 2.16052 2.34157
2.22704 2.17162 2.36678
2.21801 2.18065 2.34156
2.20538 2.19328 2.36679
2.19928 2.19938 2.34157
2.22704 2.17162 2.36678
2.20538 2.19328 2.36679
2.21801 2.18065 2.34156
2.20547 2.19319 2.56894
2.19928 2.19938 2.5943
2.19928 2.19938 2.54361
2.21807 2.1806 2.5943
2.22712 2.17155 2.56893
2.23821 2.16045 2.59429
2.19928 2.19938 2.5943
2.20547 2.19319 2.56894
2.21807 2.1806 2.5943
2.21807 2.1806 2.5943
2.20547 2.19319 2.56894
2.22712 2.17155 2.56893
2.21805 2.18061 2.5436
2.2382 2.16046 2.5436
2.22712 2.17155 2.56893
2.21805 2.18061 2.5436
2.20547 2.19319 2.56894
2.19928 2.19938 2.54361
2.22712 2.17155 2.56893
2.20547 2.19319 2.56894
2.21805 2.18061 2.5436
2.19928 2.19938 2.39201
2.20538 2.19328 2.36679
2.21802 2.18064 2.392
2.21802 2.18064 2.392
2.20538 2.19328 2.36679
2.22704 2.17162 2.36678
2.23821 2.16045 2.59429
2.22712 2.17155 2.56893
2.24816 2.15051 2.56893
2.22712 2.17155 2.56893
2.2382 2.16046 2.5436
2.24816 2.15051 2.56893
2.40353 1.99513 2.54367
2.41386 1.9848 2.56901
2.3932 2.00546 2.569
2.3932 2.00546 2.569
2.41386 1.9848 2.56901
2.40354 1.99512 2.59437
2.40354 1.99512 2.59437
2.41386 1.9848 2.56901
2.4242 1.97446 2.59438
2.79618 1.60248 2.85
2.81699 1.58167 2.84998
2.80657 1.59209 2.87575
3.10224 1.29642 2.31656
3.11025 1.28841 2.29139
3.11025 1.28841 2.3417
3.11025 1.28841 2.39209
3.10229 1.29637 2.3669
3.11025 1.28841 2.3417
3.02715 1.37151 2.4931
3.006 1.39266 2.49311
3.01659 1.38207 2.46785
3.09026 1.3084 2.49305
3.10229 1.29637 2.51833
3.08044 1.31822 2.51834
3.11025 1.28841 2.49304
3.10229 1.29637 2.51833
3.09026 1.3084 2.49305
3.08044 1.31822 2.51834
3.09026 1.3084 2.54363
3.0694 1.32926 2.54365
3.10228 1.29638 2.56895
3.09026 1.3084 2.54363
3.11025 1.28841 2.54362
3.11025 1.28841 2.54362
3.11025 1.28841 2.59429
3.10228 1.29638 2.56895
3.10228 1.29638 2.56895
3.11025 1.28841 2.59429
3.09025 1.30841 2.59431
3.08027 1.31839 2.26637
3.0901 1.30856 2.24132
3.10214 1.29652 2.26634
3.10224 1.29642 2.31656
3.11025 1.28841 2.3417
3.09024 1.30842 2.34174
3.09024 1.30842 2.34174
3.11025 1.28841 2.3417
3.10229 1.29637 2.3669
3.0165 1.38216 2.31661
3.00588 1.39278 2.29143
3.02702 1.37164 2.29143
3.04817 1.35049 2.29145
3.03759 1.36107 2.26626
3.05884 1.33982 2.26631
3.04817 1.35049 2.29145
3.02702 1.37164 2.29143
3.03759 1.36107 2.26626
3.08043 1.31823 2.36693
3.10229 1.29637 2.3669
3.09026 1.3084 2.39211
3.08043 1.31823 2.36693
3.09024 1.30842 2.34174
3.10229 1.29637 2.3669
3.08042 1.31824 2.67055
3.09025 1.30841 2.6451
3.10226 1.2964 2.67053
3.10226 1.2964 2.67053
3.09024 1.30842 2.69602
3.08042 1.31824 2.67055
3.06938 1.32928 2.64512
3.09025 1.30841 2.6451
3.08042 1.31824 2.67055
3.08041 1.31825 2.82405
3.05901 1.33965 2.82406
3.06938 1.32928 2.79837
3.05901 1.33966 2.77274
3.08041 1.31825 2.77272
3.06938 1.32928 2.79837
3.10225 1.29641 2.72153
3.09024 1.30842 2.69602
3.11025 1.28841 2.696
3.08041 1.31825 2.72156
3.09024 1.30842 2.69602
3.10225 1.29641 2.72153
2.84822 1.55044 2.92732
2.85863 1.54003 2.95316
2.83776 1.5609 2.9532
2.96373 1.43493 2.79843
2.97428 1.42438 2.77279
2.98483 1.41383 2.79841
2.98483 1.41383 2.79841
2.97428 1.42438 2.77279
2.9954 1.40326 2.77278
3.06938 1.32929 2.74713
3.05901 1.33965 2.72158
3.08041 1.31825 2.72156
3.06938 1.32929 2.74713
3.08041 1.31825 2.77272
3.05901 1.33966 2.77274
2.95319 1.44547 2.77281
2.97428 1.42438 2.77279
2.96373 1.43493 2.79843
2.90067 1.49799 2.54374
2.87971 1.51895 2.54374
2.89018 1.50848 2.51844
2.84833 1.55033 2.51844
2.83789 1.56077 2.54375
2.82746 1.5712 2.51844
2.85878 1.53988 2.54375
2.83789 1.56077 2.54375
2.84833 1.55033 2.51844
2.83788 1.56078 2.44265
2.85877 1.53989 2.44265
2.84833 1.55034 2.46789
2.84833 1.55034 2.46789
2.82745 1.57121 2.46789
2.83788 1.56078 2.44265
2.83788 1.56078 2.44265
2.82745 1.57121 2.46789
2.81702 1.58164 2.44264
2.84833 1.55034 2.46789
2.85877 1.53989 2.44265
2.86924 1.52943 2.4679
2.87968 1.51898 2.39223
2.89017 1.50849 2.41744
2.86922 1.52944 2.41743
2.86922 1.52944 2.41743
2.85875 1.53991 2.39223
2.87968 1.51898 2.39223
2.72357 1.6751 2.56909
2.73392 1.66474 2.54375
2.74429 1.65437 2.56909
2.73392 1.66474 2.54375
2.75466 1.644 2.54375
2.74429 1.65437 2.56909
2.83789 1.56077 2.49316
2.82745 1.57121 2.46789
2.84833 1.55034 2.46789
2.83789 1.56077 2.49316
2.84833 1.55033 2.51844
2.82746 1.5712 2.51844
2.82746 1.5712 2.51844
2.80662 1.59204 2.51844
2.81703 1.58163 2.49315
2.81703 1.58163 2.49315
2.83789 1.56077 2.49316
2.82746 1.5712 2.51844
2.82745 1.57121 2.46789
2.83789 1.56077 2.49316
2.81703 1.58163 2.49315
2.81702 1.58164 2.44264
2.7962 1.60246 2.44264
2.8066 1.59206 2.41741
2.79618 1.60248 2.39219
2.81701 1.58166 2.39221
2.8066 1.59206 2.41741
2.42419 1.97447 2.54368
2.41386 1.9848 2.56901
2.40353 1.99513 2.54367
2.40353 1.99513 2.54367
2.41385 1.98481 2.51836
2.42419 1.97447 2.54368
2.20539 2.19327 2.16487
2.19928 2.19938 2.19009
2.19928 2.19938 2.13942
2.19928 2.19938 2.09
2.20626 2.1924 2.11471
2.19928 2.19938 2.13942
2.21797 2.1807 2.2407
2.19928 2.19938 2.24067
2.20528 2.19338 2.21542
2.19928 2.19938 2.24067
2.19928 2.19938 2.19009
2.20528 2.19338 2.21542
3.11025 1.28841 2.09
3.10314 1.29552 2.11575
3.0911 1.30756 2.09
2.19928 2.19938 2.34157
2.19928 2.19938 2.29114
2.20536 2.19331 2.31636
2.20536 2.19331 2.31636
2.21801 2.18065 2.34156
2.19928 2.19938 2.34157
2.21799 2.18067 2.29113
2.20536 2.19331 2.31636
2.19928 2.19938 2.29114
2.21799 2.18067 2.29113
2.22698 2.17168 2.26594
2.23811 2.16055 2.29116
2.22702 2.17165 2.31635
2.24806 2.1506 2.31637
2.23814 2.16052 2.34157
2.23814 2.16052 2.34157
2.21801 2.18065 2.34156
2.22702 2.17165 2.31635
2.23811 2.16055 2.29116
2.24806 2.1506 2.31637
2.22702 2.17165 2.31635
2.22702 2.17165 2.31635
2.21799 2.18067 2.29113
2.23811 2.16055 2.29116
2.21801 2.18065 2.34156
2.20536 2.19331 2.31636
2.22702 2.17165 2.31635
2.20536 2.19331 2.31636
2.21799 2.18067 2.29113
2.22702 2.17165 2.31635
2.20532 2.19334 2.26591
2.19928 2.19938 2.29114
2.19928 2.19938 2.24067
2.20532 2.19334 2.26591
2.19928 2.19938 2.24067
2.21797 2.1807 2.2407
2.21797 2.1807 2.2407
2.22698 2.17168 2.26594
2.20532 2.19334 2.26591
2.20532 2.19334 2.26591
2.21799 2.18067 2.29113
2.19928 2.19938 2.29114
2.22698 2.17168 2.26594
2.21799 2.18067 2.29113
2.20532 2.19334 2.26591
2.24814 2.15052 2.51829
2.2382 2.16046 2.5436
2.2271 2.17156 2.51829
2.2382 2.16046 2.5436
2.21805 2.18061 2.5436
2.2271 2.17156 2.51829
2.2271 2.17156 2.51829
2.23819 2.16048 2.493
2.24814 2.15052 2.51829
2.24809 2.15058 2.36679
2.23814 2.16052 2.34157
2.25868 2.13998 2.34159
2.22704 2.17162 2.36678
2.23814 2.16052 2.34157
2.24809 2.15058 2.36679
2.26891 2.12975 2.3668
2.24809 2.15058 2.36679
2.25868 2.13998 2.34159
2.2587 2.13996 2.39201
2.24809 2.15058 2.36679
2.26891 2.12975 2.3668
2.2587 2.13996 2.39201
2.26891 2.12975 2.3668
2.27936 2.1193 2.39202
2.41384 1.98482 2.4678
2.42418 1.97448 2.49307
2.40352 1.99515 2.49307
2.40352 1.99515 2.49307
2.42418 1.97448 2.49307
2.41385 1.98481 2.51836
2.33114 2.06753 2.51832
2.35183 2.04683 2.51833
2.34149 2.05717 2.54363
2.34148 2.05718 2.49304
2.35183 2.04683 2.51833
2.33114 2.06753 2.51832
2.35182 2.04684 2.46777
2.34147 2.05719 2.44252
2.36216 2.03651 2.44253
2.34148 2.05718 2.49304
2.33112 2.06754 2.46776
2.35182 2.04684 2.46777
2.35182 2.04684 2.46777
2.33112 2.06754 2.46776
2.34147 2.05719 2.44252
2.35184 2.04682 2.56898
2.37253 2.02613 2.56899
2.3622 2.03646 2.59434
2.31047 2.08819 2.6197
2.32082 2.07785 2.59432
2.33117 2.06749 2.61971
2.3208 2.07786 2.54362
2.33114 2.06753 2.51832
2.34149 2.05717 2.54363
2.31043 2.08823 2.51831
2.33114 2.06753 2.51832
2.3208 2.07786 2.54362
2.23821 2.16045 2.59429
2.24816 2.15051 2.56893
2.25876 2.1399 2.59429
2.24814 2.15052 2.51829
2.23819 2.16048 2.493
2.25873 2.13993 2.493
2.25873 2.13993 2.493
2.26896 2.1297 2.51829
2.24814 2.15052 2.51829
2.30008 2.09858 2.49301
2.31043 2.08823 2.51831
2.28971 2.10895 2.5183
2.25874 2.13992 2.5436
2.24816 2.15051 2.56893
2.2382 2.16046 2.5436
2.25874 2.13992 2.5436
[...]
<PointData Scalars="View Factor" >
<DataArray type="Float64" Name="View Factor" NumberOfComponents="1" format="ascii">
7.83031e-05
7.83031e-05
7.83031e-05
9.0254e-05
9.0254e-05
9.0254e-05
8.9329e-05
8.9329e-05
8.9329e-05
1.20342e-05
1.20342e-05
1.20342e-05
8.43449e-06
8.43449e-06
8.43449e-06
8.89299e-05
8.89299e-05
8.89299e-05
1.11263e-05
1.11263e-05
1.11263e-05
8.33051e-05
8.33051e-05
8.33051e-05
8.13232e-05
8.13232e-05
8.13232e-05
8.36707e-05
8.36707e-05
8.36707e-05
8.45271e-05
8.45271e-05
8.45271e-05
8.43936e-05
8.43936e-05
8.43936e-05
8.75698e-05
8.75698e-05
8.75698e-05
8.79537e-05
8.79537e-05
8.79537e-05
8.65221e-05
8.65221e-05
8.65221e-05
8.72836e-05
8.72836e-05
8.72836e-05
8.67559e-05
8.67559e-05
8.67559e-05
8.56723e-05
8.56723e-05
8.56723e-05
8.6622e-05
8.6622e-05
8.6622e-05
8.81572e-05
8.81572e-05
8.81572e-05
8.9066e-05
8.9066e-05
8.9066e-05
8.05001e-05
8.05001e-05
8.05001e-05
9.01209e-05
9.01209e-05
9.01209e-05
2.76954e-06
2.76954e-06
2.76954e-06
7.76891e-06
7.76891e-06
7.76891e-06
2.81035e-05
2.81035e-05
2.81035e-05
3.00886e-05
3.00886e-05
3.00886e-05
1.20354e-05
1.20354e-05
1.20354e-05
1.65527e-05
1.65527e-05
1.65527e-05
2.13096e-05
2.13096e-05
2.13096e-05
3.56772e-05
3.56772e-05
3.56772e-05
2.29914e-05
2.29914e-05
2.29914e-05
2.86668e-05
2.86668e-05
2.86668e-05
3.56518e-05
3.56518e-05
3.56518e-05
2.20092e-05
2.20092e-05
2.20092e-05
2.81665e-05
2.81665e-05
2.81665e-05
1.30785e-05
1.30785e-05
1.30785e-05
1.74068e-05
1.74068e-05
1.74068e-05
3.51148e-05
3.51148e-05
3.51148e-05
3.51074e-05
3.51074e-05
3.51074e-05
1.76869e-05
1.76869e-05
1.76869e-05
1.77487e-05
1.77487e-05
1.77487e-05
1.74834e-05
1.74834e-05
1.74834e-05
2.72119e-06
2.72119e-06
2.72119e-06
8.23729e-05
8.23729e-05
8.23729e-05
8.3441e-05
8.3441e-05
8.3441e-05
7.85335e-05
7.85335e-05
7.85335e-05
8.53026e-05
8.53026e-05
8.53026e-05
8.58734e-05
8.58734e-05
8.58734e-05
8.50175e-05
8.50175e-05
8.50175e-05
8.70041e-05
8.70041e-05
8.70041e-05
8.79003e-05
8.79003e-05
8.79003e-05
8.77675e-05
8.77675e-05
8.77675e-05
7.9954e-05
7.9954e-05
7.9954e-05
8.22401e-05
8.22401e-05
8.22401e-05
8.25982e-05
8.25982e-05
8.25982e-05
7.48999e-05
7.48999e-05
7.48999e-05
7.71788e-05
7.71788e-05
7.71788e-05
7.64274e-05
7.64274e-05
7.64274e-05
8.2397e-05
8.2397e-05
8.2397e-05
8.20428e-05
8.20428e-05
8.20428e-05
8.87363e-05
8.87363e-05
8.87363e-05
8.91302e-05
8.91302e-05
8.91302e-05
8.76724e-05
8.76724e-05
8.76724e-05
9.06124e-05
9.06124e-05
9.06124e-05
8.97986e-05
8.97986e-05
8.97986e-05
9.05279e-05
9.05279e-05
9.05279e-05
8.99268e-05
8.99268e-05
8.99268e-05
4.95329e-05
4.95329e-05
4.95329e-05
8.08285e-05
8.08285e-05
8.08285e-05
8.16911e-05
8.16911e-05
8.16911e-05
8.86018e-05
8.86018e-05
8.86018e-05
8.93941e-05
8.93941e-05
8.93941e-05
7.95454e-05
7.95454e-05
7.95454e-05
6.47145e-05
6.47145e-05
6.47145e-05
3.13946e-05
3.13946e-05
3.13946e-05
4.34118e-05
4.34118e-05
4.34118e-05
4.22938e-05
4.22938e-05
4.22938e-05
3.66826e-05
3.66826e-05
3.66826e-05
1.66338e-05
1.66338e-05
1.66338e-05
5.08951e-05
5.08951e-05
5.08951e-05
5.95573e-05
5.95573e-05
5.95573e-05
5.56079e-05
5.56079e-05
5.56079e-05
2.25668e-05
2.25668e-05
2.25668e-05
2.25924e-05
2.25924e-05
2.25924e-05
3.54278e-05
3.54278e-05
3.54278e-05
3.28334e-05
3.28334e-05
3.28334e-05
2.13305e-05
2.13305e-05
2.13305e-05
2.07111e-05
2.07111e-05
2.07111e-05
1.92397e-05
1.92397e-05
1.92397e-05
1.51372e-05
1.51372e-05
1.51372e-05
1.32362e-05
1.32362e-05
1.32362e-05
1.7346e-05
1.7346e-05
1.7346e-05
1.64759e-05
1.64759e-05
1.64759e-05
7.09524e-06
7.09524e-06
7.09524e-06
6.63649e-06
6.63649e-06
6.63649e-06
9.4424e-06
9.4424e-06
9.4424e-06
7.80833e-06
7.80833e-06
7.80833e-06
7.75311e-05
7.75311e-05
7.75311e-05
9.76681e-06
9.76681e-06
9.76681e-06
1.15737e-05
1.15737e-05
1.15737e-05
1.07584e-05
1.07584e-05
1.07584e-05
2.8935e-05
2.8935e-05
2.8935e-05
2.88394e-05
2.88394e-05
2.88394e-05
2.97554e-05
2.97554e-05
2.97554e-05
2.85273e-05
2.85273e-05
2.85273e-05
2.92093e-05
2.92093e-05
2.92093e-05
1.4944e-05
1.4944e-05
1.4944e-05
1.42391e-05
1.42391e-05
1.42391e-05
8.6743e-06
8.6743e-06
8.6743e-06
9.73842e-06
9.73842e-06
9.73842e-06
1.25503e-05
1.25503e-05
1.25503e-05
1.03938e-05
1.03938e-05
1.03938e-05
1.30173e-05
1.30173e-05
1.30173e-05
3.42361e-05
3.42361e-05
3.42361e-05
3.52184e-05
3.52184e-05
3.52184e-05
3.35928e-05
3.35928e-05
3.35928e-05
2.84373e-05
2.84373e-05
2.84373e-05
2.94605e-05
2.94605e-05
2.94605e-05
2.76725e-05
2.76725e-05
2.76725e-05
2.80444e-05
2.80444e-05
2.80444e-05
2.69797e-05
2.69797e-05
2.69797e-05
1.31694e-05
1.31694e-05
1.31694e-05
1.42038e-05
1.42038e-05
1.42038e-05
1.58955e-05
1.58955e-05
1.58955e-05
1.47336e-05
1.47336e-05
1.47336e-05
1.14127e-05
1.14127e-05
1.14127e-05
1.26657e-05
1.26657e-05
1.26657e-05
1.18431e-05
1.18431e-05
1.18431e-05
1.79026e-05
1.79026e-05
1.79026e-05
1.64699e-05
1.64699e-05
1.64699e-05
1.64581e-05
1.64581e-05
1.64581e-05
1.58978e-05
1.58978e-05
1.58978e-05
3.41795e-05
3.41795e-05
3.41795e-05
3.24598e-05
3.24598e-05
3.24598e-05
3.19715e-05
3.19715e-05
3.19715e-05
1.47207e-05
1.47207e-05
1.47207e-05
3.41971e-05
3.41971e-05
3.41971e-05
3.37483e-05
3.37483e-05
3.37483e-05
3.26455e-05
3.26455e-05
3.26455e-05
8.59082e-06
8.59082e-06
8.59082e-06
6.31693e-06
6.31693e-06
6.31693e-06
8.90597e-06
8.90597e-06
8.90597e-06
1.73602e-05
1.73602e-05
1.73602e-05
1.77175e-05
1.77175e-05
1.77175e-05
1.67126e-05
1.67126e-05
1.67126e-05
1.75801e-05
1.75801e-05
1.75801e-05
1.76794e-05
1.76794e-05
1.76794e-05
1.7825e-05
1.7825e-05
1.7825e-05
1.65652e-05
1.65652e-05
1.65652e-05
1.59594e-05
1.59594e-05
1.59594e-05
1.33046e-05
1.33046e-05
1.33046e-05
1.42878e-05
1.42878e-05
1.42878e-05
1.46353e-05
1.46353e-05
1.46353e-05
1.61327e-05
1.61327e-05
1.61327e-05
7.68635e-06
7.68635e-06
7.68635e-06
4.20578e-06
4.20578e-06
4.20578e-06
3.42409e-06
3.42409e-06
3.42409e-06
1.78611e-06
1.78611e-06
1.78611e-06
2.17424e-06
2.17424e-06
2.17424e-06
1.41186e-05
1.41186e-05
1.41186e-05
1.6421e-05
1.6421e-05
1.6421e-05
1.57975e-05
1.57975e-05
1.57975e-05
2.45483e-06
2.45483e-06
2.45483e-06
2.50163e-06
2.50163e-06
2.50163e-06
2.70245e-06
2.70245e-06
2.70245e-06
2.65462e-06
2.65462e-06
2.65462e-06
2.37517e-06
2.37517e-06
2.37517e-06
2.36475e-06
2.36475e-06
2.36475e-06
2.15645e-06
2.15645e-06
2.15645e-06
2.57547e-06
2.57547e-06
2.57547e-06
4.13059e-06
4.13059e-06
4.13059e-06
3.99715e-06
3.99715e-06
3.99715e-06
4.35204e-06
4.35204e-06
4.35204e-06
4.37214e-06
4.37214e-06
4.37214e-06
3.7865e-06
3.7865e-06
3.7865e-06
3.77226e-06
3.77226e-06
3.77226e-06
3.89991e-06
3.89991e-06
3.89991e-06
4.11708e-06
4.11708e-06
4.11708e-06
4.01352e-06
4.01352e-06
4.01352e-06
3.88349e-06
3.88349e-06
3.88349e-06
3.72777e-06
3.72777e-06
3.72777e-06
4.50333e-06
4.50333e-06
4.50333e-06
4.23688e-06
4.23688e-06
4.23688e-06
4.25281e-06
4.25281e-06
4.25281e-06
4.48087e-06
4.48087e-06
4.48087e-06
4.63494e-06
4.63494e-06
4.63494e-06
5.16101e-06
5.16101e-06
5.16101e-06
8.95322e-05
8.95322e-05
8.95322e-05
7.0731e-05
7.0731e-05
7.0731e-05
7.30665e-05
7.30665e-05
7.30665e-05
7.71141e-05
7.71141e-05
7.71141e-05
7.54835e-05
7.54835e-05
7.54835e-05
8.48709e-05
8.48709e-05
8.48709e-05
8.62723e-05
8.62723e-05
8.62723e-05
8.58983e-05
8.58983e-05
8.58983e-05
8.41908e-05
8.41908e-05
8.41908e-05
6.1942e-05
6.1942e-05
6.1942e-05
6.22535e-05
6.22535e-05
6.22535e-05
6.38192e-05
6.38192e-05
6.38192e-05
7.76155e-05
7.76155e-05
7.76155e-05
7.65217e-05
7.65217e-05
7.65217e-05
8.5498e-05
8.5498e-05
8.5498e-05
8.45617e-05
8.45617e-05
8.45617e-05
8.56318e-05
8.56318e-05
8.56318e-05
8.47626e-05
8.47626e-05
8.47626e-05
8.41985e-05
8.41985e-05
8.41985e-05
8.34513e-05
8.34513e-05
8.34513e-05
8.44967e-05
8.44967e-05
8.44967e-05
8.61408e-05
8.61408e-05
8.61408e-05
8.53922e-05
8.53922e-05
8.53922e-05
8.51425e-05
8.51425e-05
8.51425e-05
8.47731e-05
8.47731e-05
8.47731e-05
8.68055e-05
8.68055e-05
8.68055e-05
8.64265e-05
8.64265e-05
8.64265e-05
8.154e-05
8.154e-05
8.154e-05
8.11875e-05
8.11875e-05
8.11875e-05
8.02992e-05
8.02992e-05
8.02992e-05
8.01587e-05
8.01587e-05
8.01587e-05
7.45789e-05
7.45789e-05
7.45789e-05
7.53358e-05
7.53358e-05
7.53358e-05
8.10636e-05
8.10636e-05
8.10636e-05
7.91767e-05
7.91767e-05
7.91767e-05
8.04755e-05
8.04755e-05
8.04755e-05
7.95162e-05
7.95162e-05
7.95162e-05
8.84513e-05
8.84513e-05
8.84513e-05
8.88475e-05
8.88475e-05
8.88475e-05
8.82104e-05
8.82104e-05
8.82104e-05
9.10229e-05
9.10229e-05
9.10229e-05
8.78749e-05
8.78749e-05
8.78749e-05
7.76758e-05
7.76758e-05
7.76758e-05
2.93229e-06
2.93229e-06
2.93229e-06
2.69621e-06
2.69621e-06
2.69621e-06
2.78793e-06
2.78793e-06
2.78793e-06
8.11857e-05
8.11857e-05
8.11857e-05
8.19169e-05
8.19169e-05
8.19169e-05
8.71472e-05
8.71472e-05
8.71472e-05
8.67527e-05
8.67527e-05
8.67527e-05
7.11144e-05
7.11144e-05
7.11144e-05
7.57694e-05
7.57694e-05
7.57694e-05
7.33998e-05
7.33998e-05
7.33998e-05
7.44685e-05
7.44685e-05
7.44685e-05
7.61222e-05
7.61222e-05
7.61222e-05
7.4716e-05
7.4716e-05
7.4716e-05
7.35923e-05
7.35923e-05
7.35923e-05
8.96432e-05
8.96432e-05
8.96432e-05
9.00399e-05
9.00399e-05
9.00399e-05
9.03262e-05
9.03262e-05
9.03262e-05
8.95234e-05
8.95234e-05
8.95234e-05
8.88085e-05
8.88085e-05
8.88085e-05
8.91187e-05
8.91187e-05
8.91187e-05
8.80085e-05
8.80085e-05
8.80085e-05
8.76148e-05
8.76148e-05
8.76148e-05
8.72211e-05
8.72211e-05
8.72211e-05
7.07969e-05
7.07969e-05
7.07969e-05
7.16493e-05
7.16493e-05
7.16493e-05
7.19741e-05
7.19741e-05
7.19741e-05
6.40668e-05
6.40668e-05
6.40668e-05
2.40446e-05
2.40446e-05
2.40446e-05
2.29702e-05
2.29702e-05
2.29702e-05
4.36377e-05
4.36377e-05
4.36377e-05
2.07017e-05
2.07017e-05
2.07017e-05
1.9842e-05
1.9842e-05
1.9842e-05
2.4435e-05
2.4435e-05
2.4435e-05
2.44379e-05
2.44379e-05
2.44379e-05
2.34518e-05
2.34518e-05
2.34518e-05
2.23981e-05
2.23981e-05
2.23981e-05
2.38215e-05
2.38215e-05
2.38215e-05
2.28609e-05
2.28609e-05
2.28609e-05
2.40585e-05
2.40585e-05
2.40585e-05
2.38252e-05
2.38252e-05
2.38252e-05
2.18031e-05
2.18031e-05
2.18031e-05
2.03627e-05
2.03627e-05
2.03627e-05
2.1251e-05
2.1251e-05
2.1251e-05
2.32232e-05
2.32232e-05
2.32232e-05
5.19424e-05
5.19424e-05
5.19424e-05
5.78279e-05
5.78279e-05
5.78279e-05
6.16346e-05
6.16346e-05
6.16346e-05
6.13326e-05
6.13326e-05
6.13326e-05
3.75601e-06
3.75601e-06
3.75601e-06
1.79658e-05
1.79658e-05
1.79658e-05
4.80544e-06
4.80544e-06
4.80544e-06
1.55167e-05
1.55167e-05
1.55167e-05
1.35671e-05
1.35671e-05
1.35671e-05
1.48078e-05
1.48078e-05
1.48078e-05
1.3866e-05
1.3866e-05
1.3866e-05
4.20709e-05
4.20709e-05
4.20709e-05
3.81374e-05
3.81374e-05
3.81374e-05
3.8068e-05
3.8068e-05
3.8068e-05
4.2091e-05
4.2091e-05
4.2091e-05
5.04274e-05
5.04274e-05
5.04274e-05
5.01615e-05
5.01615e-05
5.01615e-05
6.07277e-05
6.07277e-05
6.07277e-05
6.37638e-05
6.37638e-05
6.37638e-05
1.72873e-05
1.72873e-05
1.72873e-05
1.60717e-05
1.60717e-05
1.60717e-05
1.6227e-05
1.6227e-05
1.6227e-05
1.68837e-05
1.68837e-05
1.68837e-05
1.78496e-05
1.78496e-05
1.78496e-05
1.81853e-05
1.81853e-05
1.81853e-05
1.34125e-05
1.34125e-05
1.34125e-05
1.43162e-05
1.43162e-05
1.43162e-05
1.29951e-05
1.29951e-05
1.29951e-05
1.11973e-05
1.11973e-05
1.11973e-05
9.79893e-06
9.79893e-06
9.79893e-06
1.08486e-05
1.08486e-05
1.08486e-05
2.16828e-05
2.16828e-05
2.16828e-05
1.86984e-05
1.86984e-05
1.86984e-05
1.92153e-05
1.92153e-05
1.92153e-05
2.06906e-05
2.06906e-05
2.06906e-05
2.2023e-05
2.2023e-05
2.2023e-05
2.2218e-05
2.2218e-05
2.2218e-05
1.81925e-05
1.81925e-05
1.81925e-05
2.19795e-05
2.19795e-05
2.19795e-05
2.10965e-05
2.10965e-05
2.10965e-05
1.73566e-05
1.73566e-05
1.73566e-05
1.29058e-05
1.29058e-05
1.29058e-05
1.35243e-05
1.35243e-05
1.35243e-05
1.4427e-05
1.4427e-05
1.4427e-05
2.0203e-05
2.0203e-05
2.0203e-05
2.08004e-05
2.08004e-05
2.08004e-05
1.82963e-05
1.82963e-05
1.82963e-05
1.9712e-05
1.9712e-05
1.9712e-05
9.34413e-06
9.34413e-06
9.34413e-06
1.06384e-05
1.06384e-05
1.06384e-05
1.14177e-05
1.14177e-05
1.14177e-05
1.18545e-05
1.18545e-05
1.18545e-05
9.33621e-06
9.33621e-06
9.33621e-06
1.03121e-05
1.03121e-05
1.03121e-05
9.62798e-06
9.62798e-06
9.62798e-06
2.62849e-05
2.62849e-05
2.62849e-05
2.70355e-05
2.70355e-05
2.70355e-05
2.5955e-05
2.5955e-05
2.5955e-05
1.18817e-05
1.18817e-05
1.18817e-05
1.26837e-05
1.26837e-05
1.26837e-05
1.67263e-05
1.67263e-05
1.67263e-05
1.76037e-05
1.76037e-05
1.76037e-05
1.83273e-05
1.83273e-05
1.83273e-05
1.82499e-05
1.82499e-05
1.82499e-05
1.78595e-05
1.78595e-05
1.78595e-05
1.7962e-05
1.7962e-05
1.7962e-05
7.17532e-05
7.17532e-05
7.17532e-05
7.70341e-05
7.70341e-05
7.70341e-05
7.6143e-05
7.6143e-05
7.6143e-05
6.73685e-05
6.73685e-05
6.73685e-05
7.21167e-05
7.21167e-05
7.21167e-05
7.18247e-05
7.18247e-05
7.18247e-05
6.86939e-05
6.86939e-05
6.86939e-05
6.80943e-05
6.80943e-05
6.80943e-05
1.96674e-05
1.96674e-05
1.96674e-05
2.24288e-05
2.24288e-05
2.24288e-05
1.82227e-05
1.82227e-05
1.82227e-05
2.08944e-05
2.08944e-05
2.08944e-05
2.59631e-05
2.59631e-05
2.59631e-05
1.51816e-05
1.51816e-05
1.51816e-05
1.58e-05
1.58e-05
1.58e-05
3.24109e-05
3.24109e-05
3.24109e-05
2.17799e-05
2.17799e-05
2.17799e-05
1.36771e-05
1.36771e-05
1.36771e-05
1.28748e-05
1.28748e-05
1.28748e-05
1.50095e-05
1.50095e-05
1.50095e-05
1.91168e-05
1.91168e-05
1.91168e-05
1.99974e-05
1.99974e-05
1.99974e-05
3.19577e-05
3.19577e-05
3.19577e-05
3.09756e-05
3.09756e-05
3.09756e-05
2.88043e-05
2.88043e-05
2.88043e-05
2.73763e-05
2.73763e-05
2.73763e-05
3.07694e-05
3.07694e-05
3.07694e-05
2.9822e-05
2.9822e-05
2.9822e-05
3.11489e-05
3.11489e-05
3.11489e-05
3.05561e-05
3.05561e-05
3.05561e-05
2.9131e-05
2.9131e-05
2.9131e-05
2.95218e-05
2.95218e-05
2.95218e-05
3.19343e-05
3.19343e-05
3.19343e-05
3.24193e-05
3.24193e-05
3.24193e-05
3.18682e-05
3.18682e-05
3.18682e-05
3.07433e-05
3.07433e-05
3.07433e-05
1.31584e-05
1.31584e-05
1.31584e-05
1.26775e-05
1.26775e-05
1.26775e-05
1.18621e-05
1.18621e-05
1.18621e-05
1.26766e-05
1.26766e-05
1.26766e-05
1.59184e-05
1.59184e-05
1.59184e-05
1.47733e-05
1.47733e-05
1.47733e-05
1.64662e-05
1.64662e-05
1.64662e-05
1.41941e-05
1.41941e-05
1.41941e-05
1.47615e-05
1.47615e-05
1.47615e-05
1.59085e-05
1.59085e-05
1.59085e-05
1.47259e-05
1.47259e-05
1.47259e-05
1.26625e-05
1.26625e-05
1.26625e-05
1.41744e-05
1.41744e-05
1.41744e-05
1.31341e-05
1.31341e-05
1.31341e-05
1.41708e-05
1.41708e-05
1.41708e-05
1.31286e-05
1.31286e-05
1.31286e-05
1.77742e-05
1.77742e-05
1.77742e-05
1.74127e-05
1.74127e-05
1.74127e-05
1.77809e-05
1.77809e-05
1.77809e-05
1.70291e-05
1.70291e-05
1.70291e-05
1.78845e-05
1.78845e-05
1.78845e-05
1.7983e-05
1.7983e-05
1.7983e-05
1.63e-05
1.63e-05
1.63e-05
1.68628e-05
1.68628e-05
1.68628e-05
1.08535e-05
1.08535e-05
1.08535e-05
1.18285e-05
1.18285e-05
1.18285e-05
1.38401e-05
1.38401e-05
1.38401e-05
1.48117e-05
1.48117e-05
1.48117e-05
1.40188e-05
1.40188e-05
1.40188e-05
1.10403e-05
1.10403e-05
1.10403e-05
1.20077e-05
1.20077e-05
1.20077e-05
1.71841e-05
1.71841e-05
1.71841e-05
2.97949e-05
2.97949e-05
2.97949e-05
2.42218e-05
2.42218e-05
2.42218e-05
3.04171e-05
3.04171e-05
3.04171e-05
2.92912e-05
2.92912e-05
2.92912e-05
3.35221e-05
3.35221e-05
3.35221e-05
3.35385e-05
3.35385e-05
3.35385e-05
3.09548e-05
3.09548e-05
3.09548e-05
3.22331e-05
3.22331e-05
3.22331e-05
3.00179e-05
3.00179e-05
3.00179e-05
3.17719e-05
3.17719e-05
3.17719e-05
8.77326e-06
8.77326e-06
8.77326e-06
2.02261e-05
2.02261e-05
2.02261e-05
7.54798e-06
7.54798e-06
7.54798e-06
2.5923e-05
2.5923e-05
2.5923e-05
2.70961e-05
2.70961e-05
2.70961e-05
1.93184e-05
1.93184e-05
1.93184e-05
7.01808e-06
7.01808e-06
7.01808e-06
7.37142e-06
7.37142e-06
7.37142e-06
5.22246e-06
5.22246e-06
5.22246e-06
4.18534e-06
4.18534e-06
4.18534e-06
5.07506e-06
5.07506e-06
5.07506e-06
8.12521e-06
8.12521e-06
8.12521e-06
3.4221e-05
3.4221e-05
3.4221e-05
2.94903e-05
2.94903e-05
2.94903e-05
5.52998e-06
5.52998e-06
5.52998e-06
6.40411e-06
6.40411e-06
6.40411e-06
1.2541e-05
1.2541e-05
1.2541e-05
6.80941e-06
6.80941e-06
6.80941e-06
5.93517e-06
5.93517e-06
5.93517e-06
6.69267e-06
6.69267e-06
6.69267e-06
1.28242e-05
1.28242e-05
1.28242e-05
6.48423e-06
6.48423e-06
6.48423e-06
1.27266e-05
1.27266e-05
1.27266e-05
3.15982e-05
3.15982e-05
3.15982e-05
3.17826e-05
3.17826e-05
3.17826e-05
1.77514e-05
1.77514e-05
1.77514e-05
1.73763e-05
1.73763e-05
1.73763e-05
1.64579e-05
1.64579e-05
1.64579e-05
1.59009e-05
1.59009e-05
1.59009e-05
1.64479e-05
1.64479e-05
1.64479e-05
1.73947e-05
1.73947e-05
1.73947e-05
1.34799e-05
1.34799e-05
1.34799e-05
1.36545e-05
1.36545e-05
1.36545e-05
1.44611e-05
1.44611e-05
1.44611e-05
1.14685e-05
1.14685e-05
1.14685e-05
5.95995e-06
5.95995e-06
5.95995e-06
1.01206e-05
1.01206e-05
1.01206e-05
8.94318e-06
8.94318e-06
8.94318e-06
9.79257e-06
9.79257e-06
9.79257e-06
4.34762e-06
4.34762e-06
4.34762e-06
6.3083e-06
6.3083e-06
6.3083e-06
6.48949e-06
6.48949e-06
6.48949e-06
7.50818e-06
7.50818e-06
7.50818e-06
1.31247e-05
1.31247e-05
1.31247e-05
1.11227e-05
1.11227e-05
1.11227e-05
1.09421e-05
1.09421e-05
1.09421e-05
9.96471e-06
9.96471e-06
9.96471e-06
1.56374e-05
1.56374e-05
1.56374e-05
1.3951e-05
1.3951e-05
1.3951e-05
1.37862e-05
1.37862e-05
1.37862e-05
1.29559e-05
1.29559e-05
1.29559e-05
2.65746e-06
2.65746e-06
2.65746e-06
2.78676e-06
2.78676e-06
2.78676e-06
2.7293e-06
2.7293e-06
2.7293e-06
2.64846e-06
2.64846e-06
2.64846e-06
2.5216e-06
2.5216e-06
2.5216e-06
2.43952e-06
2.43952e-06
2.43952e-06
2.71937e-06
2.71937e-06
2.71937e-06
2.56885e-06
2.56885e-06
2.56885e-06
2.63554e-06
2.63554e-06
2.63554e-06
2.58816e-06
2.58816e-06
2.58816e-06
2.01812e-06
2.01812e-06
2.01812e-06
2.17627e-06
2.17627e-06
2.17627e-06
2.24742e-06
2.24742e-06
2.24742e-06
2.11895e-06
2.11895e-06
2.11895e-06
2.10033e-06
2.10033e-06
2.10033e-06
2.18571e-06
2.18571e-06
2.18571e-06
2.25974e-06
2.25974e-06
2.25974e-06
2.01717e-06
2.01717e-06
2.01717e-06
2.07214e-06
2.07214e-06
2.07214e-06
1.9846e-06
1.9846e-06
1.9846e-06
2.34846e-06
2.34846e-06
2.34846e-06
2.32002e-06
2.32002e-06
2.32002e-06
2.49123e-06
2.49123e-06
2.49123e-06
2.50377e-06
2.50377e-06
2.50377e-06
2.42773e-06
2.42773e-06
2.42773e-06
2.23362e-06
2.23362e-06
2.23362e-06
2.30677e-06
2.30677e-06
2.30677e-06
2.38045e-06
2.38045e-06
2.38045e-06
2.63167e-06
2.63167e-06
2.63167e-06
2.55445e-06
2.55445e-06
2.55445e-06
2.61758e-06
2.61758e-06
2.61758e-06
2.50167e-06
2.50167e-06
2.50167e-06
1.10428e-05
1.10428e-05
1.10428e-05
8.17377e-06
8.17377e-06
8.17377e-06
2.28692e-06
2.28692e-06
2.28692e-06
4.67907e-06
4.67907e-06
4.67907e-06
7.07291e-06
7.07291e-06
7.07291e-06
4.55291e-06
4.55291e-06
4.55291e-06
3.65648e-06
3.65648e-06
3.65648e-06
8.40483e-06
8.40483e-06
8.40483e-06
6.88094e-06
6.88094e-06
6.88094e-06
1.77488e-06
1.77488e-06
1.77488e-06
1.70779e-06
1.70779e-06
1.70779e-06
2.73795e-06
2.73795e-06
2.73795e-06
3.76447e-06
3.76447e-06
3.76447e-06
3.66074e-06
3.66074e-06
3.66074e-06
3.37024e-06
3.37024e-06
3.37024e-06
3.51387e-06
3.51387e-06
3.51387e-06
2.86239e-06
2.86239e-06
2.86239e-06
2.89113e-06
2.89113e-06
2.89113e-06
2.21916e-06
2.21916e-06
2.21916e-06
2.68984e-06
2.68984e-06
2.68984e-06
3.63748e-06
3.63748e-06
3.63748e-06
2.40888e-06
2.40888e-06
2.40888e-06
1.62082e-06
1.62082e-06
1.62082e-06
2.20352e-06
2.20352e-06
2.20352e-06
2.54885e-06
2.54885e-06
2.54885e-06
3.25915e-06
3.25915e-06
3.25915e-06
1.93199e-06
1.93199e-06
1.93199e-06
2.16755e-06
2.16755e-06
2.16755e-06
2.18906e-06
2.18906e-06
2.18906e-06
2.04873e-06
2.04873e-06
2.04873e-06
2.11775e-06
2.11775e-06
2.11775e-06
2.55071e-06
2.55071e-06
2.55071e-06
3.30192e-06
3.30192e-06
3.30192e-06
3.57843e-06
3.57843e-06
3.57843e-06
3.47421e-06
3.47421e-06
3.47421e-06
3.62057e-06
3.62057e-06
3.62057e-06
2.48459e-06
2.48459e-06
2.48459e-06
2.29471e-06
2.29471e-06
2.29471e-06
2.37624e-06
2.37624e-06
2.37624e-06
2.61515e-06
2.61515e-06
2.61515e-06
2.63321e-06
2.63321e-06
2.63321e-06
2.53455e-06
2.53455e-06
2.53455e-06
2.5045e-06
2.5045e-06
2.5045e-06
2.43475e-06
2.43475e-06
2.43475e-06
2.5779e-06
2.5779e-06
2.5779e-06
5.29257e-06
5.29257e-06
5.29257e-06
5.1257e-06
5.1257e-06
5.1257e-06
4.37474e-06
4.37474e-06
4.37474e-06
4.76633e-06
4.76633e-06
4.76633e-06
4.60995e-06
4.60995e-06
4.60995e-06
5.02931e-06
5.02931e-06
5.02931e-06
4.99664e-06
4.99664e-06
4.99664e-06
4.74152e-06
4.74152e-06
4.74152e-06
4.59709e-06
4.59709e-06
4.59709e-06
6.7364e-05
6.7364e-05
6.7364e-05