<VTKFile type="UnstructuredGrid" version="1.0">
<UnstructuredGrid>
<Piece NumberOfPoints="10830" NumberOfCells="3610">
<Points>
<DataArray type="Float64" NumberOfComponents="3" format="ascii">
3.10314 1.29552 17.7907
3.11025 1.28841 17.765
3.11025 1.28841 17.8165
3.11025 1.28841 18.3201
3.11025 1.28841 18.371
3.10226 1.2964 18.3455
3.11025 1.28841 18.3201
3.10226 1.2964 18.3455
3.09025 1.30841 18.3201
2.21656 2.1821 18.7926
2.22913 2.16953 18.81
2.19928 2.19938 18.81
2.19928 2.19938 18.81
2.19928 2.19938 18.7798
2.21656 2.1821 18.7926
3.11025 1.28841 18.3201
3.09025 1.30841 18.3201
3.10227 1.29639 18.2947
2.20538 2.19328 18.0418
2.19928 2.19938 18.067
2.19928 2.19938 18.0166
3.10229 1.29637 18.0419
3.11025 1.28841 18.0671
3.09026 1.3084 18.0671
3.10214 1.29652 17.9413
3.11025 1.28841 17.9163
3.11025 1.28841 17.9664
3.09026 1.3084 18.0671
3.11025 1.28841 18.0671
3.1023 1.29636 18.0923
3.11025 1.28841 18.0671
3.11025 1.28841 18.1175
3.1023 1.29636 18.0923
3.09026 1.3084 18.1176
3.1023 1.29636 18.0923
3.11025 1.28841 18.1175
3.09025 1.30841 18.2693
3.10227 1.29639 18.2947
3.08043 1.31823 18.2947
3.08043 1.31823 18.2947
3.10227 1.29639 18.2947
3.09025 1.30841 18.3201
3.08043 1.31823 18.2947
3.06939 1.32927 18.2693
3.09025 1.30841 18.2693
3.08043 1.31823 18.2947
3.09025 1.30841 18.3201
3.06938 1.32928 18.3201
3.11025 1.28841 18.168
3.11025 1.28841 18.2186
3.10229 1.29637 18.1933
3.10229 1.29637 18.1933
3.09026 1.3084 18.2186
3.08044 1.31822 18.1933
3.11025 1.28841 18.2186
3.09026 1.3084 18.2186
3.10229 1.29637 18.1933
3.11025 1.28841 18.2693
3.10227 1.29639 18.2947
3.09025 1.30841 18.2693
3.11025 1.28841 18.3201
3.10227 1.29639 18.2947
3.11025 1.28841 18.2693
3.0901 1.30856 17.9163
3.11025 1.28841 17.9163
3.10214 1.29652 17.9413
3.09024 1.30842 18.371
3.10226 1.2964 18.3455
3.11025 1.28841 18.371
2.80657 1.59209 18.5507
2.81699 1.58167 18.525
2.8274 1.57126 18.5507
2.19928 2.19938 17.765
2.21889 2.17977 17.765
2.20626 2.1924 17.7897
2.25868 2.13998 18.0166
2.23814 2.16052 18.0166
2.24806 2.1506 17.9914
2.21801 2.18065 18.0166
2.23814 2.16052 18.0166
2.22704 2.17162 18.0418
2.21801 2.18065 18.0166
2.20538 2.19328 18.0418
2.19928 2.19938 18.0166
2.22704 2.17162 18.0418
2.20538 2.19328 18.0418
2.21801 2.18065 18.0166
2.20547 2.19319 18.2439
2.19928 2.19938 18.2693
2.19928 2.19938 18.2186
2.21807 2.1806 18.2693
2.22712 2.17155 18.2439
2.23821 2.16045 18.2693
2.19928 2.19938 18.2693
2.20547 2.19319 18.2439
2.21807 2.1806 18.2693
2.21807 2.1806 18.2693
2.20547 2.19319 18.2439
2.22712 2.17155 18.2439
2.21805 2.18061 18.2186
2.2382 2.16046 18.2186
2.22712 2.17155 18.2439
2.21805 2.18061 18.2186
2.20547 2.19319 18.2439
2.19928 2.19938 18.2186
2.22712 2.17155 18.2439
2.20547 2.19319 18.2439
2.21805 2.18061 18.2186
2.19928 2.19938 18.067
2.20538 2.19328 18.0418
2.21802 2.18064 18.067
2.21802 2.18064 18.067
2.20538 2.19328 18.0418
2.22704 2.17162 18.0418
2.23821 2.16045 18.2693
2.22712 2.17155 18.2439
2.24816 2.15051 18.2439
2.22712 2.17155 18.2439
2.2382 2.16046 18.2186
2.24816 2.15051 18.2439
2.40353 1.99513 18.2187
2.41386 1.9848 18.244
2.3932 2.00546 18.244
2.3932 2.00546 18.244
2.41386 1.9848 18.244
2.40354 1.99512 18.2694
2.40354 1.99512 18.2694
2.41386 1.9848 18.244
2.4242 1.97446 18.2694
2.79618 1.60248 18.525
2.81699 1.58167 18.525
2.80657 1.59209 18.5507
3.10224 1.29642 17.9916
3.11025 1.28841 17.9664
3.11025 1.28841 18.0167
3.11025 1.28841 18.0671
3.10229 1.29637 18.0419
3.11025 1.28841 18.0167
3.02715 1.37151 18.1681
3.006 1.39266 18.1681
3.01659 1.38207 18.1428
3.09026 1.3084 18.1681
3.10229 1.29637 18.1933
3.08044 1.31822 18.1933
3.11025 1.28841 18.168
3.10229 1.29637 18.1933
3.09026 1.3084 18.1681
3.08044 1.31822 18.1933
3.09026 1.3084 18.2186
3.0694 1.32926 18.2186
3.10228 1.29638 18.2439
3.09026 1.3084 18.2186
3.11025 1.28841 18.2186
3.11025 1.28841 18.2186
3.11025 1.28841 18.2693
3.10228 1.29638 18.2439
3.10228 1.29638 18.2439
3.11025 1.28841 18.2693
3.09025 1.30841 18.2693
3.08027 1.31839 17.9414
3.0901 1.30856 17.9163
3.10214 1.29652 17.9413
3.10224 1.29642 17.9916
3.11025 1.28841 18.0167
3.09024 1.30842 18.0167
3.09024 1.30842 18.0167
3.11025 1.28841 18.0167
3.10229 1.29637 18.0419
3.0165 1.38216 17.9916
3.00588 1.39278 17.9664
3.02702 1.37164 17.9664
3.04817 1.35049 17.9665
3.03759 1.36107 17.9413
3.05884 1.33982 17.9413
3.04817 1.35049 17.9665
3.02702 1.37164 17.9664
3.03759 1.36107 17.9413
3.08043 1.31823 18.0419
3.10229 1.29637 18.0419
3.09026 1.3084 18.0671
3.08043 1.31823 18.0419
3.09024 1.30842 18.0167
3.10229 1.29637 18.0419
3.08042 1.31824 18.3456
3.09025 1.30841 18.3201
3.10226 1.2964 18.3455
3.10226 1.2964 18.3455
3.09024 1.30842 18.371
3.08042 1.31824 18.3456
3.06938 1.32928 18.3201
3.09025 1.30841 18.3201
3.08042 1.31824 18.3456
3.08041 1.31825 18.4991
3.05901 1.33965 18.4991
3.06938 1.32928 18.4734
3.05901 1.33966 18.4477
3.08041 1.31825 18.4477
3.06938 1.32928 18.4734
3.10225 1.29641 18.3965
3.09024 1.30842 18.371
3.11025 1.28841 18.371
3.08041 1.31825 18.3966
3.09024 1.30842 18.371
3.10225 1.29641 18.3965
2.84822 1.55044 18.6023
2.85863 1.54003 18.6282
2.83776 1.5609 18.6282
2.96373 1.43493 18.4734
2.97428 1.42438 18.4478
2.98483 1.41383 18.4734
2.98483 1.41383 18.4734
2.97428 1.42438 18.4478
2.9954 1.40326 18.4478
3.06938 1.32929 18.4221
3.05901 1.33965 18.3966
3.08041 1.31825 18.3966
3.06938 1.32929 18.4221
3.08041 1.31825 18.4477
3.05901 1.33966 18.4477
2.95319 1.44547 18.4478
2.97428 1.42438 18.4478
2.96373 1.43493 18.4734
2.90067 1.49799 18.2187
2.87971 1.51895 18.2187
2.89018 1.50848 18.1934
2.84833 1.55033 18.1934
2.83789 1.56077 18.2188
2.82746 1.5712 18.1934
2.85878 1.53988 18.2187
2.83789 1.56077 18.2188
2.84833 1.55033 18.1934
2.83788 1.56078 18.1177
2.85877 1.53989 18.1177
2.84833 1.55034 18.1429
2.84833 1.55034 18.1429
2.82745 1.57121 18.1429
2.83788 1.56078 18.1177
2.83788 1.56078 18.1177
2.82745 1.57121 18.1429
2.81702 1.58164 18.1176
2.84833 1.55034 18.1429
2.85877 1.53989 18.1177
2.86924 1.52943 18.1429
2.87968 1.51898 18.0672
2.89017 1.50849 18.0924
2.86922 1.52944 18.0924
2.86922 1.52944 18.0924
2.85875 1.53991 18.0672
2.87968 1.51898 18.0672
2.72357 1.6751 18.2441
2.73392 1.66474 18.2188
2.74429 1.65437 18.2441
2.73392 1.66474 18.2188
2.75466 1.644 18.2188
2.74429 1.65437 18.2441
2.83789 1.56077 18.1682
2.82745 1.57121 18.1429
2.84833 1.55034 18.1429
2.83789 1.56077 18.1682
2.84833 1.55033 18.1934
2.82746 1.5712 18.1934
2.82746 1.5712 18.1934
2.80662 1.59204 18.1934
2.81703 1.58163 18.1682
2.81703 1.58163 18.1682
2.83789 1.56077 18.1682
2.82746 1.5712 18.1934
2.82745 1.57121 18.1429
2.83789 1.56077 18.1682
2.81703 1.58163 18.1682
2.81702 1.58164 18.1176
2.7962 1.60246 18.1176
2.8066 1.59206 18.0924
2.79618 1.60248 18.0672
2.81701 1.58166 18.0672
2.8066 1.59206 18.0924
2.42419 1.97447 18.2187
2.41386 1.9848 18.244
2.40353 1.99513 18.2187
2.40353 1.99513 18.2187
2.41385 1.98481 18.1934
2.42419 1.97447 18.2187
2.20539 2.19327 17.8399
2.19928 2.19938 17.8651
2.19928 2.19938 17.8144
2.19928 2.19938 17.765
2.20626 2.1924 17.7897
2.19928 2.19938 17.8144
2.21797 2.1807 17.9157
2.19928 2.19938 17.9157
2.20528 2.19338 17.8904
2.19928 2.19938 17.9157
2.19928 2.19938 17.8651
2.20528 2.19338 17.8904
3.11025 1.28841 17.765
3.10314 1.29552 17.7907
3.0911 1.30756 17.765
2.19928 2.19938 18.0166
2.19928 2.19938 17.9661
2.20536 2.19331 17.9914
2.20536 2.19331 17.9914
2.21801 2.18065 18.0166
2.19928 2.19938 18.0166
2.21799 2.18067 17.9661
2.20536 2.19331 17.9914
2.19928 2.19938 17.9661
2.21799 2.18067 17.9661
2.22698 2.17168 17.9409
2.23811 2.16055 17.9662
2.22702 2.17165 17.9914
2.24806 2.1506 17.9914
2.23814 2.16052 18.0166
2.23814 2.16052 18.0166
2.21801 2.18065 18.0166
2.22702 2.17165 17.9914
2.23811 2.16055 17.9662
2.24806 2.1506 17.9914
2.22702 2.17165 17.9914
2.22702 2.17165 17.9914
2.21799 2.18067 17.9661
2.23811 2.16055 17.9662
2.21801 2.18065 18.0166
2.20536 2.19331 17.9914
2.22702 2.17165 17.9914
2.20536 2.19331 17.9914
2.21799 2.18067 17.9661
2.22702 2.17165 17.9914
2.20532 2.19334 17.9409
2.19928 2.19938 17.9661
2.19928 2.19938 17.9157
2.20532 2.19334 17.9409
2.19928 2.19938 17.9157
2.21797 2.1807 17.9157
2.21797 2.1807 17.9157
2.22698 2.17168 17.9409
2.20532 2.19334 17.9409
2.20532 2.19334 17.9409
2.21799 2.18067 17.9661
2.19928 2.19938 17.9661
2.22698 2.17168 17.9409
2.21799 2.18067 17.9661
2.20532 2.19334 17.9409
2.24814 2.15052 18.1933
2.2382 2.16046 18.2186
2.2271 2.17156 18.1933
2.2382 2.16046 18.2186
2.21805 2.18061 18.2186
2.2271 2.17156 18.1933
2.2271 2.17156 18.1933
2.23819 2.16048 18.168
2.24814 2.15052 18.1933
2.24809 2.15058 18.0418
2.23814 2.16052 18.0166
2.25868 2.13998 18.0166
2.22704 2.17162 18.0418
2.23814 2.16052 18.0166
2.24809 2.15058 18.0418
2.26891 2.12975 18.0418
2.24809 2.15058 18.0418
2.25868 2.13998 18.0166
2.2587 2.13996 18.067
2.24809 2.15058 18.0418
2.26891 2.12975 18.0418
2.2587 2.13996 18.067
2.26891 2.12975 18.0418
2.27936 2.1193 18.067
2.41384 1.98482 18.1428
2.42418 1.97448 18.1681
2.40352 1.99515 18.1681
2.40352 1.99515 18.1681
2.42418 1.97448 18.1681
2.41385 1.98481 18.1934
2.33114 2.06753 18.1933
2.35183 2.04683 18.1933
2.34149 2.05717 18.2186
2.34148 2.05718 18.168
2.35183 2.04683 18.1933
2.33114 2.06753 18.1933
2.35182 2.04684 18.1428
2.34147 2.05719 18.1175
2.36216 2.03651 18.1175
2.34148 2.05718 18.168
2.33112 2.06754 18.1428
2.35182 2.04684 18.1428
2.35182 2.04684 18.1428
2.33112 2.06754 18.1428
2.34147 2.05719 18.1175
2.35184 2.04682 18.244
2.37253 2.02613 18.244
2.3622 2.03646 18.2693
2.31047 2.08819 18.2947
2.32082 2.07785 18.2693
2.33117 2.06749 18.2947
2.3208 2.07786 18.2186
2.33114 2.06753 18.1933
2.34149 2.05717 18.2186
2.31043 2.08823 18.1933
2.33114 2.06753 18.1933
2.3208 2.07786 18.2186
2.23821 2.16045 18.2693
2.24816 2.15051 18.2439
2.25876 2.1399 18.2693
2.24814 2.15052 18.1933
2.23819 2.16048 18.168
2.25873 2.13993 18.168
2.25873 2.13993 18.168
2.26896 2.1297 18.1933
2.24814 2.15052 18.1933
2.30008 2.09858 18.168
2.31043 2.08823 18.1933
2.28971 2.10895 18.1933
2.25874 2.13992 18.2186
2.24816 2.15051 18.2439
[...]
<PointData Scalars="View Factor" >
<DataArray type="Float64" Name="View Factor" NumberOfComponents="1" format="ascii">
0.0888469
0.0888469
0.0888469
0.0467492
0.0467492
0.0467492
0.0473841
0.0473841
0.0473841
0.00449373
0.00449373
0.00449373
0.00283658
0.00283658
0.00283658
0.0482808
0.0482808
0.0482808
0.010742
0.010742
0.010742
0.0643387
0.0643387
0.0643387
0.074169
0.074169
0.074169
0.0630949
0.0630949
0.0630949
0.0621707
0.0621707
0.0621707
0.0606901
0.0606901
0.0606901
0.0492787
0.0492787
0.0492787
0.0483587
0.0483587
0.0483587
0.049317
0.049317
0.049317
0.0474882
0.0474882
0.0474882
0.0553939
0.0553939
0.0553939
0.0541914
0.0541914
0.0541914
0.0540804
0.0540804
0.0540804
0.0501306
0.0501306
0.0501306
0.0494477
0.0494477
0.0494477
0.0753277
0.0753277
0.0753277
0.0456485
0.0456485
0.0456485
5.24862e-05
5.24862e-05
5.24862e-05
0.0232174
0.0232174
0.0232174
0.0203273
0.0203273
0.0203273
0.020808
0.020808
0.020808
0.0134516
0.0134516
0.0134516
0.0167357
0.0167357
0.0167357
0.00582635
0.00582635
0.00582635
0.01325
0.01325
0.01325
0.00700672
0.00700672
0.00700672
0.0102199
0.0102199
0.0102199
0.0138877
0.0138877
0.0138877
0.00746511
0.00746511
0.00746511
0.010502
0.010502
0.010502
0.0115401
0.0115401
0.0115401
0.0158673
0.0158673
0.0158673
0.0127873
0.0127873
0.0127873
0.0131103
0.0131103
0.0131103
0.000850043
0.000850043
0.000850043
0.000711865
0.000711865
0.000711865
0.00065298
0.00065298
0.00065298
5.93187e-05
5.93187e-05
5.93187e-05
0.0699064
0.0699064
0.0699064
0.0659109
0.0659109
0.0659109
0.0531951
0.0531951
0.0531951
0.0552396
0.0552396
0.0552396
0.0561872
0.0561872
0.0561872
0.0532236
0.0532236
0.0532236
0.0530603
0.0530603
0.0530603
0.0523246
0.0523246
0.0523246
0.0510866
0.0510866
0.0510866
0.074096
0.074096
0.074096
0.0682369
0.0682369
0.0682369
0.0669083
0.0669083
0.0669083
0.0657176
0.0657176
0.0657176
0.070361
0.070361
0.070361
0.0688
0.0688
0.0688
0.0645174
0.0645174
0.0645174
0.0657974
0.0657974
0.0657974
0.046576
0.046576
0.046576
0.045713
0.045713
0.045713
0.0466024
0.0466024
0.0466024
0.0387208
0.0387208
0.0387208
0.0401742
0.0401742
0.0401742
0.044807
0.044807
0.044807
0.0440407
0.0440407
0.0440407
0.0101077
0.0101077
0.0101077
0.0352508
0.0352508
0.0352508
0.0361704
0.0361704
0.0361704
0.0424722
0.0424722
0.0424722
0.0409244
0.0409244
0.0409244
0.0347642
0.0347642
0.0347642
0.0351254
0.0351254
0.0351254
0.00807054
0.00807054
0.00807054
0.0155199
0.0155199
0.0155199
0.0186211
0.0186211
0.0186211
0.0100495
0.0100495
0.0100495
0.00356739
0.00356739
0.00356739
0.0251121
0.0251121
0.0251121
0.04005
0.04005
0.04005
0.0356662
0.0356662
0.0356662
0.00100475
0.00100475
0.00100475
0.00110503
0.00110503
0.00110503
0.0094607
0.0094607
0.0094607
0.0084875
0.0084875
0.0084875
0.00186071
0.00186071
0.00186071
0.00203557
0.00203557
0.00203557
0.002434
0.002434
0.002434
0.00419704
0.00419704
0.00419704
0.00606369
0.00606369
0.00606369
0.000924609
0.000924609
0.000924609
0.00112249
0.00112249
0.00112249
0.0313097
0.0313097
0.0313097
0.0246141
0.0246141
0.0246141
0.0301494
0.0301494
0.0301494
0.0324893
0.0324893
0.0324893
0.090386
0.090386
0.090386
0.0151485
0.0151485
0.0151485
0.0147226
0.0147226
0.0147226
0.0182063
0.0182063
0.0182063
0.0257856
0.0257856
0.0257856
0.0216597
0.0216597
0.0216597
0.0218665
0.0218665
0.0218665
0.0228849
0.0228849
0.0228849
0.0243166
0.0243166
0.0243166
0.0188049
0.0188049
0.0188049
0.0201613
0.0201613
0.0201613
0.0237732
0.0237732
0.0237732
0.0270506
0.0270506
0.0270506
0.0258547
0.0258547
0.0258547
0.020613
0.020613
0.020613
0.0235499
0.0235499
0.0235499
0.0138165
0.0138165
0.0138165
0.0142406
0.0142406
0.0142406
0.0142271
0.0142271
0.0142271
0.0193316
0.0193316
0.0193316
0.0196375
0.0196375
0.0196375
0.0182181
0.0182181
0.0182181
0.0174051
0.0174051
0.0174051
0.0158822
0.0158822
0.0158822
0.00196526
0.00196526
0.00196526
0.00162346
0.00162346
0.00162346
0.00122108
0.00122108
0.00122108
0.00149653
0.00149653
0.00149653
0.00286443
0.00286443
0.00286443
0.00218323
0.00218323
0.00218323
0.0026047
0.0026047
0.0026047
0.000711564
0.000711564
0.000711564
0.000501888
0.000501888
0.000501888
0.00112717
0.00112717
0.00112717
0.00122207
0.00122207
0.00122207
0.0118383
0.0118383
0.0118383
0.0136167
0.0136167
0.0136167
0.0125542
0.0125542
0.0125542
0.00149545
0.00149545
0.00149545
0.012461
0.012461
0.012461
0.0128249
0.0128249
0.0128249
0.0121374
0.0121374
0.0121374
0.000255094
0.000255094
0.000255094
0.00299592
0.00299592
0.00299592
0.00367766
0.00367766
0.00367766
0.000929282
0.000929282
0.000929282
0.000851086
0.000851086
0.000851086
0.000544163
0.000544163
0.000544163
0.000653319
0.000653319
0.000653319
0.00065349
0.00065349
0.00065349
0.00071223
0.00071223
0.00071223
0.000543429
0.000543429
0.000543429
0.000500349
0.000500349
0.000500349
0.00038904
0.00038904
0.00038904
0.000420535
0.000420535
0.000420535
0.00042193
0.00042193
0.00042193
0.000500761
0.000500761
0.000500761
0.000252677
0.000252677
0.000252677
0.000195294
0.000195294
0.000195294
0.000182892
0.000182892
0.000182892
0.000143478
0.000143478
0.000143478
0.000158442
0.000158442
0.000158442
0.000419686
0.000419686
0.000419686
0.000542548
0.000542548
0.000542548
0.000499779
0.000499779
0.000499779
5.48044e-05
5.48044e-05
5.48044e-05
4.85634e-05
4.85634e-05
4.85634e-05
5.15432e-05
5.15432e-05
5.15432e-05
5.82313e-05
5.82313e-05
5.82313e-05
6.43605e-05
6.43605e-05
6.43605e-05
7.09961e-05
7.09961e-05
7.09961e-05
0.000116547
0.000116547
0.000116547
6.83569e-05
6.83569e-05
6.83569e-05
3.27822e-07
3.27822e-07
3.27822e-07
3.26271e-07
3.26271e-07
3.26271e-07
0
0
0
0
0
0
1.1184e-06
1.1184e-06
1.1184e-06
1.6231e-06
1.6231e-06
1.6231e-06
1.14745e-06
1.14745e-06
1.14745e-06
3.34744e-07
3.34744e-07
3.34744e-07
1.176e-06
1.176e-06
1.176e-06
1.6644e-06
1.6644e-06
1.6644e-06
2.60409e-06
2.60409e-06
2.60409e-06
0
0
0
3.43094e-07
3.43094e-07
3.43094e-07
3.36161e-07
3.36161e-07
3.36161e-07
0
0
0
0
0
0
0
0
0
0.0251065
0.0251065
0.0251065
0.0169136
0.0169136
0.0169136
0.0238352
0.0238352
0.0238352
0.0262065
0.0262065
0.0262065
0.0249439
0.0249439
0.0249439
0.0484756
0.0484756
0.0484756
0.0475341
0.0475341
0.0475341
0.0484426
0.0484426
0.0484426
0.0475363
0.0475363
0.0475363
0.0458909
0.0458909
0.0458909
0.0442718
0.0442718
0.0442718
0.0490803
0.0490803
0.0490803
0.0487829
0.0487829
0.0487829
0.0485788
0.0485788
0.0485788
0.0572763
0.0572763
0.0572763
0.0574074
0.0574074
0.0574074
0.0586706
0.0586706
0.0586706
0.0595266
0.0595266
0.0595266
0.0585273
0.0585273
0.0585273
0.0493923
0.0493923
0.0493923
0.0494092
0.0494092
0.0494092
0.0502621
0.0502621
0.0502621
0.0522144
0.0522144
0.0522144
0.0503218
0.0503218
0.0503218
0.0512921
0.0512921
0.0512921
0.0511798
0.0511798
0.0511798
0.0521617
0.0521617
0.0521617
0.0709822
0.0709822
0.0709822
0.0723995
0.0723995
0.0723995
0.072636
0.072636
0.072636
0.0768369
0.0768369
0.0768369
0.0669815
0.0669815
0.0669815
0.0686307
0.0686307
0.0686307
0.065932
0.065932
0.065932
0.0662209
0.0662209
0.0662209
0.0647894
0.0647894
0.0647894
0.0649151
0.0649151
0.0649151
0.0448875
0.0448875
0.0448875
0.0440568
0.0440568
0.0440568
0.043271
0.043271
0.043271
0.0380167
0.0380167
0.0380167
0.0329436
0.0329436
0.0329436
0.0224647
0.0224647
0.0224647
4.6295e-05
4.6295e-05
4.6295e-05
7.08549e-05
7.08549e-05
7.08549e-05
6.0375e-05
6.0375e-05
6.0375e-05
0.0345924
0.0345924
0.0345924
0.0333159
0.0333159
0.0333159
0.0363155
0.0363155
0.0363155
0.0369908
0.0369908
0.0369908
0.0421699
0.0421699
0.0421699
0.0473945
0.0473945
0.0473945
0.0455273
0.0455273
0.0455273
0.0469066
0.0469066
0.0469066
0.0422847
0.0422847
0.0422847
0.0418347
0.0418347
0.0418347
0.0403906
0.0403906
0.0403906
0.0424479
0.0424479
0.0424479
0.0416691
0.0416691
0.0416691
0.043231
0.043231
0.043231
0.0387174
0.0387174
0.0387174
0.0379544
0.0379544
0.0379544
0.0394388
0.0394388
0.0394388
0.0393845
0.0393845
0.0393845
0.0378243
0.0378243
0.0378243
0.0385308
0.0385308
0.0385308
0.0431297
0.0431297
0.0431297
0.0460175
0.0460175
0.0460175
0.044954
0.044954
0.044954
0.0369809
0.0369809
0.0369809
0.00140887
0.00140887
0.00140887
0.00151598
0.00151598
0.00151598
0.0151019
0.0151019
0.0151019
0.000662027
0.000662027
0.000662027
0.000616444
0.000616444
0.000616444
0.00105353
0.00105353
0.00105353
0.00115627
0.00115627
0.00115627
0.00139122
0.00139122
0.00139122
0.00149629
0.00149629
0.00149629
0.00114011
0.00114011
0.00114011
0.0013724
0.0013724
0.0013724
0.000891853
0.000891853
0.000891853
0.000824558
0.000824558
0.000824558
0.000683223
0.000683223
0.000683223
0.000626294
0.000626294
0.000626294
0.000672888
0.000672888
0.000672888
0.000812442
0.000812442
0.000812442
0.0221689
0.0221689
0.0221689
0.0273858
0.0273858
0.0273858
0.0321052
0.0321052
0.0321052
0.0329811
0.0329811
0.0329811
0.000223109
0.000223109
0.000223109
0.000523873
0.000523873
0.000523873
0.00024159
0.00024159
0.00024159
0.00424345
0.00424345
0.00424345
0.00613387
0.00613387
0.00613387
0.00473133
0.00473133
0.00473133
0.00575235
0.00575235
0.00575235
0.0217954
0.0217954
0.0217954
0.0128459
0.0128459
0.0128459
0.0117397
0.0117397
0.0117397
0.0194949
0.0194949
0.0194949
0.0273144
0.0273144
0.0273144
0.0286881
0.0286881
0.0286881
0.0349031
0.0349031
0.0349031
0.037997
0.037997
0.037997
0.00126347
0.00126347
0.00126347
0.00156313
0.00156313
0.00156313
0.000535194
0.000535194
0.000535194
0.000572726
0.000572726
0.000572726
0.00129414
0.00129414
0.00129414
0.00118275
0.00118275
0.00118275
0.000420162
0.000420162
0.000420162
0.000446666
0.000446666
0.000446666
0.000409896
0.000409896
0.000409896
0.000351735
0.000351735
0.000351735
0.000320157
0.000320157
0.000320157
0.000343088
0.000343088
0.000343088
0.00133134
0.00133134
0.00133134
0.00192931
0.00192931
0.00192931
0.00176384
0.00176384
0.00176384
0.00142969
0.00142969
0.00142969
0.00078637
0.00078637
0.00078637
0.000849537
0.000849537
0.000849537
0.00189839
0.00189839
0.00189839
0.00108613
0.00108613
0.00108613
0.00130904
0.00130904
0.00130904
0.00230975
0.00230975
0.00230975
0.00598785
0.00598785
0.00598785
0.00568441
0.00568441
0.00568441
0.00467731
0.00467731
0.00467731
0.0020116
0.0020116
0.0020116
0.00183765
0.00183765
0.00183765
0.00237616
0.00237616
0.00237616
0.00198591
0.00198591
0.00198591
0.0048293
0.0048293
0.0048293
0.00340486
0.00340486
0.00340486
0.00286344
0.00286344
0.00286344
0.00260241
0.00260241
0.00260241
0.00483005
0.00483005
0.00483005
0.00377496
0.00377496
0.00377496
0.00451782
0.00451782
0.00451782
0.0178571
0.0178571
0.0178571
0.0201397
0.0201397
0.0201397
0.018927
0.018927
0.018927
0.00259261
0.00259261
0.00259261
0.00217472
0.00217472
0.00217472
0.00123164
0.00123164
0.00123164
0.00115385
0.00115385
0.00115385
0.000954
0.000954
0.000954
0.000862665
0.000862665
0.000862665
0.000676302
0.000676302
0.000676302
0.000727788
0.000727788
0.000727788
0.0849047
0.0849047
0.0849047
0.0889499
0.0889499
0.0889499
0.0893279
0.0893279
0.0893279
0.0782508
0.0782508
0.0782508
0.0789395
0.0789395
0.0789395
0.0805702
0.0805702
0.0805702
0.0611438
0.0611438
0.0611438
0.0629652
0.0629652
0.0629652
0.005303
0.005303
0.005303
0.00679482
0.00679482
0.00679482
0.00645714
0.00645714
0.00645714
0.00771147
0.00771147
0.00771147
0.0111227
0.0111227
0.0111227
0.00725912
0.00725912
0.00725912
0.0092958
0.0092958
0.0092958
0.0164536
0.0164536
0.0164536
0.012713
0.012713
0.012713
0.0108035
0.0108035
0.0108035
0.00846303
0.00846303
0.00846303
0.00972069
0.00972069
0.00972069
0.0144704
0.0144704
0.0144704
0.0138171
0.0138171
0.0138171
0.0169984
0.0169984
0.0169984
0.0167274
0.0167274
0.0167274
0.0159508
0.0159508
0.0159508
0.0150113
0.0150113
0.0150113
0.0190282
0.0190282
0.0190282
0.0187741
0.0187741
0.0187741
0.0182643
0.0182643
0.0182643
0.0173813
0.0173813
0.0173813
0.0176497
0.0176497
0.0176497
0.0169257
0.0169257
0.0169257
0.0156059
0.0156059
0.0156059
0.0151396
0.0151396
0.0151396
0.0141001
0.0141001
0.0141001
0.0134987
0.0134987
0.0134987
0.0019694
0.0019694
0.0019694
0.00217997
0.00217997
0.00217997
0.00259967
0.00259967
0.00259967
0.00217757
0.00217757
0.00217757
0.00121636
0.00121636
0.00121636
0.00149539
0.00149539
0.00149539
0.00112408
0.00112408
0.00112408
0.00162455
0.00162455
0.00162455
0.00149612
0.00149612
0.00149612
0.00121824
0.00121824
0.00121824
0.0014962
0.0014962
0.0014962
0.00218404
0.00218404
0.00218404
0.00162542
0.00162542
0.00162542
0.00197926
0.00197926
0.00197926
0.00162492
0.00162492
0.00162492
0.00198169
0.00198169
0.00198169
0.000852541
0.000852541
0.000852541
0.000930936
0.000930936
0.000930936
0.00065351
0.00065351
0.00065351
0.000543758
0.000543758
0.000543758
0.000653375
0.000653375
0.000653375
0.000711649
0.000711649
0.000711649
0.000501646
0.000501646
0.000501646
0.000544763
0.000544763
0.000544763
0.000301952
0.000301952
0.000301952
0.000325654
0.000325654
0.000325654
0.000390491
0.000390491
0.000390491
0.000422478
0.000422478
0.000422478
0.00039078
0.00039078
0.00039078
0.000302248
0.000302248
0.000302248
0.000325824
0.000325824
0.000325824
0.000545105
0.000545105
0.000545105
0.0118399
0.0118399
0.0118399
0.00546442
0.00546442
0.00546442
0.0113541
0.0113541
0.0113541
0.0090244
0.0090244
0.0090244
0.0111478
0.0111478
0.0111478
0.0114589
0.0114589
0.0114589
0.00805823
0.00805823
0.00805823
0.0102425
0.0102425
0.0102425
0.00864232
0.00864232
0.00864232
0.0105843
0.0105843
0.0105843
0.000255406
0.000255406
0.000255406
0.00356892
0.00356892
0.00356892
0.000238209
0.000238209
0.000238209
0.00664895
0.00664895
0.00664895
0.00840134
0.00840134
0.00840134
0.00349347
0.00349347
0.00349347
0.000237671
0.000237671
0.000237671
0.000238095
0.000238095
0.000238095
0.000198647
0.000198647
0.000198647
0.000185187
0.000185187
0.000185187
0.000198298
0.000198298
0.000198298
0.00295453
0.00295453
0.00295453
0.00737787
0.00737787
0.00737787
0.00723605
0.00723605
0.00723605
0.00350212
0.00350212
0.00350212
0.00432423
0.00432423
0.00432423
0.00667691
0.00667691
0.00667691
0.00392165
0.00392165
0.00392165
0.00323905
0.00323905
0.00323905
0.00402249
0.00402249
0.00402249
0.0062615
0.0062615
0.0062615
0.004222
0.004222
0.004222
0.00639691
0.00639691
0.00639691
0.00927758
0.00927758
0.00927758
0.00911261
0.00911261
0.00911261
0.000851925
0.000851925
0.000851925
0.000930074
0.000930074
0.000930074
0.00112542
0.00112542
0.00112542
0.00121981
0.00121981
0.00121981
0.00112642
0.00112642
0.00112642
0.000930635
0.000930635
0.000930635
0.000389619
0.000389619
0.000389619
0.000390102
0.000390102
0.000390102
0.000421282
0.000421282
0.000421282
0.000325127
0.000325127
0.000325127
0.000235076
0.000235076
0.000235076
0.000319932
0.000319932
0.000319932
0.000294358
0.000294358
0.000294358
0.000298804
0.000298804
0.000298804
0.000195902
0.000195902
0.000195902
0.00023616
0.00023616
0.00023616
0.00023662
0.00023662
0.00023662
0.000252026
0.000252026
0.000252026
0.000388381
0.000388381
0.000388381
0.000324281
0.000324281
0.000324281
0.000323734
0.000323734
0.000323734
0.000299502
0.000299502
0.000299502
0.000499108
0.000499108
0.000499108
0.000418758
0.000418758
0.000418758
0.000417723
0.000417723
0.000417723
0.000387628
0.000387628
0.000387628
3.67931e-05
3.67931e-05
3.67931e-05
3.13999e-05
3.13999e-05
3.13999e-05
3.75881e-05
3.75881e-05
3.75881e-05
4.28181e-05
4.28181e-05
4.28181e-05
5.59725e-05
5.59725e-05
5.59725e-05
6.5727e-05
6.5727e-05
6.5727e-05
4.37189e-05
4.37189e-05
4.37189e-05
4.95778e-05
4.95778e-05
4.95778e-05
5.05736e-05
5.05736e-05
5.05736e-05
5.71145e-05
5.71145e-05
5.71145e-05
0.000137092
0.000137092
0.000137092
0.000105514
0.000105514
0.000105514
8.92939e-05
8.92939e-05
8.92939e-05
0.000103363
0.000103363
0.000103363
0.00011423
0.00011423
0.00011423
8.74591e-05
8.74591e-05
8.74591e-05
8.00576e-05
8.00576e-05
8.00576e-05
0.000146912
0.000146912
0.000146912
0.000139836
0.000139836
0.000139836
0.00017561
0.00017561
0.00017561
0.000194875
0.000194875
0.000194875
8.35936e-05
8.35936e-05
8.35936e-05
7.38874e-05
7.38874e-05
7.38874e-05
6.70604e-05
6.70604e-05
6.70604e-05
7.24632e-05
7.24632e-05
7.24632e-05
0.000107608
0.000107608
0.000107608
9.10782e-05
9.10782e-05
9.10782e-05
8.52326e-05
8.52326e-05
8.52326e-05
6.96261e-05
6.96261e-05
6.96261e-05
7.52765e-05
7.52765e-05
7.52765e-05
7.66309e-05
7.66309e-05
7.66309e-05
8.83708e-05
8.83708e-05
8.83708e-05
0.000350418
0.000350418
0.000350418
0.000295479
0.000295479
0.000295479
0.000191114
0.000191114
0.000191114
0.000237104
0.000237104
0.000237104
0.000286649
0.000286649
0.000286649
0.000232471
0.000232471
0.000232471
0.000218841
0.000218841
0.000218841
0.000301438
0.000301438
0.000301438
0.000278013
0.000278013
0.000278013
8.93262e-05
8.93262e-05
8.93262e-05
9.63368e-05
9.63368e-05
9.63368e-05
1.34658e-05
1.34658e-05
1.34658e-05
3.02049e-07
3.02049e-07
3.02049e-07
1.58128e-06
1.58128e-06
1.58128e-06
2.98376e-06
2.98376e-06
2.98376e-06
2.47462e-06
2.47462e-06
2.47462e-06
3.20812e-05
3.20812e-05
3.20812e-05
2.68938e-05
2.68938e-05
2.68938e-05
0.00014543
0.00014543
0.00014543
0.000160134
0.000160134
0.000160134
3.0013e-07
3.0013e-07
3.0013e-07
1.60861e-05
1.60861e-05
1.60861e-05
0.000120503
0.000120503
0.000120503
2.57362e-05
2.57362e-05
2.57362e-05
1.12193e-05
1.12193e-05
1.12193e-05
0.000200464
0.000200464
0.000200464
0.000106912
0.000106912
0.000106912
4.31321e-05
4.31321e-05
4.31321e-05
4.98571e-05
4.98571e-05
4.98571e-05
6.31445e-05
6.31445e-05
6.31445e-05
5.8581e-05
5.8581e-05
5.8581e-05
1.68768e-05
1.68768e-05
1.68768e-05
5.23539e-06
5.23539e-06
5.23539e-06
3.14304e-06
3.14304e-06
3.14304e-06
3.06405e-06
3.06405e-06
3.06405e-06
2.53996e-06
2.53996e-06
2.53996e-06
2.85315e-05
2.85315e-05
2.85315e-05
3.80138e-05
3.80138e-05
3.80138e-05
3.34468e-05
3.34468e-05
3.34468e-05
1.99211e-05
1.99211e-05
1.99211e-05
1.73562e-05
1.73562e-05
1.73562e-05
1.93826e-05
1.93826e-05
1.93826e-05
2.38533e-05
2.38533e-05
2.38533e-05
4.75229e-05
4.75229e-05
4.75229e-05
4.18947e-05
4.18947e-05
4.18947e-05
0
0
0
0
0
0
3.44389e-07
3.44389e-07
3.44389e-07
0
0
0
0
0
0
0
0
0
0
0
0
3.68235e-07
3.68235e-07
3.68235e-07
3.67315e-07
3.67315e-07
3.67315e-07
0.0149943
0.0149943
0.0149943
0.0124081
0.0124081
0.0124081
0.0250894
0.0250894
0.0250894
0.0241558
0.0241558
0.0241558
0.0248927
0.0248927
0.0248927
0.0230229
0.0230229
0.0230229
0.0226287
0.0226287
0.0226287
0.0252912
0.0252912
0.0252912
0.0245084
0.0245084
0.0245084
0.0218928
0.0218928
0.0218928
0.0222693
0.0222693
0.0222693
0.028974
0.028974
0.028974
0.0335523
0.0335523
0.0335523
0.0284467
0.0284467
0.0284467
0.0289422
0.0289422
0.0289422
0.0290236
0.0290236
0.0290236
0.0284858
0.0284858
0.0284858
0.0284738
0.0284738
0.0284738
0.0466696
0.0466696
0.0466696
0.0466377
0.0466377
0.0466377
0.0451985
0.0451985
0.0451985
0.044318
0.044318
0.044318
0.0477881
0.0477881
0.0477881
0.0533509
0.0533509
0.0533509
0.0490793
0.0490793
0.0490793
0.0479782
0.0479782
0.0479782
0.0470228
0.0470228
0.0470228
0.0492312
0.0492312
0.0492312
0.050071
0.050071
0.050071
0.0510035
0.0510035
0.0510035
0.0499384
0.0499384
0.0499384
0.0521256
0.0521256
0.0521256
0.0522557
0.0522557
0.0522557
0.0512142
0.0512142
0.0512142
0.050832
0.050832
0.050832
0.0496479
0.0496479
0.0496479
0.0531387
0.0531387
0.0531387
0.0519017
0.0519017
0.0519017
0.0517991
0.0517991
0.0517991
0.0475924
0.0475924
0.0475924
0.047976
0.047976
0.047976
0.0494506
0.0494506
0.0494506
0.0505106
0.0505106
0.0505106
0.056387
0.056387
0.056387
0.0553089
0.0553089
0.0553089
0.0563526
0.0563526
0.0563526
0.0541954
0.0541954
0.0541954
0.0586156
0.0586156
0.0586156
0.0544015
0.0544015
0.0544015
0.0543577
0.0543577
0.0543577
0.0819134
0.0819134
0.0819134
0.0771117
0.0771117
0.0771117
0.0786744
0.0786744
0.0786744
0.0815798
0.0815798
0.0815798
0.0799607
0.0799607
0.0799607
0.0787067
0.0787067
0.0787067
0.0835609
0.0835609
0.0835609
0.0718012
0.0718012
0.0718012
0.0747853
0.0747853
0.0747853
0.076198
0.076198
0.076198
0.076332
0.076332
0.076332
0.070323
0.070323
0.070323
0.0689244
0.0689244
0.0689244
0.0715772
0.0715772
0.0715772
0.0713809
0.0713809
0.0713809
0.0672488
0.0672488
0.0672488
0.068443
0.068443
0.068443
0.0698107
0.0698107
0.0698107
0.0699732
0.0699732
0.0699732
0.0674133
0.0674133
0.0674133
0.0687701
0.0687701
0.0687701
0.0635979
0.0635979
0.0635979