<VTKFile type="UnstructuredGrid" version="1.0">
<UnstructuredGrid>
<Piece NumberOfPoints="10830" NumberOfCells="3610">
<Points>
<DataArray type="Float64" NumberOfComponents="3" format="ascii">
3.11035 1.27826 6.29575
3.11035 1.28831 6.32146
3.11035 1.28831 6.27
3.11035 1.28831 6.82508
3.11035 1.27701 6.85053
3.11035 1.28831 6.876
3.11035 1.28831 6.82508
3.11035 1.26002 6.8251
3.11035 1.27701 6.85053
3.11035 0.0244388 7.29759
3.11035 4.44089e-16 7.315
3.11035 0.0422213 7.315
3.11035 4.44089e-16 7.315
3.11035 0.0244388 7.29759
3.11035 -7.90479e-14 7.28484
3.11035 1.28831 6.82508
3.11035 1.27702 6.79968
3.11035 1.26002 6.8251
3.11035 0.00863377 6.54679
3.11035 1.50546e-13 6.52157
3.11035 1.49658e-13 6.57201
3.11035 1.27705 6.5469
3.11035 1.26004 6.57211
3.11035 1.28831 6.57209
3.11035 1.27684 6.44634
3.11035 1.28831 6.47139
3.11035 1.28831 6.42128
3.11035 1.26004 6.57211
3.11035 1.27707 6.59731
3.11035 1.28831 6.57209
3.11035 1.28831 6.57209
3.11035 1.27707 6.59731
3.11035 1.28831 6.62254
3.11035 1.26005 6.62255
3.11035 1.28831 6.62254
3.11035 1.27707 6.59731
3.11035 1.26003 6.77431
3.11035 1.24613 6.7997
3.11035 1.27702 6.79968
3.11035 1.24613 6.7997
3.11035 1.26002 6.8251
3.11035 1.27702 6.79968
3.11035 1.24613 6.7997
3.11035 1.26003 6.77431
3.11035 1.23052 6.77432
3.11035 1.24613 6.7997
3.11035 1.23052 6.82512
3.11035 1.26002 6.8251
3.11035 1.28831 6.67304
3.11035 1.27705 6.69833
3.11035 1.28831 6.72362
3.11035 1.27705 6.69833
3.11035 1.24616 6.69834
3.11035 1.26004 6.72363
3.11035 1.28831 6.72362
3.11035 1.27705 6.69833
3.11035 1.26004 6.72363
3.11035 1.28831 6.77429
3.11035 1.26003 6.77431
3.11035 1.27702 6.79968
3.11035 1.28831 6.82508
3.11035 1.28831 6.77429
3.11035 1.27702 6.79968
3.11035 1.25981 6.42132
3.11035 1.27684 6.44634
3.11035 1.28831 6.42128
3.11035 1.26002 6.87602
3.11035 1.28831 6.876
3.11035 1.27701 6.85053
3.11035 0.85884 7.05575
3.11035 0.888295 7.05572
3.11035 0.873578 7.02998
3.11035 4.44089e-16 6.27
3.11035 0.00987207 6.2947
3.11035 0.0277369 6.27
3.11035 0.0840033 6.52159
3.11035 0.0689903 6.49637
3.11035 0.0549577 6.52157
3.11035 0.0264927 6.52156
3.11035 0.0392653 6.54678
3.11035 0.0549577 6.52157
3.11035 0.0264927 6.52156
3.11035 1.50546e-13 6.52157
3.11035 0.00863377 6.54679
3.11035 0.0392653 6.54678
3.11035 0.0264927 6.52156
3.11035 0.00863377 6.54679
3.11035 0.0087521 6.74894
3.11035 1.48326e-13 6.72361
3.11035 -9.59233e-14 6.7743
3.11035 0.0265703 6.7743
3.11035 0.0550657 6.77429
3.11035 0.0393699 6.74893
3.11035 -9.59233e-14 6.7743
3.11035 0.0265703 6.7743
3.11035 0.0087521 6.74894
3.11035 0.0265703 6.7743
3.11035 0.0393699 6.74893
3.11035 0.0087521 6.74894
3.11035 0.0265544 6.7236
3.11035 0.0393699 6.74893
3.11035 0.0550443 6.7236
3.11035 0.0265544 6.7236
3.11035 1.48326e-13 6.72361
3.11035 0.0087521 6.74894
3.11035 0.0393699 6.74893
3.11035 0.0265544 6.7236
3.11035 0.0087521 6.74894
3.11035 1.49658e-13 6.57201
3.11035 0.0265126 6.572
3.11035 0.00863377 6.54679
3.11035 0.0265126 6.572
3.11035 0.0392653 6.54678
3.11035 0.00863377 6.54679
3.11035 0.0550657 6.77429
3.11035 0.0691236 6.74893
3.11035 0.0393699 6.74893
3.11035 0.0393699 6.74893
3.11035 0.0691236 6.74893
3.11035 0.0550443 6.7236
3.11035 0.288852 6.72367
3.11035 0.274248 6.749
3.11035 0.303471 6.74901
3.11035 0.274248 6.749
3.11035 0.288872 6.77437
3.11035 0.303471 6.74901
3.11035 0.288872 6.77437
3.11035 0.318088 6.77438
3.11035 0.303471 6.74901
3.11035 0.844143 7.03
3.11035 0.85884 7.05575
3.11035 0.873578 7.02998
3.11035 1.27699 6.49656
3.11035 1.28831 6.5217
3.11035 1.28831 6.47139
3.11035 1.28831 6.57209
3.11035 1.28831 6.5217
3.11035 1.27705 6.5469
3.11035 1.17079 6.6731
3.11035 1.15586 6.64785
3.11035 1.14088 6.67311
3.11035 1.26004 6.67305
3.11035 1.24616 6.69834
3.11035 1.27705 6.69833
3.11035 1.28831 6.67304
3.11035 1.26004 6.67305
3.11035 1.27705 6.69833
3.11035 1.24616 6.69834
3.11035 1.23053 6.72365
3.11035 1.26004 6.72363
3.11035 1.27704 6.74895
3.11035 1.28831 6.72362
3.11035 1.26004 6.72363
3.11035 1.28831 6.72362
3.11035 1.27704 6.74895
3.11035 1.28831 6.77429
3.11035 1.27704 6.74895
3.11035 1.26003 6.77431
3.11035 1.28831 6.77429
3.11035 1.24591 6.44637
3.11035 1.27684 6.44634
3.11035 1.25981 6.42132
3.11035 1.27699 6.49656
3.11035 1.26001 6.52174
3.11035 1.28831 6.5217
3.11035 1.26001 6.52174
3.11035 1.27705 6.5469
3.11035 1.28831 6.5217
3.11035 1.15573 6.49661
3.11035 1.1706 6.47143
3.11035 1.1407 6.47143
3.11035 1.20051 6.47145
3.11035 1.21561 6.44631
3.11035 1.18556 6.44626
3.11035 1.20051 6.47145
3.11035 1.18556 6.44626
3.11035 1.1706 6.47143
3.11035 1.24614 6.54693
3.11035 1.26004 6.57211
3.11035 1.27705 6.5469
3.11035 1.24614 6.54693
3.11035 1.27705 6.5469
3.11035 1.26001 6.52174
3.11035 1.24612 6.85055
3.11035 1.27701 6.85053
3.11035 1.26002 6.8251
3.11035 1.27701 6.85053
3.11035 1.24612 6.85055
3.11035 1.26002 6.87602
3.11035 1.23052 6.82512
3.11035 1.24612 6.85055
3.11035 1.26002 6.8251
3.11035 1.24611 7.00405
3.11035 1.23051 6.97837
3.11035 1.21584 7.00406
3.11035 1.21584 6.95274
3.11035 1.23051 6.97837
3.11035 1.24611 6.95272
3.11035 1.27699 6.90153
3.11035 1.28831 6.876
3.11035 1.26002 6.87602
3.11035 1.24611 6.90156
3.11035 1.27699 6.90153
3.11035 1.26002 6.87602
3.11035 0.917741 7.10732
3.11035 0.902954 7.1332
3.11035 0.932465 7.13316
3.11035 1.08109 6.97843
3.11035 1.11094 6.97841
3.11035 1.09602 6.95279
3.11035 1.11094 6.97841
3.11035 1.12589 6.95278
3.11035 1.09602 6.95279
3.11035 1.2305 6.92713
3.11035 1.24611 6.90156
3.11035 1.21584 6.90158
3.11035 1.2305 6.92713
3.11035 1.21584 6.95274
3.11035 1.24611 6.95272
3.11035 1.0662 6.95281
3.11035 1.08109 6.97843
3.11035 1.09602 6.95279
3.11035 0.991917 6.72374
3.11035 0.977089 6.69844
3.11035 0.962274 6.72374
3.11035 0.917902 6.69844
3.11035 0.888384 6.69844
3.11035 0.903138 6.72375
3.11035 0.932681 6.72375
3.11035 0.917902 6.69844
3.11035 0.903138 6.72375
3.11035 0.903119 6.62265
3.11035 0.917893 6.64789
3.11035 0.932664 6.62265
3.11035 0.917893 6.64789
3.11035 0.903119 6.62265
3.11035 0.888374 6.64789
3.11035 0.903119 6.62265
3.11035 0.873625 6.62264
3.11035 0.888374 6.64789
3.11035 0.917893 6.64789
3.11035 0.947463 6.6479
3.11035 0.932664 6.62265
3.11035 0.962233 6.57223
3.11035 0.947444 6.59743
3.11035 0.977066 6.59744
3.11035 0.947444 6.59743
3.11035 0.962233 6.57223
3.11035 0.932637 6.57223
3.11035 0.741456 6.74909
3.11035 0.770765 6.74909
3.11035 0.756104 6.72375
3.11035 0.756104 6.72375
3.11035 0.770765 6.74909
3.11035 0.785431 6.72375
3.11035 0.903133 6.67316
3.11035 0.917893 6.64789
3.11035 0.888374 6.64789
3.11035 0.903133 6.67316
3.11035 0.888384 6.69844
3.11035 0.917902 6.69844
3.11035 0.888384 6.69844
3.11035 0.873639 6.67315
3.11035 0.858913 6.69844
3.11035 0.873639 6.67315
3.11035 0.888384 6.69844
3.11035 0.903133 6.67316
3.11035 0.888374 6.64789
3.11035 0.873639 6.67315
3.11035 0.903133 6.67316
3.11035 0.873625 6.62264
3.11035 0.858884 6.59741
3.11035 0.844177 6.62264
3.11035 0.844153 6.57219
3.11035 0.858884 6.59741
3.11035 0.873599 6.57221
3.11035 0.318069 6.72368
3.11035 0.288852 6.72367
3.11035 0.303471 6.74901
3.11035 0.288852 6.72367
3.11035 0.318069 6.72368
3.11035 0.303454 6.69836
3.11035 0.00864568 6.34487
3.11035 -9.63674e-14 6.31942
3.11035 1.49658e-13 6.37009
3.11035 4.44089e-16 6.27
3.11035 -9.63674e-14 6.31942
3.11035 0.00987207 6.2947
3.11035 0.0264295 6.4207
3.11035 0.00849117 6.39542
3.11035 1.50546e-13 6.42067
3.11035 1.50546e-13 6.42067
3.11035 0.00849117 6.39542
3.11035 1.49658e-13 6.37009
3.11035 1.28831 6.27
3.11035 1.26122 6.27
3.11035 1.27826 6.29575
3.11035 1.50546e-13 6.52157
3.11035 0.00859461 6.49636
3.11035 1.50546e-13 6.47114
3.11035 0.00859461 6.49636
3.11035 1.50546e-13 6.52157
3.11035 0.0264927 6.52156
3.11035 0.0264637 6.47113
3.11035 1.50546e-13 6.47114
3.11035 0.00859461 6.49636
3.11035 0.0264637 6.47113
3.11035 0.0549232 6.47116
3.11035 0.0391815 6.44594
3.11035 0.0392276 6.49635
3.11035 0.0549577 6.52157
3.11035 0.0689903 6.49637
3.11035 0.0549577 6.52157
3.11035 0.0392276 6.49635
3.11035 0.0264927 6.52156
3.11035 0.0549232 6.47116
3.11035 0.0392276 6.49635
3.11035 0.0689903 6.49637
3.11035 0.0392276 6.49635
3.11035 0.0549232 6.47116
3.11035 0.0264637 6.47113
3.11035 0.0264927 6.52156
3.11035 0.0392276 6.49635
3.11035 0.00859461 6.49636
3.11035 0.00859461 6.49636
3.11035 0.0392276 6.49635
3.11035 0.0264637 6.47113
3.11035 0.00854014 6.44591
3.11035 1.50546e-13 6.42067
3.11035 1.50546e-13 6.47114
3.11035 0.00854014 6.44591
3.11035 0.0264295 6.4207
3.11035 1.50546e-13 6.42067
3.11035 0.0264295 6.4207
3.11035 0.00854014 6.44591
3.11035 0.0391815 6.44594
3.11035 0.00854014 6.44591
3.11035 1.50546e-13 6.47114
3.11035 0.0264637 6.47113
3.11035 0.0391815 6.44594
3.11035 0.00854014 6.44591
3.11035 0.0264637 6.47113
3.11035 0.0690987 6.69829
3.11035 0.0393425 6.69829
3.11035 0.0550443 6.7236
3.11035 0.0550443 6.7236
3.11035 0.0393425 6.69829
3.11035 0.0265544 6.7236
3.11035 0.0393425 6.69829
3.11035 0.0690987 6.69829
3.11035 0.0550252 6.673
3.11035 0.0690242 6.54679
3.11035 0.0840033 6.52159
3.11035 0.0549577 6.52157
3.11035 0.0392653 6.54678
3.11035 0.0690242 6.54679
3.11035 0.0549577 6.52157
3.11035 0.0984777 6.5468
3.11035 0.0840033 6.52159
3.11035 0.0690242 6.54679
3.11035 0.0840313 6.57201
3.11035 0.0984777 6.5468
3.11035 0.0690242 6.54679
3.11035 0.0840313 6.57201
3.11035 0.113251 6.57202
3.11035 0.0984777 6.5468
3.11035 0.303441 6.6478
3.11035 0.288836 6.67307
3.11035 0.318055 6.67307
3.11035 0.288836 6.67307
3.11035 0.303454 6.69836
3.11035 0.318055 6.67307
3.11035 0.186476 6.69832
3.11035 0.201123 6.72363
3.11035 0.215741 6.69833
3.11035 0.201103 6.67304
3.11035 0.186476 6.69832
3.11035 0.215741 6.69833
3.11035 0.215723 6.64777
3.11035 0.230345 6.62253
3.11035 0.201085 6.62252
3.11035 0.201103 6.67304
3.11035 0.215723 6.64777
3.11035 0.186456 6.64776
3.11035 0.215723 6.64777
3.11035 0.201085 6.62252
3.11035 0.186456 6.64776
3.11035 0.215762 6.74898
3.11035 0.230402 6.77434
3.11035 0.245012 6.74899
3.11035 0.157245 6.7997
3.11035 0.186525 6.79971
3.11035 0.171881 6.77432
[...]
<PointData Scalars="View Factor" >
<DataArray type="Float64" Name="View Factor" NumberOfComponents="1" format="ascii">
0.000180385
0.000180385
0.000180385
0.000219197
0.000219197
0.000219197
0.000217948
0.000217948
0.000217948
0.000168975
0.000168975
0.000168975
0.000174567
0.000174567
0.000174567
0.000216625
0.000216625
0.000216625
0.000131212
0.000131212
0.000131212
0.000198031
0.000198031
0.000198031
0.000190013
0.000190013
0.000190013
0.000199204
0.000199204
0.000199204
0.000200311
0.000200311
0.000200311
0.000201575
0.000201575
0.000201575
0.000214783
0.000214783
0.000214783
0.00021609
0.00021609
0.00021609
0.000214265
0.000214265
0.000214265
0.000216881
0.000216881
0.000216881
0.000207592
0.000207592
0.000207592
0.000208408
0.000208408
0.000208408
0.000208918
0.000208918
0.000208918
0.000214013
0.000214013
0.000214013
0.000215232
0.000215232
0.000215232
0.000188983
0.000188983
0.000188983
0.000220626
0.000220626
0.000220626
6.24633e-06
6.24633e-06
6.24633e-06
0.000158468
0.000158468
0.000158468
9.09362e-05
9.09362e-05
9.09362e-05
0.000109345
0.000109345
0.000109345
0.000125574
0.000125574
0.000125574
0.000117819
0.000117819
0.000117819
0.000141074
0.000141074
0.000141074
0.000118976
0.000118976
0.000118976
0.00013665
0.00013665
0.00013665
0.000127433
0.000127433
0.000127433
0.000117533
0.000117533
0.000117533
0.00013499
0.00013499
0.00013499
0.000126657
0.000126657
0.000126657
0.000127082
0.000127082
0.000127082
0.000118525
0.000118525
0.000118525
0.000108036
0.000108036
0.000108036
0.000107379
0.000107379
0.000107379
0
0
0
0
0
0
0
0
0
0
0
0
0.000193363
0.000193363
0.000193363
0.000196796
0.000196796
0.000196796
0.000173321
0.000173321
0.000173321
0.000207164
0.000207164
0.000207164
0.000206431
0.000206431
0.000206431
0.00020916
0.00020916
0.00020916
0.000210176
0.000210176
0.000210176
0.000211365
0.000211365
0.000211365
0.000212724
0.000212724
0.000212724
0.000189632
0.000189632
0.000189632
0.000194569
0.000194569
0.000194569
0.000195714
0.000195714
0.000195714
0.0001654
0.0001654
0.0001654
0.000185664
0.000185664
0.000185664
0.0001804
0.0001804
0.0001804
0.000197556
0.000197556
0.000197556
0.000196397
0.000196397
0.000196397
0.000218737
0.000218737
0.000218737
0.000220078
0.000220078
0.000220078
0.000218206
0.000218206
0.000218206
0.000231519
0.000231519
0.000231519
0.000228651
0.000228651
0.000228651
0.000221983
0.000221983
0.000221983
0.000222794
0.000222794
0.000222794
3.67073e-05
3.67073e-05
3.67073e-05
0.000156488
0.000156488
0.000156488
0.000164938
0.000164938
0.000164938
0.000224443
0.000224443
0.000224443
0.000227236
0.000227236
0.000227236
0.000145149
0.000145149
0.000145149
6.97129e-05
6.97129e-05
6.97129e-05
2.28293e-05
2.28293e-05
2.28293e-05
3.15652e-05
3.15652e-05
3.15652e-05
3.06209e-05
3.06209e-05
3.06209e-05
2.22817e-05
2.22817e-05
2.22817e-05
1.3827e-05
1.3827e-05
1.3827e-05
4.08424e-05
4.08424e-05
4.08424e-05
5.66864e-05
5.66864e-05
5.66864e-05
4.82557e-05
4.82557e-05
4.82557e-05
0
0
0
0
0
0
2.24169e-05
2.24169e-05
2.24169e-05
2.26907e-05
2.26907e-05
2.26907e-05
5.48069e-06
5.48069e-06
5.48069e-06
1.40803e-05
1.40803e-05
1.40803e-05
1.39952e-05
1.39952e-05
1.39952e-05
0
0
0
0
0
0
0
0
0
0
0
0
0.000175672
0.000175672
0.000175672
0.000166474
0.000166474
0.000166474
0.000156361
0.000156361
0.000156361
0.000164235
0.000164235
0.000164235
0.000179387
0.000179387
0.000179387
0.000128887
0.000128887
0.000128887
0.000124828
0.000124828
0.000124828
0.000130773
0.000130773
0.000130773
0.000126763
0.000126763
0.000126763
9.87202e-05
9.87202e-05
9.87202e-05
0.000108697
0.000108697
0.000108697
0.000103163
0.000103163
0.000103163
0.000116432
0.000116432
0.000116432
0.000116425
0.000116425
0.000116425
0.000119894
0.000119894
0.000119894
0.000147843
0.000147843
0.000147843
0.000151683
0.000151683
0.000151683
0.000143274
0.000143274
0.000143274
0.00013904
0.00013904
0.00013904
0.000136106
0.000136106
0.000136106
0.000106082
0.000106082
0.000106082
0.00011682
0.00011682
0.00011682
0.000105442
0.000105442
0.000105442
9.14774e-05
9.14774e-05
9.14774e-05
9.99001e-05
9.99001e-05
9.99001e-05
8.36075e-05
8.36075e-05
8.36075e-05
8.41056e-05
8.41056e-05
8.41056e-05
7.61528e-05
7.61528e-05
7.61528e-05
0
0
0
0
0
0
1.71477e-05
1.71477e-05
1.71477e-05
1.70462e-05
1.70462e-05
1.70462e-05
8.51464e-06
8.51464e-06
8.51464e-06
1.68455e-05
1.68455e-05
1.68455e-05
1.67463e-05
1.67463e-05
1.67463e-05
0
0
0
3.49928e-05
3.49928e-05
3.49928e-05
2.56018e-05
2.56018e-05
2.56018e-05
3.39574e-05
3.39574e-05
3.39574e-05
9.95151e-05
9.95151e-05
9.95151e-05
9.65409e-05
9.65409e-05
9.65409e-05
8.82334e-05
8.82334e-05
8.82334e-05
5.23376e-05
5.23376e-05
5.23376e-05
9.83108e-05
9.83108e-05
9.83108e-05
9.7716e-05
9.7716e-05
9.7716e-05
8.87681e-05
8.87681e-05
8.87681e-05
3.58525e-05
3.58525e-05
3.58525e-05
0.000164187
0.000164187
0.000164187
0.000162157
0.000162157
0.000162157
0
0
0
0
0
0
0
0
0
0
0
0
0
0
0
0
0
0
0
0
0
0
0
0
0
0
0
0
0
0
1.77745e-05
1.77745e-05
1.77745e-05
0
0
0
0
0
0
0
0
0
0
0
0
0
0
0
0
0
0
0
0
0
0
0
0
0
0
0
0
0
0
0
0
0
0
0
0
0
0
0
0
0
0
0
0
0
0
0
0
0
0
0
0
0
0
0
0
0
1.35566e-05
1.35566e-05
1.35566e-05
2.30415e-05
2.30415e-05
2.30415e-05
0
0
0
0
0
0
0
0
0
0
0
0
0
0
0
0
0
0
0
0
0
2.30289e-05
2.30289e-05
2.30289e-05
0
0
0
0
0
0
1.35491e-05
1.35491e-05
1.35491e-05
2.30156e-05
2.30156e-05
2.30156e-05
2.29572e-05
2.29572e-05
2.29572e-05
0.000192328
0.000192328
0.000192328
9.03962e-05
9.03962e-05
9.03962e-05
9.08436e-05
9.08436e-05
9.08436e-05
0.000112732
0.000112732
0.000112732
0.000101147
0.000101147
0.000101147
0.000214513
0.000214513
0.000214513
0.000216348
0.000216348
0.000216348
0.000215038
0.000215038
0.000215038
0.000206927
0.000206927
0.000206927
6.60108e-05
6.60108e-05
6.60108e-05
6.6409e-05
6.6409e-05
6.6409e-05
7.39631e-05
7.39631e-05
7.39631e-05
0.000158897
0.000158897
0.000158897
0.000150322
0.000150322
0.000150322
0.000205203
0.000205203
0.000205203
0.000204705
0.000204705
0.000204705
0.000203909
0.000203909
0.000203909
0.000202775
0.000202775
0.000202775
0.00020349
0.00020349
0.00020349
0.000204431
0.000204431
0.000204431
0.000213219
0.000213219
0.000213219
0.000212973
0.000212973
0.000212973
0.000210421
0.000210421
0.000210421
0.000212452
0.000212452
0.000212452
0.000211175
0.000211175
0.000211175
0.000212201
0.000212201
0.000212201
0.000210927
0.000210927
0.000210927
0.000192307
0.000192307
0.000192307
0.000191189
0.000191189
0.000191189
0.000190737
0.000190737
0.000190737
0.000187894
0.000187894
0.000187894
0.000168169
0.000168169
0.000168169
0.000174272
0.000174272
0.000174272
0.000195936
0.000195936
0.000195936
0.000195005
0.000195005
0.000195005
0.000196621
0.000196621
0.000196621
0.000196154
0.000196154
0.000196154
0.00022089
0.00022089
0.00022089
0.000222249
0.000222249
0.000222249
0.000223064
0.000223064
0.000223064
0.000232972
0.000232972
0.000232972
0.000202358
0.000202358
0.000202358
0.000105197
0.000105197
0.000105197
6.28643e-06
6.28643e-06
6.28643e-06
1.59432e-05
1.59432e-05
1.59432e-05
1.60452e-05
1.60452e-05
1.60452e-05
0.000157481
0.000157481
0.000157481
0.000159493
0.000159493
0.000159493
0.000205369
0.000205369
0.000205369
0.000204079
0.000204079
0.000204079
0.0001064
0.0001064
0.0001064
0.000142588
0.000142588
0.000142588
0.000124315
0.000124315
0.000124315
0.000132254
0.000132254
0.000132254
0.000136369
0.000136369
0.000136369
0.000127403
0.000127403
0.000127403
0.000117422
0.000117422
0.000117422
0.000225004
0.000225004
0.000225004
0.000226399
0.000226399
0.000226399
0.00022417
0.00022417
0.00022417
0.000230937
0.000230937
0.000230937
0.000222828
0.000222828
0.000222828
0.000229501
0.000229501
0.000229501
0.000220061
0.000220061
0.000220061
0.000213681
0.000213681
0.000213681
0.000212347
0.000212347
0.000212347
0.00010575
0.00010575
0.00010575
0.00011318
0.00011318
0.00011318
0.000113872
0.000113872
0.000113872
6.88666e-05
6.88666e-05
6.88666e-05
1.42526e-05
1.42526e-05
1.42526e-05
5.51412e-06
5.51412e-06
5.51412e-06
3.17588e-05
3.17588e-05
3.17588e-05
0
0
0
0
0
0
0
0
0
0
0
0
0
0
0
0
0
0
0
0
0
0
0
0
0
0
0
0
0
0
0
0
0
0
0
0
0
0
0
0
0
0
4.18479e-05
4.18479e-05
4.18479e-05
5.06549e-05
5.06549e-05
5.06549e-05
5.91458e-05
5.91458e-05
5.91458e-05
5.87858e-05
5.87858e-05
5.87858e-05
0
0
0
0
0
0
0
0
0
1.3744e-05
1.3744e-05
1.3744e-05
1.35798e-05
1.35798e-05
1.35798e-05
5.31757e-06
5.31757e-06
5.31757e-06
5.28572e-06
5.28572e-06
5.28572e-06
3.00723e-05
3.00723e-05
3.00723e-05
2.18825e-05
2.18825e-05
2.18825e-05
2.20145e-05
2.20145e-05
2.20145e-05
3.04365e-05
3.04365e-05
3.04365e-05
4.03518e-05
4.03518e-05
4.03518e-05
4.01094e-05
4.01094e-05
4.01094e-05
5.80746e-05
5.80746e-05
5.80746e-05
6.84487e-05
6.84487e-05
6.84487e-05
0
0
0
0
0
0
0
0
0
0
0
0
0
0
0
0
0
0
0
0
0
0
0
0
0
0
0
0
0
0
0
0
0
0
0
0
0
0
0
0
0
0
0
0
0
0
0
0
0
0
0
0
0
0
0
0
0
0
0
0
0
0
0
0
0
0
0
0
0
0
0
0
0
0
0
0
0
0
0
0
0
0
0
0
0
0
0
0
0
0
0
0
0
0
0
0
0
0
0
0
0
0
0
0
0
0
0
0
7.52548e-05
7.52548e-05
7.52548e-05
8.26226e-05
8.26226e-05
8.26226e-05
7.48109e-05
7.48109e-05
7.48109e-05
0
0
0
0
0
0
0
0
0
0
0
0
0
0
0
0
0
0
0
0
0
0
0
0
0.000171132
0.000171132
0.000171132
0.000180005
0.000180005
0.000180005
0.000179573
0.000179573
0.000179573
0.000158218
0.000158218
0.000158218
0.000178318
0.000178318
0.000178318
0.00017584
0.00017584
0.00017584
0.000131193
0.000131193
0.000131193
0.000145007
0.000145007
0.000145007
0.000143694
0.000143694
0.000143694
0.00013749
0.00013749
0.00013749
0.000138519
0.000138519
0.000138519
0.00013417
0.00013417
0.00013417
0.000125125
0.000125125
0.000125125
0.000136025
0.000136025
0.000136025
0.00013017
0.00013017
0.00013017
0.000113342
0.000113342
0.000113342
0.000122133
0.000122133
0.000122133
0.000127845
0.000127845
0.000127845
0.000133591
0.000133591
0.000133591
0.000129389
0.000129389
0.000129389
0.000119951
0.000119951
0.000119951
0.000120673
0.000120673
0.000120673
0.000112663
0.000112663
0.000112663
0.000102315
0.000102315
0.000102315
8.51135e-05
8.51135e-05
8.51135e-05
7.6607e-05
7.6607e-05
7.6607e-05
0.000110657
0.000110657
0.000110657
0.000100497
0.000100497
0.000100497
0.00011132
0.00011132
0.00011132
0.000101704
0.000101704
0.000101704
9.25722e-05
9.25722e-05
9.25722e-05
9.3126e-05
9.3126e-05
9.3126e-05
0.000103551
0.000103551
0.000103551
0.000104176
0.000104176
0.000104176
9.59604e-05
9.59604e-05
9.59604e-05
8.71769e-05
8.71769e-05
8.71769e-05
0
0
0
0
0
0
0
0
0
0
0
0
0
0
0
0
0
0
0
0
0
0
0
0
0
0
0
0
0
0
3.37553e-05
3.37553e-05
3.37553e-05
3.33559e-05
3.33559e-05
3.33559e-05
2.52987e-05
2.52987e-05
2.52987e-05
2.5149e-05
2.5149e-05
2.5149e-05
4.34243e-05
4.34243e-05
4.34243e-05
4.3166e-05
4.3166e-05
4.3166e-05
1.73533e-05
1.73533e-05
1.73533e-05
2.57552e-05
2.57552e-05
2.57552e-05
8.92781e-06
8.92781e-06
8.92781e-06
2.62229e-05
2.62229e-05
2.62229e-05
2.60658e-05
2.60658e-05
2.60658e-05
1.74573e-05
1.74573e-05
1.74573e-05
1.76679e-05
1.76679e-05
1.76679e-05
8.98135e-06
8.98135e-06
8.98135e-06
3.56349e-05
3.56349e-05
3.56349e-05
2.67023e-05
2.67023e-05
2.67023e-05
2.65412e-05
2.65412e-05
2.65412e-05
3.52051e-05
3.52051e-05
3.52051e-05
4.45607e-05
4.45607e-05
4.45607e-05
5.52664e-05
5.52664e-05
5.52664e-05
4.44006e-05
4.44006e-05
4.44006e-05
4.46088e-05
4.46088e-05
4.46088e-05
7.89321e-05
7.89321e-05
7.89321e-05
6.06617e-05
6.06617e-05
6.06617e-05
7.94082e-05
7.94082e-05
7.94082e-05
6.93805e-05
6.93805e-05
6.93805e-05
9.03985e-05
9.03985e-05
9.03985e-05
8.98506e-05
8.98506e-05
8.98506e-05
7.06478e-05
7.06478e-05
7.06478e-05
8.08599e-05
8.08599e-05
8.08599e-05
6.97995e-05
6.97995e-05
6.97995e-05
8.03721e-05
8.03721e-05
8.03721e-05
5.56056e-05
5.56056e-05
5.56056e-05
6.48498e-05
6.48498e-05
6.48498e-05
4.49458e-05
4.49458e-05
4.49458e-05
7.37299e-05
7.37299e-05
7.37299e-05
8.30922e-05
8.30922e-05
8.30922e-05
6.52501e-05
6.52501e-05
6.52501e-05
0
0
0
2.70286e-05
2.70286e-05
2.70286e-05
2.71939e-05
2.71939e-05
2.71939e-05
1.83211e-05
1.83211e-05
1.83211e-05
9.31201e-06
9.31201e-06
9.31201e-06
0.000166833
0.000166833
0.000166833
0.000153373
0.000153373
0.000153373
0.000149512
0.000149512
0.000149512
0.000157873
0.000157873
0.000157873
0.000152962
0.000152962
0.000152962
0.000142612
0.000142612
0.000142612
0.000156989
0.000156989
0.000156989
0.000160963
0.000160963
0.000160963
0.000155963
0.000155963
0.000155963
0.000145393
0.000145393
0.000145393
0.000153952
0.000153952
0.000153952
0.000144458
0.000144458
0.000144458
0.00013118
0.00013118
0.00013118
0.000132023
0.000132023
0.000132023
0
0
0
0
0
0
0
0
0
0
0
0
8.76978e-06
8.76978e-06
8.76978e-06
8.82203e-06
8.82203e-06
8.82203e-06
0
0
0
9.08974e-06
9.08974e-06
9.08974e-06
0
0
0
0
0
0
0
0
0
0
0
0
0
0
0
0
0
0
0
0
0
0
0
0
0
0
0
0
0
0
0
0
0
0
0
0
0
0
0
0
0
0
0
0
0
0
0
0
0
0
0
0
0
0
0
0
0
0
0
0
0
0
0
0
0
0
0
0
0
0
0
0
0
0
0
0
0
0
0
0
0
0
0
0
0
0
0
0
0
0
0
0
0
0
0
0
0
0
0
0
0
0
0
0
0
0
0
0
0
0
0
0
0
0
0
0
0
0
0
0
0
0
0
0
0
0
0
0
0
0
0
0
0
0
0
0
0
0
0
0
0
0
0
0
6.16718e-06
6.16718e-06
6.16718e-06
6.12814e-06
6.12814e-06
6.12814e-06
0
0
0
0
0
0
0
0
0
0
0
0
0
0
0
0
0
0
0
0
0
0
0
0
0
0
0
0
0
0
0
0
0
0
0
0
0
0
0
0
0
0
0
0
0
0
0
0
0
0
0
0
0
0
2.75286e-05
2.75286e-05
2.75286e-05
1.84332e-05
1.84332e-05
1.84332e-05
0
0
0
0
0
0
0
0
0
0
0
0
0
0
0
0
0
0
0
0
0
0
0
0
0
0
0
0
0
0
0
0
0
0
0
0
0
0
0
0
0
0
0
0
0
0
0
0
0
0
0
0
0
0
0
0
0
0
0
0
0
0
0
0
0
0
0
0
0
0
0
0
0
0
0
2.29411e-05
2.29411e-05
2.29411e-05
1.35065e-05
1.35065e-05
1.35065e-05
0
0
0
2.30019e-05
2.30019e-05
2.30019e-05
1.35412e-05
1.35412e-05
1.35412e-05
2.29726e-05
2.29726e-05
2.29726e-05
1.35157e-05
1.35157e-05
1.35157e-05
0
0
0
0
0
0
7.31524e-05
7.31524e-05
7.31524e-05
7.06456e-05
7.06456e-05
7.06456e-05
0.000149286
0.000149286
0.000149286
0.000173698
0.000173698
0.000173698
0.000179372
0.000179372
0.000179372
9.20329e-05
9.20329e-05
9.20329e-05
9.26356e-05
9.26356e-05
9.26356e-05
0.000114206
0.000114206
0.000114206
0.000101806
0.000101806
0.000101806
8.16244e-05
8.16244e-05
8.16244e-05
8.10953e-05
8.10953e-05
8.10953e-05
0.000178095
0.000178095
0.000178095
0.000201071
0.000201071
0.000201071
0.000259459
0.000259459
0.000259459
0.000259102
0.000259102
0.000259102
0.000258342
0.000258342
0.000258342
0.000258729
0.000258729
0.000258729
0.000254974
0.000254974
0.000254974
0.000217134
0.000217134
0.000217134
0.00020819
0.00020819
0.00020819
0.000173234
0.000173234
0.000173234
0.0001743
0.0001743
0.0001743
0.000159867
0.000159867
0.000159867
0.000191351
0.000191351
0.000191351
0.000177562
0.000177562
0.000177562
0.000170089
0.000170089
0.000170089
0.000171129
0.000171129
0.000171129
0.000186026
0.000186026
0.000186026
0.000176488
0.000176488
0.000176488
0.000167022
0.000167022
0.000167022
0.000168036
0.000168036
0.000168036
0.000174368
0.000174368
0.000174368
0.000182683
0.000182683
0.000182683
0.000183788
0.000183788
0.000183788
0.000156981
0.000156981
0.000156981
0.000149412
0.000149412
0.000149412
0.000165018
0.000165018
0.000165018
0.000156035
0.000156035
0.000156035
0.000147614
0.000147614
0.000147614
0.00012281
0.00012281
0.00012281
0.000131452
0.000131452
0.000131452
0.000140864
0.000140864
0.000140864
0.000140013
0.000140013
0.000140013
0.000205439
0.000205439
0.000205439
0.000206669
0.000206669
0.000206669
0.000162072
0.000162072
0.000162072
0.000164028
0.000164028
0.000164028
0.000203007
0.000203007
0.000203007
0.000190207
0.000190207
0.000190207
0.000180499
0.000180499
0.000180499
0.000184234
0.000184234
0.000184234
0.00018745
0.00018745
0.00018745
0.00018637
0.00018637
0.00018637
0.000184677
0.000184677
0.000184677
0.000185742
0.000185742
0.000185742
0.00018675
0.00018675
0.00018675
0.000183559
0.000183559
0.000183559
0.000185299
0.000185299
0.000185299
0.00018446
0.00018446
0.00018446
0.000181145
0.000181145
0.000181145
0.000184014
0.000184014
0.000184014
0.000191612
0.000191612
0.000191612
0.000192734
0.000192734
0.000192734
0.00019095
0.00019095
0.00019095
0.000191404
0.000191404
0.000191404
0.000194789
0.000194789
0.000194789
0.000194105
0.000194105
0.000194105
0.000192973
0.000192973
0.000192973
0.000192523
0.000192523
0.000192523
0.000194326
0.000194326
0.000194326
0.000193192
0.000193192
0.000193192
0.000181367
0.000181367
0.000181367
0.000189161
0.000189161
0.000189161
0.000171289
0.000171289
0.000171289
0.000171086
0.000171086
0.000171086
0.000179683
0.000179683
0.000179683
0.0001803
0.0001803
0.0001803
0.000186208
0.000186208
0.000186208
0.000186947
0.000186947
0.000186947
0.000216384
0.000216384
0.000216384
0.000224231
0.000224231
0.000224231
0.000233845
0.000233845
0.000233845
0.000211989
0.000211989
0.000211989
0.00023066
0.00023066
0.00023066
0.000229227
0.000229227
0.000229227
9.57328e-05
9.57328e-05
9.57328e-05
0.000105894
0.000105894
0.000105894
0.000117238
0.000117238
0.000117238
0.00012792
0.00012792
0.00012792
0
0
0
0
0
0
0
0
0
0
0
0
0
0
0
0
0
0
0
0
0
0
0
0
6.33302e-06
6.33302e-06
6.33302e-06
2.65394e-05
2.65394e-05
2.65394e-05
9.4477e-05
9.4477e-05
9.4477e-05
9.38576e-05
9.38576e-05
9.38576e-05
2.58652e-05
2.58652e-05
2.58652e-05
3.55442e-05
3.55442e-05
3.55442e-05
4.83487e-05
4.83487e-05
4.83487e-05
6.87874e-05
6.87874e-05
6.87874e-05
6.83433e-05
6.83433e-05
6.83433e-05
5.81618e-05
5.81618e-05
5.81618e-05
4.86625e-05
4.86625e-05
4.86625e-05
5.89198e-05
5.89198e-05
5.89198e-05
3.62358e-05
3.62358e-05
3.62358e-05
2.63686e-05
2.63686e-05
2.63686e-05
1.63567e-05
1.63567e-05
1.63567e-05
1.62519e-05
1.62519e-05
1.62519e-05
2.60315e-05
2.60315e-05
2.60315e-05
3.60032e-05
3.60032e-05
3.60032e-05
0.000112499
0.000112499
0.000112499
9.36744e-05
9.36744e-05
9.36744e-05
0.000103763
0.000103763
0.000103763
0.000104417
0.000104417
0.000104417
5.28889e-05
5.28889e-05
5.28889e-05
6.21375e-05
6.21375e-05
6.21375e-05
6.25261e-05
6.25261e-05
6.25261e-05
5.35522e-05
5.35522e-05
5.35522e-05
9.54681e-05
9.54681e-05
9.54681e-05
9.4267e-05
9.4267e-05
9.4267e-05
0.000106413
0.000106413
0.000106413
0.000105741
0.000105741
0.000105741
7.55788e-05
7.55788e-05
7.55788e-05
8.52078e-05
8.52078e-05
8.52078e-05
8.5749e-05
8.5749e-05
8.5749e-05
7.65418e-05
7.65418e-05
7.65418e-05
7.51036e-05
7.51036e-05
7.51036e-05
8.41398e-05
8.41398e-05
8.41398e-05
5.38882e-05
5.38882e-05
5.38882e-05
5.45692e-05
5.45692e-05
5.45692e-05
6.33135e-05
6.33135e-05
6.33135e-05
6.37125e-05
6.37125e-05
6.37125e-05
0.000194804
0.000194804
0.000194804
0.000174344
0.000174344
0.000174344
0.000181112
0.000181112
0.000181112
0.000191453
0.000191453
0.000191453
0.000160513
0.000160513
0.000160513
0.000170251
0.000170251
0.000170251
0.000171342
0.000171342
0.000171342
0.000146999
0.000146999
0.000146999
0.000147936
0.000147936
0.000147936
9.60767e-05
9.60767e-05
9.60767e-05
0.000107773
0.000107773
0.000107773
0.000120373
0.000120373
0.000120373
0.000102473
0.000102473
0.000102473
0.000111798
0.000111798
0.000111798
0.00014346
0.00014346
0.00014346
0.000152165
0.000152165
0.000152165
0.000125078
0.000125078
0.000125078
0.000126621
0.000126621
0.000126621
0.000134703
0.000134703
0.000134703
0.00013388
0.00013388
0.00013388
0.000115274
0.000115274
0.000115274
0.000115984
0.000115984
0.000115984
0.000155944
0.000155944
0.000155944
0.000164838
0.000164838
0.000164838
0.000165858
0.000165858
0.000165858
0.000157882
0.000157882
0.000157882
0.000124208
0.000124208
0.000124208
0.00011392
0.00011392
0.00011392
0.000114641
0.000114641
0.000114641
0.000144236
0.000144236
0.000144236
0.00013475
0.00013475
0.00013475
0.000224733
0.000224733
0.000224733
0.000223266
0.000223266
0.000223266
0.000201534
0.000201534
0.000201534
0.00018432
0.00018432
0.00018432
0.000193583
0.000193583
0.000193583
5.0966e-05
5.0966e-05
5.0966e-05
4.23632e-05
4.23632e-05
4.23632e-05
5.25615e-05
5.25615e-05
5.25615e-05
4.34203e-05
4.34203e-05
4.34203e-05
0.000104468
0.000104468
0.000104468
7.81071e-05
7.81071e-05
7.81071e-05
7.76315e-05
7.76315e-05
7.76315e-05
8.69511e-05
8.69511e-05
8.69511e-05
8.58956e-05
8.58956e-05
8.58956e-05
9.69334e-05
9.69334e-05
9.69334e-05
9.63435e-05
9.63435e-05
9.63435e-05
1.43398e-05
1.43398e-05
1.43398e-05
2.32519e-05
2.32519e-05
2.32519e-05
2.31099e-05
2.31099e-05
2.31099e-05
1.45165e-05
1.45165e-05
1.45165e-05
5.61608e-06
5.61608e-06
5.61608e-06
5.58181e-06
5.58181e-06
5.58181e-06
0
0
0
0
0
0
0
0
0
0
0
0
0
0
0
0
0
0
0
0
0
0
0
0
0
0
0
0
0
0
0
0
0
0
0
0
0
0
0
0
0
0