<VTKFile type="UnstructuredGrid" version="1.0">
<UnstructuredGrid>
<Piece NumberOfPoints="10830" NumberOfCells="3610">
<Points>
<DataArray type="Float64" NumberOfComponents="3" format="ascii">
2.19217 2.20649 0.0257489
2.19928 2.19938 0
2.19928 2.19938 0.0514594
2.19928 2.19938 0.555078
2.19928 2.19938 0.605999
2.19129 2.20737 0.580532
2.19928 2.19938 0.555078
2.19129 2.20737 0.580532
2.17928 2.21938 0.555099
1.30559 3.09307 1.02759
1.31816 3.0805 1.045
1.28831 3.11035 1.045
1.28831 3.11035 1.045
1.28831 3.11035 1.01484
1.30559 3.09307 1.02759
2.19928 2.19938 0.555078
2.17928 2.21938 0.555099
2.1913 2.20736 0.529679
1.29441 3.10425 0.276786
1.28831 3.11035 0.302009
1.28831 3.11035 0.251574
2.19132 2.20734 0.2769
2.19928 2.19938 0.302091
2.17929 2.21937 0.302114
2.19117 2.20749 0.17634
2.19928 2.19938 0.151284
2.19928 2.19938 0.201394
2.17929 2.21937 0.302114
2.19928 2.19938 0.302091
2.19133 2.20733 0.327315
2.19928 2.19938 0.302091
2.19928 2.19938 0.352537
2.19133 2.20733 0.327315
2.17929 2.21937 0.352551
2.19133 2.20733 0.327315
2.19928 2.19938 0.352537
2.17928 2.21938 0.504308
2.1913 2.20736 0.529679
2.16946 2.22921 0.529697
2.16946 2.22921 0.529697
2.1913 2.20736 0.529679
2.17928 2.21938 0.555099
2.16946 2.22921 0.529697
2.15842 2.24024 0.504324
2.17928 2.21938 0.504308
2.16946 2.22921 0.529697
2.17928 2.21938 0.555099
2.15841 2.24025 0.555118
2.19928 2.19938 0.403041
2.19928 2.19938 0.453619
2.19132 2.20734 0.428326
2.19132 2.20734 0.428326
2.17929 2.21937 0.453633
2.16947 2.22919 0.428339
2.19928 2.19938 0.453619
2.17929 2.21937 0.453633
2.19132 2.20734 0.428326
2.19928 2.19938 0.504291
2.1913 2.20736 0.529679
2.17928 2.21938 0.504308
2.19928 2.19938 0.555078
2.1913 2.20736 0.529679
2.19928 2.19938 0.504291
2.17913 2.21954 0.151322
2.19928 2.19938 0.151284
2.19117 2.20749 0.17634
2.17927 2.21939 0.606025
2.19129 2.20737 0.580532
2.19928 2.19938 0.605999
1.8956 2.50306 0.785748
1.90602 2.49264 0.759978
1.91643 2.48223 0.785725
1.28831 3.11035 0
1.30792 3.09074 -5.6077e-14
1.29529 3.10337 0.024705
1.34771 3.05096 0.251587
1.32717 3.07149 0.251567
1.33709 3.06157 0.226374
1.30704 3.09162 0.251562
1.32717 3.07149 0.251567
1.31607 3.08259 0.276779
1.30704 3.09162 0.251562
1.29441 3.10425 0.276786
1.28831 3.11035 0.251574
1.31607 3.08259 0.276779
1.29441 3.10425 0.276786
1.30704 3.09162 0.251562
1.2945 3.10417 0.478941
1.28831 3.11035 0.504301
1.28831 3.11035 0.453605
1.3071 3.09157 0.504296
1.31615 3.08252 0.478935
1.32724 3.07142 0.504293
1.28831 3.11035 0.504301
1.2945 3.10417 0.478941
1.3071 3.09157 0.504296
1.3071 3.09157 0.504296
1.2945 3.10417 0.478941
1.31615 3.08252 0.478935
1.30708 3.09158 0.453601
1.32723 3.07143 0.453599
1.31615 3.08252 0.478935
1.30708 3.09158 0.453601
1.2945 3.10417 0.478941
1.28831 3.11035 0.453605
1.31615 3.08252 0.478935
1.2945 3.10417 0.478941
1.30708 3.09158 0.453601
1.28831 3.11035 0.302009
1.29441 3.10425 0.276786
1.30705 3.09161 0.302001
1.30705 3.09161 0.302001
1.29441 3.10425 0.276786
1.31607 3.08259 0.276779
1.32724 3.07142 0.504293
1.31615 3.08252 0.478935
1.33718 3.06148 0.478933
1.31615 3.08252 0.478935
1.32723 3.07143 0.453599
1.33718 3.06148 0.478933
1.49256 2.90611 0.453669
1.50289 2.89577 0.479013
1.48223 2.91643 0.479001
1.48223 2.91643 0.479001
1.50289 2.89577 0.479013
1.49257 2.90609 0.504372
1.49257 2.90609 0.504372
1.50289 2.89577 0.479013
1.51323 2.88543 0.504385
1.88521 2.51346 0.759998
1.90602 2.49264 0.759978
1.8956 2.50306 0.785748
2.19127 2.20739 0.226555
2.19928 2.19938 0.201394
2.19928 2.19938 0.251699
2.19928 2.19938 0.302091
2.19132 2.20734 0.2769
2.19928 2.19938 0.251699
2.11618 2.28248 0.403096
2.09503 2.30363 0.40311
2.10562 2.29304 0.377846
2.17929 2.21937 0.403053
2.19132 2.20734 0.428326
2.16947 2.22919 0.428339
2.19928 2.19938 0.403041
2.19132 2.20734 0.428326
2.17929 2.21937 0.403053
2.16947 2.22919 0.428339
2.17929 2.21937 0.453633
2.15843 2.24024 0.453647
2.19131 2.20735 0.47895
2.17929 2.21937 0.453633
2.19928 2.19938 0.453619
2.19928 2.19938 0.453619
2.19928 2.19938 0.504291
2.19131 2.20735 0.47895
2.19131 2.20735 0.47895
2.19928 2.19938 0.504291
2.17928 2.21938 0.504308
2.1693 2.22936 0.176367
2.17913 2.21954 0.151322
2.19117 2.20749 0.17634
2.19127 2.20739 0.226555
2.19928 2.19938 0.251699
2.17927 2.21939 0.251744
2.17927 2.21939 0.251744
2.19928 2.19938 0.251699
2.19132 2.20734 0.2769
2.10553 2.29313 0.226614
2.09491 2.30375 0.201434
2.11605 2.28261 0.201432
2.1372 2.26147 0.201451
2.12662 2.27204 0.176261
2.14787 2.25079 0.176315
2.1372 2.26147 0.201451
2.11605 2.28261 0.201432
2.12662 2.27204 0.176261
2.16946 2.2292 0.276933
2.19132 2.20734 0.2769
2.17929 2.21937 0.302114
2.16946 2.2292 0.276933
2.17927 2.21939 0.251744
2.19132 2.20734 0.2769
2.16945 2.22921 0.580555
2.17928 2.21938 0.555099
2.19129 2.20737 0.580532
2.19129 2.20737 0.580532
2.17927 2.21939 0.606025
2.16945 2.22921 0.580555
2.15841 2.24025 0.555118
2.17928 2.21938 0.555099
2.16945 2.22921 0.580555
2.16944 2.22922 0.734055
2.14804 2.25062 0.734064
2.15841 2.24025 0.708373
2.14804 2.25063 0.682738
2.16944 2.22922 0.682719
2.15841 2.24025 0.708373
2.19128 2.20738 0.63153
2.17927 2.21939 0.606025
2.19928 2.19938 0.605999
2.16944 2.22922 0.631556
2.17927 2.21939 0.606025
2.19128 2.20738 0.63153
1.93725 2.46141 0.837317
1.94766 2.451 0.86316
1.92679 2.47187 0.863195
2.05276 2.34591 0.708429
2.06331 2.33535 0.682792
2.07386 2.3248 0.708414
2.07386 2.3248 0.708414
2.06331 2.33535 0.682792
2.08443 2.31423 0.682778
2.15841 2.24026 0.657127
2.14804 2.25062 0.631578
2.16944 2.22922 0.631556
2.15841 2.24026 0.657127
2.16944 2.22922 0.682719
2.14804 2.25063 0.682738
2.04222 2.35644 0.682809
2.06331 2.33535 0.682792
2.05276 2.34591 0.708429
1.9897 2.40896 0.453738
1.96874 2.42992 0.453743
1.97921 2.41945 0.428435
1.93736 2.4613 0.42844
1.92692 2.47174 0.45375
1.91649 2.48217 0.428441
1.94781 2.45085 0.453747
1.92692 2.47174 0.45375
1.93736 2.4613 0.42844
1.92691 2.47175 0.35265
1.9478 2.45086 0.352655
1.93736 2.46131 0.377895
1.93736 2.46131 0.377895
1.91648 2.48218 0.377891
1.92691 2.47175 0.35265
1.92691 2.47175 0.35265
1.91648 2.48218 0.377891
1.90605 2.49261 0.352644
1.93736 2.46131 0.377895
1.9478 2.45086 0.352655
1.95826 2.4404 0.377896
1.96871 2.42995 0.302232
1.9792 2.41946 0.327437
1.95825 2.44041 0.327435
1.95825 2.44041 0.327435
1.94778 2.45088 0.302227
1.96871 2.42995 0.302232
1.8126 2.58607 0.479091
1.82295 2.57571 0.453749
1.83332 2.56534 0.479092
1.82295 2.57571 0.453749
1.84369 2.55497 0.453751
1.83332 2.56534 0.479092
1.92692 2.47174 0.403156
1.91648 2.48218 0.377891
1.93736 2.46131 0.377895
1.92692 2.47174 0.403156
1.93736 2.4613 0.42844
1.91649 2.48217 0.428441
1.91649 2.48217 0.428441
1.89565 2.50301 0.42844
1.90606 2.4926 0.403154
1.90606 2.4926 0.403154
1.92692 2.47174 0.403156
1.91649 2.48217 0.428441
1.91648 2.48218 0.377891
1.92692 2.47174 0.403156
1.90606 2.4926 0.403154
1.90605 2.49261 0.352644
1.88523 2.51343 0.352637
1.89563 2.50303 0.327412
1.88521 2.51345 0.302193
1.90603 2.49263 0.302206
1.89563 2.50303 0.327412
1.51322 2.88545 0.45368
1.50289 2.89577 0.479013
1.49256 2.90611 0.453669
1.49256 2.90611 0.453669
1.50288 2.89578 0.428361
1.51322 2.88545 0.45368
1.29442 3.10424 0.0748701
1.28831 3.11035 0.100085
1.28831 3.11035 0.0494157
1.28831 3.11035 0
1.29529 3.10337 0.024705
1.28831 3.11035 0.0494157
1.307 3.09167 0.150698
1.28831 3.11035 0.150672
1.29431 3.10435 0.12542
1.28831 3.11035 0.150672
1.28831 3.11035 0.100085
1.29431 3.10435 0.12542
2.19928 2.19938 0
2.19217 2.20649 0.0257489
2.18013 2.21854 1.13803e-14
1.28831 3.11035 0.251574
1.28831 3.11035 0.201144
1.29438 3.10428 0.226356
1.29438 3.10428 0.226356
1.30704 3.09162 0.251562
1.28831 3.11035 0.251574
1.30702 3.09164 0.201134
1.29438 3.10428 0.226356
1.28831 3.11035 0.201144
1.30702 3.09164 0.201134
1.31601 3.08265 0.175937
1.32714 3.07152 0.20116
1.31605 3.08262 0.226352
1.33709 3.06157 0.226374
1.32717 3.07149 0.251567
1.32717 3.07149 0.251567
1.30704 3.09162 0.251562
1.31605 3.08262 0.226352
1.32714 3.07152 0.20116
1.33709 3.06157 0.226374
1.31605 3.08262 0.226352
1.31605 3.08262 0.226352
1.30702 3.09164 0.201134
1.32714 3.07152 0.20116
1.30704 3.09162 0.251562
1.29438 3.10428 0.226356
1.31605 3.08262 0.226352
1.29438 3.10428 0.226356
1.30702 3.09164 0.201134
1.31605 3.08262 0.226352
1.29435 3.10432 0.175915
1.28831 3.11035 0.201144
1.28831 3.11035 0.150672
1.29435 3.10432 0.175915
1.28831 3.11035 0.150672
1.307 3.09167 0.150698
1.307 3.09167 0.150698
1.31601 3.08265 0.175937
1.29435 3.10432 0.175915
1.29435 3.10432 0.175915
1.30702 3.09164 0.201134
1.28831 3.11035 0.201144
1.31601 3.08265 0.175937
1.30702 3.09164 0.201134
1.29435 3.10432 0.175915
1.33717 3.06149 0.428289
1.32723 3.07143 0.453599
1.31613 3.08254 0.428289
1.32723 3.07143 0.453599
1.30708 3.09158 0.453601
1.31613 3.08254 0.428289
1.31613 3.08254 0.428289
1.32722 3.07145 0.402998
1.33717 3.06149 0.428289
1.33711 3.06155 0.276785
1.32717 3.07149 0.251567
1.34771 3.05096 0.251587
1.31607 3.08259 0.276779
1.32717 3.07149 0.251567
1.33711 3.06155 0.276785
1.35794 3.04072 0.276801
1.33711 3.06155 0.276785
1.34771 3.05096 0.251587
1.34773 3.05094 0.302008
1.33711 3.06155 0.276785
1.35794 3.04072 0.276801
1.34773 3.05094 0.302008
1.35794 3.04072 0.276801
1.36839 3.03027 0.302022
1.50287 2.89579 0.3778
1.51321 2.88546 0.403074
1.49255 2.90612 0.403066
1.49255 2.90612 0.403066
1.51321 2.88546 0.403074
1.50288 2.89578 0.428361
1.42017 2.9785 0.428318
1.44086 2.9578 0.428329
1.43052 2.96814 0.453634
1.43051 2.96815 0.403035
1.44086 2.9578 0.428329
1.42017 2.9785 0.428318
1.44085 2.95782 0.377773
1.4305 2.96817 0.352518
1.45119 2.94748 0.352528
1.43051 2.96815 0.403035
1.42015 2.97851 0.377762
1.44085 2.95782 0.377773
1.44085 2.95782 0.377773
1.42015 2.97851 0.377762
1.4305 2.96817 0.352518
1.44087 2.95779 0.478975
1.46156 2.9371 0.478988
1.45123 2.94744 0.504344
1.3995 2.99917 0.529699
1.40985 2.98882 0.504317
1.4202 2.97846 0.529712
1.40983 2.98883 0.453623
1.42017 2.9785 0.428318
1.43052 2.96814 0.453634
1.39946 2.9992 0.428308
[...]
<PointData Scalars="View Factor" >
<DataArray type="Float64" Name="View Factor" NumberOfComponents="1" format="ascii">
0.00245709
0.00245709
0.00245709
0.000273208
0.000273208
0.000273208
0.00029548
0.00029548
0.00029548
0.00319629
0.00319629
0.00319629
0.00324144
0.00324144
0.00324144
0.000320794
0.000320794
0.000320794
0.00516015
0.00516015
0.00516015
0.00144356
0.00144356
0.00144356
0.00223245
0.00223245
0.00223245
0.00127974
0.00127974
0.00127974
0.0011374
0.0011374
0.0011374
0.00101526
0.00101526
0.00101526
0.000400897
0.000400897
0.000400897
0.000378099
0.000378099
0.000378099
0.000835027
0.000835027
0.000835027
0.000784142
0.000784142
0.000784142
0.000601034
0.000601034
0.000601034
0.000577789
0.000577789
0.000577789
0.00054579
0.00054579
0.00054579
0.00038026
0.00038026
0.00038026
0.000348761
0.000348761
0.000348761
0.00225956
0.00225956
0.00225956
0.000251835
0.000251835
0.000251835
0.000126843
0.000126843
0.000126843
0.00612686
0.00612686
0.00612686
0.00507153
0.00507153
0.00507153
0.00510434
0.00510434
0.00510434
0.00519023
0.00519023
0.00519023
0.00512284
0.00512284
0.00512284
0.00453578
0.00453578
0.00453578
0.00439112
0.00439112
0.00439112
0.00446495
0.00446495
0.00446495
0.00445465
0.00445465
0.00445465
0.0044854
0.0044854
0.0044854
0.00456102
0.00456102
0.00456102
0.00450227
0.00450227
0.00450227
0.00507841
0.00507841
0.00507841
0.00506744
0.00506744
0.00506744
0.00437741
0.00437741
0.00437741
0.00442423
0.00442423
0.00442423
0.00379782
0.00379782
0.00379782
0.00375779
0.00375779
0.00375779
0.00369912
0.00369912
0.00369912
0.000133368
0.000133368
0.000133368
0.00212711
0.00212711
0.00212711
0.00163018
0.00163018
0.00163018
0.000996851
0.000996851
0.000996851
0.000632951
0.000632951
0.000632951
0.000663461
0.000663461
0.000663461
0.000969082
0.000969082
0.000969082
0.000497011
0.000497011
0.000497011
0.000453607
0.000453607
0.000453607
0.000414957
0.000414957
0.000414957
0.002253
0.002253
0.002253
0.00199676
0.00199676
0.00199676
0.00182404
0.00182404
0.00182404
0.00224263
0.00224263
0.00224263
0.00225538
0.00225538
0.00225538
0.0022508
0.0022508
0.0022508
0.00153654
0.00153654
0.00153654
0.0017305
0.0017305
0.0017305
0.000340276
0.000340276
0.000340276
0.000325069
0.000325069
0.000325069
0.000761736
0.000761736
0.000761736
0.000585861
0.000585861
0.000585861
0.000610804
0.000610804
0.000610804
0.000233132
0.000233132
0.000233132
0.000297401
0.000297401
0.000297401
8.93034e-05
8.93034e-05
8.93034e-05
0.0001605
0.0001605
0.0001605
0.000166549
0.000166549
0.000166549
0.000654095
0.000654095
0.000654095
0.00062405
0.00062405
0.00062405
0.000166587
0.000166587
0.000166587
0.000554739
0.000554739
0.000554739
0.000616363
0.000616363
0.000616363
0.00057732
0.00057732
0.00057732
0.000973812
0.000973812
0.000973812
0.000937209
0.000937209
0.000937209
0.00100754
0.00100754
0.00100754
0.000905365
0.000905365
0.000905365
0.00124138
0.00124138
0.00124138
0.0013347
0.0013347
0.0013347
0.000592078
0.000592078
0.000592078
0.000612079
0.000612079
0.000612079
0.000839952
0.000839952
0.000839952
0.000681072
0.000681072
0.000681072
0.000703797
0.000703797
0.000703797
0.000728491
0.000728491
0.000728491
0.000809127
0.000809127
0.000809127
0.0011665
0.0011665
0.0011665
0.00148199
0.00148199
0.00148199
0.00377839
0.00377839
0.00377839
0.00381879
0.00381879
0.00381879
0.00589233
0.00589233
0.00589233
0.00609175
0.00609175
0.00609175
0.00560597
0.00560597
0.00560597
0.00569774
0.00569774
0.00569774
0.00248806
0.00248806
0.00248806
0.00533204
0.00533204
0.00533204
0.00524723
0.00524723
0.00524723
0.00536352
0.00536352
0.00536352
0.00533323
0.00533323
0.00533323
0.00514526
0.00514526
0.00514526
0.00516048
0.00516048
0.00516048
0.00520192
0.00520192
0.00520192
0.0052748
0.0052748
0.0052748
0.00523612
0.00523612
0.00523612
0.00529374
0.00529374
0.00529374
0.00551105
0.00551105
0.00551105
0.00554417
0.00554417
0.00554417
0.00547184
0.00547184
0.00547184
0.00542289
0.00542289
0.00542289
0.00541166
0.00541166
0.00541166
0.00451955
0.00451955
0.00451955
0.00453355
0.00453355
0.00453355
0.0045681
0.0045681
0.0045681
0.00501649
0.00501649
0.00501649
0.00503408
0.00503408
0.00503408
0.00494548
0.00494548
0.00494548
0.00489185
0.00489185
0.00489185
0.00482155
0.00482155
0.00482155
0.00394303
0.00394303
0.00394303
0.00390114
0.00390114
0.00390114
0.00412062
0.00412062
0.00412062
0.00416484
0.00416484
0.00416484
0.00428194
0.00428194
0.00428194
0.00425502
0.00425502
0.00425502
0.00430091
0.00430091
0.00430091
0.00391353
0.00391353
0.00391353
0.00398343
0.00398343
0.00398343
0.00413857
0.00413857
0.00413857
0.00420075
0.00420075
0.00420075
0.00431541
0.00431541
0.00431541
0.00455168
0.00455168
0.00455168
0.00448768
0.00448768
0.00448768
0.00432668
0.00432668
0.00432668
0.00440828
0.00440828
0.00440828
0.0044554
0.0044554
0.0044554
0.00444
0.00444
0.00444
0.00381888
0.00381888
0.00381888
0.00352727
0.00352727
0.00352727
0.0032556
0.0032556
0.0032556
0.00385766
0.00385766
0.00385766
0.0038766
0.0038766
0.0038766
0.00381351
0.00381351
0.00381351
0.00377668
0.00377668
0.00377668
0.00385414
0.00385414
0.00385414
0.00383568
0.00383568
0.00383568
0.00373691
0.00373691
0.00373691
0.00375534
0.00375534
0.00375534
0.0036588
0.0036588
0.0036588
0.00371589
0.00371589
0.00371589
0.0038665
0.0038665
0.0038665
0.00383147
0.00383147
0.00383147
0.00329287
0.00329287
0.00329287
0.000704676
0.000704676
0.000704676
0.00169679
0.00169679
0.00169679
0.000643693
0.000643693
0.000643693
0.00165696
0.00165696
0.00165696
0.00364043
0.00364043
0.00364043
0.00365529
0.00365529
0.00365529
0.00367902
0.00367902
0.00367902
0.000149201
0.000149201
0.000149201
0.000142177
0.000142177
0.000142177
0.00013071
0.00013071
0.00013071
0.000137367
0.000137367
0.000137367
0.000160296
0.000160296
0.000160296
0.000163824
0.000163824
0.000163824
0.000197878
0.000197878
0.000197878
0.000147582
0.000147582
0.000147582
6.24289e-05
6.24289e-05
6.24289e-05
6.51402e-05
6.51402e-05
6.51402e-05
5.85782e-05
5.85782e-05
5.85782e-05
5.72631e-05
5.72631e-05
5.72631e-05
6.98986e-05
6.98986e-05
6.98986e-05
7.11379e-05
7.11379e-05
7.11379e-05
6.82718e-05
6.82718e-05
6.82718e-05
6.36268e-05
6.36268e-05
6.36268e-05
6.66315e-05
6.66315e-05
6.66315e-05
6.94547e-05
6.94547e-05
6.94547e-05
7.43829e-05
7.43829e-05
7.43829e-05
5.59339e-05
5.59339e-05
5.59339e-05
6.21008e-05
6.21008e-05
6.21008e-05
6.09567e-05
6.09567e-05
6.09567e-05
5.71969e-05
5.71969e-05
5.71969e-05
5.45948e-05
5.45948e-05
5.45948e-05
4.91259e-05
4.91259e-05
4.91259e-05
4.27634e-05
4.27634e-05
4.27634e-05
4.26517e-05
4.26517e-05
4.26517e-05
8.89612e-05
8.89612e-05
8.89612e-05
8.89867e-05
8.89867e-05
8.89867e-05
8.61704e-05
8.61704e-05
8.61704e-05
0.00078699
0.00078699
0.00078699
0.000771724
0.000771724
0.000771724
0.000797638
0.000797638
0.000797638
0.000749323
0.000749323
0.000749323
0.00149815
0.00149815
0.00149815
0.00132383
0.00132383
0.00132383
0.00159281
0.00159281
0.00159281
0.000548831
0.000548831
0.000548831
0.000576513
0.000576513
0.000576513
0.000734561
0.000734561
0.000734561
0.000774422
0.000774422
0.000774422
0.000816032
0.000816032
0.000816032
0.00090862
0.00090862
0.00090862
0.000861425
0.000861425
0.000861425
0.000810073
0.000810073
0.000810073
0.000816451
0.000816451
0.000816451
0.000863855
0.000863855
0.000863855
0.000930451
0.000930451
0.000930451
0.000857051
0.000857051
0.000857051
0.000889793
0.000889793
0.000889793
0.000456916
0.000456916
0.000456916
0.000490637
0.000490637
0.000490637
0.00218928
0.00218928
0.00218928
0.00221237
0.00221237
0.00221237
0.00222932
0.00222932
0.00222932
0.00228343
0.00228343
0.00228343
0.00226651
0.00226651
0.00226651
0.00227048
0.00227048
0.00227048
0.0019039
0.0019039
0.0019039
0.00204037
0.00204037
0.00204037
0.00182963
0.00182963
0.00182963
0.00190214
0.00190214
0.00190214
0.00072165
0.00072165
0.00072165
0.000703662
0.000703662
0.000703662
0.000670385
0.000670385
0.000670385
0.000574384
0.000574384
0.000574384
0.000368454
0.000368454
0.000368454
5.75147e-05
5.75147e-05
5.75147e-05
0.00011885
0.00011885
0.00011885
0.000138943
0.000138943
0.000138943
0.000129347
0.000129347
0.000129347
0.000149252
0.000149252
0.000149252
0.000129741
0.000129741
0.000129741
0.000476831
0.000476831
0.000476831
0.000487911
0.000487911
0.000487911
0.000502266
0.000502266
0.000502266
0.000549732
0.000549732
0.000549732
0.000550835
0.000550835
0.000550835
0.000577605
0.000577605
0.000577605
0.000365803
0.000365803
0.000365803
0.000382198
0.000382198
0.000382198
0.000366301
0.000366301
0.000366301
0.000670462
0.000670462
0.000670462
0.000655946
0.000655946
0.000655946
0.000285132
0.000285132
0.000285132
0.00056679
0.00056679
0.00056679
0.00053659
0.00053659
0.00053659
0.000579199
0.000579199
0.000579199
0.000561222
0.000561222
0.000561222
0.000517838
0.000517838
0.000517838
0.000530112
0.000530112
0.000530112
0.000552041
0.000552041
0.000552041
0.000638749
0.000638749
0.000638749
0.000578823
0.000578823
0.000578823
0.000676465
0.000676465
0.000676465
0.00059678
0.00059678
0.00059678
0.00063681
0.00063681
0.00063681
0.000524722
0.000524722
0.000524722
0.00045141
0.00045141
0.00045141
0.000426173
0.000426173
0.000426173
0.00054256
0.00054256
0.00054256
0.000559925
0.000559925
0.000559925
0.000616176
0.000616176
0.000616176
0.000657171
0.000657171
0.000657171
0.000577402
0.000577402
0.000577402
0.000635468
0.000635468
0.000635468
0.000496247
0.000496247
0.000496247
0.000465426
0.000465426
0.000465426
0.000425241
0.000425241
0.000425241
0.000413651
0.000413651
0.000413651
0.000438355
0.000438355
0.000438355
0.000479839
0.000479839
0.000479839
0.000595842
0.000595842
0.000595842
0.000557748
0.000557748
0.000557748
0.000583128
0.000583128
0.000583128
0.000644153
0.000644153
0.000644153
0.000268014
0.000268014
0.000268014
0.000379242
0.000379242
0.000379242
0.000274596
0.000274596
0.000274596
0.00112856
0.00112856
0.00112856
0.00143302
0.00143302
0.00143302
0.00121469
0.00121469
0.00121469
0.00136177
0.00136177
0.00136177
0.00138402
0.00138402
0.00138402
0.0013162
0.0013162
0.0013162
0.00117436
0.00117436
0.00117436
0.00109053
0.00109053
0.00109053
0.00113392
0.00113392
0.00113392
0.00127059
0.00127059
0.00127059
0.000793722
0.000793722
0.000793722
0.000750801
0.000750801
0.000750801
0.000835962
0.000835962
0.000835962
0.000925885
0.000925885
0.000925885
0.00051166
0.00051166
0.00051166
0.000540534
0.000540534
0.000540534
0.000816539
0.000816539
0.000816539
0.000786408
0.000786408
0.000786408
0.000444412
0.000444412
0.000444412
0.000468755
0.000468755
0.000468755
0.000454837
0.000454837
0.000454837
0.000408769
0.000408769
0.000408769
0.000394445
0.000394445
0.000394445
0.000418328
0.000418328
0.000418328
0.00067382
0.00067382
0.00067382
0.000823555
0.000823555
0.000823555
0.000793695
0.000793695
0.000793695
0.000717736
0.000717736
0.000717736
0.00050843
0.00050843
0.00050843
0.00054136
0.00054136
0.00054136
0.00084704
0.00084704
0.00084704
0.000629282
0.000629282
0.000629282
0.000692888
0.000692888
0.000692888
0.000915327
0.000915327
0.000915327
0.00153089
0.00153089
0.00153089
0.00140727
0.00140727
0.00140727
0.00125536
0.00125536
0.00125536
0.000752407
0.000752407
0.000752407
0.000726436
0.000726436
0.000726436
0.00086242
0.00086242
0.00086242
0.000776233
0.000776233
0.000776233
0.00407337
0.00407337
0.00407337
0.00424301
0.00424301
0.00424301
0.00419764
0.00419764
0.00419764
0.00421707
0.00421707
0.00421707
0.00416081
0.00416081
0.00416081
0.00405101
0.00405101
0.00405101
0.00409493
0.00409493
0.00409493
0.0049277
0.0049277
0.0049277
0.00505463
0.00505463
0.00505463
0.00498179
0.00498179
0.00498179
0.0039649
0.0039649
0.0039649
0.00392253
0.00392253
0.00392253
0.000855279
0.000855279
0.000855279
0.00080479
0.00080479
0.00080479
0.000730386
0.000730386
0.000730386
0.000704289
0.000704289
0.000704289
0.000605777
0.000605777
0.000605777
0.000643507
0.000643507
0.000643507
0.00254486
0.00254486
0.00254486
0.00247997
0.00247997
0.00247997
0.00250041
0.00250041
0.00250041
0.00259409
0.00259409
0.00259409
0.00246898
0.00246898
0.00246898
0.00249544
0.00249544
0.00249544
0.00232126
0.00232126
0.00232126
0.0023714
0.0023714
0.0023714
0.00439382
0.00439382
0.00439382
0.004418
0.004418
0.004418
0.00468309
0.00468309
0.00468309
0.00460978
0.00460978
0.00460978
0.0045993
0.0045993
0.0045993
0.00483604
0.00483604
0.00483604
0.00486351
0.00486351
0.00486351
0.00478303
0.00478303
0.00478303
0.00480068
0.00480068
0.00480068
0.00502368
0.00502368
0.00502368
0.00499495
0.00499495
0.00499495
0.00491616
0.00491616
0.00491616
0.00495863
0.00495863
0.00495863
0.00490531
0.00490531
0.00490531
0.00483482
0.00483482
0.00483482
0.00482021
0.00482021
0.00482021
0.00478696
0.00478696
0.00478696
0.00476963
0.00476963
0.00476963
0.00499447
0.00499447
0.00499447
0.00497952
0.00497952
0.00497952
0.00494056
0.00494056
0.00494056
0.00487271
0.00487271
0.00487271
0.00490836
0.00490836
0.00490836
0.0048555
0.0048555
0.0048555
0.00471747
0.00471747
0.00471747
0.004667
0.004667
0.004667
0.00460071
0.00460071
0.00460071
0.00458493
0.00458493
0.00458493
0.00402584
0.00402584
0.00402584
0.00408906
0.00408906
0.00408906
0.00413317
0.00413317
0.00413317
0.00400584
0.00400584
0.00400584
0.00387944
0.00387944
0.00387944
0.00392107
0.00392107
0.00392107
0.00389888
0.00389888
0.00389888
0.00398297
0.00398297
0.00398297
0.00400239
0.00400239
0.00400239
0.00395996
0.00395996
0.00395996
0.0042459
0.0042459
0.0042459
0.00433774
0.00433774
0.00433774
0.00422794
0.00422794
0.00422794
0.0042734
0.0042734
0.0042734
0.00430929
0.00430929
0.00430929
0.00435564
0.00435564
0.00435564
0.00403385
0.00403385
0.00403385
0.00409473
0.00409473
0.00409473
0.00393145
0.00393145
0.00393145
0.00396643
0.00396643
0.00396643
0.00400872
0.00400872
0.00400872
0.00399119
0.00399119
0.00399119
0.00390757
0.00390757
0.00390757
0.00389008
0.00389008
0.00389008
0.00385936
0.00385936
0.00385936
0.00384281
0.00384281
0.00384281
0.00388354
0.00388354
0.00388354
0.00394163
0.00394163
0.00394163
0.00395814
0.00395814
0.00395814
0.00393275
0.00393275
0.00393275
0.00391662
0.00391662
0.00391662
0.00404265
0.00404265
0.00404265
0.00451935
0.00451935
0.00451935
0.00439033
0.00439033
0.00439033
0.00447115
0.00447115
0.00447115
0.00440722
0.00440722
0.00440722
0.00430042
0.00430042
0.00430042
0.00434645
0.00434645
0.00434645
0.00426852
0.00426852
0.00426852
0.00433029
0.00433029
0.00433029
0.00436044
0.00436044
0.00436044
0.00437668
0.00437668
0.00437668
0.00389155
0.00389155
0.00389155
0.00390713
0.00390713
0.00390713
0.00383502
0.00383502
0.00383502
0.00396397
0.00396397
0.00396397
0.00397903
0.00397903
0.00397903
0.00386632
0.00386632
0.00386632
0.00361776
0.00361776
0.00361776
0.00376268
0.00376268
0.00376268
0.00372351
0.00372351
0.00372351
0.00366839
0.00366839
0.00366839
0.00365178
0.00365178
0.00365178
0.00329843
0.00329843
0.00329843
0.003179
0.003179
0.003179
0.00321919
0.00321919
0.00321919
0.00375557
0.00375557
0.00375557
0.00369788
0.00369788
0.00369788
0.00368885
0.00368885
0.00368885
0.00354734
0.00354734
0.00354734
0.00364031
0.00364031
0.00364031
0.0035846
0.0035846
0.0035846
0.00357621
0.00357621
0.00357621
0.00365983
0.00365983
0.00365983
0.00361331
0.00361331
0.00361331
0.00363694
0.00363694
0.00363694
0.0035995
0.0035995
0.0035995
0.00395525
0.00395525
0.00395525
0.00393679
0.00393679
0.00393679
0.00397896
0.00397896
0.00397896
0.00404042
0.00404042
0.00404042
0.00405886
0.00405886
0.00405886
0.00401588
0.00401588
0.00401588
0.00373385
0.00373385
0.00373385
0.00380872
0.00380872
0.00380872
0.00379125
0.00379125
0.00379125
0.00369467
0.00369467
0.00369467
0.000401546
0.000401546
0.000401546
0.0004558
0.0004558
0.0004558
0.000430268
0.000430268
0.000430268
0.00287729
0.00287729
0.00287729
0.00232627
0.00232627
0.00232627
0.00237624
0.00237624
0.00237624
0.00307109
0.00307109
0.00307109
0.00281802
0.00281802
0.00281802
0.00355832
0.00355832
0.00355832
0.00350698
0.00350698
0.00350698
0.0032021
0.0032021
0.0032021
0.00335117
0.00335117
0.00335117
0.00353788
0.00353788
0.00353788
0.00347589
0.00347589
0.00347589
0.00301576
0.00301576
0.00301576
0.00327153
0.00327153
0.00327153
0.000129625
0.000129625
0.000129625
0.000122193
0.000122193
0.000122193
0.000126227
0.000126227
0.000126227
0.000133201
0.000133201
0.000133201
0.000145293
0.000145293
0.000145293
0.000156088
0.000156088
0.000156088
0.000129657
0.000129657
0.000129657
0.000138386
0.000138386
0.000138386
0.00013456
0.00013456
0.00013456
0.000141343
0.000141343
0.000141343
0.000218579
0.000218579
0.000218579
0.000193362
0.000193362
0.000193362
0.000179724
0.000179724
0.000179724
0.0001986
0.0001986
0.0001986
0.000203332
0.000203332
0.000203332
0.000184591
0.000184591
0.000184591
0.000175924
0.000175924
0.000175924
0.000224152
0.000224152
0.000224152
0.000212707
0.000212707
0.000212707
0.00024135
0.00024135
0.00024135
0.00024782
0.00024782
0.00024782
0.000171214
0.000171214
0.000171214
0.000155042
0.000155042
0.000155042
0.000151849
0.000151849
0.000151849
0.000159448
0.000159448
0.000159448
0.000188094
0.000188094
0.000188094
0.000174829
0.000174829
0.000174829
0.000166472
0.000166472
0.000166472
0.000143276
0.000143276
0.000143276
0.000150603
0.000150603
0.000150603
0.000146124
0.000146124
0.000146124
0.000156895
0.000156895
0.000156895
0.000357495
0.000357495
0.000357495
0.000331044
0.000331044
0.000331044
0.00025469
0.00025469
0.00025469
0.000282358
0.000282358
0.000282358
0.000305336
0.000305336
0.000305336
0.000289866
0.000289866
0.000289866
0.000275459
0.000275459
0.000275459
0.000322351
0.000322351
0.000322351
0.000313459
0.000313459
0.000313459
0.000229173
0.000229173
0.000229173
0.000240364
0.000240364
0.000240364
0.000111742
0.000111742
0.000111742
6.67782e-05
6.67782e-05
6.67782e-05
7.28018e-05
7.28018e-05
7.28018e-05
8.14323e-05
8.14323e-05
8.14323e-05
7.7969e-05
7.7969e-05
7.7969e-05
0.000118999
0.000118999
0.000118999
0.000115456
0.000115456
0.000115456
0.00364628
0.00364628
0.00364628
0.00363017
0.00363017
0.00363017
6.96064e-05
6.96064e-05
6.96064e-05
0.000130009
0.000130009
0.000130009
0.000617763
0.000617763
0.000617763
0.000149819
0.000149819
0.000149819
0.00211728
0.00211728
0.00211728
0.000304689
0.000304689
0.000304689
0.000219454
0.000219454
0.000219454
0.000160695
0.000160695
0.000160695
0.000164557
0.000164557
0.000164557
0.00018504
0.00018504
0.00018504
0.00017681
0.00017681
0.00017681
0.00012223
0.00012223
0.00012223
8.52008e-05
8.52008e-05
8.52008e-05
7.7744e-05
7.7744e-05
7.7744e-05
7.95938e-05
7.95938e-05
7.95938e-05
7.61836e-05
7.61836e-05
7.61836e-05
0.000134733
0.000134733
0.000134733
0.000150546
0.000150546
0.000150546
0.00014294
0.00014294
0.00014294
0.000122309
0.000122309
0.000122309
0.000119597
0.000119597
0.000119597
0.000125059
0.000125059
0.000125059
0.000130446
0.000130446
0.000130446
0.000145936
0.000145936
0.000145936
0.000136729
0.000136729
0.000136729
4.7736e-05
4.7736e-05
4.7736e-05
5.01242e-05
5.01242e-05
5.01242e-05
5.94732e-05
5.94732e-05
5.94732e-05
5.32411e-05
5.32411e-05
5.32411e-05
5.58031e-05
5.58031e-05
5.58031e-05
5.05062e-05
5.05062e-05
5.05062e-05
5.15569e-05
5.15569e-05
5.15569e-05
5.4947e-05
5.4947e-05
5.4947e-05
5.74534e-05
5.74534e-05
5.74534e-05
4.42854e-05
4.42854e-05
4.42854e-05
4.35043e-05
4.35043e-05
4.35043e-05
5.39321e-05
5.39321e-05
5.39321e-05
4.2746e-05
4.2746e-05
4.2746e-05
4.42524e-05
4.42524e-05
4.42524e-05
7.77885e-05
7.77885e-05
7.77885e-05
7.26564e-05
7.26564e-05
7.26564e-05
7.78074e-05
7.78074e-05
7.78074e-05
8.03997e-05
8.03997e-05
8.03997e-05
8.03764e-05
8.03764e-05
8.03764e-05
8.61612e-05
8.61612e-05
8.61612e-05
7.2857e-05
7.2857e-05
7.2857e-05
0.000377353
0.000377353
0.000377353
0.000292349
0.000292349
0.000292349
0.000109099
0.000109099
0.000109099
0.000117156
0.000117156
0.000117156
0.000456421
0.000456421
0.000456421
0.000420416
0.000420416
0.000420416
0.000735181
0.000735181
0.000735181
0.000722901
0.000722901
0.000722901
0.000364998
0.000364998
0.000364998
0.000335164
0.000335164
0.000335164
0.000499618
0.000499618
0.000499618
0.000977061
0.000977061
0.000977061
0.000795139
0.000795139
0.000795139
0.000476623
0.000476623
0.000476623