<VTKFile type="UnstructuredGrid" version="1.0">
<UnstructuredGrid>
<Piece NumberOfPoints="10830" NumberOfCells="3610">
<Points>
<DataArray type="Float64" NumberOfComponents="3" format="ascii">
1.27826 3.11035 15.7007
1.28831 3.11035 15.675
1.28831 3.11035 15.7265
1.28831 3.11035 16.2301
1.28831 3.11035 16.281
1.27701 3.11035 16.2555
1.28831 3.11035 16.2301
1.27701 3.11035 16.2555
1.26002 3.11035 16.2301
0.0244388 3.11035 16.7026
0.0422213 3.11035 16.72
0 3.11035 16.72
0 3.11035 16.72
-7.89601e-14 3.11035 16.6898
0.0244388 3.11035 16.7026
1.28831 3.11035 16.2301
1.26002 3.11035 16.2301
1.27702 3.11035 16.2047
0.00863377 3.11035 15.9518
1.49469e-13 3.11035 15.977
1.49791e-13 3.11035 15.9266
1.27705 3.11035 15.9519
1.28831 3.11035 15.9771
1.26004 3.11035 15.9771
1.27684 3.11035 15.8513
1.28831 3.11035 15.8263
1.28831 3.11035 15.8764
1.26004 3.11035 15.9771
1.28831 3.11035 15.9771
1.27707 3.11035 16.0023
1.28831 3.11035 15.9771
1.28831 3.11035 16.0275
1.27707 3.11035 16.0023
1.26005 3.11035 16.0276
1.27707 3.11035 16.0023
1.28831 3.11035 16.0275
1.26003 3.11035 16.1793
1.27702 3.11035 16.2047
1.24613 3.11035 16.2047
1.24613 3.11035 16.2047
1.27702 3.11035 16.2047
1.26002 3.11035 16.2301
1.24613 3.11035 16.2047
1.23052 3.11035 16.1793
1.26003 3.11035 16.1793
1.24613 3.11035 16.2047
1.26002 3.11035 16.2301
1.23052 3.11035 16.2301
1.28831 3.11035 16.078
1.28831 3.11035 16.1286
1.27705 3.11035 16.1033
1.27705 3.11035 16.1033
1.26004 3.11035 16.1286
1.24616 3.11035 16.1033
1.28831 3.11035 16.1286
1.26004 3.11035 16.1286
1.27705 3.11035 16.1033
1.28831 3.11035 16.1793
1.27702 3.11035 16.2047
1.26003 3.11035 16.1793
1.28831 3.11035 16.2301
1.27702 3.11035 16.2047
1.28831 3.11035 16.1793
1.25981 3.11035 15.8263
1.28831 3.11035 15.8263
1.27684 3.11035 15.8513
1.26002 3.11035 16.281
1.27701 3.11035 16.2555
1.28831 3.11035 16.281
0.85884 3.11035 16.4607
0.873578 3.11035 16.435
0.888295 3.11035 16.4607
0 3.11035 15.675
0.0277369 3.11035 15.675
0.00987207 3.11035 15.6997
0.0840033 3.11035 15.9266
0.0549577 3.11035 15.9266
0.0689903 3.11035 15.9014
0.0264927 3.11035 15.9266
0.0549577 3.11035 15.9266
0.0392653 3.11035 15.9518
0.0264927 3.11035 15.9266
0.00863377 3.11035 15.9518
1.49791e-13 3.11035 15.9266
0.0392653 3.11035 15.9518
0.00863377 3.11035 15.9518
0.0264927 3.11035 15.9266
0.0087521 3.11035 16.1539
-9.63464e-14 3.11035 16.1793
1.47962e-13 3.11035 16.1286
0.0265703 3.11035 16.1793
0.0393699 3.11035 16.1539
0.0550657 3.11035 16.1793
-9.63464e-14 3.11035 16.1793
0.0087521 3.11035 16.1539
0.0265703 3.11035 16.1793
0.0265703 3.11035 16.1793
0.0087521 3.11035 16.1539
0.0393699 3.11035 16.1539
0.0265544 3.11035 16.1286
0.0550443 3.11035 16.1286
0.0393699 3.11035 16.1539
0.0265544 3.11035 16.1286
0.0087521 3.11035 16.1539
1.47962e-13 3.11035 16.1286
0.0393699 3.11035 16.1539
0.0087521 3.11035 16.1539
0.0265544 3.11035 16.1286
1.49469e-13 3.11035 15.977
0.00863377 3.11035 15.9518
0.0265126 3.11035 15.977
0.0265126 3.11035 15.977
0.00863377 3.11035 15.9518
0.0392653 3.11035 15.9518
0.0550657 3.11035 16.1793
0.0393699 3.11035 16.1539
0.0691236 3.11035 16.1539
0.0393699 3.11035 16.1539
0.0550443 3.11035 16.1286
0.0691236 3.11035 16.1539
0.288852 3.11035 16.1287
0.303471 3.11035 16.154
0.274248 3.11035 16.154
0.274248 3.11035 16.154
0.303471 3.11035 16.154
0.288872 3.11035 16.1794
0.288872 3.11035 16.1794
0.303471 3.11035 16.154
0.318088 3.11035 16.1794
0.844143 3.11035 16.435
0.873578 3.11035 16.435
0.85884 3.11035 16.4607
1.27699 3.11035 15.9016
1.28831 3.11035 15.8764
1.28831 3.11035 15.9267
1.28831 3.11035 15.9771
1.27705 3.11035 15.9519
1.28831 3.11035 15.9267
1.17079 3.11035 16.0781
1.14088 3.11035 16.0781
1.15586 3.11035 16.0528
1.26004 3.11035 16.0781
1.27705 3.11035 16.1033
1.24616 3.11035 16.1033
1.28831 3.11035 16.078
1.27705 3.11035 16.1033
1.26004 3.11035 16.0781
1.24616 3.11035 16.1033
1.26004 3.11035 16.1286
1.23053 3.11035 16.1286
1.27704 3.11035 16.1539
1.26004 3.11035 16.1286
1.28831 3.11035 16.1286
1.28831 3.11035 16.1286
1.28831 3.11035 16.1793
1.27704 3.11035 16.1539
1.27704 3.11035 16.1539
1.28831 3.11035 16.1793
1.26003 3.11035 16.1793
1.24591 3.11035 15.8514
1.25981 3.11035 15.8263
1.27684 3.11035 15.8513
1.27699 3.11035 15.9016
1.28831 3.11035 15.9267
1.26001 3.11035 15.9267
1.26001 3.11035 15.9267
1.28831 3.11035 15.9267
1.27705 3.11035 15.9519
1.15573 3.11035 15.9016
1.1407 3.11035 15.8764
1.1706 3.11035 15.8764
1.20051 3.11035 15.8765
1.18556 3.11035 15.8513
1.21561 3.11035 15.8513
1.20051 3.11035 15.8765
1.1706 3.11035 15.8764
1.18556 3.11035 15.8513
1.24614 3.11035 15.9519
1.27705 3.11035 15.9519
1.26004 3.11035 15.9771
1.24614 3.11035 15.9519
1.26001 3.11035 15.9267
1.27705 3.11035 15.9519
1.24612 3.11035 16.2556
1.26002 3.11035 16.2301
1.27701 3.11035 16.2555
1.27701 3.11035 16.2555
1.26002 3.11035 16.281
1.24612 3.11035 16.2556
1.23052 3.11035 16.2301
1.26002 3.11035 16.2301
1.24612 3.11035 16.2556
1.24611 3.11035 16.4091
1.21584 3.11035 16.4091
1.23051 3.11035 16.3834
1.21584 3.11035 16.3577
1.24611 3.11035 16.3577
1.23051 3.11035 16.3834
1.27699 3.11035 16.3065
1.26002 3.11035 16.281
1.28831 3.11035 16.281
1.24611 3.11035 16.3066
1.26002 3.11035 16.281
1.27699 3.11035 16.3065
0.917741 3.11035 16.5123
0.932465 3.11035 16.5382
0.902954 3.11035 16.5382
1.08109 3.11035 16.3834
1.09602 3.11035 16.3578
1.11094 3.11035 16.3834
1.11094 3.11035 16.3834
1.09602 3.11035 16.3578
1.12589 3.11035 16.3578
1.2305 3.11035 16.3321
1.21584 3.11035 16.3066
1.24611 3.11035 16.3066
1.2305 3.11035 16.3321
1.24611 3.11035 16.3577
1.21584 3.11035 16.3577
1.0662 3.11035 16.3578
1.09602 3.11035 16.3578
1.08109 3.11035 16.3834
0.991917 3.11035 16.1287
0.962274 3.11035 16.1287
0.977089 3.11035 16.1034
0.917902 3.11035 16.1034
0.903138 3.11035 16.1287
0.888384 3.11035 16.1034
0.932681 3.11035 16.1287
0.903138 3.11035 16.1287
0.917902 3.11035 16.1034
0.903119 3.11035 16.0277
0.932664 3.11035 16.0277
0.917893 3.11035 16.0529
0.917893 3.11035 16.0529
0.888374 3.11035 16.0529
0.903119 3.11035 16.0277
0.903119 3.11035 16.0277
0.888374 3.11035 16.0529
0.873625 3.11035 16.0276
0.917893 3.11035 16.0529
0.932664 3.11035 16.0277
0.947463 3.11035 16.0529
0.962233 3.11035 15.9772
0.977066 3.11035 16.0024
0.947444 3.11035 16.0024
0.947444 3.11035 16.0024
0.932637 3.11035 15.9772
0.962233 3.11035 15.9772
0.741456 3.11035 16.1541
0.756104 3.11035 16.1287
0.770765 3.11035 16.1541
0.756104 3.11035 16.1287
0.785431 3.11035 16.1287
0.770765 3.11035 16.1541
0.903133 3.11035 16.0782
0.888374 3.11035 16.0529
0.917893 3.11035 16.0529
0.903133 3.11035 16.0782
0.917902 3.11035 16.1034
0.888384 3.11035 16.1034
0.888384 3.11035 16.1034
0.858913 3.11035 16.1034
0.873639 3.11035 16.0782
0.873639 3.11035 16.0782
0.903133 3.11035 16.0782
0.888384 3.11035 16.1034
0.888374 3.11035 16.0529
0.903133 3.11035 16.0782
0.873639 3.11035 16.0782
0.873625 3.11035 16.0276
0.844177 3.11035 16.0276
0.858884 3.11035 16.0024
0.844153 3.11035 15.9772
0.873599 3.11035 15.9772
0.858884 3.11035 16.0024
0.318069 3.11035 16.1287
0.303471 3.11035 16.154
0.288852 3.11035 16.1287
0.288852 3.11035 16.1287
0.303454 3.11035 16.1034
0.318069 3.11035 16.1287
0.00864568 3.11035 15.7499
1.4958e-13 3.11035 15.7751
-9.64495e-14 3.11035 15.7244
0 3.11035 15.675
0.00987207 3.11035 15.6997
-9.64495e-14 3.11035 15.7244
0.0264295 3.11035 15.8257
1.50097e-13 3.11035 15.8257
0.00849117 3.11035 15.8004
1.50097e-13 3.11035 15.8257
1.4958e-13 3.11035 15.7751
0.00849117 3.11035 15.8004
1.28831 3.11035 15.675
1.27826 3.11035 15.7007
1.26122 3.11035 15.675
1.49791e-13 3.11035 15.9266
1.50032e-13 3.11035 15.8761
0.00859461 3.11035 15.9014
0.00859461 3.11035 15.9014
0.0264927 3.11035 15.9266
1.49791e-13 3.11035 15.9266
0.0264637 3.11035 15.8761
0.00859461 3.11035 15.9014
1.50032e-13 3.11035 15.8761
0.0264637 3.11035 15.8761
0.0391815 3.11035 15.8509
0.0549232 3.11035 15.8762
0.0392276 3.11035 15.9014
0.0689903 3.11035 15.9014
0.0549577 3.11035 15.9266
0.0549577 3.11035 15.9266
0.0264927 3.11035 15.9266
0.0392276 3.11035 15.9014
0.0549232 3.11035 15.8762
0.0689903 3.11035 15.9014
0.0392276 3.11035 15.9014
0.0392276 3.11035 15.9014
0.0264637 3.11035 15.8761
0.0549232 3.11035 15.8762
0.0264927 3.11035 15.9266
0.00859461 3.11035 15.9014
0.0392276 3.11035 15.9014
0.00859461 3.11035 15.9014
0.0264637 3.11035 15.8761
0.0392276 3.11035 15.9014
0.00854014 3.11035 15.8509
1.50032e-13 3.11035 15.8761
1.50097e-13 3.11035 15.8257
0.00854014 3.11035 15.8509
1.50097e-13 3.11035 15.8257
0.0264295 3.11035 15.8257
0.0264295 3.11035 15.8257
0.0391815 3.11035 15.8509
0.00854014 3.11035 15.8509
0.00854014 3.11035 15.8509
0.0264637 3.11035 15.8761
1.50032e-13 3.11035 15.8761
0.0391815 3.11035 15.8509
0.0264637 3.11035 15.8761
0.00854014 3.11035 15.8509
0.0690987 3.11035 16.1033
0.0550443 3.11035 16.1286
0.0393425 3.11035 16.1033
0.0550443 3.11035 16.1286
0.0265544 3.11035 16.1286
0.0393425 3.11035 16.1033
0.0393425 3.11035 16.1033
0.0550252 3.11035 16.078
0.0690987 3.11035 16.1033
0.0690242 3.11035 15.9518
0.0549577 3.11035 15.9266
0.0840033 3.11035 15.9266
0.0392653 3.11035 15.9518
0.0549577 3.11035 15.9266
0.0690242 3.11035 15.9518
0.0984777 3.11035 15.9518
0.0690242 3.11035 15.9518
0.0840033 3.11035 15.9266
0.0840313 3.11035 15.977
0.0690242 3.11035 15.9518
0.0984777 3.11035 15.9518
0.0840313 3.11035 15.977
0.0984777 3.11035 15.9518
0.113251 3.11035 15.977
0.303441 3.11035 16.0528
0.318055 3.11035 16.0781
0.288836 3.11035 16.0781
0.288836 3.11035 16.0781
0.318055 3.11035 16.0781
0.303454 3.11035 16.1034
0.186476 3.11035 16.1033
0.215741 3.11035 16.1033
0.201123 3.11035 16.1286
0.201103 3.11035 16.078
0.215741 3.11035 16.1033
0.186476 3.11035 16.1033
0.215723 3.11035 16.0528
0.201085 3.11035 16.0275
0.230345 3.11035 16.0275
0.201103 3.11035 16.078
0.186456 3.11035 16.0528
0.215723 3.11035 16.0528
0.215723 3.11035 16.0528
0.186456 3.11035 16.0528
0.201085 3.11035 16.0275
0.215762 3.11035 16.154
0.245012 3.11035 16.154
0.230402 3.11035 16.1793
0.157245 3.11035 16.2047
0.171881 3.11035 16.1793
0.186525 3.11035 16.2047
[...]
<PointData Scalars="View Factor" >
<DataArray type="Float64" Name="View Factor" NumberOfComponents="1" format="ascii">
0.0104074
0.0104074
0.0104074
0.00667891
0.00667891
0.00667891
0.00677604
0.00677604
0.00677604
0.00315893
0.00315893
0.00315893
0.0034404
0.0034404
0.0034404
0.0068644
0.0068644
0.0068644
0.00851503
0.00851503
0.00851503
0.0083675
0.0083675
0.0083675
0.00918604
0.00918604
0.00918604
0.0082558
0.0082558
0.0082558
0.00813269
0.00813269
0.00813269
0.00803774
0.00803774
0.00803774
0.00701531
0.00701531
0.00701531
0.00692465
0.00692465
0.00692465
0.00707865
0.00707865
0.00707865
0.0068967
0.0068967
0.0068967
0.0075102
0.0075102
0.0075102
0.00749004
0.00749004
0.00749004
0.0074237
0.0074237
0.0074237
0.00704516
0.00704516
0.00704516
0.00694345
0.00694345
0.00694345
0.00932852
0.00932852
0.00932852
0.00660326
0.00660326
0.00660326
0.000198647
0.000198647
0.000198647
0.00766578
0.00766578
0.00766578
0.0069832
0.0069832
0.0069832
0.0078649
0.0078649
0.0078649
0.00821766
0.00821766
0.00821766
0.00818762
0.00818762
0.00818762
0.00574455
0.00574455
0.00574455
0.00461968
0.00461968
0.00461968
0.00529767
0.00529767
0.00529767
0.00509135
0.00509135
0.00509135
0.00515358
0.00515358
0.00515358
0.00577308
0.00577308
0.00577308
0.00535001
0.00535001
0.00535001
0.00856934
0.00856934
0.00856934
0.00839748
0.00839748
0.00839748
0.00435508
0.00435508
0.00435508
0.00464904
0.00464904
0.00464904
0.00127285
0.00127285
0.00127285
0.00079801
0.00079801
0.00079801
0.000589484
0.000589484
0.000589484
0
0
0
0.00881804
0.00881804
0.00881804
0.00846709
0.00846709
0.00846709
0.00762121
0.00762121
0.00762121
0.00758949
0.00758949
0.00758949
0.00762196
0.00762196
0.00762196
0.00745971
0.00745971
0.00745971
0.00732687
0.00732687
0.00732687
0.00722029
0.00722029
0.00722029
0.00713763
0.00713763
0.00713763
0.00928822
0.00928822
0.00928822
0.00871362
0.00871362
0.00871362
0.00859636
0.00859636
0.00859636
0.00858597
0.00858597
0.00858597
0.00925833
0.00925833
0.00925833
0.00903671
0.00903671
0.00903671
0.00844443
0.00844443
0.00844443
0.00855922
0.00855922
0.00855922
0.00674738
0.00674738
0.00674738
0.00666073
0.00666073
0.00666073
0.00680777
0.00680777
0.00680777
0.00603884
0.00603884
0.00603884
0.00619501
0.00619501
0.00619501
0.00651878
0.00651878
0.00651878
0.00649124
0.00649124
0.00649124
0.00100394
0.00100394
0.00100394
0.00484094
0.00484094
0.00484094
0.00511345
0.00511345
0.00511345
0.00643802
0.00643802
0.00643802
0.00627483
0.00627483
0.00627483
0.0046191
0.0046191
0.0046191
0.00433177
0.00433177
0.00433177
0.00310166
0.00310166
0.00310166
0.00310625
0.00310625
0.00310625
0.00709889
0.00709889
0.00709889
0.00662946
0.00662946
0.00662946
0.00695973
0.00695973
0.00695973
0.00681843
0.00681843
0.00681843
0.00781867
0.00781867
0.00781867
0.00763751
0.00763751
0.00763751
0.00124223
0.00124223
0.00124223
0.00150335
0.00150335
0.00150335
0.00546458
0.00546458
0.00546458
0.00370348
0.00370348
0.00370348
0.00324573
0.00324573
0.00324573
0.00387642
0.00387642
0.00387642
0.00479056
0.00479056
0.00479056
0.00801915
0.00801915
0.00801915
0.00732627
0.00732627
0.00732627
0.00154215
0.00154215
0.00154215
0.00215567
0.00215567
0.00215567
0.00760673
0.00760673
0.00760673
0.00795117
0.00795117
0.00795117
0.00681478
0.00681478
0.00681478
0.00727675
0.00727675
0.00727675
0.010577
0.010577
0.010577
0.00785822
0.00785822
0.00785822
0.00794742
0.00794742
0.00794742
0.00726855
0.00726855
0.00726855
0.00580589
0.00580589
0.00580589
0.00705537
0.00705537
0.00705537
0.00748834
0.00748834
0.00748834
0.00643985
0.00643985
0.00643985
0.00655853
0.00655853
0.00655853
0.0076111
0.0076111
0.0076111
0.0071528
0.0071528
0.0071528
0.00696459
0.00696459
0.00696459
0.00671615
0.00671615
0.00671615
0.00622375
0.00622375
0.00622375
0.0067139
0.0067139
0.0067139
0.00613456
0.00613456
0.00613456
0.00538364
0.00538364
0.00538364
0.00549484
0.00549484
0.00549484
0.0057942
0.0057942
0.0057942
0.00747669
0.00747669
0.00747669
0.00785029
0.00785029
0.00785029
0.00751308
0.00751308
0.00751308
0.00789516
0.00789516
0.00789516
0.00794773
0.00794773
0.00794773
0.00468785
0.00468785
0.00468785
0.00365209
0.00365209
0.00365209
0.00277393
0.00277393
0.00277393
0.00344453
0.00344453
0.00344453
0.00739043
0.00739043
0.00739043
0.00544951
0.00544951
0.00544951
0.00679089
0.00679089
0.00679089
0.000799227
0.000799227
0.000799227
0.00103561
0.00103561
0.00103561
0.00266222
0.00266222
0.00266222
0.00321368
0.00321368
0.00321368
0.00387235
0.00387235
0.00387235
0.00579829
0.00579829
0.00579829
0.00525265
0.00525265
0.00525265
0.00424469
0.00424469
0.00424469
0.00447233
0.00447233
0.00447233
0.00486282
0.00486282
0.00486282
0.00478414
0.00478414
0.00478414
0.00091968
0.00091968
0.00091968
0.00391016
0.00391016
0.00391016
0.00330624
0.00330624
0.00330624
0.00154349
0.00154349
0.00154349
0.00127388
0.00127388
0.00127388
0.000250727
0.000250727
0.000250727
0.000615103
0.000615103
0.000615103
0.000623704
0.000623704
0.000623704
0.000798651
0.000798651
0.000798651
0.000250554
0.000250554
0.000250554
8.077e-05
8.077e-05
8.077e-05
0
0
0
0
0
0
0.000359564
0.000359564
0.000359564
8.0822e-05
8.0822e-05
8.0822e-05
0
0
0
0
0
0
0
0
0
0
0
0
0
0
0
0
0
0
0.000250363
0.000250363
0.000250363
8.07117e-05
8.07117e-05
8.07117e-05
0
0
0
0
0
0
0
0
0
0
0
0
0
0
0
0
0
0
0
0
0
0
0
0
0
0
0
0
0
0
0
0
0
0
0
0
0
0
0
0
0
0
0
0
0
0
0
0
0
0
0
0
0
0
0
0
0
0
0
0
0
0
0
0
0
0
0
0
0
0
0
0
0
0
0
0.00390473
0.00390473
0.00390473
0.00164624
0.00164624
0.00164624
0.00249668
0.00249668
0.00249668
0.00306607
0.00306607
0.00306607
0.00276618
0.00276618
0.00276618
0.00711188
0.00711188
0.00711188
0.00695769
0.00695769
0.00695769
0.00704895
0.00704895
0.00704895
0.00708177
0.00708177
0.00708177
0.00749364
0.00749364
0.00749364
0.00775372
0.00775372
0.00775372
0.00744828
0.00744828
0.00744828
0.00681932
0.00681932
0.00681932
0.00673618
0.00673618
0.00673618
0.00772345
0.00772345
0.00772345
0.00779311
0.00779311
0.00779311
0.00781404
0.00781404
0.00781404
0.0079313
0.0079313
0.0079313
0.00789737
0.00789737
0.00789737
0.00726974
0.00726974
0.00726974
0.00720556
0.00720556
0.00720556
0.00717173
0.00717173
0.00717173
0.00736223
0.00736223
0.00736223
0.00723571
0.00723571
0.00723571
0.00733126
0.00733126
0.00733126
0.00720083
0.00720083
0.00720083
0.00729575
0.00729575
0.00729575
0.00895379
0.00895379
0.00895379
0.00907679
0.00907679
0.00907679
0.00916185
0.00916185
0.00916185
0.00945733
0.00945733
0.00945733
0.00859458
0.00859458
0.00859458
0.00886993
0.00886993
0.00886993
0.00864026
0.00864026
0.00864026
0.00880279
0.00880279
0.00880279
0.00860335
0.00860335
0.00860335
0.00868391
0.00868391
0.00868391
0.00663386
0.00663386
0.00663386
0.00654883
0.00654883
0.00654883
0.00652143
0.00652143
0.00652143
0.00596244
0.00596244
0.00596244
0.00521188
0.00521188
0.00521188
0.00255265
0.00255265
0.00255265
0.000196061
0.000196061
0.000196061
0.000493787
0.000493787
0.000493787
0.000487289
0.000487289
0.000487289
0.0047764
0.0047764
0.0047764
0.0046503
0.0046503
0.0046503
0.00570064
0.00570064
0.00570064
0.00577479
0.00577479
0.00577479
0.00517594
0.00517594
0.00517594
0.0064332
0.0064332
0.0064332
0.0059863
0.0059863
0.0059863
0.00634228
0.00634228
0.00634228
0.00531907
0.00531907
0.00531907
0.00510717
0.00510717
0.00510717
0.00470055
0.00470055
0.00470055
0.00638251
0.00638251
0.00638251
0.00630117
0.00630117
0.00630117
0.00640836
0.00640836
0.00640836
0.00609101
0.00609101
0.00609101
0.00606539
0.00606539
0.00606539
0.00616933
0.00616933
0.00616933
0.00622248
0.00622248
0.00622248
0.0059778
0.0059778
0.0059778
0.0060552
0.0060552
0.0060552
0.00548111
0.00548111
0.00548111
0.00620126
0.00620126
0.00620126
0.00589118
0.00589118
0.00589118
0.00528545
0.00528545
0.00528545
0.00254856
0.00254856
0.00254856
0.00259074
0.00259074
0.00259074
0.00260201
0.00260201
0.00260201
0.000244209
0.000244209
0.000244209
7.86385e-05
7.86385e-05
7.86385e-05
0.00123358
0.00123358
0.00123358
0.00149249
0.00149249
0.00149249
0.00208365
0.00208365
0.00208365
0.00241767
0.00241767
0.00241767
0.00149624
0.00149624
0.00149624
0.00208908
0.00208908
0.00208908
0.000772735
0.000772735
0.000772735
0.000569715
0.000569715
0.000569715
0.000243132
0.000243132
0.000243132
7.84673e-05
7.84673e-05
7.84673e-05
0.00024368
0.00024368
0.00024368
0.000571051
0.000571051
0.000571051
0.00367607
0.00367607
0.00367607
0.00371855
0.00371855
0.00371855
0.00426255
0.00426255
0.00426255
0.0047442
0.0047442
0.0047442
0
0
0
0
0
0
0
0
0
0.00802889
0.00802889
0.00802889
0.00741375
0.00741375
0.00741375
0.00791236
0.00791236
0.00791236
0.0075644
0.0075644
0.0075644
0.00752055
0.00752055
0.00752055
0.00764237
0.00764237
0.00764237
0.00794627
0.00794627
0.00794627
0.0080464
0.0080464
0.0080464
0.00798468
0.00798468
0.00798468
0.00773029
0.00773029
0.00773029
0.00611859
0.00611859
0.00611859
0.00592089
0.00592089
0.00592089
0.00246741
0.00246741
0.00246741
0.00315928
0.00315928
0.00315928
7.96727e-05
7.96727e-05
7.96727e-05
0.000247398
0.000247398
0.000247398
0.00246285
0.00246285
0.00246285
0.00212601
0.00212601
0.00212601
0
0
0
0
0
0
0
0
0
0
0
0
0
0
0
0
0
0
0.0020994
0.0020994
0.0020994
0.00354922
0.00354922
0.00354922
0.00311835
0.00311835
0.00311835
0.00243679
0.00243679
0.00243679
0.00057359
0.00057359
0.00057359
0.000777988
0.000777988
0.000777988
0.00355815
0.00355815
0.00355815
0.00150672
0.00150672
0.00150672
0.00210429
0.00210429
0.00210429
0.00455019
0.00455019
0.00455019
0.00735234
0.00735234
0.00735234
0.00755379
0.00755379
0.00755379
0.00791873
0.00791873
0.00791873
0.00352045
0.00352045
0.00352045
0.00309406
0.00309406
0.00309406
0.00452496
0.00452496
0.00452496
0.00353037
0.00353037
0.00353037
0.00766205
0.00766205
0.00766205
0.00839461
0.00839461
0.00839461
0.00736581
0.00736581
0.00736581
0.00669358
0.00669358
0.00669358
0.00767225
0.00767225
0.00767225
0.00825885
0.00825885
0.00825885
0.00788777
0.00788777
0.00788777
0.00709341
0.00709341
0.00709341
0.00650086
0.00650086
0.00650086
0.00648539
0.00648539
0.00648539
0.00667299
0.00667299
0.00667299
0.00528268
0.00528268
0.00528268
0.00247176
0.00247176
0.00247176
0.00212981
0.00212981
0.00212981
0.00152432
0.00152432
0.00152432
0.00125887
0.00125887
0.00125887
0.000581078
0.000581078
0.000581078
0.0007881
0.0007881
0.0007881
0.0101666
0.0101666
0.0101666
0.0105276
0.0105276
0.0105276
0.0106336
0.0106336
0.0106336
0.00855085
0.00855085
0.00855085
0.00959981
0.00959981
0.00959981
0.00973695
0.00973695
0.00973695
0.00672753
0.00672753
0.00672753
0.00679452
0.00679452
0.00679452
0.00518338
0.00518338
0.00518338
0.00508961
0.00508961
0.00508961
0.00656598
0.00656598
0.00656598
0.00606948
0.00606948
0.00606948
0.00598557
0.00598557
0.00598557
0.00783783
0.00783783
0.00783783
0.00832822
0.00832822
0.00832822
0.0081883
0.0081883
0.0081883
0.00795695
0.00795695
0.00795695
0.00867552
0.00867552
0.00867552
0.0087777
0.0087777
0.0087777
0.00877186
0.00877186
0.00877186
0.0086658
0.0086658
0.0086658
0.00872799
0.00872799
0.00872799
0.00872256
0.00872256
0.00872256
0.00865175
0.00865175
0.00865175
0.0084243
0.0084243
0.0084243
0.00824226
0.00824226
0.00824226
0.00837477
0.00837477
0.00837477
0.00814645
0.00814645
0.00814645
0.00854019
0.00854019
0.00854019
0.00854541
0.00854541
0.00854541
0.00816033
0.00816033
0.00816033
0.00839081
0.00839081
0.00839081
0.00773648
0.00773648
0.00773648
0.00696827
0.00696827
0.00696827
0.00643004
0.00643004
0.00643004
0.00661539
0.00661539
0.00661539
0.00469258
0.00469258
0.00469258
0.00529362
0.00529362
0.00529362
0.00668742
0.00668742
0.00668742
0.00528842
0.00528842
0.00528842
0.00250408
0.00250408
0.00250408
0.00320441
0.00320441
0.00320441
0.00215761
0.00215761
0.00215761
0.00365564
0.00365564
0.00365564
0.00320731
0.00320731
0.00320731
0.00250831
0.00250831
0.00250831
0.00383798
0.00383798
0.00383798
0.00570018
0.00570018
0.00570018
0.00405177
0.00405177
0.00405177
0.00501486
0.00501486
0.00501486
0.00443905
0.00443905
0.00443905
0.00532704
0.00532704
0.00532704
0.00158847
0.00158847
0.00158847
0.00209208
0.00209208
0.00209208
0.000710568
0.000710568
0.000710568
0.00088864
0.00088864
0.00088864
0.00124057
0.00124057
0.00124057
0.00112986
0.00112986
0.00112986
0.000440517
0.000440517
0.000440517
0.000338019
0.000338019
0.000338019
0.0009309
0.0009309
0.0009309
0.000636696
0.000636696
0.000636696
0.000644352
0.000644352
0.000644352
0.000953803
0.000953803
0.000953803
0.00126772
0.00126772
0.00126772
0.00151795
0.00151795
0.00151795
0.00125216
0.00125216
0.00125216
0.0015069
0.0015069
0.0015069
0.00602789
0.00602789
0.00602789
0.00483546
0.00483546
0.00483546
0.00530369
0.00530369
0.00530369
0.00473117
0.00473117
0.00473117
0.00362168
0.00362168
0.00362168
0.00395082
0.00395082
0.00395082
0.00327629
0.00327629
0.00327629
0.00380418
0.00380418
0.00380418
0.00420623
0.00420623
0.00420623
0.0042433
0.0042433
0.0042433
0.00149913
0.00149913
0.00149913
0.00182252
0.00182252
0.00182252
0.00122169
0.00122169
0.00122169
0.0021808
0.0021808
0.0021808
0.00252109
0.00252109
0.00252109
0.00179966
0.00179966
0.00179966
0
0
0
0.000621686
0.000621686
0.000621686
0.000614329
0.000614329
0.000614329
0.000339082
0.000339082
0.000339082
8.3826e-05
8.3826e-05
8.3826e-05
0.00351653
0.00351653
0.00351653
0.00287473
0.00287473
0.00287473
0.00299583
0.00299583
0.00299583
0.00423605
0.00423605
0.00423605
0.00397694
0.00397694
0.00397694
0.00374343
0.00374343
0.00374343
0.00377171
0.00377171
0.00377171
0.00407054
0.00407054
0.00407054
0.00382216
0.00382216
0.00382216
0.00359857
0.00359857
0.00359857
0.00392463
0.00392463
0.00392463
0.00364612
0.00364612
0.00364612
0.00340627
0.00340627
0.00340627
0.00336202
0.00336202
0.00336202
0.0012748
0.0012748
0.0012748
0.00154469
0.00154469
0.00154469
0.00215936
0.00215936
0.00215936
0.00251027
0.00251027
0.00251027
0.00222833
0.00222833
0.00222833
0.00161965
0.00161965
0.00161965
0
0
0
8.77801e-05
8.77801e-05
8.77801e-05
0
0
0
0
0
0
0
0
0
0
0
0
0
0
0
0
0
0
0
0
0
0
0
0
0
0
0
0
0
0
0
0
0
0
0
0
0
0
0
0
0
0
8.06473e-05
8.06473e-05
8.06473e-05
0
0
0
0
0
0
0
0
0
0
0
0
0
0
0
0
0
0
0
0
0
0
0
0
0
0
0
0
0
0
0
0
0
0
0
0
0
0
0
0
0
0
0
0
0
0
0
0
0
0
0
0
0
0
0
0
0
0
0
0
0
0
0
0
0
0
0
0
0
0
0
0
0
0
0
0
0
0
0
0
0
0
0
0
0
0
0
0
0
0
0
0
0
0
0
0
0
0
0
0.000203937
0.000203937
0.000203937
0.000206643
0.000206643
0.000206643
0
0
0
0
0
0
0
0
0
0
0
0
0
0
0
0
0
0
0
0
0
0
0
0
0
0
0
0
0
0
0
0
0
0
0
0
0
0
0
0
0
0
0
0
0
0
0
0
0
0
0
0
0
0
0.000599903
0.000599903
0.000599903
0.000335142
0.000335142
0.000335142
0
0
0
0
0
0
0
0
0
0
0
0
0
0
0
0
0
0
0
0
0
0
0
0
0
0
0
0
0
0
0
0
0
0
0
0
0
0
0
0
0
0
0
0
0
0
0
0
0
0
0
0
0
0
0
0
0
0
0
0
0
0
0
0
0
0
0
0
0
0
0
0
0
0
0
0
0
0
0
0
0
0
0
0
0
0
0
0
0
0
0
0
0
0
0
0
0
0
0
0
0
0
0.00139752
0.00139752
0.00139752
0.00113066
0.00113066
0.00113066
0.00349016
0.00349016
0.00349016
0.00350986
0.00350986
0.00350986
0.00373645
0.00373645
0.00373645
0.00243029
0.00243029
0.00243029
0.00239788
0.00239788
0.00239788
0.00298474
0.00298474
0.00298474
0.00272919
0.00272919
0.00272919
0.00215892
0.00215892
0.00215892
0.0021882
0.0021882
0.0021882
0.00436509
0.00436509
0.00436509
0.00527948
0.00527948
0.00527948
0.00480773
0.00480773
0.00480773
0.00479125
0.00479125
0.00479125
0.0048288
0.0048288
0.0048288
0.00484598
0.00484598
0.00484598
0.00492454
0.00492454
0.00492454
0.00692875
0.00692875
0.00692875
0.00698992
0.00698992
0.00698992
0.00634966
0.00634966
0.00634966
0.00625493
0.00625493
0.00625493
0.00664158
0.00664158
0.00664158
0.00764728
0.00764728
0.00764728
0.00700381
0.00700381
0.00700381
0.00675455
0.00675455
0.00675455
0.00661206
0.00661206
0.00661206
0.00710139
0.00710139
0.00710139
0.00714606
0.00714606
0.00714606
0.00724168
0.00724168
0.00724168
0.00707102
0.00707102
0.00707102
0.00745047
0.00745047
0.00745047
0.00748429
0.00748429
0.00748429
0.00735125
0.00735125
0.00735125
0.00720845
0.00720845
0.00720845
0.00694842
0.00694842
0.00694842
0.00764042
0.00764042
0.00764042
0.00743707
0.00743707
0.00743707
0.00747177
0.00747177
0.00747177
0.00657583
0.00657583
0.00657583
0.00660164
0.00660164
0.00660164
0.00691746
0.00691746
0.00691746
0.00721235
0.00721235
0.00721235
0.00776147
0.00776147
0.00776147
0.0076593
0.0076593
0.0076593
0.00818263
0.00818263
0.00818263
0.00786716
0.00786716
0.00786716
0.00797072
0.00797072
0.00797072
0.00776809
0.00776809
0.00776809
0.00777502
0.00777502
0.00777502
0.00995147
0.00995147
0.00995147
0.00954714
0.00954714
0.00954714
0.00967982
0.00967982
0.00967982
0.00985607
0.00985607
0.00985607
0.00972103
0.00972103
0.00972103
0.00957118
0.00957118
0.00957118
0.00997559
0.00997559
0.00997559
0.00938702
0.00938702
0.00938702
0.00965098
0.00965098
0.00965098
0.00968257
0.00968257
0.00968257
0.00978628
0.00978628
0.00978628
0.00917148
0.00917148
0.00917148
0.00904653
0.00904653
0.00904653
0.00921055
0.00921055
0.00921055
0.00912412
0.00912412
0.00912412
0.0087583
0.0087583
0.0087583
0.00879448
0.00879448
0.00879448
0.00891495
0.00891495
0.00891495
0.00900019
0.00900019
0.00900019
0.00884028
0.00884028
0.00884028
0.00896167
0.00896167
0.00896167
0.00864458
0.00864458
0.00864458
0.00864648
0.00864648
0.00864648
0.00873958
0.00873958
0.00873958
0.00867148
0.00867148
0.00867148
0.00894288
0.00894288
0.00894288
0.00874465
0.00874465
0.00874465
0.00900743
0.00900743
0.00900743
0.00888511
0.00888511
0.00888511
0.00582638
0.00582638
0.00582638
0.00598856
0.00598856
0.00598856
0.00593778
0.00593778
0.00593778
0.00534621
0.00534621
0.00534621
0.00606416
0.00606416
0.00606416
0.00614202
0.00614202
0.00614202
0.0022432
0.0022432
0.0022432
0.00251897
0.00251897
0.00251897
0.00282952
0.00282952
0.00282952
0.00306147
0.00306147
0.00306147
0
0
0
0
0
0
0
0
0
0
0
0
0
0
0
0
0
0
0
0
0
0
0
0
0.000191004
0.000191004
0.000191004
0.000717804
0.000717804
0.000717804
0.00230362
0.00230362
0.00230362
0.00233455
0.00233455
0.00233455
0.000756988
0.000756988
0.000756988
0.00107336
0.00107336
0.00107336
0.00132516
0.00132516
0.00132516
0.00190566
0.00190566
0.00190566
0.00193155
0.00193155
0.00193155
0.00163929
0.00163929
0.00163929
0.00130752
0.00130752
0.00130752
0.00159577
0.00159577
0.00159577
0.00103106
0.00103106
0.00103106
0.000727375
0.000727375
0.000727375
0.000464485
0.000464485
0.000464485
0.000470638
0.000470638
0.000470638
0.000746964
0.000746964
0.000746964
0.00104494
0.00104494
0.00104494
0.00401413
0.00401413
0.00401413
0.00325928
0.00325928
0.00325928
0.00366269
0.00366269
0.00366269
0.00361225
0.00361225
0.00361225
0.00201378
0.00201378
0.00201378
0.00237375
0.00237375
0.00237375
0.00234082
0.00234082
0.00234082
0.00195848
0.00195848
0.00195848
0.00312698
0.00312698
0.00312698
0.00321447
0.00321447
0.00321447
0.00346571
0.00346571
0.00346571
0.00351377
0.00351377
0.00351377
0.00254288
0.00254288
0.00254288
0.0028622
0.0028622
0.0028622
0.00282296
0.00282296
0.00282296
0.00247367
0.00247367
0.00247367
0.00257833
0.00257833
0.00257833
0.00294261
0.00294261
0.00294261
0.0019315
0.0019315
0.0019315
0.00187883
0.00187883
0.00187883
0.00227656
0.00227656
0.00227656
0.00224521
0.00224521
0.00224521
0.00563335
0.00563335
0.00563335
0.00530327
0.00530327
0.00530327
0.00490021
0.00490021
0.00490021
0.00512961
0.00512961
0.00512961
0.00458872
0.00458872
0.00458872
0.00478464
0.00478464
0.00478464
0.00472189
0.00472189
0.00472189
0.00449604
0.00449604
0.00449604
0.00443595
0.00443595
0.00443595
0.00308429
0.00308429
0.00308429
0.00337188
0.00337188
0.00337188
0.00441799
0.00441799
0.00441799
0.00376607
0.00376607
0.00376607
0.00407022
0.00407022
0.00407022
0.00621627
0.00621627
0.00621627
0.00634472
0.00634472
0.00634472
0.00572677
0.00572677
0.00572677
0.00528695
0.00528695
0.00528695
0.00566658
0.00566658
0.00566658
0.00586945
0.00586945
0.00586945
0.00532958
0.00532958
0.00532958
0.00509381
0.00509381
0.00509381
0.00577392
0.00577392
0.00577392
0.00598242
0.00598242
0.00598242
0.00590217
0.00590217
0.00590217
0.00561897
0.00561897
0.00561897
0.00412392
0.00412392
0.00412392
0.00390463
0.00390463
0.00390463
0.00385119
0.00385119
0.00385119
0.0046821
0.0046821
0.0046821
0.00444017
0.00444017
0.00444017
0.00635352
0.00635352
0.00635352
0.00642597
0.00642597
0.00642597
0.00592646
0.00592646
0.00592646