<VTKFile type="UnstructuredGrid" version="1.0">
<UnstructuredGrid>
<Piece NumberOfPoints="10830" NumberOfCells="3610">
<Points>
<DataArray type="Float64" NumberOfComponents="3" format="ascii">
1.27826 3.11035 13.6107
1.28831 3.11035 13.585
1.28831 3.11035 13.6365
1.28831 3.11035 14.1401
1.28831 3.11035 14.191
1.27701 3.11035 14.1655
1.28831 3.11035 14.1401
1.27701 3.11035 14.1655
1.26002 3.11035 14.1401
0.0244388 3.11035 14.6126
0.0422213 3.11035 14.63
0 3.11035 14.63
0 3.11035 14.63
-7.89601e-14 3.11035 14.5998
0.0244388 3.11035 14.6126
1.28831 3.11035 14.1401
1.26002 3.11035 14.1401
1.27702 3.11035 14.1147
0.00863377 3.11035 13.8618
1.49469e-13 3.11035 13.887
1.49791e-13 3.11035 13.8366
1.27705 3.11035 13.8619
1.28831 3.11035 13.8871
1.26004 3.11035 13.8871
1.27684 3.11035 13.7613
1.28831 3.11035 13.7363
1.28831 3.11035 13.7864
1.26004 3.11035 13.8871
1.28831 3.11035 13.8871
1.27707 3.11035 13.9123
1.28831 3.11035 13.8871
1.28831 3.11035 13.9375
1.27707 3.11035 13.9123
1.26005 3.11035 13.9376
1.27707 3.11035 13.9123
1.28831 3.11035 13.9375
1.26003 3.11035 14.0893
1.27702 3.11035 14.1147
1.24613 3.11035 14.1147
1.24613 3.11035 14.1147
1.27702 3.11035 14.1147
1.26002 3.11035 14.1401
1.24613 3.11035 14.1147
1.23052 3.11035 14.0893
1.26003 3.11035 14.0893
1.24613 3.11035 14.1147
1.26002 3.11035 14.1401
1.23052 3.11035 14.1401
1.28831 3.11035 13.988
1.28831 3.11035 14.0386
1.27705 3.11035 14.0133
1.27705 3.11035 14.0133
1.26004 3.11035 14.0386
1.24616 3.11035 14.0133
1.28831 3.11035 14.0386
1.26004 3.11035 14.0386
1.27705 3.11035 14.0133
1.28831 3.11035 14.0893
1.27702 3.11035 14.1147
1.26003 3.11035 14.0893
1.28831 3.11035 14.1401
1.27702 3.11035 14.1147
1.28831 3.11035 14.0893
1.25981 3.11035 13.7363
1.28831 3.11035 13.7363
1.27684 3.11035 13.7613
1.26002 3.11035 14.191
1.27701 3.11035 14.1655
1.28831 3.11035 14.191
0.85884 3.11035 14.3707
0.873578 3.11035 14.345
0.888295 3.11035 14.3707
0 3.11035 13.585
0.0277369 3.11035 13.585
0.00987207 3.11035 13.6097
0.0840033 3.11035 13.8366
0.0549577 3.11035 13.8366
0.0689903 3.11035 13.8114
0.0264927 3.11035 13.8366
0.0549577 3.11035 13.8366
0.0392653 3.11035 13.8618
0.0264927 3.11035 13.8366
0.00863377 3.11035 13.8618
1.49791e-13 3.11035 13.8366
0.0392653 3.11035 13.8618
0.00863377 3.11035 13.8618
0.0264927 3.11035 13.8366
0.0087521 3.11035 14.0639
-9.63464e-14 3.11035 14.0893
1.47962e-13 3.11035 14.0386
0.0265703 3.11035 14.0893
0.0393699 3.11035 14.0639
0.0550657 3.11035 14.0893
-9.63464e-14 3.11035 14.0893
0.0087521 3.11035 14.0639
0.0265703 3.11035 14.0893
0.0265703 3.11035 14.0893
0.0087521 3.11035 14.0639
0.0393699 3.11035 14.0639
0.0265544 3.11035 14.0386
0.0550443 3.11035 14.0386
0.0393699 3.11035 14.0639
0.0265544 3.11035 14.0386
0.0087521 3.11035 14.0639
1.47962e-13 3.11035 14.0386
0.0393699 3.11035 14.0639
0.0087521 3.11035 14.0639
0.0265544 3.11035 14.0386
1.49469e-13 3.11035 13.887
0.00863377 3.11035 13.8618
0.0265126 3.11035 13.887
0.0265126 3.11035 13.887
0.00863377 3.11035 13.8618
0.0392653 3.11035 13.8618
0.0550657 3.11035 14.0893
0.0393699 3.11035 14.0639
0.0691236 3.11035 14.0639
0.0393699 3.11035 14.0639
0.0550443 3.11035 14.0386
0.0691236 3.11035 14.0639
0.288852 3.11035 14.0387
0.303471 3.11035 14.064
0.274248 3.11035 14.064
0.274248 3.11035 14.064
0.303471 3.11035 14.064
0.288872 3.11035 14.0894
0.288872 3.11035 14.0894
0.303471 3.11035 14.064
0.318088 3.11035 14.0894
0.844143 3.11035 14.345
0.873578 3.11035 14.345
0.85884 3.11035 14.3707
1.27699 3.11035 13.8116
1.28831 3.11035 13.7864
1.28831 3.11035 13.8367
1.28831 3.11035 13.8871
1.27705 3.11035 13.8619
1.28831 3.11035 13.8367
1.17079 3.11035 13.9881
1.14088 3.11035 13.9881
1.15586 3.11035 13.9628
1.26004 3.11035 13.9881
1.27705 3.11035 14.0133
1.24616 3.11035 14.0133
1.28831 3.11035 13.988
1.27705 3.11035 14.0133
1.26004 3.11035 13.9881
1.24616 3.11035 14.0133
1.26004 3.11035 14.0386
1.23053 3.11035 14.0386
1.27704 3.11035 14.0639
1.26004 3.11035 14.0386
1.28831 3.11035 14.0386
1.28831 3.11035 14.0386
1.28831 3.11035 14.0893
1.27704 3.11035 14.0639
1.27704 3.11035 14.0639
1.28831 3.11035 14.0893
1.26003 3.11035 14.0893
1.24591 3.11035 13.7614
1.25981 3.11035 13.7363
1.27684 3.11035 13.7613
1.27699 3.11035 13.8116
1.28831 3.11035 13.8367
1.26001 3.11035 13.8367
1.26001 3.11035 13.8367
1.28831 3.11035 13.8367
1.27705 3.11035 13.8619
1.15573 3.11035 13.8116
1.1407 3.11035 13.7864
1.1706 3.11035 13.7864
1.20051 3.11035 13.7865
1.18556 3.11035 13.7613
1.21561 3.11035 13.7613
1.20051 3.11035 13.7865
1.1706 3.11035 13.7864
1.18556 3.11035 13.7613
1.24614 3.11035 13.8619
1.27705 3.11035 13.8619
1.26004 3.11035 13.8871
1.24614 3.11035 13.8619
1.26001 3.11035 13.8367
1.27705 3.11035 13.8619
1.24612 3.11035 14.1656
1.26002 3.11035 14.1401
1.27701 3.11035 14.1655
1.27701 3.11035 14.1655
1.26002 3.11035 14.191
1.24612 3.11035 14.1656
1.23052 3.11035 14.1401
1.26002 3.11035 14.1401
1.24612 3.11035 14.1656
1.24611 3.11035 14.3191
1.21584 3.11035 14.3191
1.23051 3.11035 14.2934
1.21584 3.11035 14.2677
1.24611 3.11035 14.2677
1.23051 3.11035 14.2934
1.27699 3.11035 14.2165
1.26002 3.11035 14.191
1.28831 3.11035 14.191
1.24611 3.11035 14.2166
1.26002 3.11035 14.191
1.27699 3.11035 14.2165
0.917741 3.11035 14.4223
0.932465 3.11035 14.4482
0.902954 3.11035 14.4482
1.08109 3.11035 14.2934
1.09602 3.11035 14.2678
1.11094 3.11035 14.2934
1.11094 3.11035 14.2934
1.09602 3.11035 14.2678
1.12589 3.11035 14.2678
1.2305 3.11035 14.2421
1.21584 3.11035 14.2166
1.24611 3.11035 14.2166
1.2305 3.11035 14.2421
1.24611 3.11035 14.2677
1.21584 3.11035 14.2677
1.0662 3.11035 14.2678
1.09602 3.11035 14.2678
1.08109 3.11035 14.2934
0.991917 3.11035 14.0387
0.962274 3.11035 14.0387
0.977089 3.11035 14.0134
0.917902 3.11035 14.0134
0.903138 3.11035 14.0387
0.888384 3.11035 14.0134
0.932681 3.11035 14.0387
0.903138 3.11035 14.0387
0.917902 3.11035 14.0134
0.903119 3.11035 13.9377
0.932664 3.11035 13.9377
0.917893 3.11035 13.9629
0.917893 3.11035 13.9629
0.888374 3.11035 13.9629
0.903119 3.11035 13.9377
0.903119 3.11035 13.9377
0.888374 3.11035 13.9629
0.873625 3.11035 13.9376
0.917893 3.11035 13.9629
0.932664 3.11035 13.9377
0.947463 3.11035 13.9629
0.962233 3.11035 13.8872
0.977066 3.11035 13.9124
0.947444 3.11035 13.9124
0.947444 3.11035 13.9124
0.932637 3.11035 13.8872
0.962233 3.11035 13.8872
0.741456 3.11035 14.0641
0.756104 3.11035 14.0387
0.770765 3.11035 14.0641
0.756104 3.11035 14.0387
0.785431 3.11035 14.0388
0.770765 3.11035 14.0641
0.903133 3.11035 13.9882
0.888374 3.11035 13.9629
0.917893 3.11035 13.9629
0.903133 3.11035 13.9882
0.917902 3.11035 14.0134
0.888384 3.11035 14.0134
0.888384 3.11035 14.0134
0.858913 3.11035 14.0134
0.873639 3.11035 13.9882
0.873639 3.11035 13.9882
0.903133 3.11035 13.9882
0.888384 3.11035 14.0134
0.888374 3.11035 13.9629
0.903133 3.11035 13.9882
0.873639 3.11035 13.9882
0.873625 3.11035 13.9376
0.844177 3.11035 13.9376
0.858884 3.11035 13.9124
0.844153 3.11035 13.8872
0.873599 3.11035 13.8872
0.858884 3.11035 13.9124
0.318069 3.11035 14.0387
0.303471 3.11035 14.064
0.288852 3.11035 14.0387
0.288852 3.11035 14.0387
0.303454 3.11035 14.0134
0.318069 3.11035 14.0387
0.00864568 3.11035 13.6599
1.4958e-13 3.11035 13.6851
-9.64495e-14 3.11035 13.6344
0 3.11035 13.585
0.00987207 3.11035 13.6097
-9.64495e-14 3.11035 13.6344
0.0264295 3.11035 13.7357
1.50097e-13 3.11035 13.7357
0.00849117 3.11035 13.7104
1.50097e-13 3.11035 13.7357
1.4958e-13 3.11035 13.6851
0.00849117 3.11035 13.7104
1.28831 3.11035 13.585
1.27826 3.11035 13.6107
1.26122 3.11035 13.585
1.49791e-13 3.11035 13.8366
1.50032e-13 3.11035 13.7861
0.00859461 3.11035 13.8114
0.00859461 3.11035 13.8114
0.0264927 3.11035 13.8366
1.49791e-13 3.11035 13.8366
0.0264637 3.11035 13.7861
0.00859461 3.11035 13.8114
1.50032e-13 3.11035 13.7861
0.0264637 3.11035 13.7861
0.0391815 3.11035 13.7609
0.0549232 3.11035 13.7862
0.0392276 3.11035 13.8114
0.0689903 3.11035 13.8114
0.0549577 3.11035 13.8366
0.0549577 3.11035 13.8366
0.0264927 3.11035 13.8366
0.0392276 3.11035 13.8114
0.0549232 3.11035 13.7862
0.0689903 3.11035 13.8114
0.0392276 3.11035 13.8114
0.0392276 3.11035 13.8114
0.0264637 3.11035 13.7861
0.0549232 3.11035 13.7862
0.0264927 3.11035 13.8366
0.00859461 3.11035 13.8114
0.0392276 3.11035 13.8114
0.00859461 3.11035 13.8114
0.0264637 3.11035 13.7861
0.0392276 3.11035 13.8114
0.00854014 3.11035 13.7609
1.50032e-13 3.11035 13.7861
1.50097e-13 3.11035 13.7357
0.00854014 3.11035 13.7609
1.50097e-13 3.11035 13.7357
0.0264295 3.11035 13.7357
0.0264295 3.11035 13.7357
0.0391815 3.11035 13.7609
0.00854014 3.11035 13.7609
0.00854014 3.11035 13.7609
0.0264637 3.11035 13.7861
1.50032e-13 3.11035 13.7861
0.0391815 3.11035 13.7609
0.0264637 3.11035 13.7861
0.00854014 3.11035 13.7609
0.0690987 3.11035 14.0133
0.0550443 3.11035 14.0386
0.0393425 3.11035 14.0133
0.0550443 3.11035 14.0386
0.0265544 3.11035 14.0386
0.0393425 3.11035 14.0133
0.0393425 3.11035 14.0133
0.0550252 3.11035 13.988
0.0690987 3.11035 14.0133
0.0690242 3.11035 13.8618
0.0549577 3.11035 13.8366
0.0840033 3.11035 13.8366
0.0392653 3.11035 13.8618
0.0549577 3.11035 13.8366
0.0690242 3.11035 13.8618
0.0984777 3.11035 13.8618
0.0690242 3.11035 13.8618
0.0840033 3.11035 13.8366
0.0840313 3.11035 13.887
0.0690242 3.11035 13.8618
0.0984777 3.11035 13.8618
0.0840313 3.11035 13.887
0.0984777 3.11035 13.8618
0.113251 3.11035 13.887
0.303441 3.11035 13.9628
0.318055 3.11035 13.9881
0.288836 3.11035 13.9881
0.288836 3.11035 13.9881
0.318055 3.11035 13.9881
0.303454 3.11035 14.0134
0.186476 3.11035 14.0133
0.215741 3.11035 14.0133
0.201123 3.11035 14.0386
0.201103 3.11035 13.988
0.215741 3.11035 14.0133
0.186476 3.11035 14.0133
0.215723 3.11035 13.9628
0.201085 3.11035 13.9375
0.230345 3.11035 13.9375
0.201103 3.11035 13.988
0.186456 3.11035 13.9628
0.215723 3.11035 13.9628
0.215723 3.11035 13.9628
0.186456 3.11035 13.9628
0.201085 3.11035 13.9375
0.215762 3.11035 14.064
0.245012 3.11035 14.064
0.230402 3.11035 14.0893
0.157245 3.11035 14.1147
0.171881 3.11035 14.0893
0.186525 3.11035 14.1147
[...]
<PointData Scalars="View Factor" >
<DataArray type="Float64" Name="View Factor" NumberOfComponents="1" format="ascii">
0.479651
0.479651
0.479651
0.424498
0.424498
0.424498
0.429142
0.429142
0.429142
0.335309
0.335309
0.335309
0.339465
0.339465
0.339465
0.432192
0.432192
0.432192
0.433886
0.433886
0.433886
0.46717
0.46717
0.46717
0.474678
0.474678
0.474678
0.465481
0.465481
0.465481
0.462055
0.462055
0.462055
0.461826
0.461826
0.461826
0.438875
0.438875
0.438875
0.435939
0.435939
0.435939
0.442776
0.442776
0.442776
0.436869
0.436869
0.436869
0.449471
0.449471
0.449471
0.452208
0.452208
0.452208
0.448642
0.448642
0.448642
0.438032
0.438032
0.438032
0.433616
0.433616
0.433616
0.477319
0.477319
0.477319
0.422782
0.422782
0.422782
0.0119057
0.0119057
0.0119057
0.563324
0.563324
0.563324
0.215322
0.215322
0.215322
0.320196
0.320196
0.320196
0.4089
0.4089
0.4089
0.370378
0.370378
0.370378
0.410029
0.410029
0.410029
0.300016
0.300016
0.300016
0.382798
0.382798
0.382798
0.348468
0.348468
0.348468
0.303649
0.303649
0.303649
0.387502
0.387502
0.387502
0.350593
0.350593
0.350593
0.406157
0.406157
0.406157
0.369138
0.369138
0.369138
0.251133
0.251133
0.251133
0.252624
0.252624
0.252624
0
0
0
0
0
0
0
0
0
0
0
0
0.471309
0.471309
0.471309
0.467101
0.467101
0.467101
0.469297
0.469297
0.469297
0.454602
0.454602
0.454602
0.453405
0.453405
0.453405
0.453506
0.453506
0.453506
0.446125
0.446125
0.446125
0.441946
0.441946
0.441946
0.440819
0.440819
0.440819
0.479366
0.479366
0.479366
0.471677
0.471677
0.471677
0.470266
0.470266
0.470266
0.488587
0.488587
0.488587
0.488542
0.488542
0.488542
0.489177
0.489177
0.489177
0.470419
0.470419
0.470419
0.471976
0.471976
0.471976
0.429805
0.429805
0.429805
0.426608
0.426608
0.426608
0.433784
0.433784
0.433784
0.402355
0.402355
0.402355
0.410048
0.410048
0.410048
0.419475
0.419475
0.419475
0.419959
0.419959
0.419959
0.0843557
0.0843557
0.0843557
0.405088
0.405088
0.405088
0.410661
0.410661
0.410661
0.421002
0.421002
0.421002
0.41378
0.41378
0.41378
0.401752
0.401752
0.401752
0.292956
0.292956
0.292956
0.065853
0.065853
0.065853
0.103716
0.103716
0.103716
0.10634
0.10634
0.10634
0.0671514
0.0671514
0.0671514
0.0391721
0.0391721
0.0391721
0.151699
0.151699
0.151699
0.255665
0.255665
0.255665
0.204675
0.204675
0.204675
0
0
0
0
0
0
0.0668465
0.0668465
0.0668465
0.0661972
0.0661972
0.0661972
0.0139025
0.0139025
0.0139025
0.0387533
0.0387533
0.0387533
0.0389476
0.0389476
0.0389476
0
0
0
0
0
0
0
0
0
0
0
0
0.510051
0.510051
0.510051
0.554597
0.554597
0.554597
0.430207
0.430207
0.430207
0.466363
0.466363
0.466363
0.48139
0.48139
0.48139
0.437876
0.437876
0.437876
0.410149
0.410149
0.410149
0.412396
0.412396
0.412396
0.323681
0.323681
0.323681
0.268135
0.268135
0.268135
0.321163
0.321163
0.321163
0.268853
0.268853
0.268853
0.322905
0.322905
0.322905
0.372637
0.372637
0.372637
0.373653
0.373653
0.373653
0.441072
0.441072
0.441072
0.419323
0.419323
0.419323
0.376255
0.376255
0.376255
0.413397
0.413397
0.413397
0.375464
0.375464
0.375464
0.255457
0.255457
0.255457
0.305374
0.305374
0.305374
0.256797
0.256797
0.256797
0.214693
0.214693
0.214693
0.266541
0.266541
0.266541
0.166992
0.166992
0.166992
0.166468
0.166468
0.166468
0.125896
0.125896
0.125896
0
0
0
0
0
0
0.00653386
0.00653386
0.00653386
0.00655543
0.00655543
0.00655543
0.00146743
0.00146743
0.00146743
0.00659618
0.00659618
0.00659618
0.00661535
0.00661535
0.00661535
0
0
0
0.0215449
0.0215449
0.0215449
0.0131893
0.0131893
0.0131893
0.0219953
0.0219953
0.0219953
0.201626
0.201626
0.201626
0.207194
0.207194
0.207194
0.161169
0.161169
0.161169
0.0463118
0.0463118
0.0463118
0.203971
0.203971
0.203971
0.205085
0.205085
0.205085
0.160371
0.160371
0.160371
0.0211342
0.0211342
0.0211342
0.327354
0.327354
0.327354
0.324396
0.324396
0.324396
0
0
0
0
0
0
0
0
0
0
0
0
0
0
0
0
0
0
0
0
0
0
0
0
0
0
0
0
0
0
0.00638817
0.00638817
0.00638817
0
0
0
0
0
0
0
0
0
0
0
0
0
0
0
0
0
0
0
0
0
0
0
0
0
0
0
0
0
0
0
0
0
0
0
0
0
0
0
0
0
0
0
0
0
0
0
0
0
0
0
0.16946
0.16946
0.16946
0.139762
0.139762
0.139762
0.220118
0.220118
0.220118
0.241188
0.241188
0.241188
0.0723942
0.0723942
0.0723942
0.0362457
0.0362457
0.0362457
0.0721591
0.0721591
0.0721591
0.139301
0.139301
0.139301
0.0719093
0.0719093
0.0719093
0.0361219
0.0361219
0.0361219
0
0
0
0.240358
0.240358
0.240358
0.13881
0.13881
0.13881
0.168876
0.168876
0.168876
0.219345
0.219345
0.219345
0.239478
0.239478
0.239478
0.235414
0.235414
0.235414
0.328006
0.328006
0.328006
0.28317
0.28317
0.28317
0.269478
0.269478
0.269478
0.318613
0.318613
0.318613
0.294944
0.294944
0.294944
0.447391
0.447391
0.447391
0.440652
0.440652
0.440652
0.443622
0.443622
0.443622
0.448162
0.448162
0.448162
0.305711
0.305711
0.305711
0.304552
0.304552
0.304552
0.348832
0.348832
0.348832
0.459925
0.459925
0.459925
0.45872
0.45872
0.45872
0.455648
0.455648
0.455648
0.459113
0.459113
0.459113
0.456176
0.456176
0.456176
0.459859
0.459859
0.459859
0.46123
0.46123
0.46123
0.45389
0.45389
0.45389
0.45024
0.45024
0.45024
0.445594
0.445594
0.445594
0.45096
0.45096
0.45096
0.449289
0.449289
0.449289
0.451987
0.451987
0.451987
0.444479
0.444479
0.444479
0.447147
0.447147
0.447147
0.474213
0.474213
0.474213
0.475346
0.475346
0.475346
0.47837
0.47837
0.47837
0.47817
0.47817
0.47817
0.489764
0.489764
0.489764
0.490274
0.490274
0.490274
0.475378
0.475378
0.475378
0.481795
0.481795
0.481795
0.4771
0.4771
0.4771
0.480351
0.480351
0.480351
0.427352
0.427352
0.427352
0.424008
0.424008
0.424008
0.424491
0.424491
0.424491
0.398396
0.398396
0.398396
0.384388
0.384388
0.384388
0.27167
0.27167
0.27167
0.0117886
0.0117886
0.0117886
0.0331039
0.0331039
0.0331039
0.0327743
0.0327743
0.0327743
0.401178
0.401178
0.401178
0.393137
0.393137
0.393137
0.403567
0.403567
0.403567
0.407592
0.407592
0.407592
0.411529
0.411529
0.411529
0.453625
0.453625
0.453625
0.440082
0.440082
0.440082
0.449285
0.449285
0.449285
0.435662
0.435662
0.435662
0.429316
0.429316
0.429316
0.417063
0.417063
0.417063
0.417069
0.417069
0.417069
0.413476
0.413476
0.413476
0.416509
0.416509
0.416509
0.406406
0.406406
0.406406
0.406462
0.406462
0.406462
0.410273
0.410273
0.410273
0.414234
0.414234
0.414234
0.409293
0.409293
0.409293
0.413195
0.413195
0.413195
0.413959
0.413959
0.413959
0.432626
0.432626
0.432626
0.430258
0.430258
0.430258
0.296241
0.296241
0.296241
0.0384654
0.0384654
0.0384654
0.0138307
0.0138307
0.0138307
0.103128
0.103128
0.103128
0
0
0
0
0
0
0
0
0
0
0
0
0
0
0
0
0
0
0
0
0
0
0
0
0
0
0
0
0
0
0
0
0
0
0
0
0
0
0
0
0
0
0.148645
0.148645
0.148645
0.196969
0.196969
0.196969
0.247162
0.247162
0.247162
0.248539
0.248539
0.248539
0
0
0
0
0
0
0
0
0
0.0393447
0.0393447
0.0393447
0.0395274
0.0395274
0.0395274
0.0142226
0.0142226
0.0142226
0.0142786
0.0142786
0.0142786
0.107656
0.107656
0.107656
0.0679862
0.0679862
0.0679862
0.0677213
0.0677213
0.0677213
0.106801
0.106801
0.106801
0.153037
0.153037
0.153037
0.153659
0.153659
0.153659
0.25113
0.25113
0.25113
0.297787
0.297787
0.297787
0
0
0
0
0
0
0
0
0
0
0
0
0
0
0
0
0
0
0
0
0
0
0
0
0
0
0
0
0
0
0
0
0
0
0
0
0
0
0
0
0
0
0
0
0
0
0
0
0
0
0
0
0
0
0
0
0
0
0
0
0
0
0
0
0
0
0
0
0
0
0
0
0
0
0
0
0
0
0
0
0
0
0
0
0
0
0
0
0
0
0
0
0
0
0
0
0
0
0
0
0
0
0
0
0
0
0
0
0.126664
0.126664
0.126664
0.167948
0.167948
0.167948
0.127014
0.127014
0.127014
0
0
0
0
0
0
0
0
0
0
0
0
0
0
0
0
0
0
0
0
0
0
0
0
0.499807
0.499807
0.499807
0.483796
0.483796
0.483796
0.486461
0.486461
0.486461
0.50861
0.50861
0.50861
0.498909
0.498909
0.498909
0.499763
0.499763
0.499763
0.467157
0.467157
0.467157
0.470605
0.470605
0.470605
0.402124
0.402124
0.402124
0.380325
0.380325
0.380325
0.417168
0.417168
0.417168
0.389736
0.389736
0.389736
0.354629
0.354629
0.354629
0.423528
0.423528
0.423528
0.399678
0.399678
0.399678
0.313059
0.313059
0.313059
0.361817
0.361817
0.361817
0.40466
0.40466
0.40466
0.429103
0.429103
0.429103
0.401422
0.401422
0.401422
0.366432
0.366432
0.366432
0.364969
0.364969
0.364969
0.314408
0.314408
0.314408
0.262729
0.262729
0.262729
0.165326
0.165326
0.165326
0.125478
0.125478
0.125478
0.318072
0.318072
0.318072
0.265666
0.265666
0.265666
0.316913
0.316913
0.316913
0.26376
0.26376
0.26376
0.213312
0.213312
0.213312
0.212559
0.212559
0.212559
0.26051
0.26051
0.26051
0.259324
0.259324
0.259324
0.208189
0.208189
0.208189
0.162676
0.162676
0.162676
0
0
0
0
0
0
0
0
0
0
0
0
0
0
0
0
0
0
0
0
0
0
0
0
0
0
0
0
0
0
0.0220767
0.0220767
0.0220767
0.0222306
0.0222306
0.0222306
0.0132817
0.0132817
0.0132817
0.0133253
0.0133253
0.0133253
0.0337615
0.0337615
0.0337615
0.0338859
0.0338859
0.0338859
0.00648837
0.00648837
0.00648837
0.0131407
0.0131407
0.0131407
0.00143064
0.00143064
0.00143064
0.0129848
0.0129848
0.0129848
0.0130384
0.0130384
0.0130384
0.00646446
0.00646446
0.00646446
0.00641436
0.00641436
0.00641436
0.00142531
0.00142531
0.00142531
0.0212409
0.0212409
0.0212409
0.0128146
0.0128146
0.0128146
0.0128729
0.0128729
0.0128729
0.0214463
0.0214463
0.0214463
0.0325973
0.0325973
0.0325973
0.0443633
0.0443633
0.0443633
0.0324313
0.0324313
0.0324313
0.0329158
0.0329158
0.0329158
0.123056
0.123056
0.123056
0.0656958
0.0656958
0.0656958
0.122506
0.122506
0.122506
0.0905247
0.0905247
0.0905247
0.1578
0.1578
0.1578
0.158686
0.158686
0.158686
0.0892426
0.0892426
0.0892426
0.120726
0.120726
0.120726
0.0901123
0.0901123
0.0901123
0.121341
0.121341
0.121341
0.0441147
0.0441147
0.0441147
0.0620815
0.0620815
0.0620815
0.0320865
0.0320865
0.0320865
0.0857441
0.0857441
0.0857441
0.115069
0.115069
0.115069
0.0616957
0.0616957
0.0616957
0
0
0
0.0126933
0.0126933
0.0126933
0.0126304
0.0126304
0.0126304
0.00624632
0.00624632
0.00624632
0.00138999
0.00138999
0.00138999
0.323908
0.323908
0.323908
0.317008
0.317008
0.317008
0.306271
0.306271
0.306271
0.351936
0.351936
0.351936
0.327024
0.327024
0.327024
0.298674
0.298674
0.298674
0.311735
0.311735
0.311735
0.339984
0.339984
0.339984
0.31566
0.31566
0.31566
0.28853
0.28853
0.28853
0.323297
0.323297
0.323297
0.291959
0.291959
0.291959
0.257039
0.257039
0.257039
0.254181
0.254181
0.254181
0
0
0
0
0
0
0
0
0
0
0
0
0.00144569
0.00144569
0.00144569
0.00144084
0.00144084
0.00144084
0
0
0
0.00141415
0.00141415
0.00141415
0
0
0
0
0
0
0
0
0
0
0
0
0
0
0
0
0
0
0
0
0
0
0
0
0
0
0
0
0
0
0
0
0
0
0
0
0
0
0
0
0
0
0
0
0
0
0
0
0
0
0
0
0
0
0
0
0
0
0
0
0
0
0
0
0
0
0
0
0
0
0
0
0
0
0
0
0
0
0
0
0
0
0
0
0
0
0
0
0
0
0
0
0
0
0
0
0
0
0
0
0
0
0
0
0
0
0
0
0
0
0
0
0
0
0
0
0
0
0
0
0
0
0
0
0
0
0
0
0
0
0
0
0
0
0
0
0
0
0
0
0
0
0
0
0.012135
0.012135
0.012135
0.012247
0.012247
0.012247
0
0
0
0
0
0
0
0
0
0
0
0
0
0
0
0
0
0
0
0
0
0
0
0
0
0
0
0
0
0
0
0
0
0
0
0
0.171009
0.171009
0.171009
0.0363622
0.0363622
0.0363622
0
0
0
0
0
0
0
0
0
0
0
0
0.0125002
0.0125002
0.0125002
0.00621582
0.00621582
0.00621582
0.140985
0.140985
0.140985
0
0
0
0
0
0
0
0
0
0
0
0
0
0
0
0
0
0
0
0
0
0
0
0
0
0
0
0
0
0
0
0
0
0
0
0
0
0
0
0
0
0
0
0
0
0
0
0
0
0
0
0
0
0
0
0
0
0
0
0
0
0
0
0
0
0
0
0
0
0
0
0
0.234252
0.234252
0.234252
0.21474
0.21474
0.21474
0.168257
0.168257
0.168257
0.238545
0.238545
0.238545
0.218525
0.218525
0.218525
0.236515
0.236515
0.236515
0.215766
0.215766
0.215766
0.166171
0.166171
0.166171
0.137155
0.137155
0.137155
0.263044
0.263044
0.263044
0.264766
0.264766
0.264766
0.326028
0.326028
0.326028
0.325679
0.325679
0.325679
0.328469
0.328469
0.328469
0.262583
0.262583
0.262583
0.259077
0.259077
0.259077
0.310558
0.310558
0.310558
0.291164
0.291164
0.291164
0.232095
0.232095
0.232095
0.235123
0.235123
0.235123
0.359575
0.359575
0.359575
0.388722
0.388722
0.388722
0.320148
0.320148
0.320148
0.317128
0.317128
0.317128
0.320773
0.320773
0.320773
0.323942
0.323942
0.323942
0.331839
0.331839
0.331839
0.441421
0.441421
0.441421
0.445161
0.445161
0.445161
0.448856
0.448856
0.448856
0.44582
0.44582
0.44582
0.457306
0.457306
0.457306
0.466514
0.466514
0.466514
0.459412
0.459412
0.459412
0.45741
0.45741
0.45741
0.454652
0.454652
0.454652
0.45811
0.45811
0.45811
0.462025
0.462025
0.462025
0.46512
0.46512
0.46512
0.462645
0.462645
0.462645
0.466968
0.466968
0.466968
0.465788
0.465788
0.465788
0.463323
0.463323
0.463323
0.464878
0.464878
0.464878
0.461193
0.461193
0.461193
0.469786
0.469786
0.469786
0.467212
0.467212
0.467212
0.465854
0.465854
0.465854
0.444912
0.444912
0.444912
0.45173
0.45173
0.45173
0.458552
0.458552
0.458552
0.460874
0.460874
0.460874
0.460591
0.460591
0.460591
0.458322
0.458322
0.458322
0.476066
0.476066
0.476066
0.471975
0.471975
0.471975
0.464849
0.464849
0.464849
0.468829
0.468829
0.468829
0.470433
0.470433
0.470433
0.482877
0.482877
0.482877
0.481078
0.481078
0.481078
0.481783
0.481783
0.481783
0.480117
0.480117
0.480117
0.479573
0.479573
0.479573
0.477202
0.477202
0.477202
0.478866
0.478866
0.478866
0.489564
0.489564
0.489564
0.491317
0.491317
0.491317
0.493959
0.493959
0.493959
0.492043
0.492043
0.492043
0.485557
0.485557
0.485557
0.484397
0.484397
0.484397
0.483571
0.483571
0.483571
0.480523
0.480523
0.480523
0.476805
0.476805
0.476805
0.474814
0.474814
0.474814
0.476091
0.476091
0.476091
0.479376
0.479376
0.479376
0.47997
0.47997
0.47997
0.481264
0.481264
0.481264
0.483922
0.483922
0.483922
0.481999
0.481999
0.481999
0.487926
0.487926
0.487926
0.486607
0.486607
0.486607
0.488007
0.488007
0.488007
0.485379
0.485379
0.485379
0.48621
0.48621
0.48621
0.484901
0.484901
0.484901
0.401267
0.401267
0.401267
0.402464
0.402464
0.402464
0.398449
0.398449
0.398449
0.382427
0.382427
0.382427
0.402226
0.402226
0.402226
0.406053
0.406053
0.406053
0.261222
0.261222
0.261222
0.275289
0.275289
0.275289
0.293937
0.293937
0.293937
0.307495
0.307495
0.307495
0
0
0
0
0
0
0
0
0
0
0
0
0
0
0
0
0
0
0
0
0
0
0
0
0.0115497
0.0115497
0.0115497
0.0540713
0.0540713
0.0540713
0.248354
0.248354
0.248354
0.25196
0.25196
0.25196
0.0564466
0.0564466
0.0564466
0.0891922
0.0891922
0.0891922
0.122087
0.122087
0.122087
0.199297
0.199297
0.199297
0.201782
0.201782
0.201782
0.162614
0.162614
0.162614
0.120638
0.120638
0.120638
0.158689
0.158689
0.158689
0.0863307
0.0863307
0.0863307
0.0546773
0.0546773
0.0546773
0.0314295
0.0314295
0.0314295
0.0317698
0.0317698
0.0317698
0.0558653
0.0558653
0.0558653
0.0872986
0.0872986
0.0872986
0.385783
0.385783
0.385783
0.336049
0.336049
0.336049
0.365228
0.365228
0.365228
0.362055
0.362055
0.362055
0.188024
0.188024
0.188024
0.234258
0.234258
0.234258
0.232413
0.232413
0.232413
0.185105
0.185105
0.185105
0.326604
0.326604
0.326604
0.332969
0.332969
0.332969
0.352091
0.352091
0.352091
0.355485
0.355485
0.355485
0.265557
0.265557
0.265557
0.301011
0.301011
0.301011
0.29811
0.29811
0.29811
0.260466
0.260466
0.260466
0.26802
0.26802
0.26802
0.306624
0.306624
0.306624
0.183587
0.183587
0.183587
0.180438
0.180438
0.180438
0.228576
0.228576
0.228576
0.226585
0.226585
0.226585
0.409413
0.409413
0.409413
0.411138
0.411138
0.411138
0.386481
0.386481
0.386481
0.3901
0.3901
0.3901
0.38901
0.38901
0.38901
0.390492
0.390492
0.390492
0.38625
0.38625
0.38625
0.393988
0.393988
0.393988
0.389996
0.389996
0.389996
0.323323
0.323323
0.323323
0.345093
0.345093
0.345093
0.404919
0.404919
0.404919
0.371344
0.371344
0.371344
0.388979
0.388979
0.388979
0.45102
0.45102
0.45102
0.453491
0.453491
0.453491
0.437528
0.437528
0.437528
0.432145
0.432145
0.432145
0.441388
0.441388
0.441388
0.444113
0.444113
0.444113
0.42525
0.42525
0.42525
0.42261
0.42261
0.42261
0.441912
0.441912
0.441912
0.442815
0.442815
0.442815
0.439642
0.439642
0.439642
0.435574
0.435574
0.435574
0.387851
0.387851
0.387851
0.379152
0.379152
0.379152
0.375719
0.375719
0.375719
0.405519
0.405519
0.405519
0.39992
0.39992
0.39992
0.412613
0.412613
0.412613
0.414615
0.414615
0.414615
0.415419
0.415419
0.415419
0.414538
0.414538
0.414538
0.413336
0.413336
0.413336
0.195815
0.195815
0.195815
0.146931
0.146931
0.146931
0.189424
0.189424
0.189424
0.143138
0.143138
0.143138
0.418554
0.418554
0.418554
0.334622
0.334622
0.334622
0.336494
0.336494
0.336494
0.367244
0.367244
0.367244
0.371357
0.371357
0.371357
0.394865
0.394865
0.394865
0.397061
0.397061
0.397061
0.0382506
0.0382506
0.0382506
0.0647433
0.0647433
0.0647433
0.065126
0.065126
0.065126
0.0377989
0.0377989
0.0377989
0.0135998
0.0135998
0.0135998
0.0136793
0.0136793
0.0136793
0
0
0
0
0
0
0
0
0
0
0
0
0
0
0
0
0
0
0
0
0
0
0
0
0
0
0
0
0
0
0
0
0
0
0
0
0
0
0
0
0
0
0
0
0
0
0
0
0.149455
0.149455
0.149455
0.150983
0.150983
0.150983
0.200178
0.200178
0.200178
0.199151
0.199151
0.199151
0.105355
0.105355
0.105355
0.10483
0.10483
0.10483
0
0
0
0
0
0
0
0
0
0
0
0
0
0
0
0
0
0
0
0
0
0
0
0
0
0
0
0
0
0
0
0
0
0
0
0
0
0
0
0
0
0
0.0976847
0.0976847
0.0976847
0.139981
0.139981
0.139981
0.141062
0.141062
0.141062
0.252345
0.252345
0.252345
0.254613
0.254613
0.254613
0.30204
0.30204
0.30204
0.300687
0.300687
0.300687
0.203005
0.203005
0.203005
0.202106
0.202106
0.202106
0
0
0
0
0
0
0
0
0
0
0
0
0
0
0
0
0
0
0
0
0
0
0
0
0
0
0
0
0
0
0
0
0
0
0
0
0
0
0
0
0
0
0
0
0
0
0
0
0
0
0
0
0
0
0
0
0
0
0
0
0
0
0
0
0
0
0
0
0
0
0
0
0
0
0
0
0
0
0
0
0
0
0
0
0
0
0
0
0
0
0
0
0
0
0
0
0.0141026
0.0141026
0.0141026
0.0140385
0.0140385
0.0140385
0
0
0
0
0
0
0
0
0
0
0
0
0
0
0
0
0
0
0.00147127
0.00147127
0.00147127
0
0
0
0
0
0
0.00145489
0.00145489
0.00145489
0.00145924
0.00145924
0.00145924
0
0
0
0
0
0
0
0
0
0.0932705
0.0932705
0.0932705
0.0935429
0.0935429
0.0935429
0.0677262
0.0677262
0.0677262
0.0673509
0.0673509
0.0673509
0
0
0
0
0
0
0
0
0
0
0
0
0
0
0
0
0
0
0
0
0
0
0
0
0
0
0
0
0
0
0
0
0
0
0
0
0
0
0
0
0
0
0
0
0
0
0
0
0
0
0
0
0
0
0
0
0
0
0
0
0
0
0
0
0
0
0
0
0
0
0
0
0
0
0
0
0
0
0
0
0
0
0
0
0
0
0
0
0
0
0
0
0
0
0
0
0
0
0
0.550105
0.550105
0.550105
0.553274
0.553274
0.553274
0.556663
0.556663
0.556663
0.543587
0.543587
0.543587
0.543787
0.543787
0.543787
0.533428
0.533428
0.533428
0.27013
0.27013
0.27013
0.478708
0.478708
0.478708
0.459991
0.459991
0.459991
0.164705
0.164705
0.164705
0.217476
0.217476
0.217476
0.49024
0.49024
0.49024
0.487715
0.487715
0.487715
0.49074
0.49074
0.49074
0.489707
0.489707
0.489707
0.495387
0.495387
0.495387
0.48009
0.48009
0.48009
0.47746
0.47746
0.47746
0.484155
0.484155
0.484155
0.477014
0.477014
0.477014
0.475996
0.475996
0.475996
0.48126
0.48126
0.48126
0.485747
0.485747
0.485747
0.486778
0.486778
0.486778
0.502066
0.502066
0.502066
0.501014
0.501014
0.501014
0.503507
0.503507
0.503507
0.492039
0.492039
0.492039
0.491303
0.491303
0.491303
0.49128
0.49128
0.49128
0.492267
0.492267
0.492267
0.488961
0.488961
0.488961
0.491326
0.491326
0.491326
0.496376
0.496376
0.496376
0.497094
0.497094
0.497094
0.494657
0.494657
0.494657
0.495732
0.495732
0.495732
0.496084
0.496084
0.496084
0.494029
0.494029
0.494029
0.49824
0.49824
0.49824
0.498257
0.498257
0.498257
0.495837
0.495837
0.495837
0.493887
0.493887
0.493887
0.450189
0.450189
0.450189
0.474689
0.474689
0.474689
0.483393
0.483393
0.483393
0.472434
0.472434
0.472434
0.467165
0.467165
0.467165
0.443955
0.443955
0.443955
0.439689
0.439689
0.439689
0.4561
0.4561
0.4561
0.457083
0.457083
0.457083
0.419705
0.419705
0.419705
0.418799
0.418799
0.418799
0.435176
0.435176
0.435176
0.502418
0.502418
0.502418
0.507174
0.507174
0.507174
0.39347
0.39347
0.39347
0.366799
0.366799
0.366799
0.19782
0.19782
0.19782
0.200395
0.200395
0.200395
0.344
0.344
0.344
0.24636
0.24636
0.24636
0.298107
0.298107
0.298107
0.248
0.248
0.248
0.310174
0.310174
0.310174
0.308636
0.308636
0.308636
0.395947
0.395947
0.395947
0.360131
0.360131
0.360131
0.393957
0.393957
0.393957
0.356535
0.356535
0.356535
0.124091
0.124091
0.124091
0.124576
0.124576
0.124576
0.210058
0.210058
0.210058
0.163384
0.163384
0.163384
0.210933
0.210933
0.210933
0.164709
0.164709
0.164709
0
0
0
0
0
0
0
0
0
0
0
0
0
0
0
0
0
0
0.0466706
0.0466706
0.0466706
0.0659641
0.0659641
0.0659641
0.0916708
0.0916708
0.0916708
0.0913041
0.0913041
0.0913041
0.0671467
0.0671467
0.0671467
0.0923578
0.0923578
0.0923578
0.0926778
0.0926778
0.0926778
0.0134074
0.0134074
0.0134074
0.022303
0.022303
0.022303
0.0455118
0.0455118
0.0455118
0.0218238
0.0218238
0.0218238
0.0217336
0.0217336
0.0217336
0.0330684
0.0330684
0.0330684
0.044842
0.044842
0.044842
0.0450717
0.0450717
0.0450717
0.374017
0.374017
0.374017
0.348117
0.348117
0.348117
0.354626
0.354626
0.354626
0.265362
0.265362
0.265362
0.262632
0.262632
0.262632
0.334304
0.334304
0.334304
0.301957
0.301957
0.301957
0.363285
0.363285
0.363285
0.337852