<VTKFile type="UnstructuredGrid" version="1.0">
<UnstructuredGrid>
<Piece NumberOfPoints="10830" NumberOfCells="3610">
<Points>
<DataArray type="Float64" NumberOfComponents="3" format="ascii">
1.27826 3.11035 14.6557
1.28831 3.11035 14.63
1.28831 3.11035 14.6815
1.28831 3.11035 15.1851
1.28831 3.11035 15.236
1.27701 3.11035 15.2105
1.28831 3.11035 15.1851
1.27701 3.11035 15.2105
1.26002 3.11035 15.1851
0.0244388 3.11035 15.6576
0.0422213 3.11035 15.675
0 3.11035 15.675
0 3.11035 15.675
-7.89601e-14 3.11035 15.6448
0.0244388 3.11035 15.6576
1.28831 3.11035 15.1851
1.26002 3.11035 15.1851
1.27702 3.11035 15.1597
0.00863377 3.11035 14.9068
1.49469e-13 3.11035 14.932
1.49791e-13 3.11035 14.8816
1.27705 3.11035 14.9069
1.28831 3.11035 14.9321
1.26004 3.11035 14.9321
1.27684 3.11035 14.8063
1.28831 3.11035 14.7813
1.28831 3.11035 14.8314
1.26004 3.11035 14.9321
1.28831 3.11035 14.9321
1.27707 3.11035 14.9573
1.28831 3.11035 14.9321
1.28831 3.11035 14.9825
1.27707 3.11035 14.9573
1.26005 3.11035 14.9826
1.27707 3.11035 14.9573
1.28831 3.11035 14.9825
1.26003 3.11035 15.1343
1.27702 3.11035 15.1597
1.24613 3.11035 15.1597
1.24613 3.11035 15.1597
1.27702 3.11035 15.1597
1.26002 3.11035 15.1851
1.24613 3.11035 15.1597
1.23052 3.11035 15.1343
1.26003 3.11035 15.1343
1.24613 3.11035 15.1597
1.26002 3.11035 15.1851
1.23052 3.11035 15.1851
1.28831 3.11035 15.033
1.28831 3.11035 15.0836
1.27705 3.11035 15.0583
1.27705 3.11035 15.0583
1.26004 3.11035 15.0836
1.24616 3.11035 15.0583
1.28831 3.11035 15.0836
1.26004 3.11035 15.0836
1.27705 3.11035 15.0583
1.28831 3.11035 15.1343
1.27702 3.11035 15.1597
1.26003 3.11035 15.1343
1.28831 3.11035 15.1851
1.27702 3.11035 15.1597
1.28831 3.11035 15.1343
1.25981 3.11035 14.7813
1.28831 3.11035 14.7813
1.27684 3.11035 14.8063
1.26002 3.11035 15.236
1.27701 3.11035 15.2105
1.28831 3.11035 15.236
0.85884 3.11035 15.4157
0.873578 3.11035 15.39
0.888295 3.11035 15.4157
0 3.11035 14.63
0.0277369 3.11035 14.63
0.00987207 3.11035 14.6547
0.0840033 3.11035 14.8816
0.0549577 3.11035 14.8816
0.0689903 3.11035 14.8564
0.0264927 3.11035 14.8816
0.0549577 3.11035 14.8816
0.0392653 3.11035 14.9068
0.0264927 3.11035 14.8816
0.00863377 3.11035 14.9068
1.49791e-13 3.11035 14.8816
0.0392653 3.11035 14.9068
0.00863377 3.11035 14.9068
0.0264927 3.11035 14.8816
0.0087521 3.11035 15.1089
-9.63464e-14 3.11035 15.1343
1.47962e-13 3.11035 15.0836
0.0265703 3.11035 15.1343
0.0393699 3.11035 15.1089
0.0550657 3.11035 15.1343
-9.63464e-14 3.11035 15.1343
0.0087521 3.11035 15.1089
0.0265703 3.11035 15.1343
0.0265703 3.11035 15.1343
0.0087521 3.11035 15.1089
0.0393699 3.11035 15.1089
0.0265544 3.11035 15.0836
0.0550443 3.11035 15.0836
0.0393699 3.11035 15.1089
0.0265544 3.11035 15.0836
0.0087521 3.11035 15.1089
1.47962e-13 3.11035 15.0836
0.0393699 3.11035 15.1089
0.0087521 3.11035 15.1089
0.0265544 3.11035 15.0836
1.49469e-13 3.11035 14.932
0.00863377 3.11035 14.9068
0.0265126 3.11035 14.932
0.0265126 3.11035 14.932
0.00863377 3.11035 14.9068
0.0392653 3.11035 14.9068
0.0550657 3.11035 15.1343
0.0393699 3.11035 15.1089
0.0691236 3.11035 15.1089
0.0393699 3.11035 15.1089
0.0550443 3.11035 15.0836
0.0691236 3.11035 15.1089
0.288852 3.11035 15.0837
0.303471 3.11035 15.109
0.274248 3.11035 15.109
0.274248 3.11035 15.109
0.303471 3.11035 15.109
0.288872 3.11035 15.1344
0.288872 3.11035 15.1344
0.303471 3.11035 15.109
0.318088 3.11035 15.1344
0.844143 3.11035 15.39
0.873578 3.11035 15.39
0.85884 3.11035 15.4157
1.27699 3.11035 14.8566
1.28831 3.11035 14.8314
1.28831 3.11035 14.8817
1.28831 3.11035 14.9321
1.27705 3.11035 14.9069
1.28831 3.11035 14.8817
1.17079 3.11035 15.0331
1.14088 3.11035 15.0331
1.15586 3.11035 15.0078
1.26004 3.11035 15.0331
1.27705 3.11035 15.0583
1.24616 3.11035 15.0583
1.28831 3.11035 15.033
1.27705 3.11035 15.0583
1.26004 3.11035 15.0331
1.24616 3.11035 15.0583
1.26004 3.11035 15.0836
1.23053 3.11035 15.0836
1.27704 3.11035 15.1089
1.26004 3.11035 15.0836
1.28831 3.11035 15.0836
1.28831 3.11035 15.0836
1.28831 3.11035 15.1343
1.27704 3.11035 15.1089
1.27704 3.11035 15.1089
1.28831 3.11035 15.1343
1.26003 3.11035 15.1343
1.24591 3.11035 14.8064
1.25981 3.11035 14.7813
1.27684 3.11035 14.8063
1.27699 3.11035 14.8566
1.28831 3.11035 14.8817
1.26001 3.11035 14.8817
1.26001 3.11035 14.8817
1.28831 3.11035 14.8817
1.27705 3.11035 14.9069
1.15573 3.11035 14.8566
1.1407 3.11035 14.8314
1.1706 3.11035 14.8314
1.20051 3.11035 14.8315
1.18556 3.11035 14.8063
1.21561 3.11035 14.8063
1.20051 3.11035 14.8315
1.1706 3.11035 14.8314
1.18556 3.11035 14.8063
1.24614 3.11035 14.9069
1.27705 3.11035 14.9069
1.26004 3.11035 14.9321
1.24614 3.11035 14.9069
1.26001 3.11035 14.8817
1.27705 3.11035 14.9069
1.24612 3.11035 15.2106
1.26002 3.11035 15.1851
1.27701 3.11035 15.2105
1.27701 3.11035 15.2105
1.26002 3.11035 15.236
1.24612 3.11035 15.2106
1.23052 3.11035 15.1851
1.26002 3.11035 15.1851
1.24612 3.11035 15.2106
1.24611 3.11035 15.3641
1.21584 3.11035 15.3641
1.23051 3.11035 15.3384
1.21584 3.11035 15.3127
1.24611 3.11035 15.3127
1.23051 3.11035 15.3384
1.27699 3.11035 15.2615
1.26002 3.11035 15.236
1.28831 3.11035 15.236
1.24611 3.11035 15.2616
1.26002 3.11035 15.236
1.27699 3.11035 15.2615
0.917741 3.11035 15.4673
0.932465 3.11035 15.4932
0.902954 3.11035 15.4932
1.08109 3.11035 15.3384
1.09602 3.11035 15.3128
1.11094 3.11035 15.3384
1.11094 3.11035 15.3384
1.09602 3.11035 15.3128
1.12589 3.11035 15.3128
1.2305 3.11035 15.2871
1.21584 3.11035 15.2616
1.24611 3.11035 15.2616
1.2305 3.11035 15.2871
1.24611 3.11035 15.3127
1.21584 3.11035 15.3127
1.0662 3.11035 15.3128
1.09602 3.11035 15.3128
1.08109 3.11035 15.3384
0.991917 3.11035 15.0837
0.962274 3.11035 15.0837
0.977089 3.11035 15.0584
0.917902 3.11035 15.0584
0.903138 3.11035 15.0837
0.888384 3.11035 15.0584
0.932681 3.11035 15.0837
0.903138 3.11035 15.0837
0.917902 3.11035 15.0584
0.903119 3.11035 14.9827
0.932664 3.11035 14.9827
0.917893 3.11035 15.0079
0.917893 3.11035 15.0079
0.888374 3.11035 15.0079
0.903119 3.11035 14.9827
0.903119 3.11035 14.9827
0.888374 3.11035 15.0079
0.873625 3.11035 14.9826
0.917893 3.11035 15.0079
0.932664 3.11035 14.9827
0.947463 3.11035 15.0079
0.962233 3.11035 14.9322
0.977066 3.11035 14.9574
0.947444 3.11035 14.9574
0.947444 3.11035 14.9574
0.932637 3.11035 14.9322
0.962233 3.11035 14.9322
0.741456 3.11035 15.1091
0.756104 3.11035 15.0837
0.770765 3.11035 15.1091
0.756104 3.11035 15.0837
0.785431 3.11035 15.0838
0.770765 3.11035 15.1091
0.903133 3.11035 15.0332
0.888374 3.11035 15.0079
0.917893 3.11035 15.0079
0.903133 3.11035 15.0332
0.917902 3.11035 15.0584
0.888384 3.11035 15.0584
0.888384 3.11035 15.0584
0.858913 3.11035 15.0584
0.873639 3.11035 15.0332
0.873639 3.11035 15.0332
0.903133 3.11035 15.0332
0.888384 3.11035 15.0584
0.888374 3.11035 15.0079
0.903133 3.11035 15.0332
0.873639 3.11035 15.0332
0.873625 3.11035 14.9826
0.844177 3.11035 14.9826
0.858884 3.11035 14.9574
0.844153 3.11035 14.9322
0.873599 3.11035 14.9322
0.858884 3.11035 14.9574
0.318069 3.11035 15.0837
0.303471 3.11035 15.109
0.288852 3.11035 15.0837
0.288852 3.11035 15.0837
0.303454 3.11035 15.0584
0.318069 3.11035 15.0837
0.00864568 3.11035 14.7049
1.4958e-13 3.11035 14.7301
-9.64495e-14 3.11035 14.6794
0 3.11035 14.63
0.00987207 3.11035 14.6547
-9.64495e-14 3.11035 14.6794
0.0264295 3.11035 14.7807
1.50097e-13 3.11035 14.7807
0.00849117 3.11035 14.7554
1.50097e-13 3.11035 14.7807
1.4958e-13 3.11035 14.7301
0.00849117 3.11035 14.7554
1.28831 3.11035 14.63
1.27826 3.11035 14.6557
1.26122 3.11035 14.63
1.49791e-13 3.11035 14.8816
1.50032e-13 3.11035 14.8311
0.00859461 3.11035 14.8564
0.00859461 3.11035 14.8564
0.0264927 3.11035 14.8816
1.49791e-13 3.11035 14.8816
0.0264637 3.11035 14.8311
0.00859461 3.11035 14.8564
1.50032e-13 3.11035 14.8311
0.0264637 3.11035 14.8311
0.0391815 3.11035 14.8059
0.0549232 3.11035 14.8312
0.0392276 3.11035 14.8564
0.0689903 3.11035 14.8564
0.0549577 3.11035 14.8816
0.0549577 3.11035 14.8816
0.0264927 3.11035 14.8816
0.0392276 3.11035 14.8564
0.0549232 3.11035 14.8312
0.0689903 3.11035 14.8564
0.0392276 3.11035 14.8564
0.0392276 3.11035 14.8564
0.0264637 3.11035 14.8311
0.0549232 3.11035 14.8312
0.0264927 3.11035 14.8816
0.00859461 3.11035 14.8564
0.0392276 3.11035 14.8564
0.00859461 3.11035 14.8564
0.0264637 3.11035 14.8311
0.0392276 3.11035 14.8564
0.00854014 3.11035 14.8059
1.50032e-13 3.11035 14.8311
1.50097e-13 3.11035 14.7807
0.00854014 3.11035 14.8059
1.50097e-13 3.11035 14.7807
0.0264295 3.11035 14.7807
0.0264295 3.11035 14.7807
0.0391815 3.11035 14.8059
0.00854014 3.11035 14.8059
0.00854014 3.11035 14.8059
0.0264637 3.11035 14.8311
1.50032e-13 3.11035 14.8311
0.0391815 3.11035 14.8059
0.0264637 3.11035 14.8311
0.00854014 3.11035 14.8059
0.0690987 3.11035 15.0583
0.0550443 3.11035 15.0836
0.0393425 3.11035 15.0583
0.0550443 3.11035 15.0836
0.0265544 3.11035 15.0836
0.0393425 3.11035 15.0583
0.0393425 3.11035 15.0583
0.0550252 3.11035 15.033
0.0690987 3.11035 15.0583
0.0690242 3.11035 14.9068
0.0549577 3.11035 14.8816
0.0840033 3.11035 14.8816
0.0392653 3.11035 14.9068
0.0549577 3.11035 14.8816
0.0690242 3.11035 14.9068
0.0984777 3.11035 14.9068
0.0690242 3.11035 14.9068
0.0840033 3.11035 14.8816
0.0840313 3.11035 14.932
0.0690242 3.11035 14.9068
0.0984777 3.11035 14.9068
0.0840313 3.11035 14.932
0.0984777 3.11035 14.9068
0.113251 3.11035 14.932
0.303441 3.11035 15.0078
0.318055 3.11035 15.0331
0.288836 3.11035 15.0331
0.288836 3.11035 15.0331
0.318055 3.11035 15.0331
0.303454 3.11035 15.0584
0.186476 3.11035 15.0583
0.215741 3.11035 15.0583
0.201123 3.11035 15.0836
0.201103 3.11035 15.033
0.215741 3.11035 15.0583
0.186476 3.11035 15.0583
0.215723 3.11035 15.0078
0.201085 3.11035 14.9825
0.230345 3.11035 14.9825
0.201103 3.11035 15.033
0.186456 3.11035 15.0078
0.215723 3.11035 15.0078
0.215723 3.11035 15.0078
0.186456 3.11035 15.0078
0.201085 3.11035 14.9825
0.215762 3.11035 15.109
0.245012 3.11035 15.109
0.230402 3.11035 15.1343
0.157245 3.11035 15.1597
0.171881 3.11035 15.1343
0.186525 3.11035 15.1597
[...]
<PointData Scalars="View Factor" >
<DataArray type="Float64" Name="View Factor" NumberOfComponents="1" format="ascii">
0.320892
0.320892
0.320892
0.444182
0.444182
0.444182
0.443128
0.443128
0.443128
0.560225
0.560225
0.560225
0.5599
0.5599
0.5599
0.440407
0.440407
0.440407
0.355847
0.355847
0.355847
0.390116
0.390116
0.390116
0.36036
0.36036
0.36036
0.393966
0.393966
0.393966
0.396352
0.396352
0.396352
0.401477
0.401477
0.401477
0.438438
0.438438
0.438438
0.441301
0.441301
0.441301
0.439424
0.439424
0.439424
0.445183
0.445183
0.445183
0.417564
0.417564
0.417564
0.422886
0.422886
0.422886
0.422336
0.422336
0.422336
0.434712
0.434712
0.434712
0.436052
0.436052
0.436052
0.357392
0.357392
0.357392
0.448308
0.448308
0.448308
0.0144655
0.0144655
0.0144655
0.340785
0.340785
0.340785
0.174206
0.174206
0.174206
0.259982
0.259982
0.259982
0.330843
0.330843
0.330843
0.30207
0.30207
0.30207
0.396014
0.396014
0.396014
0.293804
0.293804
0.293804
0.37475
0.37475
0.37475
0.338895
0.338895
0.338895
0.289575
0.289575
0.289575
0.369264
0.369264
0.369264
0.336418
0.336418
0.336418
0.337839
0.337839
0.337839
0.305228
0.305228
0.305228
0.244423
0.244423
0.244423
0.24269
0.24269
0.24269
0
0
0
0
0
0
0
0
0
0
0
0
0.372816
0.372816
0.372816
0.384842
0.384842
0.384842
0.424272
0.424272
0.424272
0.419538
0.419538
0.419538
0.415677
0.415677
0.415677
0.426908
0.426908
0.426908
0.42555
0.42555
0.42555
0.427169
0.427169
0.427169
0.431739
0.431739
0.431739
0.361392
0.361392
0.361392
0.378213
0.378213
0.378213
0.382235
0.382235
0.382235
0.380485
0.380485
0.380485
0.373336
0.373336
0.373336
0.376226
0.376226
0.376226
0.39018
0.39018
0.39018
0.386221
0.386221
0.386221
0.446772
0.446772
0.446772
0.449376
0.449376
0.449376
0.447935
0.447935
0.447935
0.472034
0.472034
0.472034
0.468146
0.468146
0.468146
0.450767
0.450767
0.450767
0.454321
0.454321
0.454321
0.109995
0.109995
0.109995
0.467165
0.467165
0.467165
0.470011
0.470011
0.470011
0.46161
0.46161
0.46161
0.466061
0.466061
0.466061
0.46045
0.46045
0.46045
0.274806
0.274806
0.274806
0.0616721
0.0616721
0.0616721
0.0976069
0.0976069
0.0976069
0.0936174
0.0936174
0.0936174
0.0597085
0.0597085
0.0597085
0.034745
0.034745
0.034745
0.134087
0.134087
0.134087
0.215904
0.215904
0.215904
0.17193
0.17193
0.17193
0
0
0
0
0
0
0.0602144
0.0602144
0.0602144
0.0611964
0.0611964
0.0611964
0.0129315
0.0129315
0.0129315
0.0356663
0.0356663
0.0356663
0.0353799
0.0353799
0.0353799
0
0
0
0
0
0
0
0
0
0
0
0
0.311569
0.311569
0.311569
0.339893
0.339893
0.339893
0.304873
0.304873
0.304873
0.320269
0.320269
0.320269
0.317341
0.317341
0.317341
0.344416
0.344416
0.344416
0.327269
0.327269
0.327269
0.319975
0.319975
0.319975
0.248762
0.248762
0.248762
0.214218
0.214218
0.214218
0.257231
0.257231
0.257231
0.211926
0.211926
0.211926
0.251619
0.251619
0.251619
0.295618
0.295618
0.295618
0.292326
0.292326
0.292326
0.332538
0.332538
0.332538
0.308707
0.308707
0.308707
0.282216
0.282216
0.282216
0.316261
0.316261
0.316261
0.285625
0.285625
0.285625
0.239094
0.239094
0.239094
0.287379
0.287379
0.287379
0.237231
0.237231
0.237231
0.175962
0.175962
0.175962
0.218713
0.218713
0.218713
0.138683
0.138683
0.138683
0.139974
0.139974
0.139974
0.107272
0.107272
0.107272
0
0
0
0
0
0
0.00626175
0.00626175
0.00626175
0.00623203
0.00623203
0.00623203
0.00136351
0.00136351
0.00136351
0.00617072
0.00617072
0.00617072
0.00613916
0.00613916
0.00613916
0
0
0
0.0215154
0.0215154
0.0215154
0.012672
0.012672
0.012672
0.0209965
0.0209965
0.0209965
0.197622
0.197622
0.197622
0.190576
0.190576
0.190576
0.149572
0.149572
0.149572
0.0435568
0.0435568
0.0435568
0.194905
0.194905
0.194905
0.193495
0.193495
0.193495
0.150671
0.150671
0.150671
0.0218835
0.0218835
0.0218835
0.447862
0.447862
0.447862
0.540879
0.540879
0.540879
0
0
0
0
0
0
0
0
0
0
0
0
0
0
0
0
0
0
0
0
0
0
0
0
0
0
0
0
0
0
0.00642614
0.00642614
0.00642614
0
0
0
0
0
0
0
0
0
0
0
0
0
0
0
0
0
0
0
0
0
0
0
0
0
0
0
0
0
0
0
0
0
0
0
0
0
0
0
0
0
0
0
0
0
0
0
0
0
0
0
0.439647
0.439647
0.439647
0.409278
0.409278
0.409278
0.49303
0.49303
0.49303
0.512171
0.512171
0.512171
0.339914
0.339914
0.339914
0.302389
0.302389
0.302389
0.338727
0.338727
0.338727
0.40786
0.40786
0.40786
0.337468
0.337468
0.337468
0.301292
0.301292
0.301292
0.227309
0.227309
0.227309
0.510388
0.510388
0.510388
0.406356
0.406356
0.406356
0.438076
0.438076
0.438076
0.491263
0.491263
0.491263
0.508497
0.508497
0.508497
0.499781
0.499781
0.499781
0.506665
0.506665
0.506665
0.505942
0.505942
0.505942
0.354265
0.354265
0.354265
0.41795
0.41795
0.41795
0.390378
0.390378
0.390378
0.444009
0.444009
0.444009
0.446081
0.446081
0.446081
0.443185
0.443185
0.443185
0.447727
0.447727
0.447727
0.252469
0.252469
0.252469
0.255142
0.255142
0.255142
0.28598
0.28598
0.28598
0.4326
0.4326
0.4326
0.428464
0.428464
0.428464
0.412234
0.412234
0.412234
0.412616
0.412616
0.412616
0.407277
0.407277
0.407277
0.405133
0.405133
0.405133
0.409046
0.409046
0.409046
0.441618
0.441618
0.441618
0.44097
0.44097
0.44097
0.436417
0.436417
0.436417
0.430158
0.430158
0.430158
0.43714
0.43714
0.43714
0.433994
0.433994
0.433994
0.43246
0.43246
0.43246
0.429349
0.429349
0.429349
0.370014
0.370014
0.370014
0.365849
0.365849
0.365849
0.365643
0.365643
0.365643
0.353116
0.353116
0.353116
0.376151
0.376151
0.376151
0.374221
0.374221
0.374221
0.386368
0.386368
0.386368
0.386281
0.386281
0.386281
0.390392
0.390392
0.390392
0.39039
0.39039
0.39039
0.453174
0.453174
0.453174
0.455661
0.455661
0.455661
0.459247
0.459247
0.459247
0.473835
0.473835
0.473835
0.487433
0.487433
0.487433
0.448175
0.448175
0.448175
0.0145094
0.0145094
0.0145094
0.0398609
0.0398609
0.0398609
0.0399968
0.0399968
0.0399968
0.469142
0.469142
0.469142
0.472804
0.472804
0.472804
0.480361
0.480361
0.480361
0.478529
0.478529
0.478529
0.391701
0.391701
0.391701
0.426446
0.426446
0.426446
0.413433
0.413433
0.413433
0.419367
0.419367
0.419367
0.435249
0.435249
0.435249
0.425986
0.425986
0.425986
0.416667
0.416667
0.416667
0.460362
0.460362
0.460362
0.462576
0.462576
0.462576
0.456658
0.456658
0.456658
0.473559
0.473559
0.473559
0.476879
0.476879
0.476879
0.471604
0.471604
0.471604
0.472951
0.472951
0.472951
0.477068
0.477068
0.477068
0.475096
0.475096
0.475096
0.388597
0.388597
0.388597
0.397967
0.397967
0.397967
0.40128
0.40128
0.40128
0.270194
0.270194
0.270194
0.0362571
0.0362571
0.0362571
0.0130281
0.0130281
0.0130281
0.0983535
0.0983535
0.0983535
0
0
0
0
0
0
0
0
0
0
0
0
0
0
0
0
0
0
0
0
0
0
0
0
0
0
0
0
0
0
0
0
0
0
0
0
0
0
0
0
0
0
0.138757
0.138757
0.138757
0.18494
0.18494
0.18494
0.230309
0.230309
0.230309
0.228379
0.228379
0.228379
0
0
0
0
0
0
0
0
0
0.0344433
0.0344433
0.0344433
0.0337805
0.0337805
0.0337805
0.0124192
0.0124192
0.0124192
0.0123113
0.0123113
0.0123113
0.0910328
0.0910328
0.0910328
0.0581343
0.0581343
0.0581343
0.0586681
0.0586681
0.0586681
0.0927709
0.0927709
0.0927709
0.131608
0.131608
0.131608
0.130335
0.130335
0.130335
0.224387
0.224387
0.224387
0.267809
0.267809
0.267809
0
0
0
0
0
0
0
0
0
0
0
0
0
0
0
0
0
0
0
0
0
0
0
0
0
0
0
0
0
0
0
0
0
0
0
0
0
0
0
0
0
0
0
0
0
0
0
0
0
0
0
0
0
0
0
0
0
0
0
0
0
0
0
0
0
0
0
0
0
0
0
0
0
0
0
0
0
0
0
0
0
0
0
0
0
0
0
0
0
0
0
0
0
0
0
0
0
0
0
0
0
0
0
0
0
0
0
0
0.1054
0.1054
0.1054
0.136048
0.136048
0.136048
0.104445
0.104445
0.104445
0
0
0
0
0
0
0
0
0
0
0
0
0
0
0
0
0
0
0
0
0
0
0
0
0.327819
0.327819
0.327819
0.321256
0.321256
0.321256
0.320632
0.320632
0.320632
0.32682
0.32682
0.32682
0.340677
0.340677
0.340677
0.336646
0.336646
0.336646
0.356133
0.356133
0.356133
0.347531
0.347531
0.347531
0.404439
0.404439
0.404439
0.377383
0.377383
0.377383
0.386902
0.386902
0.386902
0.366416
0.366416
0.366416
0.331276
0.331276
0.331276
0.377141
0.377141
0.377141
0.351161
0.351161
0.351161
0.275626
0.275626
0.275626
0.320257
0.320257
0.320257
0.341256
0.341256
0.341256
0.366773
0.366773
0.366773
0.34792
0.34792
0.34792
0.311396
0.311396
0.311396
0.314404
0.314404
0.314404
0.273129
0.273129
0.273129
0.227313
0.227313
0.227313
0.1425
0.1425
0.1425
0.108188
0.108188
0.108188
0.265367
0.265367
0.265367
0.220914
0.220914
0.220914
0.267998
0.267998
0.267998
0.225214
0.225214
0.225214
0.179401
0.179401
0.179401
0.181082
0.181082
0.181082
0.231397
0.231397
0.231397
0.233382
0.233382
0.233382
0.189069
0.189069
0.189069
0.147304
0.147304
0.147304
0
0
0
0
0
0
0
0
0
0
0
0
0
0
0
0
0
0
0
0
0
0
0
0
0
0
0
0
0
0
0.0208854
0.0208854
0.0208854
0.0206563
0.0206563
0.0206563
0.0125455
0.0125455
0.0125455
0.0124803
0.0124803
0.0124803
0.0316911
0.0316911
0.0316911
0.0315062
0.0315062
0.0315062
0.00631925
0.00631925
0.00631925
0.0127332
0.0127332
0.0127332
0.00141366
0.00141366
0.00141366
0.0129082
0.0129082
0.0129082
0.0128513
0.0128513
0.0128513
0.00634701
0.00634701
0.00634701
0.00640047
0.00640047
0.00640047
0.0014193
0.0014193
0.0014193
0.0217956
0.0217956
0.0217956
0.0130699
0.0130699
0.0130699
0.0130176
0.0130176
0.0130176
0.0216115
0.0216115
0.0216115
0.0330299
0.0330299
0.0330299
0.0456745
0.0456745
0.0456745
0.0331785
0.0331785
0.0331785
0.0327198
0.0327198
0.0327198
0.112544
0.112544
0.112544
0.0612489
0.0612489
0.0612489
0.113368
0.113368
0.113368
0.0845503
0.0845503
0.0845503
0.153819
0.153819
0.153819
0.152795
0.152795
0.152795
0.0862033
0.0862033
0.0862033
0.115737
0.115737
0.115737
0.0851135
0.0851135
0.0851135
0.114965
0.114965
0.114965
0.0458791
0.0458791
0.0458791
0.0650684
0.0650684
0.0650684
0.0334623
0.0334623
0.0334623
0.0896046
0.0896046
0.0896046
0.121237
0.121237
0.121237
0.0653594
0.0653594
0.0653594
0
0
0
0.0131699
0.0131699
0.0131699
0.0132175
0.0132175
0.0132175
0.00654352
0.00654352
0.00654352
0.00144989
0.00144989
0.00144989
0.534349
0.534349
0.534349
0.549896
0.549896
0.549896
0.532852
0.532852
0.532852
0.435335
0.435335
0.435335
0.410193
0.410193
0.410193
0.371542
0.371542
0.371542
0.414458
0.414458
0.414458
0.439159
0.439159
0.439159
0.413524
0.413524
0.413524
0.374667
0.374667
0.374667
0.411394
0.411394
0.411394
0.373704
0.373704
0.373704
0.321164
0.321164
0.321164
0.322085
0.322085
0.322085
0
0
0
0
0
0
0
0
0
0
0
0
0.00139588
0.00139588
0.00139588
0.00140195
0.00140195
0.00140195
0
0
0
0.00143012
0.00143012
0.00143012
0
0
0
0
0
0
0
0
0
0
0
0
0
0
0
0
0
0
0
0
0
0
0
0
0
0
0
0
0
0
0
0
0
0
0
0
0
0
0
0
0
0
0
0
0
0
0
0
0
0
0
0
0
0
0
0
0
0
0
0
0
0
0
0
0
0
0
0
0
0
0
0
0
0
0
0
0
0
0
0
0
0
0
0
0
0
0
0
0
0
0
0
0
0
0
0
0
0
0
0
0
0
0
0
0
0
0
0
0
0
0
0
0
0
0
0
0
0
0
0
0
0
0
0
0
0
0
0
0
0
0
0
0
0
0
0
0
0
0
0
0
0
0
0
0.0143689
0.0143689
0.0143689
0.0143164
0.0143164
0.0143164
0
0
0
0
0
0
0
0
0
0
0
0
0
0
0
0
0
0
0
0
0
0
0
0
0
0
0
0
0
0
0
0
0
0
0
0
0.443828
0.443828
0.443828
0.303424
0.303424
0.303424
0.193618
0.193618
0.193618
0.228956
0.228956
0.228956
0
0
0
0
0
0
0.0133077
0.0133077
0.0133077
0.00656471
0.00656471
0.00656471
0.413047
0.413047
0.413047
0
0
0
0
0
0
0
0
0
0.0067521
0.0067521
0.0067521
0
0
0
0
0
0
0
0
0
0
0
0
0
0
0
0
0
0
0
0
0
0.128438
0.128438
0.128438
0.192247
0.192247
0.192247
0.192953
0.192953
0.192953
0.228156
0.228156
0.228156
0
0
0
0
0
0
0
0
0
0
0
0
0
0
0
0
0
0
0
0
0
0
0
0
0
0
0
0.497293
0.497293
0.497293
0.480769
0.480769
0.480769
0.436411
0.436411
0.436411
0.506495
0.506495
0.506495
0.48939
0.48939
0.48939
0.502141
0.502141
0.502141
0.483102
0.483102
0.483102
0.43082
0.43082
0.43082
0.401299
0.401299
0.401299
0.493139
0.493139
0.493139
0.501426
0.501426
0.501426
0.495216
0.495216
0.495216
0.509371
0.509371
0.509371
0.507229
0.507229
0.507229
0.358193
0.358193
0.358193
0.368187
0.368187
0.368187
0.42137
0.42137
0.42137
0.391276
0.391276
0.391276
0.312121
0.312121
0.312121
0.311408
0.311408
0.311408
0.489447
0.489447
0.489447
0.486038
0.486038
0.486038
0.485523
0.485523
0.485523
0.480654
0.480654
0.480654
0.482461
0.482461
0.482461
0.487574
0.487574
0.487574
0.492161
0.492161
0.492161
0.449831
0.449831
0.449831
0.450653
0.450653
0.450653
0.448429
0.448429
0.448429
0.451389
0.451389
0.451389
0.435941
0.435941
0.435941
0.427612
0.427612
0.427612
0.438085
0.438085
0.438085
0.439034
0.439034
0.439034
0.44225
0.44225
0.44225
0.439806
0.439806
0.439806
0.43475
0.43475
0.43475
0.428894
0.428894
0.428894
0.432354
0.432354
0.432354
0.427842
0.427842
0.427842
0.429709
0.429709
0.429709
0.433155
0.433155
0.433155
0.425678
0.425678
0.425678
0.425008
0.425008
0.425008
0.421743
0.421743
0.421743
0.422101
0.422101
0.422101
0.417863
0.417863
0.417863
0.406679
0.406679
0.406679
0.415949
0.415949
0.415949
0.41956
0.41956
0.41956
0.416001
0.416001
0.416001
0.416693
0.416693
0.416693
0.420174
0.420174
0.420174
0.410462
0.410462
0.410462
0.418054
0.418054
0.418054
0.409512
0.409512
0.409512
0.424062
0.424062
0.424062
0.422587
0.422587
0.422587
0.339549
0.339549
0.339549
0.352778
0.352778
0.352778
0.348408
0.348408
0.348408
0.340052
0.340052
0.340052
0.344448
0.344448
0.344448
0.347575
0.347575
0.347575
0.334472
0.334472
0.334472
0.368978
0.368978
0.368978
0.360131
0.360131
0.360131
0.35402
0.35402
0.35402
0.355647
0.355647
0.355647
0.373641
0.373641
0.373641
0.377904
0.377904
0.377904
0.369579
0.369579
0.369579
0.369805
0.369805
0.369805
0.382303
0.382303
0.382303
0.378136
0.378136
0.378136
0.374017
0.374017
0.374017
0.374018
0.374018
0.374018
0.382219
0.382219
0.382219
0.378054
0.378054
0.378054
0.393139
0.393139
0.393139
0.394383
0.394383
0.394383
0.382864
0.382864
0.382864
0.387109
0.387109
0.387109
0.380532
0.380532
0.380532
0.388991
0.388991
0.388991
0.38191
0.38191
0.38191
0.386122
0.386122
0.386122
0.480722
0.480722
0.480722
0.478699
0.478699
0.478699
0.477179
0.477179
0.477179
0.488053
0.488053
0.488053
0.468658
0.468658
0.468658
0.466725
0.466725
0.466725
0.458983
0.458983
0.458983
0.464037
0.464037
0.464037
0.458168
0.458168
0.458168
0.475797
0.475797
0.475797
0
0
0
0
0
0
0
0
0
0
0
0
0
0
0
0
0
0
0
0
0
0
0
0
0.0145885
0.0145885
0.0145885
0.0694817
0.0694817
0.0694817
0.417481
0.417481
0.417481
0.398487
0.398487
0.398487
0.0687071
0.0687071
0.0687071
0.108435
0.108435
0.108435
0.156761
0.156761
0.156761
0.261595
0.261595
0.261595
0.260913
0.260913
0.260913
0.208152
0.208152
0.208152
0.157163
0.157163
0.157163
0.209234
0.209234
0.209234
0.10944
0.10944
0.10944
0.0693094
0.0693094
0.0693094
0.040048
0.040048
0.040048
0.039939
0.039939
0.039939
0.068922
0.068922
0.068922
0.109128
0.109128
0.109128
0.41604
0.41604
0.41604
0.373118
0.373118
0.373118
0.396827
0.396827
0.396827
0.398969
0.398969
0.398969
0.194466
0.194466
0.194466
0.24406
0.24406
0.24406
0.245556
0.245556
0.245556
0.196838
0.196838
0.196838
0.378538
0.378538
0.378538
0.375004
0.375004
0.375004
0.404888
0.404888
0.404888
0.403
0.403
0.403
0.299154
0.299154
0.299154
0.341553
0.341553
0.341553
0.343161
0.343161
0.343161
0.301974
0.301974
0.301974
0.297648
0.297648
0.297648
0.33812
0.33812
0.33812
0.197963
0.197963
0.197963
0.200089
0.200089
0.200089
0.248395
0.248395
0.248395
0.249736
0.249736
0.249736
0.477588
0.477588
0.477588
0.473535
0.473535
0.473535
0.48399
0.48399
0.48399
0.484691
0.484691
0.484691
0.474489
0.474489
0.474489
0.479202
0.479202
0.479202
0.480745
0.480745
0.480745
0.464374
0.464374
0.464374
0.466191
0.466191
0.466191
0.380183
0.380183
0.380183
0.408405
0.408405
0.408405
0.427485
0.427485
0.427485
0.392294
0.392294
0.392294
0.413669
0.413669
0.413669
0.42977
0.42977
0.42977
0.435137
0.435137
0.435137
0.416693
0.416693
0.416693
0.422971
0.422971
0.422971
0.429144
0.429144
0.429144
0.425967
0.425967
0.425967
0.407674
0.407674
0.407674
0.410753
0.410753
0.410753
0.44748
0.44748
0.44748
0.451389
0.451389
0.451389
0.454217
0.454217
0.454217
0.453129
0.453129
0.453129
0.439031
0.439031
0.439031
0.420522
0.420522
0.420522
0.422631
0.422631
0.422631
0.458346
0.458346
0.458346
0.449198
0.449198
0.449198
0.455416
0.455416
0.455416
0.451529
0.451529
0.451529
0.474572
0.474572
0.474572
0.473945
0.473945
0.473945
0.475604
0.475604
0.475604
0.186413
0.186413
0.186413
0.140939
0.140939
0.140939
0.19322
0.19322
0.19322
0.144976
0.144976
0.144976
0.382164
0.382164
0.382164
0.31168
0.31168
0.31168
0.309053
0.309053
0.309053
0.344525
0.344525
0.344525
0.338757
0.338757
0.338757
0.367969
0.367969
0.367969
0.364892
0.364892
0.364892
0.0365267
0.0365267
0.0365267
0.0630348
0.0630348
0.0630348
0.0625915
0.0625915
0.0625915
0.0370475
0.0370475
0.0370475
0.0133054
0.0133054
0.0133054
0.0132151
0.0132151
0.0132151
0
0
0
0
0
0
0
0
0
0
0
0
0
0
0
0
0
0
0
0
0
0
0
0
0
0
0
0
0
0
0
0
0
0
0
0
0
0
0
0
0
0
0
0
0
0
0
0
0.137627
0.137627
0.137627
0.135291
0.135291
0.135291
0.180308
0.180308
0.180308
0.181887
0.181887
0.181887
0.095263
0.095263
0.095263
0.0960613
0.0960613
0.0960613
0
0
0
0
0
0
0
0
0
0
0
0
0
0
0
0
0
0
0
0
0
0
0
0
0
0
0
0
0
0
0
0
0
0
0
0
0
0
0
0
0
0
0.103652
0.103652
0.103652
0.147704
0.147704
0.147704
0.146824
0.146824
0.146824
0.222327
0.222327
0.222327
0.218084
0.218084
0.218084
0.260352
0.260352
0.260352
0.262887
0.262887
0.262887
0.175375
0.175375
0.175375
0.177052
0.177052
0.177052
0
0
0
0
0
0
0
0
0
0
0
0
0
0
0
0
0
0
0
0
0
0
0
0
0
0
0
0
0
0
0
0
0
0
0
0
0
0
0
0
0
0
0
0
0
0
0
0
0
0
0
0
0
0
0
0
0
0
0
0
0
0
0
0
0
0
0
0
0
0
0
0
0
0
0
0
0
0
0
0
0
0
0
0
0
0
0
0
0
0
0
0
0
0
0
0
0.0126297
0.0126297
0.0126297
0.0127323
0.0127323
0.0127323
0
0
0
0
0
0
0
0
0
0
0
0
0
0
0
0
0
0
0.00135664
0.00135664
0.00135664
0
0
0
0
0
0
0.00138333
0.00138333
0.00138333
0.00137685
0.00137685
0.00137685
0
0
0
0
0
0
0
0
0
0.0796426
0.0796426
0.0796426
0.0789836
0.0789836
0.0789836
0.0573962
0.0573962
0.0573962
0.0583006
0.0583006
0.0583006
0
0
0
0
0
0
0
0
0
0
0
0
0
0
0
0
0
0
0
0
0
0
0
0
0
0
0
0
0
0
0
0
0
0
0
0
0
0
0
0
0
0
0
0
0
0
0
0
0
0
0
0
0
0
0
0
0
0
0
0
0
0
0
0
0
0
0
0
0
0
0
0
0
0
0
0
0
0
0
0
0
0
0
0
0
0
0
0
0
0
0
0
0
0
0
0
0
0
0
0.300043
0.300043
0.300043
0.325724
0.325724
0.325724
0.32172
0.32172
0.32172
0.303356
0.303356
0.303356
0.281176
0.281176
0.281176
0.279879
0.279879
0.279879
0.207261
0.207261
0.207261
0.293158
0.293158
0.293158
0.297099
0.297099
0.297099
0.0984714
0.0984714
0.0984714
0.12776
0.12776
0.12776
0.36506
0.36506
0.36506
0.373884
0.373884
0.373884
0.368759
0.368759
0.368759
0.373171
0.373171
0.373171
0.341279
0.341279
0.341279
0.37235
0.37235
0.37235
0.380834
0.380834
0.380834
0.35926
0.35926
0.35926
0.356538
0.356538
0.356538
0.360892
0.360892
0.360892
0.368032
0.368032
0.368032
0.369342
0.369342
0.369342
0.364937
0.364937
0.364937
0.328367
0.328367
0.328367
0.334862
0.334862
0.334862
0.332008
0.332008
0.332008
0.367341
0.367341
0.367341
0.369827
0.369827
0.369827
0.36747
0.36747
0.36747
0.363025
0.363025
0.363025
0.324647
0.324647
0.324647
0.323808
0.323808
0.323808
0.347258
0.347258
0.347258
0.342885
0.342885
0.342885
0.349467
0.349467
0.349467
0.340438
0.340438
0.340438
0.335934
0.335934
0.335934
0.332763
0.332763
0.332763
0.329679
0.329679
0.329679
0.334285
0.334285
0.334285
0.32648
0.32648
0.32648
0.327892
0.327892
0.327892
0.321636
0.321636
0.321636
0.343171
0.343171
0.343171
0.334348
0.334348
0.334348
0.327485
0.327485
0.327485
0.331816
0.331816
0.331816
0.325794
0.325794
0.325794
0.333995
0.333995
0.333995
0.344595
0.344595
0.344595
0.340374
0.340374
0.340374
0.311338
0.311338
0.311338
0.315266
0.315266
0.315266
0.30337
0.30337
0.30337
0.231749
0.231749
0.231749
0.234209
0.234209
0.234209
0.412146
0.412146
0.412146
0.389426
0.389426
0.389426
0.201433
0.201433
0.201433
0.198928
0.198928
0.198928
0.343649
0.343649
0.343649
0.249346
0.249346
0.249346
0.295834
0.295834
0.295834
0.247751
0.247751
0.247751
0.280478
0.280478
0.280478
0.282829
0.282829
0.282829
0.35746
0.35746
0.35746
0.323101
0.323101
0.323101
0.360511
0.360511
0.360511
0.32861
0.32861
0.32861
0.110848
0.110848
0.110848
0.109976
0.109976
0.109976
0.185962
0.185962
0.185962
0.146135
0.146135
0.146135
0.184363
0.184363
0.184363
0.143733
0.143733
0.143733
0
0
0
0
0
0
0
0
0
0
0
0
0
0
0
0
0
0
0.0430238
0.0430238
0.0430238
0.0608501
0.0608501
0.0608501
0.0827905
0.0827905
0.0827905
0.0833885
0.0833885
0.0833885
0.0587431
0.0587431
0.0587431
0.0815621
0.0815621
0.0815621
0.0809322
0.0809322
0.0809322
0.012346
0.012346
0.012346
0.0205383
0.0205383
0.0205383
0.0445572
0.0445572
0.0445572
0.0212116
0.0212116
0.0212116
0.0213154
0.0213154
0.0213154
0.0325583
0.0325583
0.0325583
0.0452462
0.0452462
0.0452462
0.0450226
0.0450226
0.0450226
0.425305
0.425305
0.425305
0.401282
0.401282