<VTKFile type="UnstructuredGrid" version="1.0">
<UnstructuredGrid>
<Piece NumberOfPoints="10830" NumberOfCells="3610">
<Points>
<DataArray type="Float64" NumberOfComponents="3" format="ascii">
3.10314 1.29552 14.6557
3.11025 1.28841 14.63
3.11025 1.28841 14.6815
3.11025 1.28841 15.1851
3.11025 1.28841 15.236
3.10226 1.2964 15.2105
3.11025 1.28841 15.1851
3.10226 1.2964 15.2105
3.09025 1.30841 15.1851
2.21656 2.1821 15.6576
2.22913 2.16953 15.675
2.19928 2.19938 15.675
2.19928 2.19938 15.675
2.19928 2.19938 15.6448
2.21656 2.1821 15.6576
3.11025 1.28841 15.1851
3.09025 1.30841 15.1851
3.10227 1.29639 15.1597
2.20538 2.19328 14.9068
2.19928 2.19938 14.932
2.19928 2.19938 14.8816
3.10229 1.29637 14.9069
3.11025 1.28841 14.9321
3.09026 1.3084 14.9321
3.10214 1.29652 14.8063
3.11025 1.28841 14.7813
3.11025 1.28841 14.8314
3.09026 1.3084 14.9321
3.11025 1.28841 14.9321
3.1023 1.29636 14.9573
3.11025 1.28841 14.9321
3.11025 1.28841 14.9825
3.1023 1.29636 14.9573
3.09026 1.3084 14.9826
3.1023 1.29636 14.9573
3.11025 1.28841 14.9825
3.09025 1.30841 15.1343
3.10227 1.29639 15.1597
3.08043 1.31823 15.1597
3.08043 1.31823 15.1597
3.10227 1.29639 15.1597
3.09025 1.30841 15.1851
3.08043 1.31823 15.1597
3.06939 1.32927 15.1343
3.09025 1.30841 15.1343
3.08043 1.31823 15.1597
3.09025 1.30841 15.1851
3.06938 1.32928 15.1851
3.11025 1.28841 15.033
3.11025 1.28841 15.0836
3.10229 1.29637 15.0583
3.10229 1.29637 15.0583
3.09026 1.3084 15.0836
3.08044 1.31822 15.0583
3.11025 1.28841 15.0836
3.09026 1.3084 15.0836
3.10229 1.29637 15.0583
3.11025 1.28841 15.1343
3.10227 1.29639 15.1597
3.09025 1.30841 15.1343
3.11025 1.28841 15.1851
3.10227 1.29639 15.1597
3.11025 1.28841 15.1343
3.0901 1.30856 14.7813
3.11025 1.28841 14.7813
3.10214 1.29652 14.8063
3.09024 1.30842 15.236
3.10226 1.2964 15.2105
3.11025 1.28841 15.236
2.80657 1.59209 15.4157
2.81699 1.58167 15.39
2.8274 1.57126 15.4157
2.19928 2.19938 14.63
2.21889 2.17977 14.63
2.20626 2.1924 14.6547
2.25868 2.13998 14.8816
2.23814 2.16052 14.8816
2.24806 2.1506 14.8564
2.21801 2.18065 14.8816
2.23814 2.16052 14.8816
2.22704 2.17162 14.9068
2.21801 2.18065 14.8816
2.20538 2.19328 14.9068
2.19928 2.19938 14.8816
2.22704 2.17162 14.9068
2.20538 2.19328 14.9068
2.21801 2.18065 14.8816
2.20547 2.19319 15.1089
2.19928 2.19938 15.1343
2.19928 2.19938 15.0836
2.21807 2.1806 15.1343
2.22712 2.17155 15.1089
2.23821 2.16045 15.1343
2.19928 2.19938 15.1343
2.20547 2.19319 15.1089
2.21807 2.1806 15.1343
2.21807 2.1806 15.1343
2.20547 2.19319 15.1089
2.22712 2.17155 15.1089
2.21805 2.18061 15.0836
2.2382 2.16046 15.0836
2.22712 2.17155 15.1089
2.21805 2.18061 15.0836
2.20547 2.19319 15.1089
2.19928 2.19938 15.0836
2.22712 2.17155 15.1089
2.20547 2.19319 15.1089
2.21805 2.18061 15.0836
2.19928 2.19938 14.932
2.20538 2.19328 14.9068
2.21802 2.18064 14.932
2.21802 2.18064 14.932
2.20538 2.19328 14.9068
2.22704 2.17162 14.9068
2.23821 2.16045 15.1343
2.22712 2.17155 15.1089
2.24816 2.15051 15.1089
2.22712 2.17155 15.1089
2.2382 2.16046 15.0836
2.24816 2.15051 15.1089
2.40353 1.99513 15.0837
2.41386 1.9848 15.109
2.3932 2.00546 15.109
2.3932 2.00546 15.109
2.41386 1.9848 15.109
2.40354 1.99512 15.1344
2.40354 1.99512 15.1344
2.41386 1.9848 15.109
2.4242 1.97446 15.1344
2.79618 1.60248 15.39
2.81699 1.58167 15.39
2.80657 1.59209 15.4157
3.10224 1.29642 14.8566
3.11025 1.28841 14.8314
3.11025 1.28841 14.8817
3.11025 1.28841 14.9321
3.10229 1.29637 14.9069
3.11025 1.28841 14.8817
3.02715 1.37151 15.0331
3.006 1.39266 15.0331
3.01659 1.38207 15.0078
3.09026 1.3084 15.0331
3.10229 1.29637 15.0583
3.08044 1.31822 15.0583
3.11025 1.28841 15.033
3.10229 1.29637 15.0583
3.09026 1.3084 15.0331
3.08044 1.31822 15.0583
3.09026 1.3084 15.0836
3.0694 1.32926 15.0836
3.10228 1.29638 15.1089
3.09026 1.3084 15.0836
3.11025 1.28841 15.0836
3.11025 1.28841 15.0836
3.11025 1.28841 15.1343
3.10228 1.29638 15.1089
3.10228 1.29638 15.1089
3.11025 1.28841 15.1343
3.09025 1.30841 15.1343
3.08027 1.31839 14.8064
3.0901 1.30856 14.7813
3.10214 1.29652 14.8063
3.10224 1.29642 14.8566
3.11025 1.28841 14.8817
3.09024 1.30842 14.8817
3.09024 1.30842 14.8817
3.11025 1.28841 14.8817
3.10229 1.29637 14.9069
3.0165 1.38216 14.8566
3.00588 1.39278 14.8314
3.02702 1.37164 14.8314
3.04817 1.35049 14.8315
3.03759 1.36107 14.8063
3.05884 1.33982 14.8063
3.04817 1.35049 14.8315
3.02702 1.37164 14.8314
3.03759 1.36107 14.8063
3.08043 1.31823 14.9069
3.10229 1.29637 14.9069
3.09026 1.3084 14.9321
3.08043 1.31823 14.9069
3.09024 1.30842 14.8817
3.10229 1.29637 14.9069
3.08042 1.31824 15.2106
3.09025 1.30841 15.1851
3.10226 1.2964 15.2105
3.10226 1.2964 15.2105
3.09024 1.30842 15.236
3.08042 1.31824 15.2106
3.06938 1.32928 15.1851
3.09025 1.30841 15.1851
3.08042 1.31824 15.2106
3.08041 1.31825 15.3641
3.05901 1.33965 15.3641
3.06938 1.32928 15.3384
3.05901 1.33966 15.3127
3.08041 1.31825 15.3127
3.06938 1.32928 15.3384
3.10225 1.29641 15.2615
3.09024 1.30842 15.236
3.11025 1.28841 15.236
3.08041 1.31825 15.2616
3.09024 1.30842 15.236
3.10225 1.29641 15.2615
2.84822 1.55044 15.4673
2.85863 1.54003 15.4932
2.83776 1.5609 15.4932
2.96373 1.43493 15.3384
2.97428 1.42438 15.3128
2.98483 1.41383 15.3384
2.98483 1.41383 15.3384
2.97428 1.42438 15.3128
2.9954 1.40326 15.3128
3.06938 1.32929 15.2871
3.05901 1.33965 15.2616
3.08041 1.31825 15.2616
3.06938 1.32929 15.2871
3.08041 1.31825 15.3127
3.05901 1.33966 15.3127
2.95319 1.44547 15.3128
2.97428 1.42438 15.3128
2.96373 1.43493 15.3384
2.90067 1.49799 15.0837
2.87971 1.51895 15.0837
2.89018 1.50848 15.0584
2.84833 1.55033 15.0584
2.83789 1.56077 15.0837
2.82746 1.5712 15.0584
2.85878 1.53988 15.0837
2.83789 1.56077 15.0837
2.84833 1.55033 15.0584
2.83788 1.56078 14.9827
2.85877 1.53989 14.9827
2.84833 1.55034 15.0079
2.84833 1.55034 15.0079
2.82745 1.57121 15.0079
2.83788 1.56078 14.9827
2.83788 1.56078 14.9827
2.82745 1.57121 15.0079
2.81702 1.58164 14.9826
2.84833 1.55034 15.0079
2.85877 1.53989 14.9827
2.86924 1.52943 15.0079
2.87968 1.51898 14.9322
2.89017 1.50849 14.9574
2.86922 1.52944 14.9574
2.86922 1.52944 14.9574
2.85875 1.53991 14.9322
2.87968 1.51898 14.9322
2.72357 1.6751 15.1091
2.73392 1.66474 15.0837
2.74429 1.65437 15.1091
2.73392 1.66474 15.0837
2.75466 1.644 15.0838
2.74429 1.65437 15.1091
2.83789 1.56077 15.0332
2.82745 1.57121 15.0079
2.84833 1.55034 15.0079
2.83789 1.56077 15.0332
2.84833 1.55033 15.0584
2.82746 1.5712 15.0584
2.82746 1.5712 15.0584
2.80662 1.59204 15.0584
2.81703 1.58163 15.0332
2.81703 1.58163 15.0332
2.83789 1.56077 15.0332
2.82746 1.5712 15.0584
2.82745 1.57121 15.0079
2.83789 1.56077 15.0332
2.81703 1.58163 15.0332
2.81702 1.58164 14.9826
2.7962 1.60246 14.9826
2.8066 1.59206 14.9574
2.79618 1.60248 14.9322
2.81701 1.58166 14.9322
2.8066 1.59206 14.9574
2.42419 1.97447 15.0837
2.41386 1.9848 15.109
2.40353 1.99513 15.0837
2.40353 1.99513 15.0837
2.41385 1.98481 15.0584
2.42419 1.97447 15.0837
2.20539 2.19327 14.7049
2.19928 2.19938 14.7301
2.19928 2.19938 14.6794
2.19928 2.19938 14.63
2.20626 2.1924 14.6547
2.19928 2.19938 14.6794
2.21797 2.1807 14.7807
2.19928 2.19938 14.7807
2.20528 2.19338 14.7554
2.19928 2.19938 14.7807
2.19928 2.19938 14.7301
2.20528 2.19338 14.7554
3.11025 1.28841 14.63
3.10314 1.29552 14.6557
3.0911 1.30756 14.63
2.19928 2.19938 14.8816
2.19928 2.19938 14.8311
2.20536 2.19331 14.8564
2.20536 2.19331 14.8564
2.21801 2.18065 14.8816
2.19928 2.19938 14.8816
2.21799 2.18067 14.8311
2.20536 2.19331 14.8564
2.19928 2.19938 14.8311
2.21799 2.18067 14.8311
2.22698 2.17168 14.8059
2.23811 2.16055 14.8312
2.22702 2.17165 14.8564
2.24806 2.1506 14.8564
2.23814 2.16052 14.8816
2.23814 2.16052 14.8816
2.21801 2.18065 14.8816
2.22702 2.17165 14.8564
2.23811 2.16055 14.8312
2.24806 2.1506 14.8564
2.22702 2.17165 14.8564
2.22702 2.17165 14.8564
2.21799 2.18067 14.8311
2.23811 2.16055 14.8312
2.21801 2.18065 14.8816
2.20536 2.19331 14.8564
2.22702 2.17165 14.8564
2.20536 2.19331 14.8564
2.21799 2.18067 14.8311
2.22702 2.17165 14.8564
2.20532 2.19334 14.8059
2.19928 2.19938 14.8311
2.19928 2.19938 14.7807
2.20532 2.19334 14.8059
2.19928 2.19938 14.7807
2.21797 2.1807 14.7807
2.21797 2.1807 14.7807
2.22698 2.17168 14.8059
2.20532 2.19334 14.8059
2.20532 2.19334 14.8059
2.21799 2.18067 14.8311
2.19928 2.19938 14.8311
2.22698 2.17168 14.8059
2.21799 2.18067 14.8311
2.20532 2.19334 14.8059
2.24814 2.15052 15.0583
2.2382 2.16046 15.0836
2.2271 2.17156 15.0583
2.2382 2.16046 15.0836
2.21805 2.18061 15.0836
2.2271 2.17156 15.0583
2.2271 2.17156 15.0583
2.23819 2.16048 15.033
2.24814 2.15052 15.0583
2.24809 2.15058 14.9068
2.23814 2.16052 14.8816
2.25868 2.13998 14.8816
2.22704 2.17162 14.9068
2.23814 2.16052 14.8816
2.24809 2.15058 14.9068
2.26891 2.12975 14.9068
2.24809 2.15058 14.9068
2.25868 2.13998 14.8816
2.2587 2.13996 14.932
2.24809 2.15058 14.9068
2.26891 2.12975 14.9068
2.2587 2.13996 14.932
2.26891 2.12975 14.9068
2.27936 2.1193 14.932
2.41384 1.98482 15.0078
2.42418 1.97448 15.0331
2.40352 1.99515 15.0331
2.40352 1.99515 15.0331
2.42418 1.97448 15.0331
2.41385 1.98481 15.0584
2.33114 2.06753 15.0583
2.35183 2.04683 15.0583
2.34149 2.05717 15.0836
2.34148 2.05718 15.033
2.35183 2.04683 15.0583
2.33114 2.06753 15.0583
2.35182 2.04684 15.0078
2.34147 2.05719 14.9825
2.36216 2.03651 14.9825
2.34148 2.05718 15.033
2.33112 2.06754 15.0078
2.35182 2.04684 15.0078
2.35182 2.04684 15.0078
2.33112 2.06754 15.0078
2.34147 2.05719 14.9825
2.35184 2.04682 15.109
2.37253 2.02613 15.109
2.3622 2.03646 15.1343
2.31047 2.08819 15.1597
2.32082 2.07785 15.1343
2.33117 2.06749 15.1597
2.3208 2.07786 15.0836
2.33114 2.06753 15.0583
2.34149 2.05717 15.0836
2.31043 2.08823 15.0583
2.33114 2.06753 15.0583
2.3208 2.07786 15.0836
2.23821 2.16045 15.1343
2.24816 2.15051 15.1089
2.25876 2.1399 15.1343
2.24814 2.15052 15.0583
2.23819 2.16048 15.033
2.25873 2.13993 15.033
2.25873 2.13993 15.033
2.26896 2.1297 15.0583
2.24814 2.15052 15.0583
2.30008 2.09858 15.033
2.31043 2.08823 15.0583
2.28971 2.10895 15.0583
2.25874 2.13992 15.0836
2.24816 2.15051 15.1089
[...]
<PointData Scalars="View Factor" >
<DataArray type="Float64" Name="View Factor" NumberOfComponents="1" format="ascii">
0.000260435
0.000260435
0.000260435
0.000216698
0.000216698
0.000216698
0.000216601
0.000216601
0.000216601
2.16517e-05
2.16517e-05
2.16517e-05
1.33175e-05
1.33175e-05
1.33175e-05
0.000217807
0.000217807
0.000217807
1.19534e-05
1.19534e-05
1.19534e-05
0.000236634
0.000236634
0.000236634
0.000247498
0.000247498
0.000247498
0.00023531
0.00023531
0.00023531
0.000235401
0.000235401
0.000235401
0.000232719
0.000232719
0.000232719
0.000217655
0.000217655
0.000217655
0.000216466
0.000216466
0.000216466
0.000216099
0.000216099
0.000216099
0.000213741
0.000213741
0.000213741
0.000227709
0.000227709
0.000227709
0.000223741
0.000223741
0.000223741
0.000225121
0.000225121
0.000225121
0.000220202
0.000220202
0.000220202
0.000220301
0.000220301
0.000220301
0.0002474
0.0002474
0.0002474
0.00021424
0.00021424
0.00021424
1.78532e-05
1.78532e-05
1.78532e-05
1.82553e-05
1.82553e-05
1.82553e-05
7.24267e-05
7.24267e-05
7.24267e-05
7.73882e-05
7.73882e-05
7.73882e-05
1.54562e-05
1.54562e-05
1.54562e-05
3.11307e-05
3.11307e-05
3.11307e-05
5.70156e-05
5.70156e-05
5.70156e-05
9.02172e-05
9.02172e-05
9.02172e-05
5.69903e-05
5.69903e-05
5.69903e-05
7.33767e-05
7.33767e-05
7.33767e-05
9.28454e-05
9.28454e-05
9.28454e-05
6.38522e-05
6.38522e-05
6.38522e-05
7.70552e-05
7.70552e-05
7.70552e-05
1.86101e-05
1.86101e-05
1.86101e-05
3.25698e-05
3.25698e-05
3.25698e-05
8.95269e-05
8.95269e-05
8.95269e-05
9.09363e-05
9.09363e-05
9.09363e-05
4.96719e-05
4.96719e-05
4.96719e-05
4.68282e-05
4.68282e-05
4.68282e-05
4.51247e-05
4.51247e-05
4.51247e-05
1.82119e-05
1.82119e-05
1.82119e-05
0.000243395
0.000243395
0.000243395
0.00023936
0.00023936
0.00023936
0.000210573
0.000210573
0.000210573
0.000224974
0.000224974
0.000224974
0.000227614
0.000227614
0.000227614
0.000220921
0.000220921
0.000220921
0.000223875
0.000223875
0.000223875
0.000223971
0.000223971
0.000223971
0.000221426
0.000221426
0.000221426
0.000244514
0.000244514
0.000244514
0.000240609
0.000240609
0.000240609
0.000239266
0.000239266
0.000239266
0.00022355
0.00022355
0.00022355
0.000233624
0.000233624
0.000233624
0.000230194
0.000230194
0.000230194
0.000235181
0.000235181
0.000235181
0.000236493
0.000236493
0.000236493
0.000214094
0.000214094
0.000214094
0.000212921
0.000212921
0.000212921
0.000212564
0.000212564
0.000212564
0.000199856
0.000199856
0.000199856
0.000202061
0.000202061
0.000202061
0.000213056
0.000213056
0.000213056
0.000210593
0.000210593
0.000210593
0.000107034
0.000107034
0.000107034
0.000180817
0.000180817
0.000180817
0.000183777
0.000183777
0.000183777
0.00020541
0.00020541
0.00020541
0.000203176
0.000203176
0.000203176
0.000178329
0.000178329
0.000178329
0.000166711
0.000166711
0.000166711
7.48423e-05
7.48423e-05
7.48423e-05
0.0001106
0.0001106
0.0001106
0.000114165
0.000114165
0.000114165
7.1255e-05
7.1255e-05
7.1255e-05
3.55186e-05
3.55186e-05
3.55186e-05
0.000137143
0.000137143
0.000137143
0.000166503
0.000166503
0.000166503
0.000156134
0.000156134
0.000156134
6.42299e-05
6.42299e-05
6.42299e-05
6.57769e-05
6.57769e-05
6.57769e-05
7.07963e-05
7.07963e-05
7.07963e-05
7.22434e-05
7.22434e-05
7.22434e-05
6.31964e-05
6.31964e-05
6.31964e-05
6.06342e-05
6.06342e-05
6.06342e-05
5.32683e-05
5.32683e-05
5.32683e-05
2.46981e-05
2.46981e-05
2.46981e-05
9.24383e-06
9.24383e-06
9.24383e-06
5.04986e-05
5.04986e-05
5.04986e-05
5.06362e-05
5.06362e-05
5.06362e-05
1.33558e-05
1.33558e-05
1.33558e-05
1.47648e-05
1.47648e-05
1.47648e-05
1.64209e-05
1.64209e-05
1.64209e-05
1.24902e-05
1.24902e-05
1.24902e-05
0.00026046
0.00026046
0.00026046
1.14843e-05
1.14843e-05
1.14843e-05
1.55525e-05
1.55525e-05
1.55525e-05
1.5839e-05
1.5839e-05
1.5839e-05
7.92827e-05
7.92827e-05
7.92827e-05
7.55181e-05
7.55181e-05
7.55181e-05
7.78238e-05
7.78238e-05
7.78238e-05
7.5974e-05
7.5974e-05
7.5974e-05
7.88044e-05
7.88044e-05
7.88044e-05
3.1481e-05
3.1481e-05
3.1481e-05
3.17148e-05
3.17148e-05
3.17148e-05
1.18632e-05
1.18632e-05
1.18632e-05
1.62623e-05
1.62623e-05
1.62623e-05
3.18174e-05
3.18174e-05
3.18174e-05
1.59616e-05
1.59616e-05
1.59616e-05
3.156e-05
3.156e-05
3.156e-05
9.09829e-05
9.09829e-05
9.09829e-05
9.2971e-05
9.2971e-05
9.2971e-05
8.94392e-05
8.94392e-05
8.94392e-05
7.2016e-05
7.2016e-05
7.2016e-05
7.46034e-05
7.46034e-05
7.46034e-05
6.87256e-05
6.87256e-05
6.87256e-05
6.83271e-05
6.83271e-05
6.83271e-05
6.44374e-05
6.44374e-05
6.44374e-05
3.90611e-05
3.90611e-05
3.90611e-05
4.40213e-05
4.40213e-05
4.40213e-05
5.06572e-05
5.06572e-05
5.06572e-05
4.75372e-05
4.75372e-05
4.75372e-05
2.83113e-05
2.83113e-05
2.83113e-05
3.76715e-05
3.76715e-05
3.76715e-05
3.18038e-05
3.18038e-05
3.18038e-05
4.67906e-05
4.67906e-05
4.67906e-05
3.91704e-05
3.91704e-05
3.91704e-05
5.14653e-05
5.14653e-05
5.14653e-05
5.09518e-05
5.09518e-05
5.09518e-05
8.66429e-05
8.66429e-05
8.66429e-05
8.64267e-05
8.64267e-05
8.64267e-05
8.51598e-05
8.51598e-05
8.51598e-05
4.83496e-05
4.83496e-05
4.83496e-05
8.93718e-05
8.93718e-05
8.93718e-05
8.94515e-05
8.94515e-05
8.94515e-05
8.68821e-05
8.68821e-05
8.68821e-05
2.7706e-05
2.7706e-05
2.7706e-05
1.59093e-05
1.59093e-05
1.59093e-05
1.58399e-05
1.58399e-05
1.58399e-05
5.05847e-05
5.05847e-05
5.05847e-05
4.97183e-05
4.97183e-05
4.97183e-05
4.10954e-05
4.10954e-05
4.10954e-05
4.50688e-05
4.50688e-05
4.50688e-05
4.50187e-05
4.50187e-05
4.50187e-05
4.68052e-05
4.68052e-05
4.68052e-05
4.11319e-05
4.11319e-05
4.11319e-05
3.92555e-05
3.92555e-05
3.92555e-05
3.43558e-05
3.43558e-05
3.43558e-05
3.58592e-05
3.58592e-05
3.58592e-05
3.58108e-05
3.58108e-05
3.58108e-05
3.92201e-05
3.92201e-05
3.92201e-05
2.78019e-05
2.78019e-05
2.78019e-05
2.47169e-05
2.47169e-05
2.47169e-05
2.37357e-05
2.37357e-05
2.37357e-05
2.11026e-05
2.11026e-05
2.11026e-05
2.19242e-05
2.19242e-05
2.19242e-05
3.5898e-05
3.5898e-05
3.5898e-05
4.11772e-05
4.11772e-05
4.11772e-05
3.92853e-05
3.92853e-05
3.92853e-05
1.63786e-05
1.63786e-05
1.63786e-05
1.61249e-05
1.61249e-05
1.61249e-05
1.74155e-05
1.74155e-05
1.74155e-05
1.77367e-05
1.77367e-05
1.77367e-05
1.75391e-05
1.75391e-05
1.75391e-05
1.85093e-05
1.85093e-05
1.85093e-05
2.32707e-05
2.32707e-05
2.32707e-05
1.89876e-05
1.89876e-05
1.89876e-05
6.63572e-06
6.63572e-06
6.63572e-06
6.74936e-06
6.74936e-06
6.74936e-06
6.31634e-06
6.31634e-06
6.31634e-06
6.09058e-06
6.09058e-06
6.09058e-06
7.04306e-06
7.04306e-06
7.04306e-06
7.43286e-06
7.43286e-06
7.43286e-06
7.25478e-06
7.25478e-06
7.25478e-06
6.95188e-06
6.95188e-06
6.95188e-06
7.46631e-06
7.46631e-06
7.46631e-06
7.65322e-06
7.65322e-06
7.65322e-06
8.05667e-06
8.05667e-06
8.05667e-06
6.27326e-06
6.27326e-06
6.27326e-06
7.15471e-06
7.15471e-06
7.15471e-06
6.83172e-06
6.83172e-06
6.83172e-06
6.50282e-06
6.50282e-06
6.50282e-06
6.45548e-06
6.45548e-06
6.45548e-06
7.18589e-06
7.18589e-06
7.18589e-06
0.000164396
0.000164396
0.000164396
0.000131523
0.000131523
0.000131523
0.000149957
0.000149957
0.000149957
0.000158388
0.000158388
0.000158388
0.000154138
0.000154138
0.000154138
0.000211946
0.000211946
0.000211946
0.0002123
0.0002123
0.0002123
0.000213462
0.000213462
0.000213462
0.00020918
0.00020918
0.00020918
0.000176256
0.000176256
0.000176256
0.000175186
0.000175186
0.000175186
0.000182208
0.000182208
0.000182208
0.000201951
0.000201951
0.000201951
0.000199844
0.000199844
0.000199844
0.000228883
0.000228883
0.000228883
0.000227483
0.000227483
0.000227483
0.000231518
0.000231518
0.000231518
0.000231425
0.000231425
0.000231425
0.00022874
0.00022874
0.00022874
0.000211499
0.000211499
0.000211499
0.000213121
0.000213121
0.000213121
0.000217297
0.000217297
0.000217297
0.0002197
0.0002197
0.0002197
0.000215836
0.000215836
0.000215836
0.000217023
0.000217023
0.000217023
0.000220064
0.000220064
0.000220064
0.00022128
0.00022128
0.00022128
0.000243301
0.000243301
0.000243301
0.000244662
0.000244662
0.000244662
0.000243152
0.000243152
0.000243152
0.000248772
0.000248772
0.000248772
0.000224797
0.000224797
0.000224797
0.000228078
0.000228078
0.000228078
0.000234806
0.000234806
0.000234806
0.000231564
0.000231564
0.000231564
0.000231931
0.000231931
0.000231931
0.000230286
0.000230286
0.000230286
0.000210244
0.000210244
0.000210244
0.000209088
0.000209088
0.000209088
0.000206535
0.000206535
0.000206535
0.000198764
0.000198764
0.000198764
0.000183264
0.000183264
0.000183264
0.000148952
0.000148952
0.000148952
1.67912e-05
1.67912e-05
1.67912e-05
1.99575e-05
1.99575e-05
1.99575e-05
1.86645e-05
1.86645e-05
1.86645e-05
0.000179804
0.000179804
0.000179804
0.000177825
0.000177825
0.000177825
0.000190298
0.000190298
0.000190298
0.000191353
0.000191353
0.000191353
0.000182685
0.000182685
0.000182685
0.00019664
0.00019664
0.00019664
0.000190198
0.000190198
0.000190198
0.000193909
0.000193909
0.000193909
0.000188555
0.000188555
0.000188555
0.000185964
0.000185964
0.000185964
0.000182231
0.000182231
0.000182231
0.000206806
0.000206806
0.000206806
0.000205684
0.000205684
0.000205684
0.000209444
0.000209444
0.000209444
0.000198436
0.000198436
0.000198436
0.000195845
0.000195845
0.000195845
0.000199531
0.000199531
0.000199531
0.000198011
0.000198011
0.000198011
0.000194146
0.000194146
0.000194146
0.000195213
0.000195213
0.000195213
0.000183637
0.000183637
0.000183637
0.000188481
0.000188481
0.000188481
0.000187395
0.000187395
0.000187395
0.000168762
0.000168762
0.000168762
7.22407e-05
7.22407e-05
7.22407e-05
6.93533e-05
6.93533e-05
6.93533e-05
0.000109887
0.000109887
0.000109887
5.60935e-05
5.60935e-05
5.60935e-05
5.42634e-05
5.42634e-05
5.42634e-05
6.96217e-05
6.96217e-05
6.96217e-05
7.12368e-05
7.12368e-05
7.12368e-05
7.04297e-05
7.04297e-05
7.04297e-05
6.75933e-05
6.75933e-05
6.75933e-05
6.9412e-05
6.9412e-05
6.9412e-05
6.86225e-05
6.86225e-05
6.86225e-05
6.62906e-05
6.62906e-05
6.62906e-05
6.48732e-05
6.48732e-05
6.48732e-05
5.90967e-05
5.90967e-05
5.90967e-05
5.56961e-05
5.56961e-05
5.56961e-05
5.75953e-05
5.75953e-05
5.75953e-05
6.32188e-05
6.32188e-05
6.32188e-05
0.000133724
0.000133724
0.000133724
0.000148516
0.000148516
0.000148516
0.000159446
0.000159446
0.000159446
0.000160453
0.000160453
0.000160453
3.16336e-05
3.16336e-05
3.16336e-05
5.087e-05
5.087e-05
5.087e-05
3.33877e-05
3.33877e-05
3.33877e-05
2.53352e-05
2.53352e-05
2.53352e-05
9.47838e-06
9.47838e-06
9.47838e-06
2.04612e-05
2.04612e-05
2.04612e-05
1.24321e-05
1.24321e-05
1.24321e-05
0.000116452
0.000116452
0.000116452
7.27252e-05
7.27252e-05
7.27252e-05
7.22415e-05
7.22415e-05
7.22415e-05
0.00011485
0.00011485
0.00011485
0.000138866
0.000138866
0.000138866
0.00013973
0.00013973
0.00013973
0.000162478
0.000162478
0.000162478
0.00016986
0.00016986
0.00016986
5.19566e-05
5.19566e-05
5.19566e-05
4.73337e-05
4.73337e-05
4.73337e-05
4.43231e-05
4.43231e-05
4.43231e-05
4.5682e-05
4.5682e-05
4.5682e-05
5.36764e-05
5.36764e-05
5.36764e-05
5.42915e-05
5.42915e-05
5.42915e-05
3.93174e-05
3.93174e-05
3.93174e-05
4.05019e-05
4.05019e-05
4.05019e-05
3.80889e-05
3.80889e-05
3.80889e-05
3.59967e-05
3.59967e-05
3.59967e-05
3.38965e-05
3.38965e-05
3.38965e-05
3.49023e-05
3.49023e-05
3.49023e-05
6.50229e-05
6.50229e-05
6.50229e-05
5.45637e-05
5.45637e-05
5.45637e-05
5.68023e-05
5.68023e-05
5.68023e-05
6.23392e-05
6.23392e-05
6.23392e-05
5.99217e-05
5.99217e-05
5.99217e-05
6.11661e-05
6.11661e-05
6.11661e-05
5.30584e-05
5.30584e-05
5.30584e-05
6.39677e-05
6.39677e-05
6.39677e-05
6.32285e-05
6.32285e-05
6.32285e-05
4.79336e-05
4.79336e-05
4.79336e-05
8.94343e-06
8.94343e-06
8.94343e-06
1.21181e-05
1.21181e-05
1.21181e-05
1.99414e-05
1.99414e-05
1.99414e-05
5.91088e-05
5.91088e-05
5.91088e-05
6.15904e-05
6.15904e-05
6.15904e-05
5.05933e-05
5.05933e-05
5.05933e-05
5.75893e-05
5.75893e-05
5.75893e-05
8.09606e-06
8.09606e-06
8.09606e-06
2.10529e-05
2.10529e-05
2.10529e-05
2.78869e-05
2.78869e-05
2.78869e-05
3.1383e-05
3.1383e-05
3.1383e-05
8.35996e-06
8.35996e-06
8.35996e-06
1.67146e-05
1.67146e-05
1.67146e-05
1.07422e-05
1.07422e-05
1.07422e-05
6.49552e-05
6.49552e-05
6.49552e-05
6.95964e-05
6.95964e-05
6.95964e-05
6.531e-05
6.531e-05
6.531e-05
3.01637e-05
3.01637e-05
3.01637e-05
3.60894e-05
3.60894e-05
3.60894e-05
5.02393e-05
5.02393e-05
5.02393e-05
5.25256e-05
5.25256e-05
5.25256e-05
5.31944e-05
5.31944e-05
5.31944e-05
5.17654e-05
5.17654e-05
5.17654e-05
4.8498e-05
4.8498e-05
4.8498e-05
4.9345e-05
4.9345e-05
4.9345e-05
0.000240783
0.000240783
0.000240783
0.000257472
0.000257472
0.000257472
0.000255767
0.000255767
0.000255767
0.000226391
0.000226391
0.000226391
0.000234897
0.000234897
0.000234897
0.000236168
0.000236168
0.000236168
0.000206701
0.000206701
0.000206701
0.000209107
0.000209107
0.000209107
4.56046e-05
4.56046e-05
4.56046e-05
5.30364e-05
5.30364e-05
5.30364e-05
6.01942e-05
6.01942e-05
6.01942e-05
6.51334e-05
6.51334e-05
6.51334e-05
7.93996e-05
7.93996e-05
7.93996e-05
4.60051e-05
4.60051e-05
4.60051e-05
4.36135e-05
4.36135e-05
4.36135e-05
8.39811e-05
8.39811e-05
8.39811e-05
6.17277e-05
6.17277e-05
6.17277e-05
2.337e-05
2.337e-05
2.337e-05
2.57679e-05
2.57679e-05
2.57679e-05
3.67867e-05
3.67867e-05
3.67867e-05
4.16043e-05
4.16043e-05
4.16043e-05
4.82388e-05
4.82388e-05
4.82388e-05
8.13922e-05
8.13922e-05
8.13922e-05
7.80225e-05
7.80225e-05
7.80225e-05
7.02709e-05
7.02709e-05
7.02709e-05
6.56255e-05
6.56255e-05
6.56255e-05
7.66629e-05
7.66629e-05
7.66629e-05
7.41876e-05
7.41876e-05
7.41876e-05
7.75269e-05
7.75269e-05
7.75269e-05
7.58908e-05
7.58908e-05
7.58908e-05
7.13479e-05
7.13479e-05
7.13479e-05
7.23472e-05
7.23472e-05
7.23472e-05
8.32405e-05
8.32405e-05
8.32405e-05
8.55727e-05
8.55727e-05
8.55727e-05
8.445e-05
8.445e-05
8.445e-05
8.09097e-05
8.09097e-05
8.09097e-05
3.94477e-05
3.94477e-05
3.94477e-05
3.6872e-05
3.6872e-05
3.6872e-05
3.09707e-05
3.09707e-05
3.09707e-05
3.64753e-05
3.64753e-05
3.64753e-05
4.98418e-05
4.98418e-05
4.98418e-05
4.64052e-05
4.64052e-05
4.64052e-05
5.0829e-05
5.0829e-05
5.0829e-05
4.43686e-05
4.43686e-05
4.43686e-05
4.67701e-05
4.67701e-05
4.67701e-05
5.0103e-05
5.0103e-05
5.0103e-05
4.79386e-05
4.79386e-05
4.79386e-05
3.80953e-05
3.80953e-05
3.80953e-05
4.55681e-05
4.55681e-05
4.55681e-05
4.0654e-05
4.0654e-05
4.0654e-05
4.599e-05
4.599e-05
4.599e-05
4.10793e-05
4.10793e-05
4.10793e-05
4.9876e-05
4.9876e-05
4.9876e-05
5.089e-05
5.089e-05
5.089e-05
4.49983e-05
4.49983e-05
4.49983e-05
4.11029e-05
4.11029e-05
4.11029e-05
4.4974e-05
4.4974e-05
4.4974e-05
4.68146e-05
4.68146e-05
4.68146e-05
3.91908e-05
3.91908e-05
3.91908e-05
4.10968e-05
4.10968e-05
4.10968e-05
3.01112e-05
3.01112e-05
3.01112e-05
3.14221e-05
3.14221e-05
3.14221e-05
3.42773e-05
3.42773e-05
3.42773e-05
3.57907e-05
3.57907e-05
3.57907e-05
3.4269e-05
3.4269e-05
3.4269e-05
3.00987e-05
3.00987e-05
3.00987e-05
3.14079e-05
3.14079e-05
3.14079e-05
4.10859e-05
4.10859e-05
4.10859e-05
7.91764e-05
7.91764e-05
7.91764e-05
6.45145e-05
6.45145e-05
6.45145e-05
8.13958e-05
8.13958e-05
8.13958e-05
7.81311e-05
7.81311e-05
7.81311e-05
8.54484e-05
8.54484e-05
8.54484e-05
8.69107e-05
8.69107e-05
8.69107e-05
8.0178e-05
8.0178e-05
8.0178e-05
8.48438e-05
8.48438e-05
8.48438e-05
8.0024e-05
8.0024e-05
8.0024e-05
8.48511e-05
8.48511e-05
8.48511e-05
2.76955e-05
2.76955e-05
2.76955e-05
5.39869e-05
5.39869e-05
5.39869e-05
2.65894e-05
2.65894e-05
2.65894e-05
6.66165e-05
6.66165e-05
6.66165e-05
7.08619e-05
7.08619e-05
7.08619e-05
5.29682e-05
5.29682e-05
5.29682e-05
2.66333e-05
2.66333e-05
2.66333e-05
2.66012e-05
2.66012e-05
2.66012e-05
2.45679e-05
2.45679e-05
2.45679e-05
2.36238e-05
2.36238e-05
2.36238e-05
2.45818e-05
2.45818e-05
2.45818e-05
1.42314e-05
1.42314e-05
1.42314e-05
6.19369e-05
6.19369e-05
6.19369e-05
5.42693e-05
5.42693e-05
5.42693e-05
1.9852e-05
1.9852e-05
1.9852e-05
2.2625e-05
2.2625e-05
2.2625e-05
2.99528e-05
2.99528e-05
2.99528e-05
1.94633e-05
1.94633e-05
1.94633e-05
1.76427e-05
1.76427e-05
1.76427e-05
2.02522e-05
2.02522e-05
2.02522e-05
2.86859e-05
2.86859e-05
2.86859e-05
2.18117e-05
2.18117e-05
2.18117e-05
2.90919e-05
2.90919e-05
2.90919e-05
6.88643e-05
6.88643e-05
6.88643e-05
6.82812e-05
6.82812e-05
6.82812e-05
4.98118e-05
4.98118e-05
4.98118e-05
5.06822e-05
5.06822e-05
5.06822e-05
5.10348e-05
5.10348e-05
5.10348e-05
5.03749e-05
5.03749e-05
5.03749e-05
5.12381e-05
5.12381e-05
5.12381e-05
5.07903e-05
5.07903e-05
5.07903e-05
3.43243e-05
3.43243e-05
3.43243e-05
3.4298e-05
3.4298e-05
3.4298e-05
3.58368e-05
3.58368e-05
3.58368e-05
3.14664e-05
3.14664e-05
3.14664e-05
2.67987e-05
2.67987e-05
2.67987e-05
3.18165e-05
3.18165e-05
3.18165e-05
3.04265e-05
3.04265e-05
3.04265e-05
3.01807e-05
3.01807e-05
3.01807e-05
2.46864e-05
2.46864e-05
2.46864e-05
2.67229e-05
2.67229e-05
2.67229e-05
2.67106e-05
2.67106e-05
2.67106e-05
2.78364e-05
2.78364e-05
2.78364e-05
3.43417e-05
3.43417e-05
3.43417e-05
3.15257e-05
3.15257e-05
3.15257e-05
3.15669e-05
3.15669e-05
3.15669e-05
3.01443e-05
3.01443e-05
3.01443e-05
3.92961e-05
3.92961e-05
3.92961e-05
3.5944e-05
3.5944e-05
3.5944e-05
3.59949e-05
3.59949e-05
3.59949e-05
3.43825e-05
3.43825e-05
3.43825e-05
1.43663e-05
1.43663e-05
1.43663e-05
1.35668e-05
1.35668e-05
1.35668e-05
1.4761e-05
1.4761e-05
1.4761e-05
1.51585e-05
1.51585e-05
1.51585e-05
1.68096e-05
1.68096e-05
1.68096e-05
1.80215e-05
1.80215e-05
1.80215e-05
1.55586e-05
1.55586e-05
1.55586e-05
1.65607e-05
1.65607e-05
1.65607e-05
1.69778e-05
1.69778e-05
1.69778e-05
1.72597e-05
1.72597e-05
1.72597e-05
2.44962e-05
2.44962e-05
2.44962e-05
2.21573e-05
2.21573e-05
2.21573e-05
2.06286e-05
2.06286e-05
2.06286e-05
2.15617e-05
2.15617e-05
2.15617e-05
2.26624e-05
2.26624e-05
2.26624e-05
2.00743e-05
2.00743e-05
2.00743e-05
1.97136e-05
1.97136e-05
1.97136e-05
2.56431e-05
2.56431e-05
2.56431e-05
2.51644e-05
2.51644e-05
2.51644e-05
2.76371e-05
2.76371e-05
2.76371e-05
2.92432e-05
2.92432e-05
2.92432e-05
2.02503e-05
2.02503e-05
2.02503e-05
1.95154e-05
1.95154e-05
1.95154e-05
1.85051e-05
1.85051e-05
1.85051e-05
1.90131e-05
1.90131e-05
1.90131e-05
2.27535e-05
2.27535e-05
2.27535e-05
2.11825e-05
2.11825e-05
2.11825e-05
2.07871e-05
2.07871e-05
2.07871e-05
1.9473e-05
1.9473e-05
1.9473e-05
1.99824e-05
1.99824e-05
1.99824e-05
2.04869e-05
2.04869e-05
2.04869e-05
2.1892e-05
2.1892e-05
2.1892e-05
3.8201e-05
3.8201e-05
3.8201e-05
3.51247e-05
3.51247e-05
3.51247e-05
2.84639e-05
2.84639e-05
2.84639e-05
3.25066e-05
3.25066e-05
3.25066e-05
3.5186e-05
3.5186e-05
3.5186e-05
3.16269e-05
3.16269e-05
3.16269e-05
3.07886e-05
3.07886e-05
3.07886e-05
3.61163e-05
3.61163e-05
3.61163e-05
3.42337e-05
3.42337e-05
3.42337e-05
1.8004e-05
1.8004e-05
1.8004e-05
1.83569e-05
1.83569e-05
1.83569e-05
9.75112e-06
9.75112e-06
9.75112e-06
6.02618e-06
6.02618e-06
6.02618e-06
7.21307e-06
7.21307e-06
7.21307e-06
7.65128e-06
7.65128e-06
7.65128e-06
7.59333e-06
7.59333e-06
7.59333e-06
1.39622e-05
1.39622e-05
1.39622e-05
1.33328e-05
1.33328e-05
1.33328e-05
2.10654e-05
2.10654e-05
2.10654e-05
2.18057e-05
2.18057e-05
2.18057e-05
6.14201e-06
6.14201e-06
6.14201e-06
9.44649e-06
9.44649e-06
9.44649e-06
1.95495e-05
1.95495e-05
1.95495e-05
1.07146e-05
1.07146e-05
1.07146e-05
8.6548e-06
8.6548e-06
8.6548e-06
2.74242e-05
2.74242e-05
2.74242e-05
2.08138e-05
2.08138e-05
2.08138e-05
1.39446e-05
1.39446e-05
1.39446e-05
1.45818e-05
1.45818e-05
1.45818e-05
1.59842e-05
1.59842e-05
1.59842e-05
1.56377e-05
1.56377e-05
1.56377e-05
1.00134e-05
1.00134e-05
1.00134e-05
8.3507e-06
8.3507e-06
8.3507e-06
8.12563e-06
8.12563e-06
8.12563e-06
7.88864e-06
7.88864e-06
7.88864e-06
7.82538e-06
7.82538e-06
7.82538e-06
1.20831e-05
1.20831e-05
1.20831e-05
1.31106e-05
1.31106e-05
1.31106e-05
1.27932e-05
1.27932e-05
1.27932e-05
1.08243e-05
1.08243e-05
1.08243e-05
1.03399e-05
1.03399e-05
1.03399e-05
1.04875e-05
1.04875e-05
1.04875e-05
1.15355e-05
1.15355e-05
1.15355e-05
1.56882e-05
1.56882e-05
1.56882e-05
1.47475e-05
1.47475e-05
1.47475e-05
7.36872e-06
7.36872e-06
7.36872e-06
7.43596e-06
7.43596e-06
7.43596e-06
7.02828e-06
7.02828e-06
7.02828e-06
6.63808e-06
6.63808e-06
6.63808e-06
6.68907e-06
6.68907e-06
6.68907e-06
7.00335e-06
7.00335e-06
7.00335e-06
7.24922e-06
7.24922e-06
7.24922e-06
7.61718e-06
7.61718e-06
7.61718e-06
7.76268e-06
7.76268e-06
7.76268e-06
0.000127474
0.000127474
0.000127474
0.000115913
0.000115913
0.000115913