<VTKFile type="UnstructuredGrid" version="1.0">
<UnstructuredGrid>
<Piece NumberOfPoints="10830" NumberOfCells="3610">
<Points>
<DataArray type="Float64" NumberOfComponents="3" format="ascii">
3.10314 1.29552 7.34075
3.11025 1.28841 7.315
3.11025 1.28841 7.36646
3.11025 1.28841 7.87008
3.11025 1.28841 7.921
3.10226 1.2964 7.89553
3.11025 1.28841 7.87008
3.10226 1.2964 7.89553
3.09025 1.30841 7.8701
2.21656 2.1821 8.34259
2.22913 2.16953 8.36
2.19928 2.19938 8.36
2.19928 2.19938 8.36
2.19928 2.19938 8.32984
2.21656 2.1821 8.34259
3.11025 1.28841 7.87008
3.09025 1.30841 7.8701
3.10227 1.29639 7.84468
2.20538 2.19328 7.59179
2.19928 2.19938 7.61701
2.19928 2.19938 7.56657
3.10229 1.29637 7.5919
3.11025 1.28841 7.61709
3.09026 1.3084 7.61711
3.10214 1.29652 7.49134
3.11025 1.28841 7.46628
3.11025 1.28841 7.51639
3.09026 1.3084 7.61711
3.11025 1.28841 7.61709
3.1023 1.29636 7.64231
3.11025 1.28841 7.61709
3.11025 1.28841 7.66754
3.1023 1.29636 7.64231
3.09026 1.3084 7.66755
3.1023 1.29636 7.64231
3.11025 1.28841 7.66754
3.09025 1.30841 7.81931
3.10227 1.29639 7.84468
3.08043 1.31823 7.8447
3.08043 1.31823 7.8447
3.10227 1.29639 7.84468
3.09025 1.30841 7.8701
3.08043 1.31823 7.8447
3.06939 1.32927 7.81932
3.09025 1.30841 7.81931
3.08043 1.31823 7.8447
3.09025 1.30841 7.8701
3.06938 1.32928 7.87012
3.11025 1.28841 7.71804
3.11025 1.28841 7.76862
3.10229 1.29637 7.74333
3.10229 1.29637 7.74333
3.09026 1.3084 7.76863
3.08044 1.31822 7.74334
3.11025 1.28841 7.76862
3.09026 1.3084 7.76863
3.10229 1.29637 7.74333
3.11025 1.28841 7.81929
3.10227 1.29639 7.84468
3.09025 1.30841 7.81931
3.11025 1.28841 7.87008
3.10227 1.29639 7.84468
3.11025 1.28841 7.81929
3.0901 1.30856 7.46632
3.11025 1.28841 7.46628
3.10214 1.29652 7.49134
3.09024 1.30842 7.92102
3.10226 1.2964 7.89553
3.11025 1.28841 7.921
2.80657 1.59209 8.10075
2.81699 1.58167 8.07498
2.8274 1.57126 8.10072
2.19928 2.19938 7.315
2.21889 2.17977 7.315
2.20626 2.1924 7.3397
2.25868 2.13998 7.56659
2.23814 2.16052 7.56657
2.24806 2.1506 7.54137
2.21801 2.18065 7.56656
2.23814 2.16052 7.56657
2.22704 2.17162 7.59178
2.21801 2.18065 7.56656
2.20538 2.19328 7.59179
2.19928 2.19938 7.56657
2.22704 2.17162 7.59178
2.20538 2.19328 7.59179
2.21801 2.18065 7.56656
2.20547 2.19319 7.79394
2.19928 2.19938 7.8193
2.19928 2.19938 7.76861
2.21807 2.1806 7.8193
2.22712 2.17155 7.79393
2.23821 2.16045 7.81929
2.19928 2.19938 7.8193
2.20547 2.19319 7.79394
2.21807 2.1806 7.8193
2.21807 2.1806 7.8193
2.20547 2.19319 7.79394
2.22712 2.17155 7.79393
2.21805 2.18061 7.7686
2.2382 2.16046 7.7686
2.22712 2.17155 7.79393
2.21805 2.18061 7.7686
2.20547 2.19319 7.79394
2.19928 2.19938 7.76861
2.22712 2.17155 7.79393
2.20547 2.19319 7.79394
2.21805 2.18061 7.7686
2.19928 2.19938 7.61701
2.20538 2.19328 7.59179
2.21802 2.18064 7.617
2.21802 2.18064 7.617
2.20538 2.19328 7.59179
2.22704 2.17162 7.59178
2.23821 2.16045 7.81929
2.22712 2.17155 7.79393
2.24816 2.15051 7.79393
2.22712 2.17155 7.79393
2.2382 2.16046 7.7686
2.24816 2.15051 7.79393
2.40353 1.99513 7.76867
2.41386 1.9848 7.79401
2.3932 2.00546 7.794
2.3932 2.00546 7.794
2.41386 1.9848 7.79401
2.40354 1.99512 7.81937
2.40354 1.99512 7.81937
2.41386 1.9848 7.79401
2.4242 1.97446 7.81939
2.79618 1.60248 8.075
2.81699 1.58167 8.07498
2.80657 1.59209 8.10075
3.10224 1.29642 7.54156
3.11025 1.28841 7.51639
3.11025 1.28841 7.5667
3.11025 1.28841 7.61709
3.10229 1.29637 7.5919
3.11025 1.28841 7.5667
3.02715 1.37151 7.7181
3.006 1.39266 7.71811
3.01659 1.38207 7.69285
3.09026 1.3084 7.71805
3.10229 1.29637 7.74333
3.08044 1.31822 7.74334
3.11025 1.28841 7.71804
3.10229 1.29637 7.74333
3.09026 1.3084 7.71805
3.08044 1.31822 7.74334
3.09026 1.3084 7.76863
3.0694 1.32926 7.76865
3.10228 1.29638 7.79395
3.09026 1.3084 7.76863
3.11025 1.28841 7.76862
3.11025 1.28841 7.76862
3.11025 1.28841 7.81929
3.10228 1.29638 7.79395
3.10228 1.29638 7.79395
3.11025 1.28841 7.81929
3.09025 1.30841 7.81931
3.08027 1.31839 7.49137
3.0901 1.30856 7.46632
3.10214 1.29652 7.49134
3.10224 1.29642 7.54156
3.11025 1.28841 7.5667
3.09024 1.30842 7.56674
3.09024 1.30842 7.56674
3.11025 1.28841 7.5667
3.10229 1.29637 7.5919
3.0165 1.38216 7.54161
3.00588 1.39278 7.51643
3.02702 1.37164 7.51643
3.04817 1.35049 7.51645
3.03759 1.36107 7.49126
3.05884 1.33982 7.49131
3.04817 1.35049 7.51645
3.02702 1.37164 7.51643
3.03759 1.36107 7.49126
3.08043 1.31823 7.59193
3.10229 1.29637 7.5919
3.09026 1.3084 7.61711
3.08043 1.31823 7.59193
3.09024 1.30842 7.56674
3.10229 1.29637 7.5919
3.08042 1.31824 7.89555
3.09025 1.30841 7.8701
3.10226 1.2964 7.89553
3.10226 1.2964 7.89553
3.09024 1.30842 7.92102
3.08042 1.31824 7.89555
3.06938 1.32928 7.87012
3.09025 1.30841 7.8701
3.08042 1.31824 7.89555
3.08041 1.31825 8.04906
3.05901 1.33965 8.04906
3.06938 1.32928 8.02337
3.05901 1.33966 7.99774
3.08041 1.31825 7.99772
3.06938 1.32928 8.02337
3.10225 1.29641 7.94653
3.09024 1.30842 7.92102
3.11025 1.28841 7.921
3.08041 1.31825 7.94656
3.09024 1.30842 7.92102
3.10225 1.29641 7.94653
2.84822 1.55044 8.15232
2.85863 1.54003 8.17816
2.83776 1.5609 8.17819
2.96373 1.43493 8.02343
2.97428 1.42438 7.99779
2.98483 1.41383 8.02341
2.98483 1.41383 8.02341
2.97428 1.42438 7.99779
2.9954 1.40326 7.99778
3.06938 1.32929 7.97213
3.05901 1.33965 7.94658
3.08041 1.31825 7.94656
3.06938 1.32929 7.97213
3.08041 1.31825 7.99772
3.05901 1.33966 7.99774
2.95319 1.44547 7.99781
2.97428 1.42438 7.99779
2.96373 1.43493 8.02343
2.90067 1.49799 7.76874
2.87971 1.51895 7.76874
2.89018 1.50848 7.74344
2.84833 1.55033 7.74344
2.83789 1.56077 7.76875
2.82746 1.5712 7.74344
2.85878 1.53988 7.76875
2.83789 1.56077 7.76875
2.84833 1.55033 7.74344
2.83788 1.56078 7.66765
2.85877 1.53989 7.66765
2.84833 1.55034 7.69289
2.84833 1.55034 7.69289
2.82745 1.57121 7.69289
2.83788 1.56078 7.66765
2.83788 1.56078 7.66765
2.82745 1.57121 7.69289
2.81702 1.58164 7.66764
2.84833 1.55034 7.69289
2.85877 1.53989 7.66765
2.86924 1.52943 7.6929
2.87968 1.51898 7.61723
2.89017 1.50849 7.64244
2.86922 1.52944 7.64243
2.86922 1.52944 7.64243
2.85875 1.53991 7.61723
2.87968 1.51898 7.61723
2.72357 1.6751 7.79409
2.73392 1.66474 7.76875
2.74429 1.65437 7.79409
2.73392 1.66474 7.76875
2.75466 1.644 7.76875
2.74429 1.65437 7.79409
2.83789 1.56077 7.71816
2.82745 1.57121 7.69289
2.84833 1.55034 7.69289
2.83789 1.56077 7.71816
2.84833 1.55033 7.74344
2.82746 1.5712 7.74344
2.82746 1.5712 7.74344
2.80662 1.59204 7.74344
2.81703 1.58163 7.71815
2.81703 1.58163 7.71815
2.83789 1.56077 7.71816
2.82746 1.5712 7.74344
2.82745 1.57121 7.69289
2.83789 1.56077 7.71816
2.81703 1.58163 7.71815
2.81702 1.58164 7.66764
2.7962 1.60246 7.66764
2.8066 1.59206 7.64241
2.79618 1.60248 7.61719
2.81701 1.58166 7.61721
2.8066 1.59206 7.64241
2.42419 1.97447 7.76868
2.41386 1.9848 7.79401
2.40353 1.99513 7.76867
2.40353 1.99513 7.76867
2.41385 1.98481 7.74336
2.42419 1.97447 7.76868
2.20539 2.19327 7.38987
2.19928 2.19938 7.41509
2.19928 2.19938 7.36442
2.19928 2.19938 7.315
2.20626 2.1924 7.3397
2.19928 2.19938 7.36442
2.21797 2.1807 7.4657
2.19928 2.19938 7.46567
2.20528 2.19338 7.44042
2.19928 2.19938 7.46567
2.19928 2.19938 7.41509
2.20528 2.19338 7.44042
3.11025 1.28841 7.315
3.10314 1.29552 7.34075
3.0911 1.30756 7.315
2.19928 2.19938 7.56657
2.19928 2.19938 7.51614
2.20536 2.19331 7.54136
2.20536 2.19331 7.54136
2.21801 2.18065 7.56656
2.19928 2.19938 7.56657
2.21799 2.18067 7.51613
2.20536 2.19331 7.54136
2.19928 2.19938 7.51614
2.21799 2.18067 7.51613
2.22698 2.17168 7.49094
2.23811 2.16055 7.51616
2.22702 2.17165 7.54135
2.24806 2.1506 7.54137
2.23814 2.16052 7.56657
2.23814 2.16052 7.56657
2.21801 2.18065 7.56656
2.22702 2.17165 7.54135
2.23811 2.16055 7.51616
2.24806 2.1506 7.54137
2.22702 2.17165 7.54135
2.22702 2.17165 7.54135
2.21799 2.18067 7.51613
2.23811 2.16055 7.51616
2.21801 2.18065 7.56656
2.20536 2.19331 7.54136
2.22702 2.17165 7.54135
2.20536 2.19331 7.54136
2.21799 2.18067 7.51613
2.22702 2.17165 7.54135
2.20532 2.19334 7.49091
2.19928 2.19938 7.51614
2.19928 2.19938 7.46567
2.20532 2.19334 7.49091
2.19928 2.19938 7.46567
2.21797 2.1807 7.4657
2.21797 2.1807 7.4657
2.22698 2.17168 7.49094
2.20532 2.19334 7.49091
2.20532 2.19334 7.49091
2.21799 2.18067 7.51613
2.19928 2.19938 7.51614
2.22698 2.17168 7.49094
2.21799 2.18067 7.51613
2.20532 2.19334 7.49091
2.24814 2.15052 7.74329
2.2382 2.16046 7.7686
2.2271 2.17156 7.74329
2.2382 2.16046 7.7686
2.21805 2.18061 7.7686
2.2271 2.17156 7.74329
2.2271 2.17156 7.74329
2.23819 2.16048 7.718
2.24814 2.15052 7.74329
2.24809 2.15058 7.59179
2.23814 2.16052 7.56657
2.25868 2.13998 7.56659
2.22704 2.17162 7.59178
2.23814 2.16052 7.56657
2.24809 2.15058 7.59179
2.26891 2.12975 7.5918
2.24809 2.15058 7.59179
2.25868 2.13998 7.56659
2.2587 2.13996 7.61701
2.24809 2.15058 7.59179
2.26891 2.12975 7.5918
2.2587 2.13996 7.61701
2.26891 2.12975 7.5918
2.27936 2.1193 7.61702
2.41384 1.98482 7.6928
2.42418 1.97448 7.71807
2.40352 1.99515 7.71807
2.40352 1.99515 7.71807
2.42418 1.97448 7.71807
2.41385 1.98481 7.74336
2.33114 2.06753 7.74332
2.35183 2.04683 7.74333
2.34149 2.05717 7.76863
2.34148 2.05718 7.71804
2.35183 2.04683 7.74333
2.33114 2.06753 7.74332
2.35182 2.04684 7.69277
2.34147 2.05719 7.66752
2.36216 2.03651 7.66753
2.34148 2.05718 7.71804
2.33112 2.06754 7.69276
2.35182 2.04684 7.69277
2.35182 2.04684 7.69277
2.33112 2.06754 7.69276
2.34147 2.05719 7.66752
2.35184 2.04682 7.79398
2.37253 2.02613 7.79399
2.3622 2.03646 7.81934
2.31047 2.08819 7.8447
2.32082 2.07785 7.81932
2.33117 2.06749 7.84471
2.3208 2.07786 7.76862
2.33114 2.06753 7.74332
2.34149 2.05717 7.76863
2.31043 2.08823 7.74331
2.33114 2.06753 7.74332
2.3208 2.07786 7.76862
2.23821 2.16045 7.81929
2.24816 2.15051 7.79393
2.25876 2.1399 7.81929
2.24814 2.15052 7.74329
2.23819 2.16048 7.718
2.25873 2.13993 7.718
2.25873 2.13993 7.718
2.26896 2.1297 7.74329
2.24814 2.15052 7.74329
2.30008 2.09858 7.71801
2.31043 2.08823 7.74331
2.28971 2.10895 7.7433
2.25874 2.13992 7.7686
2.24816 2.15051 7.79393
2.2382 2.16046 7.7686
2.25874 2.13992 7.7686
[...]
<PointData Scalars="View Factor" >
<DataArray type="Float64" Name="View Factor" NumberOfComponents="1" format="ascii">
2.4796e-05
2.4796e-05
2.4796e-05
2.2344e-05
2.2344e-05
2.2344e-05
2.22827e-05
2.22827e-05
2.22827e-05
3.69501e-06
3.69501e-06
3.69501e-06
2.6592e-06
2.6592e-06
2.6592e-06
2.23548e-05
2.23548e-05
2.23548e-05
1.80836e-06
1.80836e-06
1.80836e-06
2.34329e-05
2.34329e-05
2.34329e-05
2.40932e-05
2.40932e-05
2.40932e-05
2.33572e-05
2.33572e-05
2.33572e-05
2.34213e-05
2.34213e-05
2.34213e-05
2.3212e-05
2.3212e-05
2.3212e-05
2.22618e-05
2.22618e-05
2.22618e-05
2.2193e-05
2.2193e-05
2.2193e-05
2.20789e-05
2.20789e-05
2.20789e-05
2.19421e-05
2.19421e-05
2.19421e-05
2.2984e-05
2.2984e-05
2.2984e-05
2.26145e-05
2.26145e-05
2.26145e-05
2.27787e-05
2.27787e-05
2.27787e-05
2.24928e-05
2.24928e-05
2.24928e-05
2.25553e-05
2.25553e-05
2.25553e-05
2.40266e-05
2.40266e-05
2.40266e-05
2.21444e-05
2.21444e-05
2.21444e-05
5.04944e-06
5.04944e-06
5.04944e-06
3.15612e-06
3.15612e-06
3.15612e-06
7.68662e-06
7.68662e-06
7.68662e-06
8.17436e-06
8.17436e-06
8.17436e-06
2.26003e-06
2.26003e-06
2.26003e-06
3.29292e-06
3.29292e-06
3.29292e-06
1.47193e-06
1.47193e-06
1.47193e-06
7.66891e-06
7.66891e-06
7.66891e-06
1.82977e-06
1.82977e-06
1.82977e-06
3.02559e-06
3.02559e-06
3.02559e-06
7.73265e-06
7.73265e-06
7.73265e-06
1.88613e-06
1.88613e-06
1.88613e-06
3.04334e-06
3.04334e-06
3.04334e-06
2.18389e-06
2.18389e-06
2.18389e-06
3.2703e-06
3.2703e-06
3.2703e-06
7.45441e-06
7.45441e-06
7.45441e-06
7.4855e-06
7.4855e-06
7.4855e-06
6.80293e-07
6.80293e-07
6.80293e-07
6.6e-07
6.6e-07
6.6e-07
6.51717e-07
6.51717e-07
6.51717e-07
4.88286e-06
4.88286e-06
4.88286e-06
2.38675e-05
2.38675e-05
2.38675e-05
2.36433e-05
2.36433e-05
2.36433e-05
2.11692e-05
2.11692e-05
2.11692e-05
2.26846e-05
2.26846e-05
2.26846e-05
2.2921e-05
2.2921e-05
2.2921e-05
2.23588e-05
2.23588e-05
2.23588e-05
2.27062e-05
2.27062e-05
2.27062e-05
2.27686e-05
2.27686e-05
2.27686e-05
2.25649e-05
2.25649e-05
2.25649e-05
2.37785e-05
2.37785e-05
2.37785e-05
2.36534e-05
2.36534e-05
2.36534e-05
2.3578e-05
2.3578e-05
2.3578e-05
2.19e-05
2.19e-05
2.19e-05
2.2787e-05
2.2787e-05
2.2787e-05
2.24851e-05
2.24851e-05
2.24851e-05
2.3263e-05
2.3263e-05
2.3263e-05
2.33362e-05
2.33362e-05
2.33362e-05
2.20532e-05
2.20532e-05
2.20532e-05
2.19841e-05
2.19841e-05
2.19841e-05
2.18725e-05
2.18725e-05
2.18725e-05
2.10304e-05
2.10304e-05
2.10304e-05
2.11635e-05
2.11635e-05
2.11635e-05
2.20729e-05
2.20729e-05
2.20729e-05
2.1846e-05
2.1846e-05
2.1846e-05
1.07274e-05
1.07274e-05
1.07274e-05
1.90307e-05
1.90307e-05
1.90307e-05
1.92944e-05
1.92944e-05
1.92944e-05
2.13634e-05
2.13634e-05
2.13634e-05
2.12309e-05
2.12309e-05
2.12309e-05
1.87677e-05
1.87677e-05
1.87677e-05
1.69397e-05
1.69397e-05
1.69397e-05
8.02364e-06
8.02364e-06
8.02364e-06
1.22112e-05
1.22112e-05
1.22112e-05
1.25605e-05
1.25605e-05
1.25605e-05
8.26218e-06
8.26218e-06
8.26218e-06
1.20343e-06
1.20343e-06
1.20343e-06
1.45642e-05
1.45642e-05
1.45642e-05
1.65996e-05
1.65996e-05
1.65996e-05
1.5572e-05
1.5572e-05
1.5572e-05
8.76136e-07
8.76136e-07
8.76136e-07
8.96631e-07
8.96631e-07
8.96631e-07
8.19904e-06
8.19904e-06
8.19904e-06
8.08175e-06
8.08175e-06
8.08175e-06
1.06942e-06
1.06942e-06
1.06942e-06
1.09725e-06
1.09725e-06
1.09725e-06
1.13682e-06
1.13682e-06
1.13682e-06
1.22864e-06
1.22864e-06
1.22864e-06
1.30214e-06
1.30214e-06
1.30214e-06
6.90013e-07
6.90013e-07
6.90013e-07
7.18815e-07
7.18815e-07
7.18815e-07
2.4064e-06
2.4064e-06
2.4064e-06
2.66882e-06
2.66882e-06
2.66882e-06
2.58285e-06
2.58285e-06
2.58285e-06
2.22163e-06
2.22163e-06
2.22163e-06
2.47361e-05
2.47361e-05
2.47361e-05
1.92639e-06
1.92639e-06
1.92639e-06
2.29696e-06
2.29696e-06
2.29696e-06
2.38588e-06
2.38588e-06
2.38588e-06
8.339e-06
8.339e-06
8.339e-06
7.99364e-06
7.99364e-06
7.99364e-06
8.20921e-06
8.20921e-06
8.20921e-06
8.03559e-06
8.03559e-06
8.03559e-06
8.29712e-06
8.29712e-06
8.29712e-06
3.34663e-06
3.34663e-06
3.34663e-06
3.37291e-06
3.37291e-06
3.37291e-06
2.06071e-06
2.06071e-06
2.06071e-06
2.52647e-06
2.52647e-06
2.52647e-06
3.41253e-06
3.41253e-06
3.41253e-06
2.42905e-06
2.42905e-06
2.42905e-06
3.3666e-06
3.3666e-06
3.3666e-06
7.55118e-06
7.55118e-06
7.55118e-06
7.76801e-06
7.76801e-06
7.76801e-06
7.58591e-06
7.58591e-06
7.58591e-06
7.65418e-06
7.65418e-06
7.65418e-06
7.91072e-06
7.91072e-06
7.91072e-06
7.35938e-06
7.35938e-06
7.35938e-06
7.32463e-06
7.32463e-06
7.32463e-06
6.92368e-06
6.92368e-06
6.92368e-06
7.88723e-07
7.88723e-07
7.88723e-07
7.63678e-07
7.63678e-07
7.63678e-07
7.3044e-07
7.3044e-07
7.3044e-07
7.52459e-07
7.52459e-07
7.52459e-07
8.37897e-07
8.37897e-07
8.37897e-07
8.04273e-07
8.04273e-07
8.04273e-07
8.29933e-07
8.29933e-07
8.29933e-07
6.59776e-07
6.59776e-07
6.59776e-07
6.26193e-07
6.26193e-07
6.26193e-07
7.18553e-07
7.18553e-07
7.18553e-07
7.3066e-07
7.3066e-07
7.3066e-07
7.15869e-06
7.15869e-06
7.15869e-06
7.32182e-06
7.32182e-06
7.32182e-06
7.04167e-06
7.04167e-06
7.04167e-06
7.52637e-07
7.52637e-07
7.52637e-07
7.2197e-06
7.2197e-06
7.2197e-06
7.2552e-06
7.2552e-06
7.2552e-06
7.00888e-06
7.00888e-06
7.00888e-06
6.20825e-07
6.20825e-07
6.20825e-07
3.5074e-06
3.5074e-06
3.5074e-06
3.15752e-06
3.15752e-06
3.15752e-06
6.89904e-07
6.89904e-07
6.89904e-07
6.80062e-07
6.80062e-07
6.80062e-07
6.33139e-07
6.33139e-07
6.33139e-07
6.51582e-07
6.51582e-07
6.51582e-07
6.51462e-07
6.51462e-07
6.51462e-07
6.59809e-07
6.59809e-07
6.59809e-07
6.3339e-07
6.3339e-07
6.3339e-07
6.2652e-07
6.2652e-07
6.2652e-07
5.93089e-07
5.93089e-07
5.93089e-07
6.07998e-07
6.07998e-07
6.07998e-07
6.07607e-07
6.07607e-07
6.07607e-07
6.26345e-07
6.26345e-07
6.26345e-07
5.94127e-07
5.94127e-07
5.94127e-07
6.45725e-07
6.45725e-07
6.45725e-07
7.26735e-07
7.26735e-07
7.26735e-07
1.10531e-06
1.10531e-06
1.10531e-06
9.73919e-07
9.73919e-07
9.73919e-07
6.08192e-07
6.08192e-07
6.08192e-07
6.33106e-07
6.33106e-07
6.33106e-07
6.26059e-07
6.26059e-07
6.26059e-07
4.39598e-06
4.39598e-06
4.39598e-06
4.55352e-06
4.55352e-06
4.55352e-06
4.92517e-06
4.92517e-06
4.92517e-06
4.75543e-06
4.75543e-06
4.75543e-06
4.04279e-06
4.04279e-06
4.04279e-06
3.90028e-06
3.90028e-06
3.90028e-06
2.51856e-06
2.51856e-06
2.51856e-06
4.37696e-06
4.37696e-06
4.37696e-06
2.24057e-06
2.24057e-06
2.24057e-06
2.26511e-06
2.26511e-06
2.26511e-06
2.13884e-06
2.13884e-06
2.13884e-06
2.05892e-06
2.05892e-06
2.05892e-06
2.38665e-06
2.38665e-06
2.38665e-06
2.48573e-06
2.48573e-06
2.48573e-06
2.45864e-06
2.45864e-06
2.45864e-06
2.33333e-06
2.33333e-06
2.33333e-06
2.53063e-06
2.53063e-06
2.53063e-06
2.5597e-06
2.5597e-06
2.5597e-06
2.68629e-06
2.68629e-06
2.68629e-06
2.12093e-06
2.12093e-06
2.12093e-06
2.40171e-06
2.40171e-06
2.40171e-06
2.30702e-06
2.30702e-06
2.30702e-06
2.20226e-06
2.20226e-06
2.20226e-06
2.18283e-06
2.18283e-06
2.18283e-06
2.43148e-06
2.43148e-06
2.43148e-06
1.80957e-05
1.80957e-05
1.80957e-05
1.46067e-05
1.46067e-05
1.46067e-05
1.61499e-05
1.61499e-05
1.61499e-05
1.70294e-05
1.70294e-05
1.70294e-05
1.66069e-05
1.66069e-05
1.66069e-05
2.16598e-05
2.16598e-05
2.16598e-05
2.1771e-05
2.1771e-05
2.1771e-05
2.18376e-05
2.18376e-05
2.18376e-05
2.1406e-05
2.1406e-05
2.1406e-05
1.74608e-05
1.74608e-05
1.74608e-05
1.74008e-05
1.74008e-05
1.74008e-05
1.8048e-05
1.8048e-05
1.8048e-05
2.04441e-05
2.04441e-05
2.04441e-05
2.02119e-05
2.02119e-05
2.02119e-05
2.29943e-05
2.29943e-05
2.29943e-05
2.28286e-05
2.28286e-05
2.28286e-05
2.32015e-05
2.32015e-05
2.32015e-05
2.3138e-05
2.3138e-05
2.3138e-05
2.28994e-05
2.28994e-05
2.28994e-05
2.15403e-05
2.15403e-05
2.15403e-05
2.17288e-05
2.17288e-05
2.17288e-05
2.21492e-05
2.21492e-05
2.21492e-05
2.22877e-05
2.22877e-05
2.22877e-05
2.1977e-05
2.1977e-05
2.1977e-05
2.20452e-05
2.20452e-05
2.20452e-05
2.24016e-05
2.24016e-05
2.24016e-05
2.24719e-05
2.24719e-05
2.24719e-05
2.38017e-05
2.38017e-05
2.38017e-05
2.38772e-05
2.38772e-05
2.38772e-05
2.37034e-05
2.37034e-05
2.37034e-05
2.41007e-05
2.41007e-05
2.41007e-05
2.19692e-05
2.19692e-05
2.19692e-05
2.22612e-05
2.22612e-05
2.22612e-05
2.31446e-05
2.31446e-05
2.31446e-05
2.27751e-05
2.27751e-05
2.27751e-05
2.28916e-05
2.28916e-05
2.28916e-05
2.27049e-05
2.27049e-05
2.27049e-05
2.1736e-05
2.1736e-05
2.1736e-05
2.1667e-05
2.1667e-05
2.1667e-05
2.14297e-05
2.14297e-05
2.14297e-05
2.09644e-05
2.09644e-05
2.09644e-05
1.95477e-05
1.95477e-05
1.95477e-05
1.62771e-05
1.62771e-05
1.62771e-05
5.10162e-06
5.10162e-06
5.10162e-06
4.60113e-06
4.60113e-06
4.60113e-06
5.00466e-06
5.00466e-06
5.00466e-06
1.89736e-05
1.89736e-05
1.89736e-05
1.8853e-05
1.8853e-05
1.8853e-05
2.00806e-05
2.00806e-05
2.00806e-05
2.01459e-05
2.01459e-05
2.01459e-05
1.86063e-05
1.86063e-05
1.86063e-05
1.99294e-05
1.99294e-05
1.99294e-05
1.93434e-05
1.93434e-05
1.93434e-05
1.96807e-05
1.96807e-05
1.96807e-05
1.93763e-05
1.93763e-05
1.93763e-05
1.90965e-05
1.90965e-05
1.90965e-05
1.87388e-05
1.87388e-05
1.87388e-05
2.15314e-05
2.15314e-05
2.15314e-05
2.14655e-05
2.14655e-05
2.14655e-05
2.17783e-05
2.17783e-05
2.17783e-05
2.08593e-05
2.08593e-05
2.08593e-05
2.06144e-05
2.06144e-05
2.06144e-05
2.09258e-05
2.09258e-05
2.09258e-05
2.0745e-05
2.0745e-05
2.0745e-05
2.04163e-05
2.04163e-05
2.04163e-05
2.04809e-05
2.04809e-05
2.04809e-05
1.86637e-05
1.86637e-05
1.86637e-05
1.9106e-05
1.9106e-05
1.9106e-05
1.90452e-05
1.90452e-05
1.90452e-05
1.70539e-05
1.70539e-05
1.70539e-05
1.03362e-06
1.03362e-06
1.03362e-06
1.03417e-06
1.03417e-06
1.03417e-06
1.21345e-05
1.21345e-05
1.21345e-05
8.49181e-07
8.49181e-07
8.49181e-07
8.44505e-07
8.44505e-07
8.44505e-07
9.46674e-07
9.46674e-07
9.46674e-07
9.67969e-07
9.67969e-07
9.67969e-07
1.00884e-06
1.00884e-06
1.00884e-06
1.00906e-06
1.00906e-06
1.00906e-06
9.44162e-07
9.44162e-07
9.44162e-07
9.84024e-07
9.84024e-07
9.84024e-07
9.15391e-07
9.15391e-07
9.15391e-07
9.1509e-07
9.1509e-07
9.1509e-07
8.93037e-07
8.93037e-07
8.93037e-07
8.66074e-07
8.66074e-07
8.66074e-07
8.71194e-07
8.71194e-07
8.71194e-07
8.9259e-07
8.9259e-07
8.9259e-07
1.44776e-05
1.44776e-05
1.44776e-05
1.51627e-05
1.51627e-05
1.51627e-05
1.62071e-05
1.62071e-05
1.62071e-05
1.62608e-05
1.62608e-05
1.62608e-05
7.86556e-07
7.86556e-07
7.86556e-07
8.41718e-07
8.41718e-07
8.41718e-07
7.41222e-07
7.41222e-07
7.41222e-07
1.25893e-06
1.25893e-06
1.25893e-06
1.33535e-06
1.33535e-06
1.33535e-06
1.25859e-06
1.25859e-06
1.25859e-06
1.30045e-06
1.30045e-06
1.30045e-06
1.28026e-05
1.28026e-05
1.28026e-05
8.44969e-06
8.44969e-06
8.44969e-06
8.38446e-06
8.38446e-06
8.38446e-06
1.26522e-05
1.26522e-05
1.26522e-05
1.45055e-05
1.45055e-05
1.45055e-05
1.44599e-05
1.44599e-05
1.44599e-05
1.63734e-05
1.63734e-05
1.63734e-05
1.71092e-05
1.71092e-05
1.71092e-05
7.83812e-07
7.83812e-07
7.83812e-07
8.10446e-07
8.10446e-07
8.10446e-07
6.94186e-07
6.94186e-07
6.94186e-07
6.9617e-07
6.9617e-07
6.9617e-07
8.08751e-07
8.08751e-07
8.08751e-07
7.86341e-07
7.86341e-07
7.86341e-07
6.66993e-07
6.66993e-07
6.66993e-07
6.74731e-07
6.74731e-07
6.74731e-07
6.46711e-07
6.46711e-07
6.46711e-07
6.52718e-07
6.52718e-07
6.52718e-07
6.29853e-07
6.29853e-07
6.29853e-07
6.32914e-07
6.32914e-07
6.32914e-07
9.34479e-07
9.34479e-07
9.34479e-07
9.91852e-07
9.91852e-07
9.91852e-07
9.65631e-07
9.65631e-07
9.65631e-07
9.33705e-07
9.33705e-07
9.33705e-07
8.47667e-07
8.47667e-07
8.47667e-07
8.47139e-07
8.47139e-07
8.47139e-07
9.65679e-07
9.65679e-07
9.65679e-07
8.72957e-07
8.72957e-07
8.72957e-07
9.09633e-07
9.09633e-07
9.09633e-07
1.02772e-06
1.02772e-06
1.02772e-06
1.27003e-06
1.27003e-06
1.27003e-06
1.26865e-06
1.26865e-06
1.26865e-06
1.22789e-06
1.22789e-06
1.22789e-06
1.07077e-06
1.07077e-06
1.07077e-06
1.04338e-06
1.04338e-06
1.04338e-06
1.0822e-06
1.0822e-06
1.0822e-06
1.04442e-06
1.04442e-06
1.04442e-06
9.27982e-07
9.27982e-07
9.27982e-07
8.72455e-07
8.72455e-07
8.72455e-07
8.379e-07
8.379e-07
8.379e-07
8.30128e-07
8.30128e-07
8.30128e-07
9.27972e-07
9.27972e-07
9.27972e-07
8.86542e-07
8.86542e-07
8.86542e-07
9.17073e-07
9.17073e-07
9.17073e-07
7.00624e-06
7.00624e-06
7.00624e-06
7.4417e-06
7.4417e-06
7.4417e-06
7.03718e-06
7.03718e-06
7.03718e-06
8.30865e-07
8.30865e-07
8.30865e-07
8.04988e-07
8.04988e-07
8.04988e-07
7.58809e-07
7.58809e-07
7.58809e-07
7.61671e-07
7.61671e-07
7.61671e-07
7.30889e-07
7.30889e-07
7.30889e-07
7.12064e-07
7.12064e-07
7.12064e-07
6.9101e-07
6.9101e-07
6.9101e-07
6.88516e-07
6.88516e-07
6.88516e-07
2.28998e-05
2.28998e-05
2.28998e-05
2.44866e-05
2.44866e-05
2.44866e-05
2.42963e-05
2.42963e-05
2.42963e-05
2.15024e-05
2.15024e-05
2.15024e-05
2.25213e-05
2.25213e-05
2.25213e-05
2.25853e-05
2.25853e-05
2.25853e-05
2.02701e-05
2.02701e-05
2.02701e-05
2.03937e-05
2.03937e-05
2.03937e-05
1.41088e-06
1.41088e-06
1.41088e-06
1.79905e-06
1.79905e-06
1.79905e-06
1.53804e-06
1.53804e-06
1.53804e-06
1.91485e-06
1.91485e-06
1.91485e-06
3.0803e-06
3.0803e-06
3.0803e-06
1.62079e-06
1.62079e-06
1.62079e-06
2.05191e-06
2.05191e-06
2.05191e-06
7.93757e-06
7.93757e-06
7.93757e-06
3.15873e-06
3.15873e-06
3.15873e-06
2.14448e-06
2.14448e-06
2.14448e-06
1.70834e-06
1.70834e-06
1.70834e-06
2.08764e-06
2.08764e-06
2.08764e-06
3.22221e-06
3.22221e-06
3.22221e-06
3.20054e-06
3.20054e-06
3.20054e-06
7.97746e-06
7.97746e-06
7.97746e-06
7.75906e-06
7.75906e-06
7.75906e-06
7.2489e-06
7.2489e-06
7.2489e-06
6.88593e-06
6.88593e-06
6.88593e-06
8.08926e-06
8.08926e-06
8.08926e-06
7.87333e-06
7.87333e-06
7.87333e-06
8.04916e-06
8.04916e-06
8.04916e-06
7.7957e-06
7.7957e-06
7.7957e-06
7.57061e-06
7.57061e-06
7.57061e-06
7.53132e-06
7.53132e-06
7.53132e-06
7.68819e-06
7.68819e-06
7.68819e-06
7.65247e-06
7.65247e-06
7.65247e-06
7.35346e-06
7.35346e-06
7.35346e-06
7.10987e-06
7.10987e-06
7.10987e-06
7.88621e-07
7.88621e-07
7.88621e-07
8.04555e-07
8.04555e-07
8.04555e-07
8.30394e-07
8.30394e-07
8.30394e-07
8.04702e-07
8.04702e-07
8.04702e-07
7.29401e-07
7.29401e-07
7.29401e-07
7.52504e-07
7.52504e-07
7.52504e-07
7.18726e-07
7.18726e-07
7.18726e-07
7.63681e-07
7.63681e-07
7.63681e-07
7.52396e-07
7.52396e-07
7.52396e-07
7.29554e-07
7.29554e-07
7.29554e-07
7.52585e-07
7.52585e-07
7.52585e-07
8.02805e-07
8.02805e-07
8.02805e-07
7.64962e-07
7.64962e-07
7.64962e-07
7.88403e-07
7.88403e-07
7.88403e-07
7.65017e-07
7.65017e-07
7.65017e-07
7.88424e-07
7.88424e-07
7.88424e-07
6.79642e-07
6.79642e-07
6.79642e-07
6.89711e-07
6.89711e-07
6.89711e-07
6.51396e-07
6.51396e-07
6.51396e-07
6.32632e-07
6.32632e-07
6.32632e-07
6.51384e-07
6.51384e-07
6.51384e-07
6.60005e-07
6.60005e-07
6.60005e-07
6.26263e-07
6.26263e-07
6.26263e-07
6.32859e-07
6.32859e-07
6.32859e-07
5.72782e-07
5.72782e-07
5.72782e-07
5.8028e-07
5.8028e-07
5.8028e-07
5.93627e-07
5.93627e-07
5.93627e-07
6.07429e-07
6.07429e-07
6.07429e-07
5.93783e-07
5.93783e-07
5.93783e-07
5.73388e-07
5.73388e-07
5.73388e-07
5.80534e-07
5.80534e-07
5.80534e-07
6.32417e-07
6.32417e-07
6.32417e-07
6.71379e-06
6.71379e-06
6.71379e-06
5.15977e-06
5.15977e-06
5.15977e-06
6.68332e-06
6.68332e-06
6.68332e-06
6.18311e-06
6.18311e-06
6.18311e-06
6.90627e-06
6.90627e-06
6.90627e-06
6.9371e-06
6.9371e-06
6.9371e-06
6.08424e-06
6.08424e-06
6.08424e-06
6.58843e-06
6.58843e-06
6.58843e-06
6.1512e-06
6.1512e-06
6.1512e-06
6.62262e-06
6.62262e-06
6.62262e-06
6.25439e-07
6.25439e-07
6.25439e-07
4.75284e-06
4.75284e-06
4.75284e-06
6.67834e-07
6.67834e-07
6.67834e-07
5.86506e-06
5.86506e-06
5.86506e-06
6.37962e-06
6.37962e-06
6.37962e-06
4.73137e-06
4.73137e-06
4.73137e-06
6.4003e-07
6.4003e-07
6.4003e-07
6.58231e-07
6.58231e-07
6.58231e-07
7.92512e-07
7.92512e-07
7.92512e-07
8.90414e-07
8.90414e-07
8.90414e-07
7.73101e-07
7.73101e-07
7.73101e-07
2.81164e-06
2.81164e-06
2.81164e-06
7.50248e-06
7.50248e-06
7.50248e-06
6.5728e-06
6.5728e-06
6.5728e-06
4.55467e-06
4.55467e-06
4.55467e-06
4.60448e-06
4.60448e-06
4.60448e-06
6.05727e-06
6.05727e-06
6.05727e-06
3.89151e-06
3.89151e-06
3.89151e-06
4.0383e-06
4.0383e-06
4.0383e-06
4.0562e-06
4.0562e-06
4.0562e-06
5.52689e-06
5.52689e-06
5.52689e-06
4.43562e-06
4.43562e-06
4.43562e-06
5.7163e-06
5.7163e-06
5.7163e-06
8.55698e-06
8.55698e-06
8.55698e-06
8.4747e-06
8.4747e-06
8.4747e-06
6.79866e-07
6.79866e-07
6.79866e-07
6.89854e-07
6.89854e-07
6.89854e-07
7.18741e-07
7.18741e-07
7.18741e-07
7.30282e-07
7.30282e-07
7.30282e-07
7.18595e-07
7.18595e-07
7.18595e-07
6.89818e-07
6.89818e-07
6.89818e-07
5.9327e-07
5.9327e-07
5.9327e-07
5.93443e-07
5.93443e-07
5.93443e-07
6.07797e-07
6.07797e-07
6.07797e-07
5.80111e-07
5.80111e-07
5.80111e-07
5.80586e-07
5.80586e-07
5.80586e-07
5.79545e-07
5.79545e-07
5.79545e-07
5.68034e-07
5.68034e-07
5.68034e-07
5.70061e-07
5.70061e-07
5.70061e-07
6.67874e-07
6.67874e-07
6.67874e-07
5.99911e-07
5.99911e-07
5.99911e-07
6.09605e-07
6.09605e-07
6.09605e-07
5.88863e-07
5.88863e-07
5.88863e-07
5.93346e-07
5.93346e-07
5.93346e-07
5.79928e-07
5.79928e-07
5.79928e-07
5.79786e-07
5.79786e-07
5.79786e-07
5.70506e-07
5.70506e-07
5.70506e-07
6.26218e-07
6.26218e-07
6.26218e-07
6.08476e-07
6.08476e-07
6.08476e-07
6.07162e-07
6.07162e-07
6.07162e-07
5.93177e-07
5.93177e-07
5.93177e-07
4.55058e-06
4.55058e-06
4.55058e-06
4.37909e-06
4.37909e-06
4.37909e-06
4.67594e-06
4.67594e-06
4.67594e-06
4.60459e-06
4.60459e-06
4.60459e-06
4.51664e-06
4.51664e-06
4.51664e-06
4.15402e-06
4.15402e-06
4.15402e-06
4.72953e-06
4.72953e-06
4.72953e-06
4.67682e-06
4.67682e-06
4.67682e-06
4.80099e-06
4.80099e-06
4.80099e-06
4.63781e-06
4.63781e-06
4.63781e-06
1.9018e-06
1.9018e-06
1.9018e-06
2.74731e-06
2.74731e-06
2.74731e-06
3.25069e-06
3.25069e-06
3.25069e-06
2.67373e-06
2.67373e-06
2.67373e-06
2.45201e-06
2.45201e-06
2.45201e-06
3.16349e-06
3.16349e-06
3.16349e-06
3.44664e-06
3.44664e-06
3.44664e-06
1.68575e-06
1.68575e-06
1.68575e-06
1.95329e-06
1.95329e-06
1.95329e-06
1.20871e-06
1.20871e-06
1.20871e-06
1.04598e-06
1.04598e-06
1.04598e-06
3.54039e-06
3.54039e-06
3.54039e-06
4.10536e-06
4.10536e-06
4.10536e-06
4.26561e-06
4.26561e-06
4.26561e-06
4.0065e-06
4.0065e-06
4.0065e-06
2.82101e-06
2.82101e-06
2.82101e-06
3.33781e-06
3.33781e-06
3.33781e-06
3.63416e-06
3.63416e-06
3.63416e-06
4.48914e-06
4.48914e-06
4.48914e-06
4.21159e-06
4.21159e-06
4.21159e-06
4.31919e-06
4.31919e-06
4.31919e-06
3.822e-06
3.822e-06
3.822e-06
7.07579e-07
7.07579e-07
7.07579e-07
6.96108e-07
6.96108e-07
6.96108e-07
1.01851e-06
1.01851e-06
1.01851e-06
7.22078e-07
7.22078e-07
7.22078e-07
7.12226e-07
7.12226e-07
7.12226e-07
7.02953e-07
7.02953e-07
7.02953e-07
7.6593e-07
7.6593e-07
7.6593e-07
7.15241e-07
7.15241e-07
7.15241e-07
6.93468e-07
6.93468e-07
6.93468e-07
2.23364e-06
2.23364e-06
2.23364e-06
1.98867e-06
1.98867e-06
1.98867e-06
3.2026e-06
3.2026e-06
3.2026e-06
2.04135e-06
2.04135e-06
2.04135e-06
2.41201e-06
2.41201e-06
2.41201e-06
2.55817e-06
2.55817e-06
2.55817e-06
2.53028e-06
2.53028e-06
2.53028e-06
4.49939e-06
4.49939e-06
4.49939e-06
4.33101e-06
4.33101e-06
4.33101e-06
1.38946e-06
1.38946e-06
1.38946e-06
1.19734e-06
1.19734e-06
1.19734e-06
2.0608e-06
2.0608e-06
2.0608e-06
3.08943e-06
3.08943e-06
3.08943e-06
1.48415e-06
1.48415e-06
1.48415e-06
3.45551e-06
3.45551e-06
3.45551e-06
2.84088e-06
2.84088e-06
2.84088e-06
6.88561e-07
6.88561e-07
6.88561e-07
2.25302e-06
2.25302e-06
2.25302e-06
3.93769e-06
3.93769e-06
3.93769e-06
3.91378e-06
3.91378e-06
3.91378e-06
3.37305e-06
3.37305e-06
3.37305e-06
3.59962e-06
3.59962e-06
3.59962e-06
3.27371e-06
3.27371e-06
3.27371e-06
2.78056e-06
2.78056e-06
2.78056e-06
2.71721e-06
2.71721e-06
2.71721e-06
2.63774e-06
2.63774e-06
2.63774e-06
2.60892e-06
2.60892e-06
2.60892e-06
3.89489e-06
3.89489e-06
3.89489e-06
3.9887e-06
3.9887e-06
3.9887e-06
4.05179e-06
4.05179e-06
4.05179e-06
3.5323e-06
3.5323e-06
3.5323e-06
3.38046e-06
3.38046e-06
3.38046e-06
3.42236e-06
3.42236e-06
3.42236e-06
3.74926e-06
3.74926e-06
3.74926e-06
4.43003e-06
4.43003e-06
4.43003e-06
4.48698e-06
4.48698e-06
4.48698e-06
2.49388e-06
2.49388e-06
2.49388e-06
2.52041e-06
2.52041e-06
2.52041e-06
2.37372e-06
2.37372e-06
2.37372e-06
2.2449e-06
2.2449e-06
2.2449e-06
2.26564e-06
2.26564e-06
2.26564e-06
2.36925e-06
2.36925e-06
2.36925e-06
2.45662e-06
2.45662e-06
2.45662e-06
2.57389e-06
2.57389e-06
2.57389e-06
2.607e-06
2.607e-06
2.607e-06
1.36957e-05
1.36957e-05
1.36957e-05
1.24353e-05
1.24353e-05
1.24353e-05
1.74868e-05