<VTKFile type="UnstructuredGrid" version="1.0">
<UnstructuredGrid>
<Piece NumberOfPoints="10830" NumberOfCells="3610">
<Points>
<DataArray type="Float64" NumberOfComponents="3" format="ascii">
1.27826 3.11035 7.34075
1.28831 3.11035 7.315
1.28831 3.11035 7.36646
1.28831 3.11035 7.87008
1.28831 3.11035 7.921
1.27701 3.11035 7.89553
1.28831 3.11035 7.87008
1.27701 3.11035 7.89553
1.26002 3.11035 7.8701
0.0244388 3.11035 8.34259
0.0422213 3.11035 8.36
0 3.11035 8.36
0 3.11035 8.36
-7.89601e-14 3.11035 8.32984
0.0244388 3.11035 8.34259
1.28831 3.11035 7.87008
1.26002 3.11035 7.8701
1.27702 3.11035 7.84468
0.00863377 3.11035 7.59179
1.49469e-13 3.11035 7.61701
1.49791e-13 3.11035 7.56657
1.27705 3.11035 7.5919
1.28831 3.11035 7.61709
1.26004 3.11035 7.61711
1.27684 3.11035 7.49134
1.28831 3.11035 7.46628
1.28831 3.11035 7.51639
1.26004 3.11035 7.61711
1.28831 3.11035 7.61709
1.27707 3.11035 7.64231
1.28831 3.11035 7.61709
1.28831 3.11035 7.66754
1.27707 3.11035 7.64231
1.26005 3.11035 7.66755
1.27707 3.11035 7.64231
1.28831 3.11035 7.66754
1.26003 3.11035 7.81931
1.27702 3.11035 7.84468
1.24613 3.11035 7.8447
1.24613 3.11035 7.8447
1.27702 3.11035 7.84468
1.26002 3.11035 7.8701
1.24613 3.11035 7.8447
1.23052 3.11035 7.81932
1.26003 3.11035 7.81931
1.24613 3.11035 7.8447
1.26002 3.11035 7.8701
1.23052 3.11035 7.87012
1.28831 3.11035 7.71804
1.28831 3.11035 7.76862
1.27705 3.11035 7.74333
1.27705 3.11035 7.74333
1.26004 3.11035 7.76863
1.24616 3.11035 7.74334
1.28831 3.11035 7.76862
1.26004 3.11035 7.76863
1.27705 3.11035 7.74333
1.28831 3.11035 7.81929
1.27702 3.11035 7.84468
1.26003 3.11035 7.81931
1.28831 3.11035 7.87008
1.27702 3.11035 7.84468
1.28831 3.11035 7.81929
1.25981 3.11035 7.46632
1.28831 3.11035 7.46628
1.27684 3.11035 7.49134
1.26002 3.11035 7.92102
1.27701 3.11035 7.89553
1.28831 3.11035 7.921
0.85884 3.11035 8.10075
0.873578 3.11035 8.07498
0.888295 3.11035 8.10072
0 3.11035 7.315
0.0277369 3.11035 7.315
0.00987207 3.11035 7.3397
0.0840033 3.11035 7.56659
0.0549577 3.11035 7.56657
0.0689903 3.11035 7.54137
0.0264927 3.11035 7.56656
0.0549577 3.11035 7.56657
0.0392653 3.11035 7.59178
0.0264927 3.11035 7.56656
0.00863377 3.11035 7.59179
1.49791e-13 3.11035 7.56657
0.0392653 3.11035 7.59178
0.00863377 3.11035 7.59179
0.0264927 3.11035 7.56656
0.0087521 3.11035 7.79394
-9.63464e-14 3.11035 7.8193
1.47962e-13 3.11035 7.76861
0.0265703 3.11035 7.8193
0.0393699 3.11035 7.79393
0.0550657 3.11035 7.81929
-9.63464e-14 3.11035 7.8193
0.0087521 3.11035 7.79394
0.0265703 3.11035 7.8193
0.0265703 3.11035 7.8193
0.0087521 3.11035 7.79394
0.0393699 3.11035 7.79393
0.0265544 3.11035 7.7686
0.0550443 3.11035 7.7686
0.0393699 3.11035 7.79393
0.0265544 3.11035 7.7686
0.0087521 3.11035 7.79394
1.47962e-13 3.11035 7.76861
0.0393699 3.11035 7.79393
0.0087521 3.11035 7.79394
0.0265544 3.11035 7.7686
1.49469e-13 3.11035 7.61701
0.00863377 3.11035 7.59179
0.0265126 3.11035 7.617
0.0265126 3.11035 7.617
0.00863377 3.11035 7.59179
0.0392653 3.11035 7.59178
0.0550657 3.11035 7.81929
0.0393699 3.11035 7.79393
0.0691236 3.11035 7.79393
0.0393699 3.11035 7.79393
0.0550443 3.11035 7.7686
0.0691236 3.11035 7.79393
0.288852 3.11035 7.76867
0.303471 3.11035 7.79401
0.274248 3.11035 7.794
0.274248 3.11035 7.794
0.303471 3.11035 7.79401
0.288872 3.11035 7.81937
0.288872 3.11035 7.81937
0.303471 3.11035 7.79401
0.318088 3.11035 7.81939
0.844143 3.11035 8.075
0.873578 3.11035 8.07498
0.85884 3.11035 8.10075
1.27699 3.11035 7.54156
1.28831 3.11035 7.51639
1.28831 3.11035 7.5667
1.28831 3.11035 7.61709
1.27705 3.11035 7.5919
1.28831 3.11035 7.5667
1.17079 3.11035 7.7181
1.14088 3.11035 7.71811
1.15586 3.11035 7.69285
1.26004 3.11035 7.71805
1.27705 3.11035 7.74333
1.24616 3.11035 7.74334
1.28831 3.11035 7.71804
1.27705 3.11035 7.74333
1.26004 3.11035 7.71805
1.24616 3.11035 7.74334
1.26004 3.11035 7.76863
1.23053 3.11035 7.76865
1.27704 3.11035 7.79395
1.26004 3.11035 7.76863
1.28831 3.11035 7.76862
1.28831 3.11035 7.76862
1.28831 3.11035 7.81929
1.27704 3.11035 7.79395
1.27704 3.11035 7.79395
1.28831 3.11035 7.81929
1.26003 3.11035 7.81931
1.24591 3.11035 7.49137
1.25981 3.11035 7.46632
1.27684 3.11035 7.49134
1.27699 3.11035 7.54156
1.28831 3.11035 7.5667
1.26001 3.11035 7.56674
1.26001 3.11035 7.56674
1.28831 3.11035 7.5667
1.27705 3.11035 7.5919
1.15573 3.11035 7.54161
1.1407 3.11035 7.51643
1.1706 3.11035 7.51643
1.20051 3.11035 7.51645
1.18556 3.11035 7.49126
1.21561 3.11035 7.49131
1.20051 3.11035 7.51645
1.1706 3.11035 7.51643
1.18556 3.11035 7.49126
1.24614 3.11035 7.59193
1.27705 3.11035 7.5919
1.26004 3.11035 7.61711
1.24614 3.11035 7.59193
1.26001 3.11035 7.56674
1.27705 3.11035 7.5919
1.24612 3.11035 7.89555
1.26002 3.11035 7.8701
1.27701 3.11035 7.89553
1.27701 3.11035 7.89553
1.26002 3.11035 7.92102
1.24612 3.11035 7.89555
1.23052 3.11035 7.87012
1.26002 3.11035 7.8701
1.24612 3.11035 7.89555
1.24611 3.11035 8.04906
1.21584 3.11035 8.04906
1.23051 3.11035 8.02337
1.21584 3.11035 7.99774
1.24611 3.11035 7.99772
1.23051 3.11035 8.02337
1.27699 3.11035 7.94653
1.26002 3.11035 7.92102
1.28831 3.11035 7.921
1.24611 3.11035 7.94656
1.26002 3.11035 7.92102
1.27699 3.11035 7.94653
0.917741 3.11035 8.15232
0.932465 3.11035 8.17816
0.902954 3.11035 8.17819
1.08109 3.11035 8.02343
1.09602 3.11035 7.99779
1.11094 3.11035 8.02341
1.11094 3.11035 8.02341
1.09602 3.11035 7.99779
1.12589 3.11035 7.99778
1.2305 3.11035 7.97213
1.21584 3.11035 7.94658
1.24611 3.11035 7.94656
1.2305 3.11035 7.97213
1.24611 3.11035 7.99772
1.21584 3.11035 7.99774
1.0662 3.11035 7.99781
1.09602 3.11035 7.99779
1.08109 3.11035 8.02343
0.991917 3.11035 7.76874
0.962274 3.11035 7.76874
0.977089 3.11035 7.74344
0.917902 3.11035 7.74344
0.903138 3.11035 7.76875
0.888384 3.11035 7.74344
0.932681 3.11035 7.76875
0.903138 3.11035 7.76875
0.917902 3.11035 7.74344
0.903119 3.11035 7.66765
0.932664 3.11035 7.66765
0.917893 3.11035 7.69289
0.917893 3.11035 7.69289
0.888374 3.11035 7.69289
0.903119 3.11035 7.66765
0.903119 3.11035 7.66765
0.888374 3.11035 7.69289
0.873625 3.11035 7.66764
0.917893 3.11035 7.69289
0.932664 3.11035 7.66765
0.947463 3.11035 7.6929
0.962233 3.11035 7.61723
0.977066 3.11035 7.64244
0.947444 3.11035 7.64243
0.947444 3.11035 7.64243
0.932637 3.11035 7.61723
0.962233 3.11035 7.61723
0.741456 3.11035 7.79409
0.756104 3.11035 7.76875
0.770765 3.11035 7.79409
0.756104 3.11035 7.76875
0.785431 3.11035 7.76875
0.770765 3.11035 7.79409
0.903133 3.11035 7.71816
0.888374 3.11035 7.69289
0.917893 3.11035 7.69289
0.903133 3.11035 7.71816
0.917902 3.11035 7.74344
0.888384 3.11035 7.74344
0.888384 3.11035 7.74344
0.858913 3.11035 7.74344
0.873639 3.11035 7.71815
0.873639 3.11035 7.71815
0.903133 3.11035 7.71816
0.888384 3.11035 7.74344
0.888374 3.11035 7.69289
0.903133 3.11035 7.71816
0.873639 3.11035 7.71815
0.873625 3.11035 7.66764
0.844177 3.11035 7.66764
0.858884 3.11035 7.64241
0.844153 3.11035 7.61719
0.873599 3.11035 7.61721
0.858884 3.11035 7.64241
0.318069 3.11035 7.76868
0.303471 3.11035 7.79401
0.288852 3.11035 7.76867
0.288852 3.11035 7.76867
0.303454 3.11035 7.74336
0.318069 3.11035 7.76868
0.00864568 3.11035 7.38987
1.4958e-13 3.11035 7.41509
-9.64495e-14 3.11035 7.36442
0 3.11035 7.315
0.00987207 3.11035 7.3397
-9.64495e-14 3.11035 7.36442
0.0264295 3.11035 7.4657
1.50097e-13 3.11035 7.46567
0.00849117 3.11035 7.44042
1.50097e-13 3.11035 7.46567
1.4958e-13 3.11035 7.41509
0.00849117 3.11035 7.44042
1.28831 3.11035 7.315
1.27826 3.11035 7.34075
1.26122 3.11035 7.315
1.49791e-13 3.11035 7.56657
1.50032e-13 3.11035 7.51614
0.00859461 3.11035 7.54136
0.00859461 3.11035 7.54136
0.0264927 3.11035 7.56656
1.49791e-13 3.11035 7.56657
0.0264637 3.11035 7.51613
0.00859461 3.11035 7.54136
1.50032e-13 3.11035 7.51614
0.0264637 3.11035 7.51613
0.0391815 3.11035 7.49094
0.0549232 3.11035 7.51616
0.0392276 3.11035 7.54135
0.0689903 3.11035 7.54137
0.0549577 3.11035 7.56657
0.0549577 3.11035 7.56657
0.0264927 3.11035 7.56656
0.0392276 3.11035 7.54135
0.0549232 3.11035 7.51616
0.0689903 3.11035 7.54137
0.0392276 3.11035 7.54135
0.0392276 3.11035 7.54135
0.0264637 3.11035 7.51613
0.0549232 3.11035 7.51616
0.0264927 3.11035 7.56656
0.00859461 3.11035 7.54136
0.0392276 3.11035 7.54135
0.00859461 3.11035 7.54136
0.0264637 3.11035 7.51613
0.0392276 3.11035 7.54135
0.00854014 3.11035 7.49091
1.50032e-13 3.11035 7.51614
1.50097e-13 3.11035 7.46567
0.00854014 3.11035 7.49091
1.50097e-13 3.11035 7.46567
0.0264295 3.11035 7.4657
0.0264295 3.11035 7.4657
0.0391815 3.11035 7.49094
0.00854014 3.11035 7.49091
0.00854014 3.11035 7.49091
0.0264637 3.11035 7.51613
1.50032e-13 3.11035 7.51614
0.0391815 3.11035 7.49094
0.0264637 3.11035 7.51613
0.00854014 3.11035 7.49091
0.0690987 3.11035 7.74329
0.0550443 3.11035 7.7686
0.0393425 3.11035 7.74329
0.0550443 3.11035 7.7686
0.0265544 3.11035 7.7686
0.0393425 3.11035 7.74329
0.0393425 3.11035 7.74329
0.0550252 3.11035 7.718
0.0690987 3.11035 7.74329
0.0690242 3.11035 7.59179
0.0549577 3.11035 7.56657
0.0840033 3.11035 7.56659
0.0392653 3.11035 7.59178
0.0549577 3.11035 7.56657
0.0690242 3.11035 7.59179
0.0984777 3.11035 7.5918
0.0690242 3.11035 7.59179
0.0840033 3.11035 7.56659
0.0840313 3.11035 7.61701
0.0690242 3.11035 7.59179
0.0984777 3.11035 7.5918
0.0840313 3.11035 7.61701
0.0984777 3.11035 7.5918
0.113251 3.11035 7.61702
0.303441 3.11035 7.6928
0.318055 3.11035 7.71807
0.288836 3.11035 7.71807
0.288836 3.11035 7.71807
0.318055 3.11035 7.71807
0.303454 3.11035 7.74336
0.186476 3.11035 7.74332
0.215741 3.11035 7.74333
0.201123 3.11035 7.76863
0.201103 3.11035 7.71804
0.215741 3.11035 7.74333
0.186476 3.11035 7.74332
0.215723 3.11035 7.69277
0.201085 3.11035 7.66752
0.230345 3.11035 7.66753
0.201103 3.11035 7.71804
0.186456 3.11035 7.69276
0.215723 3.11035 7.69277
0.215723 3.11035 7.69277
0.186456 3.11035 7.69276
0.201085 3.11035 7.66752
0.215762 3.11035 7.79398
0.245012 3.11035 7.79399
0.230402 3.11035 7.81934
0.157245 3.11035 7.8447
0.171881 3.11035 7.81932
0.186525 3.11035 7.84471
0.171857 3.11035 7.76862
[...]
<PointData Scalars="View Factor" >
<DataArray type="Float64" Name="View Factor" NumberOfComponents="1" format="ascii">
0.000164688
0.000164688
0.000164688
0.000138937
0.000138937
0.000138937
0.000139685
0.000139685
0.000139685
0.000114539
0.000114539
0.000114539
0.000113609
0.000113609
0.000113609
0.000140399
0.000140399
0.000140399
0.000102142
0.000102142
0.000102142
0.000151612
0.000151612
0.000151612
0.00015715
0.00015715
0.00015715
0.000150833
0.000150833
0.000150833
0.000150018
0.000150018
0.000150018
0.000149289
0.000149289
0.000149289
0.000141533
0.000141533
0.000141533
0.000140813
0.000140813
0.000140813
0.000141956
0.000141956
0.000141956
0.000140514
0.000140514
0.000140514
0.00014547
0.00014547
0.00014547
0.000145196
0.000145196
0.000145196
0.000144767
0.000144767
0.000144767
0.000141838
0.000141838
0.000141838
0.000141078
0.000141078
0.000141078
0.00015801
0.00015801
0.00015801
0.000138268
0.000138268
0.000138268
4.1414e-06
4.1414e-06
4.1414e-06
0.000134363
0.000134363
0.000134363
7.12236e-05
7.12236e-05
7.12236e-05
8.50094e-05
8.50094e-05
8.50094e-05
9.79747e-05
9.79747e-05
9.79747e-05
9.18451e-05
9.18451e-05
9.18451e-05
9.59748e-05
9.59748e-05
9.59748e-05
7.90599e-05
7.90599e-05
7.90599e-05
9.11102e-05
9.11102e-05
9.11102e-05
8.58572e-05
8.58572e-05
8.58572e-05
7.98797e-05
7.98797e-05
7.98797e-05
9.2056e-05
9.2056e-05
9.2056e-05
8.63015e-05
8.63015e-05
8.63015e-05
9.69576e-05
9.69576e-05
9.69576e-05
9.13673e-05
9.13673e-05
9.13673e-05
7.2669e-05
7.2669e-05
7.2669e-05
7.30445e-05
7.30445e-05
7.30445e-05
0
0
0
0
0
0
0
0
0
0
0
0
0.000154732
0.000154732
0.000154732
0.000152354
0.000152354
0.000152354
0.000129841
0.000129841
0.000129841
0.000145941
0.000145941
0.000145941
0.000146257
0.000146257
0.000146257
0.000144888
0.000144888
0.000144888
0.000144029
0.000144029
0.000144029
0.000143255
0.000143255
0.000143255
0.000142564
0.000142564
0.000142564
0.000157667
0.000157667
0.000157667
0.000153977
0.000153977
0.000153977
0.000153184
0.000153184
0.000153184
0.00013746
0.00013746
0.00013746
0.00015713
0.00015713
0.00015713
0.000151331
0.000151331
0.000151331
0.000152065
0.000152065
0.000152065
0.000152852
0.000152852
0.000152852
0.000139384
0.000139384
0.000139384
0.000138675
0.000138675
0.000138675
0.000139799
0.000139799
0.000139799
0.000133247
0.000133247
0.000133247
0.000134611
0.000134611
0.000134611
0.000137566
0.000137566
0.000137566
0.000137269
0.000137269
0.000137269
2.08659e-05
2.08659e-05
2.08659e-05
9.50582e-05
9.50582e-05
9.50582e-05
0.00010122
0.00010122
0.00010122
0.000136684
0.000136684
0.000136684
0.000135298
0.000135298
0.000135298
8.9343e-05
8.9343e-05
8.9343e-05
5.03179e-05
5.03179e-05
5.03179e-05
1.69907e-05
1.69907e-05
1.69907e-05
2.3616e-05
2.3616e-05
2.3616e-05
2.42373e-05
2.42373e-05
2.42373e-05
1.7347e-05
1.7347e-05
1.7347e-05
1.13451e-05
1.13451e-05
1.13451e-05
3.10111e-05
3.10111e-05
3.10111e-05
4.53897e-05
4.53897e-05
4.53897e-05
3.85474e-05
3.85474e-05
3.85474e-05
0
0
0
0
0
0
1.72572e-05
1.72572e-05
1.72572e-05
1.7079e-05
1.7079e-05
1.7079e-05
4.61416e-06
4.61416e-06
4.61416e-06
1.12038e-05
1.12038e-05
1.12038e-05
1.1262e-05
1.1262e-05
1.1262e-05
0
0
0
0
0
0
0
0
0
0
0
0
0.00011601
0.00011601
0.00011601
0.000131701
0.000131701
0.000131701
0.000101642
0.000101642
0.000101642
0.000107086
0.000107086
0.000107086
0.000165622
0.000165622
0.000165622
0.000103756
0.000103756
0.000103756
9.84882e-05
9.84882e-05
9.84882e-05
9.95252e-05
9.95252e-05
9.95252e-05
8.68066e-05
8.68066e-05
8.68066e-05
7.85439e-05
7.85439e-05
7.85439e-05
8.54544e-05
8.54544e-05
8.54544e-05
7.89554e-05
7.89554e-05
7.89554e-05
8.63529e-05
8.63529e-05
8.63529e-05
9.28099e-05
9.28099e-05
9.28099e-05
9.3297e-05
9.3297e-05
9.3297e-05
0.000105404
0.000105404
0.000105404
0.000101107
0.000101107
0.000101107
9.47777e-05
9.47777e-05
9.47777e-05
0.000100049
0.000100049
0.000100049
9.42809e-05
9.42809e-05
9.42809e-05
7.3802e-05
7.3802e-05
7.3802e-05
8.02932e-05
8.02932e-05
8.02932e-05
7.41841e-05
7.41841e-05
7.41841e-05
7.08535e-05
7.08535e-05
7.08535e-05
7.77289e-05
7.77289e-05
7.77289e-05
6.36166e-05
6.36166e-05
6.36166e-05
6.3287e-05
6.3287e-05
6.3287e-05
5.61358e-05
5.61358e-05
5.61358e-05
0
0
0
0
0
0
8.62456e-06
8.62456e-06
8.62456e-06
8.66847e-06
8.66847e-06
8.66847e-06
2.23221e-06
2.23221e-06
2.23221e-06
8.75706e-06
8.75706e-06
8.75706e-06
8.80175e-06
8.80175e-06
8.80175e-06
0
0
0
2.11329e-05
2.11329e-05
2.11329e-05
1.50915e-05
1.50915e-05
1.50915e-05
2.16779e-05
2.16779e-05
2.16779e-05
6.59039e-05
6.59039e-05
6.59039e-05
6.76242e-05
6.76242e-05
6.76242e-05
6.07219e-05
6.07219e-05
6.07219e-05
3.39447e-05
3.39447e-05
3.39447e-05
6.6586e-05
6.6586e-05
6.6586e-05
6.693e-05
6.693e-05
6.693e-05
6.04098e-05
6.04098e-05
6.04098e-05
2.07077e-05
2.07077e-05
2.07077e-05
8.47915e-05
8.47915e-05
8.47915e-05
0.00010964
0.00010964
0.00010964
0
0
0
0
0
0
0
0
0
0
0
0
0
0
0
0
0
0
0
0
0
0
0
0
0
0
0
0
0
0
8.36621e-06
8.36621e-06
8.36621e-06
0
0
0
0
0
0
0
0
0
0
0
0
0
0
0
0
0
0
0
0
0
0
0
0
0
0
0
0
0
0
0
0
0
0
0
0
0
0
0
0
0
0
0
0
0
0
0
0
0
0
0
8.4682e-05
8.4682e-05
8.4682e-05
7.93175e-05
7.93175e-05
7.93175e-05
9.47941e-05
9.47941e-05
9.47941e-05
9.96598e-05
9.96598e-05
9.96598e-05
6.79295e-05
6.79295e-05
6.79295e-05
6.18895e-05
6.18895e-05
6.18895e-05
6.79005e-05
6.79005e-05
6.79005e-05
7.92841e-05
7.92841e-05
7.92841e-05
6.78702e-05
6.78702e-05
6.78702e-05
6.18623e-05
6.18623e-05
6.18623e-05
4.90948e-05
4.90948e-05
4.90948e-05
9.9619e-05
9.9619e-05
9.9619e-05
7.92493e-05
7.92493e-05
7.92493e-05
8.46459e-05
8.46459e-05
8.46459e-05
9.47543e-05
9.47543e-05
9.47543e-05
9.95765e-05
9.95765e-05
9.95765e-05
9.93881e-05
9.93881e-05
9.93881e-05
0.000115878
0.000115878
0.000115878
0.000106007
0.000106007
0.000106007
5.04539e-05
5.04539e-05
5.04539e-05
6.21796e-05
6.21796e-05
6.21796e-05
5.61826e-05
5.61826e-05
5.61826e-05
0.000142072
0.000142072
0.000142072
0.00014093
0.00014093
0.00014093
0.000141651
0.000141651
0.000141651
0.000141766
0.000141766
0.000141766
5.2734e-05
5.2734e-05
5.2734e-05
5.2459e-05
5.2459e-05
5.2459e-05
5.98612e-05
5.98612e-05
5.98612e-05
0.000115386
0.000115386
0.000115386
0.000109352
0.000109352
0.000109352
0.000147008
0.000147008
0.000147008
0.000147445
0.000147445
0.000147445
0.000147723
0.000147723
0.000147723
0.000148524
0.000148524
0.000148524
0.000148204
0.000148204
0.000148204
0.000143223
0.000143223
0.000143223
0.0001428
0.0001428
0.0001428
0.000142683
0.000142683
0.000142683
0.000144149
0.000144149
0.000144149
0.000143106
0.000143106
0.000143106
0.00014384
0.00014384
0.00014384
0.000142986
0.000142986
0.000142986
0.000143718
0.000143718
0.000143718
0.000155577
0.000155577
0.000155577
0.000156384
0.000156384
0.000156384
0.000156854
0.000156854
0.000156854
0.000158828
0.000158828
0.000158828
0.000138179
0.000138179
0.000138179
0.000145172
0.000145172
0.000145172
0.000153315
0.000153315
0.000153315
0.00015424
0.00015424
0.00015424
0.000152984
0.000152984
0.000152984
0.000153445
0.000153445
0.000153445
0.000138381
0.000138381
0.000138381
0.000137678
0.000137678
0.000137678
0.000137382
0.000137382
0.000137382
0.000132571
0.000132571
0.000132571
0.000114223
0.000114223
0.000114223
8.19678e-05
8.19678e-05
8.19678e-05
4.12022e-06
4.12022e-06
4.12022e-06
1.0046e-05
1.0046e-05
1.0046e-05
9.99458e-06
9.99458e-06
9.99458e-06
9.45707e-05
9.45707e-05
9.45707e-05
9.36039e-05
9.36039e-05
9.36039e-05
0.000122507
0.000122507
0.000122507
0.000123134
0.000123134
0.000123134
7.6384e-05
7.6384e-05
7.6384e-05
0.000102702
0.000102702
0.000102702
8.98257e-05
8.98257e-05
8.98257e-05
9.65362e-05
9.65362e-05
9.65362e-05
9.4071e-05
9.4071e-05
9.4071e-05
8.79843e-05
8.79843e-05
8.79843e-05
8.14026e-05
8.14026e-05
8.14026e-05
0.000136282
0.000136282
0.000136282
0.00013559
0.00013559
0.00013559
0.000136572
0.000136572
0.000136572
0.00013364
0.00013364
0.00013364
0.000133353
0.000133353
0.000133353
0.000134323
0.000134323
0.000134323
0.000134718
0.000134718
0.000134718
0.000129059
0.000129059
0.000129059
0.000129719
0.000129719
0.000129719
7.67814e-05
7.67814e-05
7.67814e-05
8.3974e-05
8.3974e-05
8.3974e-05
8.35392e-05
8.35392e-05
8.35392e-05
5.08437e-05
5.08437e-05
5.08437e-05
1.11249e-05
1.11249e-05
1.11249e-05
4.59037e-06
4.59037e-06
4.59037e-06
2.3494e-05
2.3494e-05
2.3494e-05
0
0
0
0
0
0
0
0
0
0
0
0
0
0
0
0
0
0
0
0
0
0
0
0
0
0
0
0
0
0
0
0
0
0
0
0
0
0
0
0
0
0
3.03731e-05
3.03731e-05
3.03731e-05
3.6975e-05
3.6975e-05
3.6975e-05
4.37649e-05
4.37649e-05
4.37649e-05
4.39929e-05
4.39929e-05
4.39929e-05
0
0
0
0
0
0
0
0
0
1.14042e-05
1.14042e-05
1.14042e-05
1.14891e-05
1.14891e-05
1.14891e-05
4.73527e-06
4.73527e-06
4.73527e-06
4.75993e-06
4.75993e-06
4.75993e-06
2.46191e-05
2.46191e-05
2.46191e-05
1.76199e-05
1.76199e-05
1.76199e-05
1.75284e-05
1.75284e-05
1.75284e-05
2.43638e-05
2.43638e-05
2.43638e-05
3.13359e-05
3.13359e-05
3.13359e-05
3.14997e-05
3.14997e-05
3.14997e-05
4.4453e-05
4.4453e-05
4.4453e-05
5.11089e-05
5.11089e-05
5.11089e-05
0
0
0
0
0
0
0
0
0
0
0
0
0
0
0
0
0
0
0
0
0
0
0
0
0
0
0
0
0
0
0
0
0
0
0
0
0
0
0
0
0
0
0
0
0
0
0
0
0
0
0
0
0
0
0
0
0
0
0
0
0
0
0
0
0
0
0
0
0
0
0
0
0
0
0
0
0
0
0
0
0
0
0
0
0
0
0
0
0
0
0
0
0
0
0
0
0
0
0
0
0
0
0
0
0
0
0
0
5.67211e-05
5.67211e-05
5.67211e-05
6.4282e-05
6.4282e-05
6.4282e-05
5.70165e-05
5.70165e-05
5.70165e-05
0
0
0
0
0
0
0
0
0
0
0
0
0
0
0
0
0
0
0
0
0
0
0
0
0.000157338
0.000157338
0.000157338
0.000165246
0.000165246
0.000165246
0.000165766
0.000165766
0.000165766
0.000138942
0.000138942
0.000138942
0.00014796
0.00014796
0.00014796
0.000150148
0.000150148
0.000150148
9.71359e-05
9.71359e-05
9.71359e-05
9.81631e-05
9.81631e-05
9.81631e-05
9.45002e-05
9.45002e-05
9.45002e-05
9.06413e-05
9.06413e-05
9.06413e-05
9.74751e-05
9.74751e-05
9.74751e-05
9.25331e-05
9.25331e-05
9.25331e-05
8.71979e-05
8.71979e-05
8.71979e-05
9.90023e-05
9.90023e-05
9.90023e-05
9.49612e-05
9.49612e-05
9.49612e-05
8.23977e-05
8.23977e-05
8.23977e-05
8.90228e-05
8.90228e-05
8.90228e-05
9.64538e-05
9.64538e-05
9.64538e-05
0.000100557
0.000100557
0.000100557
9.54557e-05
9.54557e-05
9.54557e-05
9.04208e-05
9.04208e-05
9.04208e-05
8.9952e-05
8.9952e-05
8.9952e-05
8.28263e-05
8.28263e-05
8.28263e-05
7.61293e-05
7.61293e-05
7.61293e-05
6.2634e-05
6.2634e-05
6.2634e-05
5.58458e-05
5.58458e-05
5.58458e-05
8.41279e-05
8.41279e-05
8.41279e-05
7.73252e-05
7.73252e-05
7.73252e-05
8.36913e-05
8.36913e-05
8.36913e-05
7.65254e-05
7.65254e-05
7.65254e-05
7.01203e-05
7.01203e-05
7.01203e-05
6.97571e-05
6.97571e-05
6.97571e-05
7.53442e-05
7.53442e-05
7.53442e-05
7.49552e-05
7.49552e-05
7.49552e-05
6.79743e-05
6.79743e-05
6.79743e-05
6.13516e-05
6.13516e-05
6.13516e-05
0
0
0
0
0
0
0
0
0
0
0
0
0
0
0
0
0
0
0
0
0
0
0
0
0
0
0
0
0
0
2.17887e-05
2.17887e-05
2.17887e-05
2.20124e-05
2.20124e-05
2.20124e-05
1.52459e-05
1.52459e-05
1.52459e-05
1.53238e-05
1.53238e-05
1.53238e-05
2.84781e-05
2.84781e-05
2.84781e-05
2.86242e-05
2.86242e-05
2.86242e-05
8.53748e-06
8.53748e-06
8.53748e-06
1.50149e-05
1.50149e-05
1.50149e-05
2.14356e-06
2.14356e-06
2.14356e-06
1.47878e-05
1.47878e-05
1.47878e-05
1.48631e-05
1.48631e-05
1.48631e-05
8.4943e-06
8.4943e-06
8.4943e-06
8.40867e-06
8.40867e-06
8.40867e-06
2.13276e-06
2.13276e-06
2.13276e-06
2.08131e-05
2.08131e-05
2.08131e-05
1.45645e-05
1.45645e-05
1.45645e-05
1.46386e-05
1.46386e-05
1.46386e-05
2.10257e-05
2.10257e-05
2.10257e-05
2.73389e-05
2.73389e-05
2.73389e-05
3.24194e-05
3.24194e-05
3.24194e-05
2.72001e-05
2.72001e-05
2.72001e-05
2.76189e-05
2.76189e-05
2.76189e-05
5.44222e-05
5.44222e-05
5.44222e-05
4.07156e-05
4.07156e-05
4.07156e-05
5.41426e-05
5.41426e-05
5.41426e-05
4.72987e-05
4.72987e-05
4.72987e-05
5.94844e-05
5.94844e-05
5.94844e-05
5.97911e-05
5.97911e-05
5.97911e-05
4.65757e-05
4.65757e-05
4.65757e-05
5.33134e-05
5.33134e-05
5.33134e-05
4.70563e-05
4.70563e-05
4.70563e-05
5.35882e-05
5.35882e-05
5.35882e-05
3.22546e-05
3.22546e-05
3.22546e-05
3.84874e-05
3.84874e-05
3.84874e-05
2.69247e-05
2.69247e-05
2.69247e-05
4.49359e-05
4.49359e-05
4.49359e-05
5.11705e-05
5.11705e-05
5.11705e-05
3.82915e-05
3.82915e-05
3.82915e-05
0
0
0
1.44177e-05
1.44177e-05
1.44177e-05
1.43448e-05
1.43448e-05
1.43448e-05
8.15735e-06
8.15735e-06
8.15735e-06
2.06916e-06
2.06916e-06
2.06916e-06
0.000107711
0.000107711
0.000107711
0.000110783
0.000110783
0.000110783
0.000108199
0.000108199
0.000108199
8.748e-05
8.748e-05
8.748e-05
8.30495e-05
8.30495e-05
8.30495e-05
7.82644e-05
7.82644e-05
7.82644e-05
8.13489e-05
8.13489e-05
8.13489e-05
8.61346e-05
8.61346e-05
8.61346e-05
8.17732e-05
8.17732e-05
8.17732e-05
7.70665e-05
7.70665e-05
7.70665e-05
8.26223e-05
8.26223e-05
8.26223e-05
7.74636e-05
7.74636e-05
7.74636e-05
7.20748e-05
7.20748e-05
7.20748e-05
7.17062e-05
7.17062e-05
7.17062e-05
0
0
0
0
0
0
0
0
0
0
0
0
2.17633e-06
2.17633e-06
2.17633e-06
2.16535e-06
2.16535e-06
2.16535e-06
0
0
0
2.11133e-06
2.11133e-06
2.11133e-06
0
0
0
0
0
0
0
0
0
0
0
0
0
0
0
0
0
0
0
0
0
0
0
0
0
0
0
0
0
0
0
0
0
0
0
0
0
0
0
0
0
0
0
0
0
0
0
0
0
0
0
0
0
0
0
0
0
0
0
0
0
0
0
0
0
0
0
0
0
0
0
0
0
0
0
0
0
0
0
0
0
0
0
0
0
0
0
0
0
0
0
0
0
0
0
0
0
0
0
0
0
0
0
0
0
0
0
0
0
0
0
0
0
0
0
0
0
0
0
0
0
0
0
0
0
0
0
0
0
0
0
0
0
0
0
0
0
0
0
0
0
0
0
0
4.18412e-06
4.18412e-06
4.18412e-06
4.20566e-06
4.20566e-06
4.20566e-06
0
0
0
0
0
0
0
0
0
0
0
0
0
0
0
0
0
0
0
0
0
0
0
0
0
0
0
0
0
0
0
0
0
0
0
0
8.47811e-05
8.47811e-05
8.47811e-05
6.19155e-05
6.19155e-05
6.19155e-05
4.23741e-05
4.23741e-05
4.23741e-05
4.91377e-05
4.91377e-05
4.91377e-05
0
0
0
0
0
0
1.42003e-05
1.42003e-05
1.42003e-05
8.11625e-06
8.11625e-06
8.11625e-06
7.94088e-05
7.94088e-05
7.94088e-05
0
0
0
0
0
0
0
0
0
0
0
0
0
0
0
0
0
0
0
0
0
0
0
0
0
0
0
0
0
0
0
0
0
2.79917e-05
2.79917e-05
2.79917e-05
4.23377e-05
4.23377e-05
4.23377e-05
4.23563e-05
4.23563e-05
4.23563e-05
4.91167e-05
4.91167e-05
4.91167e-05
0
0
0
0
0
0
0
0
0
0
0
0
0
0
0
0
0
0
0
0
0
0
0
0
0
0
0
9.93364e-05
9.93364e-05
9.93364e-05
9.45289e-05
9.45289e-05
9.45289e-05
8.46081e-05
8.46081e-05
8.46081e-05
9.95321e-05
9.95321e-05
9.95321e-05
9.47127e-05
9.47127e-05
9.47127e-05
9.94379e-05
9.94379e-05
9.94379e-05
9.45775e-05
9.45775e-05
9.45775e-05
8.44855e-05
8.44855e-05
8.44855e-05
7.90273e-05
7.90273e-05
7.90273e-05
0.000101447
0.000101447
0.000101447
0.000103955
0.000103955
0.000103955
9.95092e-05
9.95092e-05
9.95092e-05
0.000113922
0.000113922
0.000113922
0.000113392
0.000113392
0.000113392
4.99375e-05
4.99375e-05
4.99375e-05
4.96813e-05
4.96813e-05
4.96813e-05
6.15435e-05
6.15435e-05
6.15435e-05
5.58943e-05
5.58943e-05
5.58943e-05
4.42209e-05
4.42209e-05
4.42209e-05
4.4449e-05
4.4449e-05
4.4449e-05
9.51834e-05
9.51834e-05
9.51834e-05
0.000114807
0.000114807
0.000114807
0.00012156
0.00012156
0.00012156
0.000121491
0.000121491
0.000121491
0.000121843
0.000121843
0.000121843
0.000121912
0.000121912
0.000121912
0.000122616
0.000122616
0.000122616
0.000140629
0.000140629
0.000140629
0.000141044
0.000141044
0.000141044
0.000118862
0.000118862
0.000118862
0.000118252
0.000118252
0.000118252
0.000114792
0.000114792
0.000114792
0.000141503
0.000141503
0.000141503
0.000127194
0.000127194
0.000127194
0.000120711
0.000120711
0.000120711
0.000120091
0.000120091
0.000120091
0.00013296
0.00013296
0.00013296
0.00012785
0.00012785
0.00012785
0.000122592
0.000122592
0.000122592
0.000121961
0.000121961
0.000121961
0.000129174
0.000129174
0.000129174
0.000135025
0.000135025
0.000135025
0.000134333
0.000134333
0.000134333
0.000116584
0.000116584
0.000116584
0.000109919
0.000109919
0.000109919
0.000123865
0.000123865
0.000123865
0.000117188
0.000117188
0.000117188
0.000111063
0.000111063
0.000111063
9.07625e-05
9.07625e-05
9.07625e-05
9.70379e-05
9.70379e-05
9.70379e-05
0.000103771
0.000103771
0.000103771
0.00010431
0.00010431
0.00010431
0.000147132
0.000147132
0.000147132
0.00014638
0.00014638
0.00014638
0.000125802
0.000125802
0.000125802
0.000124507
0.000124507
0.000124507
0.00014865
0.00014865
0.00014865
0.000142232
0.000142232
0.000142232
0.000136422
0.000136422
0.000136422
0.000161808
0.000161808
0.000161808
0.000159309
0.000159309
0.000159309
0.000160137
0.000160137
0.000160137
0.000161313
0.000161313
0.000161313
0.00016048
0.00016048
0.00016048
0.000159604
0.000159604
0.000159604
0.000162102
0.000162102
0.000162102
0.000157949
0.000157949
0.000157949
0.000159603
0.000159603
0.000159603
0.000155332
0.000155332
0.000155332
0.000160437
0.000160437
0.000160437
0.000156655
0.000156655
0.000156655
0.000155845
0.000155845
0.000155845
0.000156993
0.000156993
0.000156993
0.000156519
0.000156519
0.000156519
0.000154109
0.000154109
0.000154109
0.000154439
0.000154439
0.000154439
0.000155239
0.000155239
0.000155239
0.000155711
0.000155711
0.000155711
0.000154573
0.000154573
0.000154573
0.000155375
0.000155375
0.000155375
0.000148222
0.000148222
0.000148222
0.000153113
0.000153113
0.000153113
0.000143667
0.000143667
0.000143667
0.000142922
0.000142922
0.000142922
0.000150546
0.000150546
0.000150546
0.000148992
0.000148992
0.000148992
0.000155508
0.000155508
0.000155508
0.000154705
0.000154705
0.000154705
0.00012775
0.00012775
0.00012775
0.000132676
0.000132676
0.000132676
0.000132287
0.000132287
0.000132287
0.000119423
0.000119423
0.000119423
0.000133534
0.000133534
0.000133534
0.000134216
0.000134216
0.000134216
8.87216e-05
8.87216e-05
8.87216e-05
8.80883e-05
8.80883e-05
8.80883e-05
8.20653e-05
8.20653e-05
8.20653e-05
8.81729e-05
8.81729e-05
8.81729e-05
0
0
0
0
0
0
0
0
0
0
0
0
0
0
0
0
0
0
0
0
0
0
0
0
4.07819e-06
4.07819e-06
4.07819e-06
1.50132e-05
1.50132e-05
1.50132e-05
7.45458e-05
7.45458e-05
7.45458e-05
6.60973e-05
6.60973e-05
6.60973e-05
1.5325e-05
1.5325e-05
1.5325e-05
2.14094e-05
2.14094e-05
2.14094e-05
2.69717e-05
2.69717e-05
2.69717e-05
3.86603e-05
3.86603e-05
3.86603e-05
3.88598e-05
3.88598e-05
3.88598e-05
3.30024e-05
3.30024e-05
3.30024e-05
2.68333e-05
2.68333e-05
2.68333e-05
3.26645e-05
3.26645e-05
3.26645e-05
2.10815e-05
2.10815e-05
2.10815e-05
1.50905e-05
1.50905e-05
1.50905e-05
9.76612e-06
9.76612e-06
9.76612e-06
9.81635e-06
9.81635e-06
9.81635e-06
1.52464e-05
1.52464e-05
1.52464e-05
2.11902e-05
2.11902e-05
2.11902e-05
7.29075e-05
7.29075e-05
7.29075e-05
5.97682e-05
5.97682e-05
5.97682e-05
6.64901e-05
6.64901e-05
6.64901e-05
6.61475e-05
6.61475e-05
6.61475e-05
3.5658e-05
3.5658e-05
3.5658e-05
4.19873e-05
4.19873e-05
4.19873e-05
4.17707e-05
4.17707e-05
4.17707e-05
3.52912e-05
3.52912e-05
3.52912e-05
5.88495e-05
5.88495e-05
5.88495e-05
5.94603e-05
5.94603e-05
5.94603e-05
6.51309e-05
6.51309e-05
6.51309e-05
6.54679e-05
6.54679e-05
6.54679e-05
4.70426e-05
4.70426e-05
4.70426e-05
5.31233e-05
5.31233e-05
5.31233e-05
5.28498e-05
5.28498e-05
5.28498e-05
4.65593e-05
4.65593e-05
4.65593e-05
4.72862e-05
4.72862e-05
4.72862e-05
5.3675e-05
5.3675e-05
5.3675e-05
3.51093e-05
3.51093e-05
3.51093e-05
3.47485e-05
3.47485e-05
3.47485e-05
4.13411e-05
4.13411e-05
4.13411e-05
4.1128e-05
4.1128e-05
4.1128e-05
0.000117778
0.000117778
0.000117778
0.000106817
0.000106817
0.000106817
0.000103583
0.000103583
0.000103583
0.000109499
0.000109499
0.000109499
9.31244e-05
9.31244e-05
9.31244e-05
9.86554e-05
9.86554e-05
9.86554e-05
9.8151e-05
9.8151e-05
9.8151e-05
8.84283e-05
8.84283e-05
8.84283e-05
8.79746e-05
8.79746e-05
8.79746e-05
5.85466e-05
5.85466e-05
5.85466e-05
6.44624e-05
6.44624e-05
6.44624e-05
7.97364e-05
7.97364e-05
7.97364e-05
6.71811e-05
6.71811e-05
6.71811e-05
7.32852e-05
7.32852e-05
7.32852e-05
0.000102172
0.000102172
0.000102172
0.000108228
0.000108228
0.000108228
8.93613e-05
8.93613e-05
8.93613e-05
8.84407e-05
8.84407e-05
8.84407e-05
9.50486e-05
9.50486e-05
9.50486e-05
9.55416e-05
9.55416e-05
9.55416e-05
8.26772e-05
8.26772e-05
8.26772e-05
8.22499e-05
8.22499e-05
8.22499e-05
0.000106017
0.000106017
0.000106017
0.000111872
0.000111872
0.000111872
0.000111298
0.000111298
0.000111298
0.000104931
0.000104931
0.000104931
7.7705e-05
7.7705e-05
7.7705e-05
7.21584e-05
7.21584e-05
7.21584e-05
7.17869e-05
7.17869e-05
7.17869e-05
8.98042e-05
8.98042e-05
8.98042e-05
8.39896e-05
8.39896e-05
8.39896e-05
0.000136172
0.000136172
0.000136172
0.000136831
0.000136831
0.000136831
0.000124398
0.000124398
0.000124398
0.000112915
0.000112915
0.000112915
0.000118382
0.000118382
0.000118382
3.67836e-05
3.67836e-05