<VTKFile type="UnstructuredGrid" version="1.0">
<UnstructuredGrid>
<Piece NumberOfPoints="10830" NumberOfCells="3610">
<Points>
<DataArray type="Float64" NumberOfComponents="3" format="ascii">
2.19217 2.20649 12.5657
2.19928 2.19938 12.54
2.19928 2.19938 12.5915
2.19928 2.19938 13.0951
2.19928 2.19938 13.146
2.19129 2.20737 13.1205
2.19928 2.19938 13.0951
2.19129 2.20737 13.1205
2.17928 2.21938 13.0951
1.30559 3.09307 13.5676
1.31816 3.0805 13.585
1.28831 3.11035 13.585
1.28831 3.11035 13.585
1.28831 3.11035 13.5548
1.30559 3.09307 13.5676
2.19928 2.19938 13.0951
2.17928 2.21938 13.0951
2.1913 2.20736 13.0697
1.29441 3.10425 12.8168
1.28831 3.11035 12.842
1.28831 3.11035 12.7916
2.19132 2.20734 12.8169
2.19928 2.19938 12.8421
2.17929 2.21937 12.8421
2.19117 2.20749 12.7163
2.19928 2.19938 12.6913
2.19928 2.19938 12.7414
2.17929 2.21937 12.8421
2.19928 2.19938 12.8421
2.19133 2.20733 12.8673
2.19928 2.19938 12.8421
2.19928 2.19938 12.8925
2.19133 2.20733 12.8673
2.17929 2.21937 12.8926
2.19133 2.20733 12.8673
2.19928 2.19938 12.8925
2.17928 2.21938 13.0443
2.1913 2.20736 13.0697
2.16946 2.22921 13.0697
2.16946 2.22921 13.0697
2.1913 2.20736 13.0697
2.17928 2.21938 13.0951
2.16946 2.22921 13.0697
2.15842 2.24024 13.0443
2.17928 2.21938 13.0443
2.16946 2.22921 13.0697
2.17928 2.21938 13.0951
2.15841 2.24025 13.0951
2.19928 2.19938 12.943
2.19928 2.19938 12.9936
2.19132 2.20734 12.9683
2.19132 2.20734 12.9683
2.17929 2.21937 12.9936
2.16947 2.22919 12.9683
2.19928 2.19938 12.9936
2.17929 2.21937 12.9936
2.19132 2.20734 12.9683
2.19928 2.19938 13.0443
2.1913 2.20736 13.0697
2.17928 2.21938 13.0443
2.19928 2.19938 13.0951
2.1913 2.20736 13.0697
2.19928 2.19938 13.0443
2.17913 2.21954 12.6913
2.19928 2.19938 12.6913
2.19117 2.20749 12.7163
2.17927 2.21939 13.146
2.19129 2.20737 13.1205
2.19928 2.19938 13.146
1.8956 2.50306 13.3257
1.90602 2.49264 13.3
1.91643 2.48223 13.3257
1.28831 3.11035 12.54
1.30792 3.09074 12.54
1.29529 3.10337 12.5647
1.34771 3.05096 12.7916
1.32717 3.07149 12.7916
1.33709 3.06157 12.7664
1.30704 3.09162 12.7916
1.32717 3.07149 12.7916
1.31607 3.08259 12.8168
1.30704 3.09162 12.7916
1.29441 3.10425 12.8168
1.28831 3.11035 12.7916
1.31607 3.08259 12.8168
1.29441 3.10425 12.8168
1.30704 3.09162 12.7916
1.2945 3.10417 13.0189
1.28831 3.11035 13.0443
1.28831 3.11035 12.9936
1.3071 3.09157 13.0443
1.31615 3.08252 13.0189
1.32724 3.07142 13.0443
1.28831 3.11035 13.0443
1.2945 3.10417 13.0189
1.3071 3.09157 13.0443
1.3071 3.09157 13.0443
1.2945 3.10417 13.0189
1.31615 3.08252 13.0189
1.30708 3.09158 12.9936
1.32723 3.07143 12.9936
1.31615 3.08252 13.0189
1.30708 3.09158 12.9936
1.2945 3.10417 13.0189
1.28831 3.11035 12.9936
1.31615 3.08252 13.0189
1.2945 3.10417 13.0189
1.30708 3.09158 12.9936
1.28831 3.11035 12.842
1.29441 3.10425 12.8168
1.30705 3.09161 12.842
1.30705 3.09161 12.842
1.29441 3.10425 12.8168
1.31607 3.08259 12.8168
1.32724 3.07142 13.0443
1.31615 3.08252 13.0189
1.33718 3.06148 13.0189
1.31615 3.08252 13.0189
1.32723 3.07143 12.9936
1.33718 3.06148 13.0189
1.49256 2.90611 12.9937
1.50289 2.89577 13.019
1.48223 2.91643 13.019
1.48223 2.91643 13.019
1.50289 2.89577 13.019
1.49257 2.90609 13.0444
1.49257 2.90609 13.0444
1.50289 2.89577 13.019
1.51323 2.88543 13.0444
1.88521 2.51346 13.3
1.90602 2.49264 13.3
1.8956 2.50306 13.3257
2.19127 2.20739 12.7666
2.19928 2.19938 12.7414
2.19928 2.19938 12.7917
2.19928 2.19938 12.8421
2.19132 2.20734 12.8169
2.19928 2.19938 12.7917
2.11618 2.28248 12.9431
2.09503 2.30363 12.9431
2.10562 2.29304 12.9178
2.17929 2.21937 12.9431
2.19132 2.20734 12.9683
2.16947 2.22919 12.9683
2.19928 2.19938 12.943
2.19132 2.20734 12.9683
2.17929 2.21937 12.9431
2.16947 2.22919 12.9683
2.17929 2.21937 12.9936
2.15843 2.24024 12.9936
2.19131 2.20735 13.0189
2.17929 2.21937 12.9936
2.19928 2.19938 12.9936
2.19928 2.19938 12.9936
2.19928 2.19938 13.0443
2.19131 2.20735 13.0189
2.19131 2.20735 13.0189
2.19928 2.19938 13.0443
2.17928 2.21938 13.0443
2.1693 2.22936 12.7164
2.17913 2.21954 12.6913
2.19117 2.20749 12.7163
2.19127 2.20739 12.7666
2.19928 2.19938 12.7917
2.17927 2.21939 12.7917
2.17927 2.21939 12.7917
2.19928 2.19938 12.7917
2.19132 2.20734 12.8169
2.10553 2.29313 12.7666
2.09491 2.30375 12.7414
2.11605 2.28261 12.7414
2.1372 2.26147 12.7415
2.12662 2.27204 12.7163
2.14787 2.25079 12.7163
2.1372 2.26147 12.7415
2.11605 2.28261 12.7414
2.12662 2.27204 12.7163
2.16946 2.2292 12.8169
2.19132 2.20734 12.8169
2.17929 2.21937 12.8421
2.16946 2.2292 12.8169
2.17927 2.21939 12.7917
2.19132 2.20734 12.8169
2.16945 2.22921 13.1206
2.17928 2.21938 13.0951
2.19129 2.20737 13.1205
2.19129 2.20737 13.1205
2.17927 2.21939 13.146
2.16945 2.22921 13.1206
2.15841 2.24025 13.0951
2.17928 2.21938 13.0951
2.16945 2.22921 13.1206
2.16944 2.22922 13.2741
2.14804 2.25062 13.2741
2.15841 2.24025 13.2484
2.14804 2.25063 13.2227
2.16944 2.22922 13.2227
2.15841 2.24025 13.2484
2.19128 2.20738 13.1715
2.17927 2.21939 13.146
2.19928 2.19938 13.146
2.16944 2.22922 13.1716
2.17927 2.21939 13.146
2.19128 2.20738 13.1715
1.93725 2.46141 13.3773
1.94766 2.451 13.4032
1.92679 2.47187 13.4032
2.05276 2.34591 13.2484
2.06331 2.33535 13.2228
2.07386 2.3248 13.2484
2.07386 2.3248 13.2484
2.06331 2.33535 13.2228
2.08443 2.31423 13.2228
2.15841 2.24026 13.1971
2.14804 2.25062 13.1716
2.16944 2.22922 13.1716
2.15841 2.24026 13.1971
2.16944 2.22922 13.2227
2.14804 2.25063 13.2227
2.04222 2.35644 13.2228
2.06331 2.33535 13.2228
2.05276 2.34591 13.2484
1.9897 2.40896 12.9937
1.96874 2.42992 12.9937
1.97921 2.41945 12.9684
1.93736 2.4613 12.9684
1.92692 2.47174 12.9937
1.91649 2.48217 12.9684
1.94781 2.45085 12.9937
1.92692 2.47174 12.9937
1.93736 2.4613 12.9684
1.92691 2.47175 12.8927
1.9478 2.45086 12.8927
1.93736 2.46131 12.9179
1.93736 2.46131 12.9179
1.91648 2.48218 12.9179
1.92691 2.47175 12.8927
1.92691 2.47175 12.8927
1.91648 2.48218 12.9179
1.90605 2.49261 12.8926
1.93736 2.46131 12.9179
1.9478 2.45086 12.8927
1.95826 2.4404 12.9179
1.96871 2.42995 12.8422
1.9792 2.41946 12.8674
1.95825 2.44041 12.8674
1.95825 2.44041 12.8674
1.94778 2.45088 12.8422
1.96871 2.42995 12.8422
1.8126 2.58607 13.0191
1.82295 2.57571 12.9937
1.83332 2.56534 13.0191
1.82295 2.57571 12.9937
1.84369 2.55497 12.9938
1.83332 2.56534 13.0191
1.92692 2.47174 12.9432
1.91648 2.48218 12.9179
1.93736 2.46131 12.9179
1.92692 2.47174 12.9432
1.93736 2.4613 12.9684
1.91649 2.48217 12.9684
1.91649 2.48217 12.9684
1.89565 2.50301 12.9684
1.90606 2.4926 12.9432
1.90606 2.4926 12.9432
1.92692 2.47174 12.9432
1.91649 2.48217 12.9684
1.91648 2.48218 12.9179
1.92692 2.47174 12.9432
1.90606 2.4926 12.9432
1.90605 2.49261 12.8926
1.88523 2.51343 12.8926
1.89563 2.50303 12.8674
1.88521 2.51345 12.8422
1.90603 2.49263 12.8422
1.89563 2.50303 12.8674
1.51322 2.88545 12.9937
1.50289 2.89577 13.019
1.49256 2.90611 12.9937
1.49256 2.90611 12.9937
1.50288 2.89578 12.9684
1.51322 2.88545 12.9937
1.29442 3.10424 12.6149
1.28831 3.11035 12.6401
1.28831 3.11035 12.5894
1.28831 3.11035 12.54
1.29529 3.10337 12.5647
1.28831 3.11035 12.5894
1.307 3.09167 12.6907
1.28831 3.11035 12.6907
1.29431 3.10435 12.6654
1.28831 3.11035 12.6907
1.28831 3.11035 12.6401
1.29431 3.10435 12.6654
2.19928 2.19938 12.54
2.19217 2.20649 12.5657
2.18013 2.21854 12.54
1.28831 3.11035 12.7916
1.28831 3.11035 12.7411
1.29438 3.10428 12.7664
1.29438 3.10428 12.7664
1.30704 3.09162 12.7916
1.28831 3.11035 12.7916
1.30702 3.09164 12.7411
1.29438 3.10428 12.7664
1.28831 3.11035 12.7411
1.30702 3.09164 12.7411
1.31601 3.08265 12.7159
1.32714 3.07152 12.7412
1.31605 3.08262 12.7664
1.33709 3.06157 12.7664
1.32717 3.07149 12.7916
1.32717 3.07149 12.7916
1.30704 3.09162 12.7916
1.31605 3.08262 12.7664
1.32714 3.07152 12.7412
1.33709 3.06157 12.7664
1.31605 3.08262 12.7664
1.31605 3.08262 12.7664
1.30702 3.09164 12.7411
1.32714 3.07152 12.7412
1.30704 3.09162 12.7916
1.29438 3.10428 12.7664
1.31605 3.08262 12.7664
1.29438 3.10428 12.7664
1.30702 3.09164 12.7411
1.31605 3.08262 12.7664
1.29435 3.10432 12.7159
1.28831 3.11035 12.7411
1.28831 3.11035 12.6907
1.29435 3.10432 12.7159
1.28831 3.11035 12.6907
1.307 3.09167 12.6907
1.307 3.09167 12.6907
1.31601 3.08265 12.7159
1.29435 3.10432 12.7159
1.29435 3.10432 12.7159
1.30702 3.09164 12.7411
1.28831 3.11035 12.7411
1.31601 3.08265 12.7159
1.30702 3.09164 12.7411
1.29435 3.10432 12.7159
1.33717 3.06149 12.9683
1.32723 3.07143 12.9936
1.31613 3.08254 12.9683
1.32723 3.07143 12.9936
1.30708 3.09158 12.9936
1.31613 3.08254 12.9683
1.31613 3.08254 12.9683
1.32722 3.07145 12.943
1.33717 3.06149 12.9683
1.33711 3.06155 12.8168
1.32717 3.07149 12.7916
1.34771 3.05096 12.7916
1.31607 3.08259 12.8168
1.32717 3.07149 12.7916
1.33711 3.06155 12.8168
1.35794 3.04072 12.8168
1.33711 3.06155 12.8168
1.34771 3.05096 12.7916
1.34773 3.05094 12.842
1.33711 3.06155 12.8168
1.35794 3.04072 12.8168
1.34773 3.05094 12.842
1.35794 3.04072 12.8168
1.36839 3.03027 12.842
1.50287 2.89579 12.9178
1.51321 2.88546 12.9431
1.49255 2.90612 12.9431
1.49255 2.90612 12.9431
1.51321 2.88546 12.9431
1.50288 2.89578 12.9684
1.42017 2.9785 12.9683
1.44086 2.9578 12.9683
1.43052 2.96814 12.9936
1.43051 2.96815 12.943
1.44086 2.9578 12.9683
1.42017 2.9785 12.9683
1.44085 2.95782 12.9178
1.4305 2.96817 12.8925
1.45119 2.94748 12.8925
1.43051 2.96815 12.943
1.42015 2.97851 12.9178
1.44085 2.95782 12.9178
1.44085 2.95782 12.9178
1.42015 2.97851 12.9178
1.4305 2.96817 12.8925
1.44087 2.95779 13.019
1.46156 2.9371 13.019
1.45123 2.94744 13.0443
1.3995 2.99917 13.0697
1.40985 2.98882 13.0443
1.4202 2.97846 13.0697
1.40983 2.98883 12.9936
1.42017 2.9785 12.9683
1.43052 2.96814 12.9936
1.39946 2.9992 12.9683
1.42017 2.9785 12.9683
1.40983 2.98883 12.9936
1.32724 3.07142 13.0443
1.33718 3.06148 13.0189
1.34779 3.05087 13.0443
1.33717 3.06149 12.9683
1.32722 3.07145 12.943
1.34776 3.0509 12.943
1.34776 3.0509 12.943
1.35799 3.04067 12.9683
1.33717 3.06149 12.9683
1.38911 3.00955 12.943
1.39946 2.9992 12.9683
1.37874 3.01992 12.9683
1.34777 3.05089 12.9936
1.33718 3.06148 13.0189
[...]
<PointData Scalars="View Factor" >
<DataArray type="Float64" Name="View Factor" NumberOfComponents="1" format="ascii">
1.81771e-06
1.81771e-06
1.81771e-06
7.97323e-07
7.97323e-07
7.97323e-07
8.20201e-07
8.20201e-07
8.20201e-07
1.48894e-05
1.48894e-05
1.48894e-05
1.50324e-05
1.50324e-05
1.50324e-05
8.34246e-07
8.34246e-07
8.34246e-07
1.70177e-05
1.70177e-05
1.70177e-05
1.12031e-06
1.12031e-06
1.12031e-06
1.37267e-06
1.37267e-06
1.37267e-06
1.09706e-06
1.09706e-06
1.09706e-06
1.09832e-06
1.09832e-06
1.09832e-06
1.04831e-06
1.04831e-06
1.04831e-06
1.05261e-06
1.05261e-06
1.05261e-06
1.03697e-06
1.03697e-06
1.03697e-06
2.76718e-06
2.76718e-06
2.76718e-06
2.73907e-06
2.73907e-06
2.73907e-06
9.57938e-07
9.57938e-07
9.57938e-07
1.13685e-06
1.13685e-06
1.13685e-06
9.29497e-07
9.29497e-07
9.29497e-07
8.63956e-07
8.63956e-07
8.63956e-07
8.42366e-07
8.42366e-07
8.42366e-07
1.37213e-06
1.37213e-06
1.37213e-06
7.90697e-07
7.90697e-07
7.90697e-07
1.68709e-06
1.68709e-06
1.68709e-06
1.76894e-05
1.76894e-05
1.76894e-05
1.64224e-05
1.64224e-05
1.64224e-05
1.66981e-05
1.66981e-05
1.66981e-05
1.69811e-05
1.69811e-05
1.69811e-05
1.68325e-05
1.68325e-05
1.68325e-05
1.64665e-05
1.64665e-05
1.64665e-05
1.60693e-05
1.60693e-05
1.60693e-05
1.6339e-05
1.6339e-05
1.6339e-05
1.6242e-05
1.6242e-05
1.6242e-05
1.61575e-05
1.61575e-05
1.61575e-05
1.64315e-05
1.64315e-05
1.64315e-05
1.62871e-05
1.62871e-05
1.62871e-05
1.68869e-05
1.68869e-05
1.68869e-05
1.67871e-05
1.67871e-05
1.67871e-05
1.59413e-05
1.59413e-05
1.59413e-05
1.59864e-05
1.59864e-05
1.59864e-05
1.29101e-05
1.29101e-05
1.29101e-05
1.28721e-05
1.28721e-05
1.28721e-05
1.24253e-05
1.24253e-05
1.24253e-05
1.58406e-06
1.58406e-06
1.58406e-06
1.26653e-06
1.26653e-06
1.26653e-06
1.17868e-06
1.17868e-06
1.17868e-06
1.93454e-06
1.93454e-06
1.93454e-06
1.1572e-06
1.1572e-06
1.1572e-06
9.65122e-07
9.65122e-07
9.65122e-07
2.83794e-06
2.83794e-06
2.83794e-06
9.10959e-07
9.10959e-07
9.10959e-07
8.96827e-07
8.96827e-07
8.96827e-07
8.78926e-07
8.78926e-07
8.78926e-07
1.58771e-06
1.58771e-06
1.58771e-06
1.20362e-06
1.20362e-06
1.20362e-06
1.17811e-06
1.17811e-06
1.17811e-06
2.19881e-06
2.19881e-06
2.19881e-06
2.78315e-06
2.78315e-06
2.78315e-06
2.64355e-06
2.64355e-06
2.64355e-06
1.33643e-06
1.33643e-06
1.33643e-06
1.36755e-06
1.36755e-06
1.36755e-06
1.01118e-06
1.01118e-06
1.01118e-06
9.96771e-07
9.96771e-07
9.96771e-07
2.72321e-06
2.72321e-06
2.72321e-06
2.75709e-06
2.75709e-06
2.75709e-06
2.53081e-06
2.53081e-06
2.53081e-06
7.7789e-07
7.7789e-07
7.7789e-07
9.67625e-07
9.67625e-07
9.67625e-07
2.33846e-06
2.33846e-06
2.33846e-06
4.83059e-07
4.83059e-07
4.83059e-07
4.24737e-07
4.24737e-07
4.24737e-07
2.51433e-06
2.51433e-06
2.51433e-06
2.49143e-06
2.49143e-06
2.49143e-06
4.2864e-07
4.2864e-07
4.2864e-07
5.50965e-07
5.50965e-07
5.50965e-07
5.89187e-07
5.89187e-07
5.89187e-07
5.7192e-07
5.7192e-07
5.7192e-07
6.70824e-07
6.70824e-07
6.70824e-07
6.71401e-07
6.71401e-07
6.71401e-07
6.93234e-07
6.93234e-07
6.93234e-07
6.49343e-07
6.49343e-07
6.49343e-07
7.03372e-07
7.03372e-07
7.03372e-07
7.1425e-07
7.1425e-07
7.1425e-07
6.45338e-07
6.45338e-07
6.45338e-07
6.45858e-07
6.45858e-07
6.45858e-07
6.46173e-07
6.46173e-07
6.46173e-07
6.10341e-07
6.10341e-07
6.10341e-07
6.30429e-07
6.30429e-07
6.30429e-07
6.28373e-07
6.28373e-07
6.28373e-07
6.48659e-07
6.48659e-07
6.48659e-07
7.34349e-07
7.34349e-07
7.34349e-07
7.8836e-07
7.8836e-07
7.8836e-07
1.25036e-05
1.25036e-05
1.25036e-05
1.25404e-05
1.25404e-05
1.25404e-05
1.75912e-05
1.75912e-05
1.75912e-05
1.7733e-05
1.7733e-05
1.7733e-05
1.73113e-05
1.73113e-05
1.73113e-05
1.74458e-05
1.74458e-05
1.74458e-05
1.82212e-06
1.82212e-06
1.82212e-06
1.71588e-05
1.71588e-05
1.71588e-05
1.70277e-05
1.70277e-05
1.70277e-05
1.71213e-05
1.71213e-05
1.71213e-05
1.68835e-05
1.68835e-05
1.68835e-05
1.66145e-05
1.66145e-05
1.66145e-05
1.67452e-05
1.67452e-05
1.67452e-05
1.6659e-05
1.6659e-05
1.6659e-05
1.68362e-05
1.68362e-05
1.68362e-05
1.69268e-05
1.69268e-05
1.69268e-05
1.6972e-05
1.6972e-05
1.6972e-05
1.73014e-05
1.73014e-05
1.73014e-05
1.72649e-05
1.72649e-05
1.72649e-05
1.71149e-05
1.71149e-05
1.71149e-05
1.71684e-05
1.71684e-05
1.71684e-05
1.70669e-05
1.70669e-05
1.70669e-05
1.6076e-05
1.6076e-05
1.6076e-05
1.6203e-05
1.6203e-05
1.6203e-05
1.61209e-05
1.61209e-05
1.61209e-05
1.63754e-05
1.63754e-05
1.63754e-05
1.65225e-05
1.65225e-05
1.65225e-05
1.61898e-05
1.61898e-05
1.61898e-05
1.6143e-05
1.6143e-05
1.6143e-05
1.59729e-05
1.59729e-05
1.59729e-05
1.26543e-05
1.26543e-05
1.26543e-05
1.26197e-05
1.26197e-05
1.26197e-05
1.43889e-05
1.43889e-05
1.43889e-05
1.4429e-05
1.4429e-05
1.4429e-05
1.4385e-05
1.4385e-05
1.4385e-05
1.45014e-05
1.45014e-05
1.45014e-05
1.45368e-05
1.45368e-05
1.45368e-05
1.38636e-05
1.38636e-05
1.38636e-05
1.4544e-05
1.4544e-05
1.4544e-05
1.45564e-05
1.45564e-05
1.45564e-05
1.47513e-05
1.47513e-05
1.47513e-05
1.57517e-05
1.57517e-05
1.57517e-05
1.59756e-05
1.59756e-05
1.59756e-05
1.5794e-05
1.5794e-05
1.5794e-05
1.51728e-05
1.51728e-05
1.51728e-05
1.58432e-05
1.58432e-05
1.58432e-05
1.58861e-05
1.58861e-05
1.58861e-05
1.57501e-05
1.57501e-05
1.57501e-05
1.4379e-05
1.4379e-05
1.4379e-05
1.54119e-05
1.54119e-05
1.54119e-05
1.50031e-05
1.50031e-05
1.50031e-05
1.31583e-05
1.31583e-05
1.31583e-05
1.34037e-05
1.34037e-05
1.34037e-05
1.35771e-05
1.35771e-05
1.35771e-05
1.30948e-05
1.30948e-05
1.30948e-05
1.3618e-05
1.3618e-05
1.3618e-05
1.33634e-05
1.33634e-05
1.33634e-05
1.30614e-05
1.30614e-05
1.30614e-05
1.32821e-05
1.32821e-05
1.32821e-05
1.30068e-05
1.30068e-05
1.30068e-05
1.32419e-05
1.32419e-05
1.32419e-05
1.4155e-05
1.4155e-05
1.4155e-05
1.37776e-05
1.37776e-05
1.37776e-05
1.17003e-05
1.17003e-05
1.17003e-05
2.41576e-06
2.41576e-06
2.41576e-06
6.93955e-06
6.93955e-06
6.93955e-06
2.37083e-06
2.37083e-06
2.37083e-06
6.90868e-06
6.90868e-06
6.90868e-06
1.27465e-05
1.27465e-05
1.27465e-05
1.23805e-05
1.23805e-05
1.23805e-05
1.27876e-05
1.27876e-05
1.27876e-05
1.78231e-06
1.78231e-06
1.78231e-06
1.90731e-06
1.90731e-06
1.90731e-06
1.74087e-06
1.74087e-06
1.74087e-06
1.63327e-06
1.63327e-06
1.63327e-06
1.48336e-06
1.48336e-06
1.48336e-06
1.30482e-06
1.30482e-06
1.30482e-06
5.27377e-07
5.27377e-07
5.27377e-07
1.36023e-06
1.36023e-06
1.36023e-06
1.99598e-06
1.99598e-06
1.99598e-06
2.077e-06
2.077e-06
2.077e-06
1.90137e-06
1.90137e-06
1.90137e-06
1.88421e-06
1.88421e-06
1.88421e-06
2.17432e-06
2.17432e-06
2.17432e-06
2.20519e-06
2.20519e-06
2.20519e-06
2.11932e-06
2.11932e-06
2.11932e-06
2.02457e-06
2.02457e-06
2.02457e-06
2.06431e-06
2.06431e-06
2.06431e-06
2.14864e-06
2.14864e-06
2.14864e-06
2.25388e-06
2.25388e-06
2.25388e-06
1.83671e-06
1.83671e-06
1.83671e-06
1.97211e-06
1.97211e-06
1.97211e-06
1.94498e-06
1.94498e-06
1.94498e-06
1.85169e-06
1.85169e-06
1.85169e-06
1.78923e-06
1.78923e-06
1.78923e-06
1.59868e-06
1.59868e-06
1.59868e-06
1.37697e-06
1.37697e-06
1.37697e-06
1.37834e-06
1.37834e-06
1.37834e-06
2.20597e-06
2.20597e-06
2.20597e-06
2.1814e-06
2.1814e-06
2.1814e-06
2.21402e-06
2.21402e-06
2.21402e-06
2.48495e-06
2.48495e-06
2.48495e-06
2.5997e-06
2.5997e-06
2.5997e-06
2.61735e-06
2.61735e-06
2.61735e-06
2.34861e-06
2.34861e-06
2.34861e-06
7.34582e-07
7.34582e-07
7.34582e-07
7.12094e-07
7.12094e-07
7.12094e-07
7.46845e-07
7.46845e-07
7.46845e-07
5.5046e-07
5.5046e-07
5.5046e-07
5.58068e-07
5.58068e-07
5.58068e-07
9.85262e-07
9.85262e-07
9.85262e-07
1.19611e-06
1.19611e-06
1.19611e-06
1.02485e-06
1.02485e-06
1.02485e-06
1.02745e-06
1.02745e-06
1.02745e-06
1.22117e-06
1.22117e-06
1.22117e-06
2.38166e-06
2.38166e-06
2.38166e-06
2.50359e-06
2.50359e-06
2.50359e-06
2.7858e-06
2.7858e-06
2.7858e-06
2.81971e-06
2.81971e-06
2.81971e-06
2.65099e-06
2.65099e-06
2.65099e-06
2.66855e-06
2.66855e-06
2.66855e-06
1.0847e-06
1.0847e-06
1.0847e-06
1.1e-06
1.1e-06
1.1e-06
1.2676e-06
1.2676e-06
1.2676e-06
1.29981e-06
1.29981e-06
1.29981e-06
1.54888e-06
1.54888e-06
1.54888e-06
1.41024e-06
1.41024e-06
1.41024e-06
2.21995e-06
2.21995e-06
2.21995e-06
2.50581e-06
2.50581e-06
2.50581e-06
3.06854e-06
3.06854e-06
3.06854e-06
2.81179e-06
2.81179e-06
2.81179e-06
2.91706e-06
2.91706e-06
2.91706e-06
2.78611e-06
2.78611e-06
2.78611e-06
2.69456e-06
2.69456e-06
2.69456e-06
2.67885e-06
2.67885e-06
2.67885e-06
2.52689e-06
2.52689e-06
2.52689e-06
2.9236e-06
2.9236e-06
2.9236e-06
2.93516e-06
2.93516e-06
2.93516e-06
1.71167e-06
1.71167e-06
1.71167e-06
1.92994e-06
1.92994e-06
1.92994e-06
1.27728e-06
1.27728e-06
1.27728e-06
1.53433e-06
1.53433e-06
1.53433e-06
6.30718e-07
6.30718e-07
6.30718e-07
1.06734e-06
1.06734e-06
1.06734e-06
2.44111e-06
2.44111e-06
2.44111e-06
2.25506e-06
2.25506e-06
2.25506e-06
5.3312e-07
5.3312e-07
5.3312e-07
5.50492e-07
5.50492e-07
5.50492e-07
5.50605e-07
5.50605e-07
5.50605e-07
5.58094e-07
5.58094e-07
5.58094e-07
4.77031e-07
4.77031e-07
4.77031e-07
4.82018e-07
4.82018e-07
4.82018e-07
4.77307e-07
4.77307e-07
4.77307e-07
2.65098e-06
2.65098e-06
2.65098e-06
2.63757e-06
2.63757e-06
2.63757e-06
9.56377e-07
9.56377e-07
9.56377e-07
2.55997e-06
2.55997e-06
2.55997e-06
2.50804e-06
2.50804e-06
2.50804e-06
2.43996e-06
2.43996e-06
2.43996e-06
2.26821e-06
2.26821e-06
2.26821e-06
2.3166e-06
2.3166e-06
2.3166e-06
2.18964e-06
2.18964e-06
2.18964e-06
5.5073e-07
5.5073e-07
5.5073e-07
5.78592e-07
5.78592e-07
5.78592e-07
5.58167e-07
5.58167e-07
5.58167e-07
5.85837e-07
5.85837e-07
5.85837e-07
5.90958e-07
5.90958e-07
5.90958e-07
6.08501e-07
6.08501e-07
6.08501e-07
5.53669e-07
5.53669e-07
5.53669e-07
5.66081e-07
5.66081e-07
5.66081e-07
5.53009e-07
5.53009e-07
5.53009e-07
5.91014e-07
5.91014e-07
5.91014e-07
5.90659e-07
5.90659e-07
5.90659e-07
6.10019e-07
6.10019e-07
6.10019e-07
6.27783e-07
6.27783e-07
6.27783e-07
6.09105e-07
6.09105e-07
6.09105e-07
6.28993e-07
6.28993e-07
6.28993e-07
5.72713e-07
5.72713e-07
5.72713e-07
5.52709e-07
5.52709e-07
5.52709e-07
5.32885e-07
5.32885e-07
5.32885e-07
5.37345e-07
5.37345e-07
5.37345e-07
5.49469e-07
5.49469e-07
5.49469e-07
5.69948e-07
5.69948e-07
5.69948e-07
5.6986e-07
5.6986e-07
5.6986e-07
5.52743e-07
5.52743e-07
5.52743e-07
5.5841e-07
5.5841e-07
5.5841e-07
5.7855e-07
5.7855e-07
5.7855e-07
4.75047e-07
4.75047e-07
4.75047e-07
5.18117e-07
5.18117e-07
5.18117e-07
4.7572e-07
4.7572e-07
4.7572e-07
7.11407e-07
7.11407e-07
7.11407e-07
7.63682e-07
7.63682e-07
7.63682e-07
7.3429e-07
7.3429e-07
7.3429e-07
7.66584e-07
7.66584e-07
7.66584e-07
7.38965e-07
7.38965e-07
7.38965e-07
7.42167e-07
7.42167e-07
7.42167e-07
7.12459e-07
7.12459e-07
7.12459e-07
6.88405e-07
6.88405e-07
6.88405e-07
6.88987e-07
6.88987e-07
6.88987e-07
7.17754e-07
7.17754e-07
7.17754e-07
6.12443e-07
6.12443e-07
6.12443e-07
6.04655e-07
6.04655e-07
6.04655e-07
8.00439e-07
8.00439e-07
8.00439e-07
8.30571e-07
8.30571e-07
8.30571e-07
6.67749e-07
6.67749e-07
6.67749e-07
6.81761e-07
6.81761e-07
6.81761e-07
7.81318e-07
7.81318e-07
7.81318e-07
7.80456e-07
7.80456e-07
7.80456e-07
6.292e-07
6.292e-07
6.292e-07
6.44734e-07
6.44734e-07
6.44734e-07
6.44781e-07
6.44781e-07
6.44781e-07
6.0802e-07
6.0802e-07
6.0802e-07
6.09511e-07
6.09511e-07
6.09511e-07
6.23074e-07
6.23074e-07
6.23074e-07
6.66994e-07
6.66994e-07
6.66994e-07
7.09352e-07
7.09352e-07
7.09352e-07
7.1026e-07
7.1026e-07
7.1026e-07
6.85589e-07
6.85589e-07
6.85589e-07
6.0435e-07
6.0435e-07
6.0435e-07
6.25348e-07
6.25348e-07
6.25348e-07
7.2945e-07
7.2945e-07
7.2945e-07
6.64211e-07
6.64211e-07
6.64211e-07
6.86079e-07
6.86079e-07
6.86079e-07
7.32221e-07
7.32221e-07
7.32221e-07
8.12981e-07
8.12981e-07
8.12981e-07
7.90922e-07
7.90922e-07
7.90922e-07
7.576e-07
7.576e-07
7.576e-07
6.48685e-07
6.48685e-07
6.48685e-07
6.50488e-07
6.50488e-07
6.50488e-07
6.90488e-07
6.90488e-07
6.90488e-07
6.68969e-07
6.68969e-07
6.68969e-07
1.16689e-05
1.16689e-05
1.16689e-05
1.39654e-05
1.39654e-05
1.39654e-05
1.39318e-05
1.39318e-05
1.39318e-05
1.41402e-05
1.41402e-05
1.41402e-05
1.28519e-05
1.28519e-05
1.28519e-05
1.22545e-05
1.22545e-05
1.22545e-05
1.22959e-05
1.22959e-05
1.22959e-05
1.60632e-05
1.60632e-05
1.60632e-05
1.62831e-05
1.62831e-05
1.62831e-05
1.61092e-05
1.61092e-05
1.61092e-05
1.21851e-05
1.21851e-05
1.21851e-05
1.21428e-05
1.21428e-05
1.21428e-05
8.19602e-07
8.19602e-07
8.19602e-07
7.99344e-07
7.99344e-07
7.99344e-07
7.73946e-07
7.73946e-07
7.73946e-07
7.71469e-07
7.71469e-07
7.71469e-07
7.24245e-07
7.24245e-07
7.24245e-07
7.47653e-07
7.47653e-07
7.47653e-07
2.83846e-06
2.83846e-06
2.83846e-06
1.94965e-06
1.94965e-06
1.94965e-06
3.61115e-06
3.61115e-06
3.61115e-06
1.42856e-06
1.42856e-06
1.42856e-06
2.50754e-06
2.50754e-06
2.50754e-06
2.55272e-06
2.55272e-06
2.55272e-06
9.18325e-07
9.18325e-07
9.18325e-07
9.87007e-07
9.87007e-07
9.87007e-07
1.63317e-05
1.63317e-05
1.63317e-05
1.62964e-05
1.62964e-05
1.62964e-05
1.66025e-05
1.66025e-05
1.66025e-05
1.64749e-05
1.64749e-05
1.64749e-05
1.63773e-05
1.63773e-05
1.63773e-05
1.67397e-05
1.67397e-05
1.67397e-05
1.67034e-05
1.67034e-05
1.67034e-05
1.64265e-05
1.64265e-05
1.64265e-05
1.65576e-05
1.65576e-05
1.65576e-05
1.68416e-05
1.68416e-05
1.68416e-05
1.6878e-05
1.6878e-05
1.6878e-05
1.67483e-05
1.67483e-05
1.67483e-05
1.66946e-05
1.66946e-05
1.66946e-05
1.66488e-05
1.66488e-05
1.66488e-05
1.64711e-05
1.64711e-05
1.64711e-05
1.63426e-05
1.63426e-05
1.63426e-05
1.60568e-05
1.60568e-05
1.60568e-05
1.59309e-05
1.59309e-05
1.59309e-05
1.66077e-05
1.66077e-05
1.66077e-05
1.64767e-05
1.64767e-05
1.64767e-05
1.65625e-05
1.65625e-05
1.65625e-05
1.63884e-05
1.63884e-05
1.63884e-05
1.6283e-05
1.6283e-05
1.6283e-05
1.62401e-05
1.62401e-05
1.62401e-05
1.62537e-05
1.62537e-05
1.62537e-05
1.62103e-05
1.62103e-05
1.62103e-05
1.60201e-05
1.60201e-05
1.60201e-05
1.5883e-05
1.5883e-05
1.5883e-05
1.32869e-05
1.32869e-05
1.32869e-05
1.35924e-05
1.35924e-05
1.35924e-05
1.36312e-05
1.36312e-05
1.36312e-05
1.30724e-05
1.30724e-05
1.30724e-05
1.29784e-05
1.29784e-05
1.29784e-05
1.30155e-05
1.30155e-05
1.30155e-05
1.31885e-05
1.31885e-05
1.31885e-05
1.32545e-05
1.32545e-05
1.32545e-05
1.35166e-05
1.35166e-05
1.35166e-05
1.34782e-05
1.34782e-05
1.34782e-05
1.4794e-05
1.4794e-05
1.4794e-05
1.48757e-05
1.48757e-05
1.48757e-05
1.46418e-05
1.46418e-05
1.46418e-05
1.46812e-05
1.46812e-05
1.46812e-05
1.50247e-05
1.50247e-05
1.50247e-05
1.50651e-05
1.50651e-05
1.50651e-05
1.43125e-05
1.43125e-05
1.43125e-05
1.45167e-05
1.45167e-05
1.45167e-05
1.40686e-05
1.40686e-05
1.40686e-05
1.43933e-05
1.43933e-05
1.43933e-05
1.44347e-05
1.44347e-05
1.44347e-05
1.42728e-05
1.42728e-05
1.42728e-05
1.41959e-05
1.41959e-05
1.41959e-05
1.4029e-05
1.4029e-05
1.4029e-05
1.44185e-05
1.44185e-05
1.44185e-05
1.42735e-05
1.42735e-05
1.42735e-05
1.43113e-05
1.43113e-05
1.43113e-05
1.45005e-05
1.45005e-05
1.45005e-05
1.46827e-05
1.46827e-05
1.46827e-05
1.47876e-05
1.47876e-05
1.47876e-05
1.46417e-05
1.46417e-05
1.46417e-05
1.4769e-05
1.4769e-05
1.4769e-05
1.57148e-05
1.57148e-05
1.57148e-05
1.53512e-05
1.53512e-05
1.53512e-05
1.56704e-05
1.56704e-05
1.56704e-05
1.5486e-05
1.5486e-05
1.5486e-05
1.56188e-05
1.56188e-05
1.56188e-05
1.56636e-05
1.56636e-05
1.56636e-05
1.53597e-05
1.53597e-05
1.53597e-05
1.55405e-05
1.55405e-05
1.55405e-05
1.54436e-05
1.54436e-05
1.54436e-05
1.5584e-05
1.5584e-05
1.5584e-05
1.47477e-05
1.47477e-05
1.47477e-05
1.48918e-05
1.48918e-05
1.48918e-05
1.45616e-05
1.45616e-05
1.45616e-05
1.50621e-05
1.50621e-05
1.50621e-05
1.5196e-05
1.5196e-05
1.5196e-05
1.48535e-05
1.48535e-05
1.48535e-05
1.33873e-05
1.33873e-05
1.33873e-05
1.41974e-05
1.41974e-05
1.41974e-05
1.41648e-05
1.41648e-05
1.41648e-05
1.39734e-05
1.39734e-05
1.39734e-05
1.37946e-05
1.37946e-05
1.37946e-05
1.51054e-05
1.51054e-05
1.51054e-05
1.47475e-05
1.47475e-05
1.47475e-05
1.48399e-05
1.48399e-05
1.48399e-05
1.56721e-05
1.56721e-05
1.56721e-05
1.55513e-05
1.55513e-05
1.55513e-05
1.54588e-05
1.54588e-05
1.54588e-05
1.53802e-05
1.53802e-05
1.53802e-05
1.55428e-05
1.55428e-05
1.55428e-05
1.54232e-05
1.54232e-05
1.54232e-05
1.53316e-05
1.53316e-05
1.53316e-05
1.55097e-05
1.55097e-05
1.55097e-05
1.53738e-05
1.53738e-05
1.53738e-05
1.52923e-05
1.52923e-05
1.52923e-05
1.52491e-05
1.52491e-05
1.52491e-05
1.39048e-05
1.39048e-05
1.39048e-05
1.36999e-05
1.36999e-05
1.36999e-05
1.37386e-05
1.37386e-05
1.37386e-05
1.39833e-05
1.39833e-05
1.39833e-05
1.41928e-05
1.41928e-05
1.41928e-05
1.41533e-05
1.41533e-05
1.41533e-05
1.34993e-05
1.34993e-05
1.34993e-05
1.39483e-05
1.39483e-05
1.39483e-05
1.37366e-05
1.37366e-05
1.37366e-05
1.34608e-05
1.34608e-05
1.34608e-05
6.76662e-07
6.76662e-07
6.76662e-07
6.83197e-07
6.83197e-07
6.83197e-07
6.69051e-07
6.69051e-07
6.69051e-07
1.06731e-05
1.06731e-05
1.06731e-05
9.2358e-06
9.2358e-06
9.2358e-06
9.27897e-06
9.27897e-06
9.27897e-06
1.10681e-05
1.10681e-05
1.10681e-05
1.06557e-05
1.06557e-05
1.06557e-05
1.23085e-05
1.23085e-05
1.23085e-05
1.22696e-05
1.22696e-05
1.22696e-05
1.11354e-05
1.11354e-05
1.11354e-05
1.17407e-05
1.17407e-05
1.17407e-05
1.18459e-05
1.18459e-05
1.18459e-05
1.18065e-05
1.18065e-05
1.18065e-05
1.06746e-05
1.06746e-05
1.06746e-05
1.11698e-05
1.11698e-05
1.11698e-05
2.34181e-06
2.34181e-06
2.34181e-06
2.59963e-06
2.59963e-06
2.59963e-06
2.27652e-06
2.27652e-06
2.27652e-06
2.17617e-06
2.17617e-06
2.17617e-06
1.73278e-06
1.73278e-06
1.73278e-06
1.44211e-06
1.44211e-06
1.44211e-06
2.11475e-06
2.11475e-06
2.11475e-06
1.85114e-06
1.85114e-06
1.85114e-06
1.79476e-06
1.79476e-06
1.79476e-06
1.68303e-06
1.68303e-06
1.68303e-06
4.59484e-07
4.59484e-07
4.59484e-07
6.20598e-07
6.20598e-07
6.20598e-07
8.40665e-07
8.40665e-07
8.40665e-07
6.38297e-07
6.38297e-07
6.38297e-07
5.42603e-07
5.42603e-07
5.42603e-07
8.64737e-07
8.64737e-07
8.64737e-07
9.83543e-07
9.83543e-07
9.83543e-07
4.52334e-07
4.52334e-07
4.52334e-07
4.46618e-07
4.46618e-07
4.46618e-07
4.65972e-07
4.65972e-07
4.65972e-07
4.63937e-07
4.63937e-07
4.63937e-07
9.55795e-07
9.55795e-07
9.55795e-07
1.22861e-06
1.22861e-06
1.22861e-06
1.40155e-06
1.40155e-06
1.40155e-06
1.26802e-06
1.26802e-06
1.26802e-06
6.02933e-07
6.02933e-07
6.02933e-07
8.16636e-07
8.16636e-07
8.16636e-07
9.28043e-07
9.28043e-07
9.28043e-07
1.31876e-06
1.31876e-06
1.31876e-06
1.19182e-06
1.19182e-06
1.19182e-06
1.15489e-06
1.15489e-06
1.15489e-06
8.7249e-07
8.7249e-07
8.7249e-07
5.49798e-07
5.49798e-07
5.49798e-07
5.35747e-07
5.35747e-07
5.35747e-07
4.77318e-07
4.77318e-07
4.77318e-07
4.89619e-07
4.89619e-07
4.89619e-07
5.05304e-07
5.05304e-07
5.05304e-07
5.03517e-07
5.03517e-07
5.03517e-07
4.88749e-07
4.88749e-07
4.88749e-07
5.2113e-07
5.2113e-07
5.2113e-07
5.19578e-07
5.19578e-07
5.19578e-07
7.44082e-07
7.44082e-07
7.44082e-07
6.48793e-07
6.48793e-07
6.48793e-07
3.1528e-06
3.1528e-06
3.1528e-06
2.14901e-06
2.14901e-06
2.14901e-06
2.26149e-06
2.26149e-06
2.26149e-06
2.46843e-06
2.46843e-06
2.46843e-06
2.3723e-06
2.3723e-06
2.3723e-06
2.52732e-06
2.52732e-06
2.52732e-06
2.64731e-06
2.64731e-06
2.64731e-06
1.409e-05
1.409e-05
1.409e-05
1.3933e-05
1.3933e-05
1.3933e-05
2.23421e-06
2.23421e-06
2.23421e-06
3.51101e-06
3.51101e-06
3.51101e-06
2.34852e-06
2.34852e-06
2.34852e-06
3.25004e-06
3.25004e-06
3.25004e-06
9.90423e-06
9.90423e-06
9.90423e-06
5.43326e-07
5.43326e-07
5.43326e-07
5.88168e-07
5.88168e-07
5.88168e-07
2.17619e-06
2.17619e-06
2.17619e-06
1.98055e-06
1.98055e-06
1.98055e-06
1.48863e-06
1.48863e-06
1.48863e-06
1.6482e-06
1.6482e-06
1.6482e-06
3.27617e-06
3.27617e-06
3.27617e-06
2.5279e-06
2.5279e-06
2.5279e-06
2.34673e-06
2.34673e-06
2.34673e-06
2.40752e-06
2.40752e-06
2.40752e-06
2.31313e-06
2.31313e-06
2.31313e-06
2.88882e-06
2.88882e-06
2.88882e-06
2.48317e-06
2.48317e-06
2.48317e-06
2.60241e-06
2.60241e-06
2.60241e-06
3.14403e-06
3.14403e-06
3.14403e-06
3.19825e-06
3.19825e-06
3.19825e-06
3.22189e-06
3.22189e-06
3.22189e-06
3.02334e-06
3.02334e-06
3.02334e-06
1.96107e-06
1.96107e-06
1.96107e-06
2.23767e-06
2.23767e-06
2.23767e-06
1.55104e-06
1.55104e-06
1.55104e-06
1.60846e-06
1.60846e-06
1.60846e-06
1.894e-06
1.894e-06
1.894e-06
1.74157e-06
1.74157e-06
1.74157e-06
1.8031e-06
1.8031e-06
1.8031e-06
1.64629e-06
1.64629e-06
1.64629e-06
1.65707e-06
1.65707e-06
1.65707e-06
1.74057e-06
1.74057e-06
1.74057e-06
1.81465e-06
1.81465e-06
1.81465e-06
1.41315e-06
1.41315e-06
1.41315e-06
1.40761e-06
1.40761e-06
1.40761e-06