<VTKFile type="UnstructuredGrid" version="1.0">
<UnstructuredGrid>
<Piece NumberOfPoints="10830" NumberOfCells="3610">
<Points>
<DataArray type="Float64" NumberOfComponents="3" format="ascii">
3.10314 1.29552 0.0257489
3.11025 1.28841 0
3.11025 1.28841 0.0514594
3.11025 1.28841 0.555078
3.11025 1.28841 0.605999
3.10226 1.2964 0.580532
3.11025 1.28841 0.555078
3.10226 1.2964 0.580532
3.09025 1.30841 0.555099
2.21656 2.1821 1.02759
2.22913 2.16953 1.045
2.19928 2.19938 1.045
2.19928 2.19938 1.045
2.19928 2.19938 1.01484
2.21656 2.1821 1.02759
3.11025 1.28841 0.555078
3.09025 1.30841 0.555099
3.10227 1.29639 0.529679
2.20538 2.19328 0.276786
2.19928 2.19938 0.302009
2.19928 2.19938 0.251574
3.10229 1.29637 0.2769
3.11025 1.28841 0.302091
3.09026 1.3084 0.302114
3.10214 1.29652 0.17634
3.11025 1.28841 0.151284
3.11025 1.28841 0.201394
3.09026 1.3084 0.302114
3.11025 1.28841 0.302091
3.1023 1.29636 0.327315
3.11025 1.28841 0.302091
3.11025 1.28841 0.352537
3.1023 1.29636 0.327315
3.09026 1.3084 0.352551
3.1023 1.29636 0.327315
3.11025 1.28841 0.352537
3.09025 1.30841 0.504308
3.10227 1.29639 0.529679
3.08043 1.31823 0.529697
3.08043 1.31823 0.529697
3.10227 1.29639 0.529679
3.09025 1.30841 0.555099
3.08043 1.31823 0.529697
3.06939 1.32927 0.504324
3.09025 1.30841 0.504308
3.08043 1.31823 0.529697
3.09025 1.30841 0.555099
3.06938 1.32928 0.555118
3.11025 1.28841 0.403041
3.11025 1.28841 0.453619
3.10229 1.29637 0.428326
3.10229 1.29637 0.428326
3.09026 1.3084 0.453633
3.08044 1.31822 0.428339
3.11025 1.28841 0.453619
3.09026 1.3084 0.453633
3.10229 1.29637 0.428326
3.11025 1.28841 0.504291
3.10227 1.29639 0.529679
3.09025 1.30841 0.504308
3.11025 1.28841 0.555078
3.10227 1.29639 0.529679
3.11025 1.28841 0.504291
3.0901 1.30856 0.151322
3.11025 1.28841 0.151284
3.10214 1.29652 0.17634
3.09024 1.30842 0.606025
3.10226 1.2964 0.580532
3.11025 1.28841 0.605999
2.80657 1.59209 0.785748
2.81699 1.58167 0.759978
2.8274 1.57126 0.785725
2.19928 2.19938 0
2.21889 2.17977 -5.6077e-14
2.20626 2.1924 0.024705
2.25868 2.13998 0.251587
2.23814 2.16052 0.251567
2.24806 2.1506 0.226374
2.21801 2.18065 0.251562
2.23814 2.16052 0.251567
2.22704 2.17162 0.276779
2.21801 2.18065 0.251562
2.20538 2.19328 0.276786
2.19928 2.19938 0.251574
2.22704 2.17162 0.276779
2.20538 2.19328 0.276786
2.21801 2.18065 0.251562
2.20547 2.19319 0.478941
2.19928 2.19938 0.504301
2.19928 2.19938 0.453605
2.21807 2.1806 0.504296
2.22712 2.17155 0.478935
2.23821 2.16045 0.504293
2.19928 2.19938 0.504301
2.20547 2.19319 0.478941
2.21807 2.1806 0.504296
2.21807 2.1806 0.504296
2.20547 2.19319 0.478941
2.22712 2.17155 0.478935
2.21805 2.18061 0.453601
2.2382 2.16046 0.453599
2.22712 2.17155 0.478935
2.21805 2.18061 0.453601
2.20547 2.19319 0.478941
2.19928 2.19938 0.453605
2.22712 2.17155 0.478935
2.20547 2.19319 0.478941
2.21805 2.18061 0.453601
2.19928 2.19938 0.302009
2.20538 2.19328 0.276786
2.21802 2.18064 0.302001
2.21802 2.18064 0.302001
2.20538 2.19328 0.276786
2.22704 2.17162 0.276779
2.23821 2.16045 0.504293
2.22712 2.17155 0.478935
2.24816 2.15051 0.478933
2.22712 2.17155 0.478935
2.2382 2.16046 0.453599
2.24816 2.15051 0.478933
2.40353 1.99513 0.453669
2.41386 1.9848 0.479013
2.3932 2.00546 0.479001
2.3932 2.00546 0.479001
2.41386 1.9848 0.479013
2.40354 1.99512 0.504372
2.40354 1.99512 0.504372
2.41386 1.9848 0.479013
2.4242 1.97446 0.504385
2.79618 1.60248 0.759998
2.81699 1.58167 0.759978
2.80657 1.59209 0.785748
3.10224 1.29642 0.226555
3.11025 1.28841 0.201394
3.11025 1.28841 0.251699
3.11025 1.28841 0.302091
3.10229 1.29637 0.2769
3.11025 1.28841 0.251699
3.02715 1.37151 0.403096
3.006 1.39266 0.40311
3.01659 1.38207 0.377846
3.09026 1.3084 0.403053
3.10229 1.29637 0.428326
3.08044 1.31822 0.428339
3.11025 1.28841 0.403041
3.10229 1.29637 0.428326
3.09026 1.3084 0.403053
3.08044 1.31822 0.428339
3.09026 1.3084 0.453633
3.0694 1.32926 0.453647
3.10228 1.29638 0.47895
3.09026 1.3084 0.453633
3.11025 1.28841 0.453619
3.11025 1.28841 0.453619
3.11025 1.28841 0.504291
3.10228 1.29638 0.47895
3.10228 1.29638 0.47895
3.11025 1.28841 0.504291
3.09025 1.30841 0.504308
3.08027 1.31839 0.176367
3.0901 1.30856 0.151322
3.10214 1.29652 0.17634
3.10224 1.29642 0.226555
3.11025 1.28841 0.251699
3.09024 1.30842 0.251744
3.09024 1.30842 0.251744
3.11025 1.28841 0.251699
3.10229 1.29637 0.2769
3.0165 1.38216 0.226614
3.00588 1.39278 0.201434
3.02702 1.37164 0.201432
3.04817 1.35049 0.201451
3.03759 1.36107 0.176261
3.05884 1.33982 0.176315
3.04817 1.35049 0.201451
3.02702 1.37164 0.201432
3.03759 1.36107 0.176261
3.08043 1.31823 0.276933
3.10229 1.29637 0.2769
3.09026 1.3084 0.302114
3.08043 1.31823 0.276933
3.09024 1.30842 0.251744
3.10229 1.29637 0.2769
3.08042 1.31824 0.580555
3.09025 1.30841 0.555099
3.10226 1.2964 0.580532
3.10226 1.2964 0.580532
3.09024 1.30842 0.606025
3.08042 1.31824 0.580555
3.06938 1.32928 0.555118
3.09025 1.30841 0.555099
3.08042 1.31824 0.580555
3.08041 1.31825 0.734055
3.05901 1.33965 0.734064
3.06938 1.32928 0.708373
3.05901 1.33966 0.682738
3.08041 1.31825 0.682719
3.06938 1.32928 0.708373
3.10225 1.29641 0.63153
3.09024 1.30842 0.606025
3.11025 1.28841 0.605999
3.08041 1.31825 0.631556
3.09024 1.30842 0.606025
3.10225 1.29641 0.63153
2.84822 1.55044 0.837317
2.85863 1.54003 0.86316
2.83776 1.5609 0.863195
2.96373 1.43493 0.708429
2.97428 1.42438 0.682792
2.98483 1.41383 0.708414
2.98483 1.41383 0.708414
2.97428 1.42438 0.682792
2.9954 1.40326 0.682778
3.06938 1.32929 0.657127
3.05901 1.33965 0.631578
3.08041 1.31825 0.631556
3.06938 1.32929 0.657127
3.08041 1.31825 0.682719
3.05901 1.33966 0.682738
2.95319 1.44547 0.682809
2.97428 1.42438 0.682792
2.96373 1.43493 0.708429
2.90067 1.49799 0.453738
2.87971 1.51895 0.453743
2.89018 1.50848 0.428435
2.84833 1.55033 0.42844
2.83789 1.56077 0.45375
2.82746 1.5712 0.428441
2.85878 1.53988 0.453747
2.83789 1.56077 0.45375
2.84833 1.55033 0.42844
2.83788 1.56078 0.35265
2.85877 1.53989 0.352655
2.84833 1.55034 0.377895
2.84833 1.55034 0.377895
2.82745 1.57121 0.377891
2.83788 1.56078 0.35265
2.83788 1.56078 0.35265
2.82745 1.57121 0.377891
2.81702 1.58164 0.352644
2.84833 1.55034 0.377895
2.85877 1.53989 0.352655
2.86924 1.52943 0.377896
2.87968 1.51898 0.302232
2.89017 1.50849 0.327437
2.86922 1.52944 0.327435
2.86922 1.52944 0.327435
2.85875 1.53991 0.302227
2.87968 1.51898 0.302232
2.72357 1.6751 0.479091
2.73392 1.66474 0.453749
2.74429 1.65437 0.479092
2.73392 1.66474 0.453749
2.75466 1.644 0.453751
2.74429 1.65437 0.479092
2.83789 1.56077 0.403156
2.82745 1.57121 0.377891
2.84833 1.55034 0.377895
2.83789 1.56077 0.403156
2.84833 1.55033 0.42844
2.82746 1.5712 0.428441
2.82746 1.5712 0.428441
2.80662 1.59204 0.42844
2.81703 1.58163 0.403154
2.81703 1.58163 0.403154
2.83789 1.56077 0.403156
2.82746 1.5712 0.428441
2.82745 1.57121 0.377891
2.83789 1.56077 0.403156
2.81703 1.58163 0.403154
2.81702 1.58164 0.352644
2.7962 1.60246 0.352637
2.8066 1.59206 0.327412
2.79618 1.60248 0.302193
2.81701 1.58166 0.302206
2.8066 1.59206 0.327412
2.42419 1.97447 0.45368
2.41386 1.9848 0.479013
2.40353 1.99513 0.453669
2.40353 1.99513 0.453669
2.41385 1.98481 0.428361
2.42419 1.97447 0.45368
2.20539 2.19327 0.0748701
2.19928 2.19938 0.100085
2.19928 2.19938 0.0494157
2.19928 2.19938 0
2.20626 2.1924 0.024705
2.19928 2.19938 0.0494157
2.21797 2.1807 0.150698
2.19928 2.19938 0.150672
2.20528 2.19338 0.12542
2.19928 2.19938 0.150672
2.19928 2.19938 0.100085
2.20528 2.19338 0.12542
3.11025 1.28841 0
3.10314 1.29552 0.0257489
3.0911 1.30756 1.13803e-14
2.19928 2.19938 0.251574
2.19928 2.19938 0.201144
2.20536 2.19331 0.226356
2.20536 2.19331 0.226356
2.21801 2.18065 0.251562
2.19928 2.19938 0.251574
2.21799 2.18067 0.201134
2.20536 2.19331 0.226356
2.19928 2.19938 0.201144
2.21799 2.18067 0.201134
2.22698 2.17168 0.175937
2.23811 2.16055 0.20116
2.22702 2.17165 0.226352
2.24806 2.1506 0.226374
2.23814 2.16052 0.251567
2.23814 2.16052 0.251567
2.21801 2.18065 0.251562
2.22702 2.17165 0.226352
2.23811 2.16055 0.20116
2.24806 2.1506 0.226374
2.22702 2.17165 0.226352
2.22702 2.17165 0.226352
2.21799 2.18067 0.201134
2.23811 2.16055 0.20116
2.21801 2.18065 0.251562
2.20536 2.19331 0.226356
2.22702 2.17165 0.226352
2.20536 2.19331 0.226356
2.21799 2.18067 0.201134
2.22702 2.17165 0.226352
2.20532 2.19334 0.175915
2.19928 2.19938 0.201144
2.19928 2.19938 0.150672
2.20532 2.19334 0.175915
2.19928 2.19938 0.150672
2.21797 2.1807 0.150698
2.21797 2.1807 0.150698
2.22698 2.17168 0.175937
2.20532 2.19334 0.175915
2.20532 2.19334 0.175915
2.21799 2.18067 0.201134
2.19928 2.19938 0.201144
2.22698 2.17168 0.175937
2.21799 2.18067 0.201134
2.20532 2.19334 0.175915
2.24814 2.15052 0.428289
2.2382 2.16046 0.453599
2.2271 2.17156 0.428289
2.2382 2.16046 0.453599
2.21805 2.18061 0.453601
2.2271 2.17156 0.428289
2.2271 2.17156 0.428289
2.23819 2.16048 0.402998
2.24814 2.15052 0.428289
2.24809 2.15058 0.276785
2.23814 2.16052 0.251567
2.25868 2.13998 0.251587
2.22704 2.17162 0.276779
2.23814 2.16052 0.251567
2.24809 2.15058 0.276785
2.26891 2.12975 0.276801
2.24809 2.15058 0.276785
2.25868 2.13998 0.251587
2.2587 2.13996 0.302008
2.24809 2.15058 0.276785
2.26891 2.12975 0.276801
2.2587 2.13996 0.302008
2.26891 2.12975 0.276801
2.27936 2.1193 0.302022
2.41384 1.98482 0.3778
2.42418 1.97448 0.403074
2.40352 1.99515 0.403066
2.40352 1.99515 0.403066
2.42418 1.97448 0.403074
2.41385 1.98481 0.428361
2.33114 2.06753 0.428318
2.35183 2.04683 0.428329
2.34149 2.05717 0.453634
2.34148 2.05718 0.403035
2.35183 2.04683 0.428329
2.33114 2.06753 0.428318
2.35182 2.04684 0.377773
2.34147 2.05719 0.352518
2.36216 2.03651 0.352528
2.34148 2.05718 0.403035
2.33112 2.06754 0.377762
2.35182 2.04684 0.377773
2.35182 2.04684 0.377773
2.33112 2.06754 0.377762
2.34147 2.05719 0.352518
2.35184 2.04682 0.478975
2.37253 2.02613 0.478988
2.3622 2.03646 0.504344
2.31047 2.08819 0.529699
2.32082 2.07785 0.504317
2.33117 2.06749 0.529712
2.3208 2.07786 0.453623
2.33114 2.06753 0.428318
2.34149 2.05717 0.453634
2.31043 2.08823 0.428308
[...]
<PointData Scalars="View Factor" >
<DataArray type="Float64" Name="View Factor" NumberOfComponents="1" format="ascii">
0.00504773
0.00504773
0.00504773
0.00350976
0.00350976
0.00350976
0.00352577
0.00352577
0.00352577
0.000318045
0.000318045
0.000318045
0.00016279
0.00016279
0.00016279
0.00356375
0.00356375
0.00356375
0.00163156
0.00163156
0.00163156
0.00419307
0.00419307
0.00419307
0.00455877
0.00455877
0.00455877
0.00414714
0.00414714
0.00414714
0.00412709
0.00412709
0.00412709
0.00405729
0.00405729
0.00405729
0.0035882
0.0035882
0.0035882
0.00355001
0.00355001
0.00355001
0.00357065
0.00357065
0.00357065
0.00349503
0.00349503
0.00349503
0.00386599
0.00386599
0.00386599
0.00378672
0.00378672
0.00378672
0.00380112
0.00380112
0.00380112
0.0036408
0.0036408
0.0036408
0.00362411
0.00362411
0.00362411
0.00458147
0.00458147
0.00458147
0.00345143
0.00345143
0.00345143
0.000163025
0.000163025
0.000163025
0.00247906
0.00247906
0.00247906
0.00207617
0.00207617
0.00207617
0.00200759
0.00200759
0.00200759
0.00182096
0.00182096
0.00182096
0.0017255
0.0017255
0.0017255
0.000453562
0.000453562
0.000453562
0.00123832
0.00123832
0.00123832
0.000437548
0.000437548
0.000437548
0.000686822
0.000686822
0.000686822
0.00129591
0.00129591
0.00129591
0.000504084
0.000504084
0.000504084
0.000710305
0.000710305
0.000710305
0.00144282
0.00144282
0.00144282
0.00153418
0.00153418
0.00153418
0.00122476
0.00122476
0.00122476
0.00125438
0.00125438
0.00125438
0.000475883
0.000475883
0.000475883
0.000433705
0.000433705
0.000433705
0.000416341
0.000416341
0.000416341
0.000167283
0.000167283
0.000167283
0.00440937
0.00440937
0.00440937
0.00426549
0.00426549
0.00426549
0.00361974
0.00361974
0.00361974
0.00382789
0.00382789
0.00382789
0.00388427
0.00388427
0.00388427
0.00372783
0.00372783
0.00372783
0.00376025
0.00376025
0.00376025
0.00374278
0.00374278
0.00374278
0.00368017
0.00368017
0.00368017
0.00451399
0.00451399
0.00451399
0.00433411
0.00433411
0.00433411
0.00428642
0.00428642
0.00428642
0.00408408
0.00408408
0.00408408
0.00428604
0.00428604
0.00428604
0.00421808
0.00421808
0.00421808
0.00417748
0.00417748
0.00417748
0.00422377
0.00422377
0.00422377
0.0034749
0.0034749
0.0034749
0.00343805
0.00343805
0.00343805
0.00345784
0.00345784
0.00345784
0.00309584
0.00309584
0.00309584
0.00316186
0.00316186
0.00316186
0.00341482
0.00341482
0.00341482
0.00336565
0.00336565
0.00336565
0.00137544
0.00137544
0.00137544
0.00285887
0.00285887
0.00285887
0.00290597
0.00290597
0.00290597
0.00326383
0.00326383
0.00326383
0.00319548
0.00319548
0.00319548
0.00284198
0.00284198
0.00284198
0.00305512
0.00305512
0.00305512
0.00177532
0.00177532
0.00177532
0.00242504
0.00242504
0.00242504
0.00295464
0.00295464
0.00295464
0.00225924
0.00225924
0.00225924
0.00135653
0.00135653
0.00135653
0.00308977
0.00308977
0.00308977
0.00327323
0.00327323
0.00327323
0.0032504
0.0032504
0.0032504
0.00061747
0.00061747
0.00061747
0.00065658
0.00065658
0.00065658
0.00211364
0.00211364
0.00211364
0.00187345
0.00187345
0.00187345
0.00091616
0.00091616
0.00091616
0.000977004
0.000977004
0.000977004
0.0010859
0.0010859
0.0010859
0.00148589
0.00148589
0.00148589
0.00189957
0.00189957
0.00189957
0.000499038
0.000499038
0.000499038
0.00054776
0.00054776
0.00054776
0.00237865
0.00237865
0.00237865
0.00245621
0.00245621
0.00245621
0.00227566
0.00227566
0.00227566
0.0023032
0.0023032
0.0023032
0.00507727
0.00507727
0.00507727
0.00212578
0.00212578
0.00212578
0.00199318
0.00199318
0.00199318
0.00218121
0.00218121
0.00218121
0.00219585
0.00219585
0.00219585
0.00211477
0.00211477
0.00211477
0.00208683
0.00208683
0.00208683
0.00215767
0.00215767
0.00215767
0.0021728
0.0021728
0.0021728
0.00206297
0.00206297
0.00206297
0.00215828
0.00215828
0.00215828
0.00223077
0.00223077
0.00223077
0.00225166
0.00225166
0.00225166
0.00223559
0.00223559
0.00223559
0.00220435
0.00220435
0.00220435
0.00221198
0.00221198
0.00221198
0.00132075
0.00132075
0.00132075
0.00132827
0.00132827
0.00132827
0.0013582
0.0013582
0.0013582
0.00199217
0.00199217
0.00199217
0.00195552
0.00195552
0.00195552
0.00193757
0.00193757
0.00193757
0.00183725
0.00183725
0.00183725
0.00177437
0.00177437
0.00177437
0.000738614
0.000738614
0.000738614
0.000666949
0.000666949
0.000666949
0.000573269
0.000573269
0.000573269
0.000631708
0.000631708
0.000631708
0.000909414
0.000909414
0.000909414
0.00077423
0.00077423
0.00077423
0.000860777
0.000860777
0.000860777
0.000433404
0.000433404
0.000433404
0.00036382
0.00036382
0.00036382
0.000545769
0.000545769
0.000545769
0.000572855
0.000572855
0.000572855
0.0011839
0.0011839
0.0011839
0.00135323
0.00135323
0.00135323
0.00130782
0.00130782
0.00130782
0.000630918
0.000630918
0.000630918
0.00124287
0.00124287
0.00124287
0.00127624
0.00127624
0.00127624
0.00126906
0.00126906
0.00126906
0.000261583
0.000261583
0.000261583
0.000154881
0.000154881
0.000154881
0.00023127
0.00023127
0.00023127
0.000498408
0.000498408
0.000498408
0.000475372
0.000475372
0.000475372
0.000380489
0.000380489
0.000380489
0.000416155
0.000416155
0.000416155
0.000415767
0.000415767
0.000415767
0.000433643
0.000433643
0.000433643
0.000380797
0.000380797
0.000380797
0.000364292
0.000364292
0.000364292
0.000321287
0.000321287
0.000321287
0.00033486
0.00033486
0.00033486
0.000334464
0.000334464
0.000334464
0.000364141
0.000364141
0.000364141
0.000262085
0.000262085
0.000262085
0.000233236
0.000233236
0.000233236
0.000224342
0.000224342
0.000224342
0.000200733
0.000200733
0.000200733
0.000207918
0.000207918
0.000207918
0.00033511
0.00033511
0.00033511
0.000380812
0.000380812
0.000380812
0.000364556
0.000364556
0.000364556
0.00015165
0.00015165
0.00015165
0.000148223
0.000148223
0.000148223
0.000159362
0.000159362
0.000159362
0.000163461
0.000163461
0.000163461
0.000162501
0.000162501
0.000162501
0.000170203
0.000170203
0.000170203
0.000217249
0.000217249
0.000217249
0.000174919
0.000174919
0.000174919
5.42251e-05
5.42251e-05
5.42251e-05
5.54759e-05
5.54759e-05
5.54759e-05
5.07314e-05
5.07314e-05
5.07314e-05
4.85341e-05
4.85341e-05
4.85341e-05
5.91539e-05
5.91539e-05
5.91539e-05
6.22724e-05
6.22724e-05
6.22724e-05
6.08405e-05
6.08405e-05
6.08405e-05
5.70553e-05
5.70553e-05
5.70553e-05
6.25153e-05
6.25153e-05
6.25153e-05
6.40198e-05
6.40198e-05
6.40198e-05
6.79736e-05
6.79736e-05
6.79736e-05
4.99157e-05
4.99157e-05
4.99157e-05
5.86277e-05
5.86277e-05
5.86277e-05
5.57417e-05
5.57417e-05
5.57417e-05
5.21499e-05
5.21499e-05
5.21499e-05
5.1286e-05
5.1286e-05
5.1286e-05
5.66986e-05
5.66986e-05
5.66986e-05
0.0023568
0.0023568
0.0023568
0.00181398
0.00181398
0.00181398
0.00230223
0.00230223
0.00230223
0.00243742
0.00243742
0.00243742
0.00236359
0.00236359
0.00236359
0.00349952
0.00349952
0.00349952
0.00347931
0.00347931
0.00347931
0.00351669
0.00351669
0.00351669
0.00344548
0.00344548
0.00344548
0.00336854
0.00336854
0.00336854
0.00333187
0.00333187
0.00333187
0.00342858
0.00342858
0.00342858
0.00342921
0.00342921
0.00342921
0.00341012
0.00341012
0.00341012
0.00392674
0.00392674
0.00392674
0.00391198
0.00391198
0.00391198
0.00399401
0.00399401
0.00399401
0.00401315
0.00401315
0.00401315
0.00395476
0.00395476
0.00395476
0.00352024
0.00352024
0.00352024
0.00353734
0.00353734
0.00353734
0.00360924
0.00360924
0.00360924
0.00368775
0.00368775
0.00368775
0.00359311
0.00359311
0.00359311
0.00363196
0.00363196
0.00363196
0.00366609
0.00366609
0.00366609
0.00370577
0.00370577
0.00370577
0.00443122
0.00443122
0.00443122
0.00448068
0.00448068
0.00448068
0.00446403
0.00446403
0.00446403
0.00463266
0.00463266
0.00463266
0.0041298
0.0041298
0.0041298
0.00419734
0.00419734
0.00419734
0.00420363
0.00420363
0.00420363
0.00416533
0.00416533
0.00416533
0.00413937
0.00413937
0.00413937
0.00411966
0.00411966
0.00411966
0.00338491
0.00338491
0.00338491
0.00334906
0.00334906
0.00334906
0.00329861
0.00329861
0.00329861
0.00306343
0.00306343
0.00306343
0.00277461
0.00277461
0.00277461
0.00218733
0.00218733
0.00218733
0.000151661
0.000151661
0.000151661
0.000183086
0.000183086
0.000183086
0.000171074
0.000171074
0.000171074
0.0028289
0.0028289
0.0028289
0.00277008
0.00277008
0.00277008
0.00293959
0.00293959
0.00293959
0.00297066
0.00297066
0.00297066
0.00317025
0.00317025
0.00317025
0.00335427
0.00335427
0.00335427
0.00327938
0.00327938
0.00327938
0.00333475
0.00333475
0.00333475
0.00316033
0.00316033
0.00316033
0.00314142
0.00314142
0.00314142
0.00308899
0.00308899
0.00308899
0.00327872
0.00327872
0.00327872
0.00324425
0.00324425
0.00324425
0.00333015
0.00333015
0.00333015
0.00308051
0.00308051
0.00308051
0.00303323
0.00303323
0.00303323
0.00311319
0.00311319
0.00311319
0.00309792
0.00309792
0.00309792
0.00301771
0.00301771
0.00301771
0.00304972
0.00304972
0.00304972
0.00320456
0.00320456
0.00320456
0.0032949
0.0032949
0.0032949
0.00325951
0.00325951
0.00325951
0.00312164
0.00312164
0.00312164
0.000796646
0.000796646
0.000796646
0.000829037
0.000829037
0.000829037
0.00233509
0.00233509
0.00233509
0.000510481
0.000510481
0.000510481
0.000493961
0.000493961
0.000493961
0.000665919
0.000665919
0.000665919
0.000707462
0.000707462
0.000707462
0.000778073
0.000778073
0.000778073
0.000809372
0.000809372
0.000809372
0.000690573
0.000690573
0.000690573
0.000759404
0.000759404
0.000759404
0.000603685
0.000603685
0.000603685
0.000587339
0.000587339
0.000587339
0.000535787
0.000535787
0.000535787
0.000506038
0.000506038
0.000506038
0.000523185
0.000523185
0.000523185
0.000573443
0.000573443
0.000573443
0.00284243
0.00284243
0.00284243
0.00296963
0.00296963
0.00296963
0.00303412
0.00303412
0.00303412
0.00306692
0.00306692
0.00306692
0.000293545
0.000293545
0.000293545
0.000464165
0.000464165
0.000464165
0.000308882
0.000308882
0.000308882
0.00152305
0.00152305
0.00152305
0.00194813
0.00194813
0.00194813
0.0016027
0.0016027
0.0016027
0.00181821
0.00181821
0.00181821
0.003169
0.003169
0.003169
0.00279227
0.00279227
0.00279227
0.00260772
0.00260772
0.00260772
0.00304878
0.00304878
0.00304878
0.00315753
0.00315753
0.00315753
0.00319221
0.00319221
0.00319221
0.00313392
0.00313392
0.00313392
0.00315561
0.00315561
0.00315561
0.000629657
0.000629657
0.000629657
0.000694336
0.000694336
0.000694336
0.000407894
0.000407894
0.000407894
0.000420116
0.000420116
0.000420116
0.000649907
0.000649907
0.000649907
0.000607635
0.000607635
0.000607635
0.000364756
0.000364756
0.000364756
0.000374403
0.000374403
0.000374403
0.000353819
0.000353819
0.000353819
0.00033513
0.00033513
0.00033513
0.000316025
0.000316025
0.000316025
0.000325114
0.000325114
0.000325114
0.000721841
0.000721841
0.000721841
0.000884183
0.000884183
0.000884183
0.000828226
0.000828226
0.000828226
0.000749871
0.000749871
0.000749871
0.000545458
0.000545458
0.000545458
0.000559949
0.000559949
0.000559949
0.000861578
0.000861578
0.000861578
0.000639494
0.000639494
0.000639494
0.000702928
0.000702928
0.000702928
0.000982097
0.000982097
0.000982097
0.00185159
0.00185159
0.00185159
0.00177248
0.00177248
0.00177248
0.00156284
0.00156284
0.00156284
0.000953899
0.000953899
0.000953899
0.000894282
0.000894282
0.000894282
0.00103416
0.00103416
0.00103416
0.000930736
0.000930736
0.000930736
0.00129495
0.00129495
0.00129495
0.0010181
0.0010181
0.0010181
0.000910602
0.000910602
0.000910602
0.000861833
0.000861833
0.000861833
0.00129083
0.00129083
0.00129083
0.0010849
0.0010849
0.0010849
0.00122155
0.00122155
0.00122155
0.00197781
0.00197781
0.00197781
0.00210613
0.00210613
0.00210613
0.00206627
0.00206627
0.00206627
0.000866556
0.000866556
0.000866556
0.000779112
0.000779112
0.000779112
0.000609346
0.000609346
0.000609346
0.000588414
0.000588414
0.000588414
0.000535698
0.000535698
0.000535698
0.00050233
0.00050233
0.00050233
0.000445737
0.000445737
0.000445737
0.000455915
0.000455915
0.000455915
0.00470376
0.00470376
0.00470376
0.0050027
0.0050027
0.0050027
0.00498258
0.00498258
0.00498258
0.00446218
0.00446218
0.00446218
0.00451764
0.00451764
0.00451764
0.00456803
0.00456803
0.00456803
0.00386399
0.00386399
0.00386399
0.00395078
0.00395078
0.00395078
0.000349986
0.000349986
0.000349986
0.000411951
0.000411951
0.000411951
0.000600953
0.000600953
0.000600953
0.000547727
0.000547727
0.000547727
0.000763629
0.000763629
0.000763629
0.000816075
0.000816075
0.000816075
0.0009085
0.0009085
0.0009085
0.00154451
0.00154451
0.00154451
0.000931982
0.000931982
0.000931982
0.00127971
0.00127971
0.00127971
0.00113793
0.00113793
0.00113793
0.00101454
0.00101454
0.00101454
0.00120701
0.00120701
0.00120701
0.00109412
0.00109412
0.00109412
0.00160297
0.00160297
0.00160297
0.00161726
0.00161726
0.00161726
0.00165747
0.00165747
0.00165747
0.00168024
0.00168024
0.00168024
0.00182706
0.00182706
0.00182706
0.00186144
0.00186144
0.00186144
0.00174327
0.00174327
0.00174327
0.00169132
0.00169132
0.00169132
0.0018003
0.0018003
0.0018003
0.00171139
0.00171139
0.00171139
0.00149593
0.00149593
0.00149593
0.00144511
0.00144511
0.00144511
0.00139758
0.00139758
0.00139758
0.00139841
0.00139841
0.00139841
0.000737287
0.000737287
0.000737287
0.00077624
0.00077624
0.00077624
0.000863164
0.000863164
0.000863164
0.000777555
0.000777555
0.000777555
0.000575217
0.000575217
0.000575217
0.000634013
0.000634013
0.000634013
0.000547031
0.000547031
0.000547031
0.000665835
0.000665835
0.000665835
0.000633083
0.000633083
0.000633083
0.000574462
0.000574462
0.000574462
0.000631253
0.000631253
0.000631253
0.000773509
0.000773509
0.000773509
0.000663566
0.000663566
0.000663566
0.000734715
0.000734715
0.000734715
0.000663104
0.000663104
0.000663104
0.000734165
0.000734165
0.000734165
0.000474753
0.000474753
0.000474753
0.000497053
0.000497053
0.000497053
0.000415449
0.000415449
0.000415449
0.00038015
0.00038015
0.00038015
0.000415199
0.000415199
0.000415199
0.000433425
0.000433425
0.000433425
0.000363958
0.000363958
0.000363958
0.000380347
0.000380347
0.000380347
0.000282908
0.000282908
0.000282908
0.000295338
0.000295338
0.000295338
0.000320797
0.000320797
0.000320797
0.000334321
0.000334321
0.000334321
0.000320692
0.000320692
0.000320692
0.00028283
0.00028283
0.00028283
0.000295296
0.000295296
0.000295296
0.000380175
0.000380175
0.000380175
0.00135048
0.00135048
0.00135048
0.00120462
0.00120462
0.00120462
0.00130428
0.00130428
0.00130428
0.00125827
0.00125827
0.00125827
0.00117026
0.00117026
0.00117026
0.00120063
0.00120063
0.00120063
0.00114766
0.00114766
0.00114766
0.0011902
0.0011902
0.0011902
0.00121815
0.00121815
0.00121815
0.00122457
0.00122457
0.00122457
0.00026155
0.00026155
0.00026155
0.000745936
0.000745936
0.000745936
0.000251535
0.000251535
0.000251535
0.000960196
0.000960196
0.000960196
0.000992038
0.000992038
0.000992038
0.000722804
0.000722804
0.000722804
0.000251615
0.000251615
0.000251615
0.000251469
0.000251469
0.000251469
0.000233049
0.000233049
0.000233049
0.000224254
0.000224254
0.000224254
0.000233087
0.000233087
0.000233087
0.000167333
0.000167333
0.000167333
0.00079364
0.00079364
0.00079364
0.00072187
0.00072187
0.00072187
0.000179183
0.000179183
0.000179183
0.000241181
0.000241181
0.000241181
0.000457477
0.000457477
0.000457477
0.000221722
0.000221722
0.000221722
0.000166144
0.000166144
0.000166144
0.000226238
0.000226238
0.000226238
0.000435723
0.000435723
0.000435723
0.000236011
0.000236011
0.000236011
0.000442799
0.000442799
0.000442799
0.000927576
0.000927576
0.000927576
0.00091577
0.00091577
0.00091577
0.000474944
0.000474944
0.000474944
0.000497875
0.000497875
0.000497875
0.000546725
0.000546725
0.000546725
0.000573812
0.000573812
0.000573812
0.000546183
0.000546183
0.000546183
0.00049743
0.00049743
0.00049743
0.000321093
0.000321093
0.000321093
0.000320928
0.000320928
0.000320928
0.000334644
0.000334644
0.000334644
0.000295561
0.000295561
0.000295561
0.000252502
0.000252502
0.000252502
0.000297475
0.000297475
0.000297475
0.000284955
0.000284955
0.000284955
0.000283816
0.000283816
0.000283816
0.000233172
0.000233172
0.000233172
0.000252137
0.000252137
0.000252137
0.00025198
0.00025198
0.00025198
0.000262248
0.000262248
0.000262248
0.000321526
0.000321526
0.000321526
0.000295883
0.000295883
0.000295883
0.000296072
0.000296072
0.000296072
0.000283582
0.000283582
0.000283582
0.00036488
0.00036488
0.00036488
0.000335412
0.000335412
0.000335412
0.000335738
0.000335738
0.000335738
0.000321795
0.000321795
0.000321795
0.000132481
0.000132481
0.000132481
0.000123474
0.000123474
0.000123474
0.000135873
0.000135873
0.000135873
0.00013791
0.00013791
0.00013791
0.000155524
0.000155524
0.000155524
0.000166667
0.000166667
0.000166667
0.000141379
0.000141379
0.000141379
0.000151947
0.000151947
0.000151947
0.000155669
0.000155669
0.000155669
0.000159383
0.000159383
0.000159383
0.000228093
0.000228093
0.000228093
0.000206888
0.000206888
0.000206888
0.000192066
0.000192066
0.000192066
0.000201695
0.000201695
0.000201695
0.000211877
0.000211877
0.000211877
0.000187246
0.000187246
0.000187246
0.000183194
0.000183194
0.000183194
0.000240114
0.000240114
0.000240114
0.000233878
0.000233878
0.000233878
0.000259242
0.000259242
0.000259242
0.000271801
0.000271801
0.000271801
0.00018783
0.00018783
0.00018783
0.000178773
0.000178773
0.000178773
0.000170812
0.000170812
0.000170812
0.00017451
0.00017451
0.00017451
0.000212052
0.000212052
0.000212052
0.000196847
0.000196847
0.000196847
0.000192436
0.000192436
0.000192436
0.000179024
0.000179024
0.000179024
0.000183021
0.000183021
0.000183021
0.00018725
0.00018725
0.00018725
0.000201548
0.000201548
0.000201548
0.000354014
0.000354014
0.000354014
0.00032695
0.00032695
0.00032695
0.000265047
0.000265047
0.000265047
0.000301294
0.000301294
0.000301294
0.000326531
0.000326531
0.000326531
0.000293666
0.000293666
0.000293666
0.000286229
0.000286229
0.000286229
0.000335598
0.000335598
0.000335598
0.000318263
0.000318263
0.000318263
0.000169991
0.000169991
0.000169991
0.000173495
0.000173495
0.000173495
8.72928e-05
8.72928e-05
8.72928e-05
4.96241e-05
4.96241e-05
4.96241e-05
6.05205e-05
6.05205e-05
6.05205e-05
6.56186e-05
6.56186e-05
6.56186e-05
6.42595e-05
6.42595e-05
6.42595e-05
0.000126624
0.000126624
0.000126624
0.000120985
0.000120985
0.000120985
0.000200072
0.000200072
0.000200072
0.000207695
0.000207695
0.000207695
5.06909e-05
5.06909e-05
5.06909e-05
8.58992e-05
8.58992e-05
8.58992e-05
0.000186339
0.000186339
0.000186339
9.86811e-05
9.86811e-05
9.86811e-05
7.77034e-05
7.77034e-05
7.77034e-05
0.000256626
0.000256626
0.000256626
0.000195592
0.000195592
0.000195592
0.000129234
0.000129234
0.000129234
0.000135899
0.000135899
0.000135899
0.000148369
0.000148369
0.000148369
0.000145476
0.000145476
0.000145476
9.07009e-05
9.07009e-05
9.07009e-05
7.22046e-05
7.22046e-05
7.22046e-05
6.94799e-05
6.94799e-05
6.94799e-05
6.75557e-05
6.75557e-05
6.75557e-05
6.61248e-05
6.61248e-05
6.61248e-05
0.00011069
0.00011069
0.00011069
0.000120259
0.000120259
0.000120259
0.000118744
0.000118744
0.000118744
9.8557e-05
9.8557e-05
9.8557e-05
9.35299e-05
9.35299e-05
9.35299e-05
9.56248e-05
9.56248e-05
9.56248e-05
0.00010553
0.00010553
0.00010553
0.000144467
0.000144467
0.000144467
0.000134411
0.000134411
0.000134411
5.80317e-05
5.80317e-05
5.80317e-05
5.91221e-05
5.91221e-05
5.91221e-05
5.72537e-05
5.72537e-05
5.72537e-05
5.26518e-05
5.26518e-05
5.26518e-05
5.35583e-05
5.35583e-05
5.35583e-05
5.53589e-05
5.53589e-05
5.53589e-05
5.77447e-05
5.77447e-05
5.77447e-05
6.17298e-05
6.17298e-05
6.17298e-05
6.32858e-05
6.32858e-05
6.32858e-05
0.00168555
0.00168555
0.00168555
0.00149501
0.00149501
0.00149501
0.00235405
0.00235405
0.00235405
0.00229794
0.00229794
0.00229794
0.00234253
0.00234253
0.00234253
0.00224056
0.00224056
0.00224056
0.00221113
0.00221113
0.00221113
0.00237655
0.00237655
0.00237655
0.00233286
0.00233286
0.00233286
0.00217476
0.00217476
0.00217476
0.00220434
0.00220434
0.00220434
0.00256279
0.00256279
0.00256279
0.00280381
0.00280381
0.00280381
0.00260595
0.00260595
0.00260595
0.00265352
0.00265352
0.00265352
0.00265002
0.00265002
0.00265002
0.00259887
0.00259887
0.00259887
0.00257678
0.00257678
0.00257678
0.00342544
0.00342544
0.00342544
0.00340882
0.00340882
0.00340882
0.00330287
0.00330287
0.00330287
0.00326779
0.00326779
0.00326779
0.0033924
0.0033924
0.0033924