<VTKFile type="UnstructuredGrid" version="1.0">
<UnstructuredGrid>
<Piece NumberOfPoints="10830" NumberOfCells="3610">
<Points>
<DataArray type="Float64" NumberOfComponents="3" format="ascii">
2.19217 2.20649 8.38575
2.19928 2.19938 8.36
2.19928 2.19938 8.41146
2.19928 2.19938 8.91508
2.19928 2.19938 8.966
2.19129 2.20737 8.94053
2.19928 2.19938 8.91508
2.19129 2.20737 8.94053
2.17928 2.21938 8.9151
1.30559 3.09307 9.38759
1.31816 3.0805 9.405
1.28831 3.11035 9.405
1.28831 3.11035 9.405
1.28831 3.11035 9.37484
1.30559 3.09307 9.38759
2.19928 2.19938 8.91508
2.17928 2.21938 8.9151
2.1913 2.20736 8.88968
1.29441 3.10425 8.63679
1.28831 3.11035 8.66201
1.28831 3.11035 8.61157
2.19132 2.20734 8.6369
2.19928 2.19938 8.66209
2.17929 2.21937 8.66211
2.19117 2.20749 8.53634
2.19928 2.19938 8.51128
2.19928 2.19938 8.56139
2.17929 2.21937 8.66211
2.19928 2.19938 8.66209
2.19133 2.20733 8.68731
2.19928 2.19938 8.66209
2.19928 2.19938 8.71254
2.19133 2.20733 8.68731
2.17929 2.21937 8.71255
2.19133 2.20733 8.68731
2.19928 2.19938 8.71254
2.17928 2.21938 8.86431
2.1913 2.20736 8.88968
2.16946 2.22921 8.8897
2.16946 2.22921 8.8897
2.1913 2.20736 8.88968
2.17928 2.21938 8.9151
2.16946 2.22921 8.8897
2.15842 2.24024 8.86432
2.17928 2.21938 8.86431
2.16946 2.22921 8.8897
2.17928 2.21938 8.9151
2.15841 2.24025 8.91512
2.19928 2.19938 8.76304
2.19928 2.19938 8.81362
2.19132 2.20734 8.78833
2.19132 2.20734 8.78833
2.17929 2.21937 8.81363
2.16947 2.22919 8.78834
2.19928 2.19938 8.81362
2.17929 2.21937 8.81363
2.19132 2.20734 8.78833
2.19928 2.19938 8.86429
2.1913 2.20736 8.88968
2.17928 2.21938 8.86431
2.19928 2.19938 8.91508
2.1913 2.20736 8.88968
2.19928 2.19938 8.86429
2.17913 2.21954 8.51132
2.19928 2.19938 8.51128
2.19117 2.20749 8.53634
2.17927 2.21939 8.96603
2.19129 2.20737 8.94053
2.19928 2.19938 8.966
1.8956 2.50306 9.14575
1.90602 2.49264 9.11998
1.91643 2.48223 9.14572
1.28831 3.11035 8.36
1.30792 3.09074 8.36
1.29529 3.10337 8.3847
1.34771 3.05096 8.61159
1.32717 3.07149 8.61157
1.33709 3.06157 8.58637
1.30704 3.09162 8.61156
1.32717 3.07149 8.61157
1.31607 3.08259 8.63678
1.30704 3.09162 8.61156
1.29441 3.10425 8.63679
1.28831 3.11035 8.61157
1.31607 3.08259 8.63678
1.29441 3.10425 8.63679
1.30704 3.09162 8.61156
1.2945 3.10417 8.83894
1.28831 3.11035 8.8643
1.28831 3.11035 8.81361
1.3071 3.09157 8.8643
1.31615 3.08252 8.83893
1.32724 3.07142 8.86429
1.28831 3.11035 8.8643
1.2945 3.10417 8.83894
1.3071 3.09157 8.8643
1.3071 3.09157 8.8643
1.2945 3.10417 8.83894
1.31615 3.08252 8.83893
1.30708 3.09158 8.8136
1.32723 3.07143 8.8136
1.31615 3.08252 8.83893
1.30708 3.09158 8.8136
1.2945 3.10417 8.83894
1.28831 3.11035 8.81361
1.31615 3.08252 8.83893
1.2945 3.10417 8.83894
1.30708 3.09158 8.8136
1.28831 3.11035 8.66201
1.29441 3.10425 8.63679
1.30705 3.09161 8.662
1.30705 3.09161 8.662
1.29441 3.10425 8.63679
1.31607 3.08259 8.63678
1.32724 3.07142 8.86429
1.31615 3.08252 8.83893
1.33718 3.06148 8.83893
1.31615 3.08252 8.83893
1.32723 3.07143 8.8136
1.33718 3.06148 8.83893
1.49256 2.90611 8.81367
1.50289 2.89577 8.83901
1.48223 2.91643 8.839
1.48223 2.91643 8.839
1.50289 2.89577 8.83901
1.49257 2.90609 8.86437
1.49257 2.90609 8.86437
1.50289 2.89577 8.83901
1.51323 2.88543 8.86438
1.88521 2.51346 9.12
1.90602 2.49264 9.11998
1.8956 2.50306 9.14575
2.19127 2.20739 8.58656
2.19928 2.19938 8.56139
2.19928 2.19938 8.6117
2.19928 2.19938 8.66209
2.19132 2.20734 8.6369
2.19928 2.19938 8.6117
2.11618 2.28248 8.7631
2.09503 2.30363 8.76311
2.10562 2.29304 8.73785
2.17929 2.21937 8.76305
2.19132 2.20734 8.78833
2.16947 2.22919 8.78834
2.19928 2.19938 8.76304
2.19132 2.20734 8.78833
2.17929 2.21937 8.76305
2.16947 2.22919 8.78834
2.17929 2.21937 8.81363
2.15843 2.24024 8.81365
2.19131 2.20735 8.83895
2.17929 2.21937 8.81363
2.19928 2.19938 8.81362
2.19928 2.19938 8.81362
2.19928 2.19938 8.86429
2.19131 2.20735 8.83895
2.19131 2.20735 8.83895
2.19928 2.19938 8.86429
2.17928 2.21938 8.86431
2.1693 2.22936 8.53637
2.17913 2.21954 8.51132
2.19117 2.20749 8.53634
2.19127 2.20739 8.58656
2.19928 2.19938 8.6117
2.17927 2.21939 8.61174
2.17927 2.21939 8.61174
2.19928 2.19938 8.6117
2.19132 2.20734 8.6369
2.10553 2.29313 8.58661
2.09491 2.30375 8.56143
2.11605 2.28261 8.56143
2.1372 2.26147 8.56145
2.12662 2.27204 8.53626
2.14787 2.25079 8.53631
2.1372 2.26147 8.56145
2.11605 2.28261 8.56143
2.12662 2.27204 8.53626
2.16946 2.2292 8.63693
2.19132 2.20734 8.6369
2.17929 2.21937 8.66211
2.16946 2.2292 8.63693
2.17927 2.21939 8.61174
2.19132 2.20734 8.6369
2.16945 2.22921 8.94055
2.17928 2.21938 8.9151
2.19129 2.20737 8.94053
2.19129 2.20737 8.94053
2.17927 2.21939 8.96603
2.16945 2.22921 8.94055
2.15841 2.24025 8.91512
2.17928 2.21938 8.9151
2.16945 2.22921 8.94055
2.16944 2.22922 9.09406
2.14804 2.25062 9.09406
2.15841 2.24025 9.06837
2.14804 2.25063 9.04274
2.16944 2.22922 9.04272
2.15841 2.24025 9.06837
2.19128 2.20738 8.99153
2.17927 2.21939 8.96603
2.19928 2.19938 8.966
2.16944 2.22922 8.99156
2.17927 2.21939 8.96603
2.19128 2.20738 8.99153
1.93725 2.46141 9.19732
1.94766 2.451 9.22316
1.92679 2.47187 9.2232
2.05276 2.34591 9.06843
2.06331 2.33535 9.04279
2.07386 2.3248 9.06841
2.07386 2.3248 9.06841
2.06331 2.33535 9.04279
2.08443 2.31423 9.04278
2.15841 2.24026 9.01713
2.14804 2.25062 8.99158
2.16944 2.22922 8.99156
2.15841 2.24026 9.01713
2.16944 2.22922 9.04272
2.14804 2.25063 9.04274
2.04222 2.35644 9.04281
2.06331 2.33535 9.04279
2.05276 2.34591 9.06843
1.9897 2.40896 8.81374
1.96874 2.42992 8.81374
1.97921 2.41945 8.78843
1.93736 2.4613 8.78844
1.92692 2.47174 8.81375
1.91649 2.48217 8.78844
1.94781 2.45085 8.81375
1.92692 2.47174 8.81375
1.93736 2.4613 8.78844
1.92691 2.47175 8.71265
1.9478 2.45086 8.71266
1.93736 2.46131 8.7379
1.93736 2.46131 8.7379
1.91648 2.48218 8.73789
1.92691 2.47175 8.71265
1.92691 2.47175 8.71265
1.91648 2.48218 8.73789
1.90605 2.49261 8.71264
1.93736 2.46131 8.7379
1.9478 2.45086 8.71266
1.95826 2.4404 8.7379
1.96871 2.42995 8.66223
1.9792 2.41946 8.68744
1.95825 2.44041 8.68744
1.95825 2.44041 8.68744
1.94778 2.45088 8.66223
1.96871 2.42995 8.66223
1.8126 2.58607 8.83909
1.82295 2.57571 8.81375
1.83332 2.56534 8.83909
1.82295 2.57571 8.81375
1.84369 2.55497 8.81375
1.83332 2.56534 8.83909
1.92692 2.47174 8.76316
1.91648 2.48218 8.73789
1.93736 2.46131 8.7379
1.92692 2.47174 8.76316
1.93736 2.4613 8.78844
1.91649 2.48217 8.78844
1.91649 2.48217 8.78844
1.89565 2.50301 8.78844
1.90606 2.4926 8.76315
1.90606 2.4926 8.76315
1.92692 2.47174 8.76316
1.91649 2.48217 8.78844
1.91648 2.48218 8.73789
1.92692 2.47174 8.76316
1.90606 2.4926 8.76315
1.90605 2.49261 8.71264
1.88523 2.51343 8.71264
1.89563 2.50303 8.68741
1.88521 2.51345 8.66219
1.90603 2.49263 8.66221
1.89563 2.50303 8.68741
1.51322 2.88545 8.81368
1.50289 2.89577 8.83901
1.49256 2.90611 8.81367
1.49256 2.90611 8.81367
1.50288 2.89578 8.78836
1.51322 2.88545 8.81368
1.29442 3.10424 8.43487
1.28831 3.11035 8.46009
1.28831 3.11035 8.40942
1.28831 3.11035 8.36
1.29529 3.10337 8.3847
1.28831 3.11035 8.40942
1.307 3.09167 8.5107
1.28831 3.11035 8.51067
1.29431 3.10435 8.48542
1.28831 3.11035 8.51067
1.28831 3.11035 8.46009
1.29431 3.10435 8.48542
2.19928 2.19938 8.36
2.19217 2.20649 8.38575
2.18013 2.21854 8.36
1.28831 3.11035 8.61157
1.28831 3.11035 8.56114
1.29438 3.10428 8.58636
1.29438 3.10428 8.58636
1.30704 3.09162 8.61156
1.28831 3.11035 8.61157
1.30702 3.09164 8.56113
1.29438 3.10428 8.58636
1.28831 3.11035 8.56114
1.30702 3.09164 8.56113
1.31601 3.08265 8.53594
1.32714 3.07152 8.56116
1.31605 3.08262 8.58635
1.33709 3.06157 8.58637
1.32717 3.07149 8.61157
1.32717 3.07149 8.61157
1.30704 3.09162 8.61156
1.31605 3.08262 8.58635
1.32714 3.07152 8.56116
1.33709 3.06157 8.58637
1.31605 3.08262 8.58635
1.31605 3.08262 8.58635
1.30702 3.09164 8.56113
1.32714 3.07152 8.56116
1.30704 3.09162 8.61156
1.29438 3.10428 8.58636
1.31605 3.08262 8.58635
1.29438 3.10428 8.58636
1.30702 3.09164 8.56113
1.31605 3.08262 8.58635
1.29435 3.10432 8.53591
1.28831 3.11035 8.56114
1.28831 3.11035 8.51067
1.29435 3.10432 8.53591
1.28831 3.11035 8.51067
1.307 3.09167 8.5107
1.307 3.09167 8.5107
1.31601 3.08265 8.53594
1.29435 3.10432 8.53591
1.29435 3.10432 8.53591
1.30702 3.09164 8.56113
1.28831 3.11035 8.56114
1.31601 3.08265 8.53594
1.30702 3.09164 8.56113
1.29435 3.10432 8.53591
1.33717 3.06149 8.78829
1.32723 3.07143 8.8136
1.31613 3.08254 8.78829
1.32723 3.07143 8.8136
1.30708 3.09158 8.8136
1.31613 3.08254 8.78829
1.31613 3.08254 8.78829
1.32722 3.07145 8.763
1.33717 3.06149 8.78829
1.33711 3.06155 8.63679
1.32717 3.07149 8.61157
1.34771 3.05096 8.61159
1.31607 3.08259 8.63678
1.32717 3.07149 8.61157
1.33711 3.06155 8.63679
1.35794 3.04072 8.6368
1.33711 3.06155 8.63679
1.34771 3.05096 8.61159
1.34773 3.05094 8.66201
1.33711 3.06155 8.63679
1.35794 3.04072 8.6368
1.34773 3.05094 8.66201
1.35794 3.04072 8.6368
1.36839 3.03027 8.66202
1.50287 2.89579 8.7378
1.51321 2.88546 8.76307
1.49255 2.90612 8.76307
1.49255 2.90612 8.76307
1.51321 2.88546 8.76307
1.50288 2.89578 8.78836
1.42017 2.9785 8.78832
1.44086 2.9578 8.78833
1.43052 2.96814 8.81363
1.43051 2.96815 8.76304
1.44086 2.9578 8.78833
1.42017 2.9785 8.78832
1.44085 2.95782 8.73777
1.4305 2.96817 8.71252
1.45119 2.94748 8.71253
1.43051 2.96815 8.76304
1.42015 2.97851 8.73776
1.44085 2.95782 8.73777
1.44085 2.95782 8.73777
1.42015 2.97851 8.73776
1.4305 2.96817 8.71252
1.44087 2.95779 8.83897
1.46156 2.9371 8.83899
1.45123 2.94744 8.86434
1.3995 2.99917 8.8897
1.40985 2.98882 8.86432
1.4202 2.97846 8.88971
1.40983 2.98883 8.81362
1.42017 2.9785 8.78832
1.43052 2.96814 8.81363
1.39946 2.9992 8.78831
1.42017 2.9785 8.78832
1.40983 2.98883 8.81362
1.32724 3.07142 8.86429
1.33718 3.06148 8.83893
1.34779 3.05087 8.86429
1.33717 3.06149 8.78829
1.32722 3.07145 8.763
1.34776 3.0509 8.763
1.34776 3.0509 8.763
1.35799 3.04067 8.78829
1.33717 3.06149 8.78829
1.38911 3.00955 8.76301
1.39946 2.9992 8.78831
1.37874 3.01992 8.7883
1.34777 3.05089 8.8136
1.33718 3.06148 8.83893
1.32723 3.07143 8.8136
1.34777 3.05089 8.8136
[...]
<PointData Scalars="View Factor" >
<DataArray type="Float64" Name="View Factor" NumberOfComponents="1" format="ascii">
6.52211e-05
6.52211e-05
6.52211e-05
0.000253314
0.000253314
0.000253314
0.000231326
0.000231326
0.000231326
0.0031749
0.0031749
0.0031749
0.00318221
0.00318221
0.00318221
0.000215594
0.000215594
0.000215594
0.00210558
0.00210558
0.00210558
9.7319e-05
9.7319e-05
9.7319e-05
7.51464e-05
7.51464e-05
7.51464e-05
0.000102115
0.000102115
0.000102115
0.000104791
0.000104791
0.000104791
0.00011318
0.00011318
0.00011318
0.000202601
0.000202601
0.000202601
0.000217102
0.000217102
0.000217102
0.000413302
0.000413302
0.000413302
0.000435598
0.000435598
0.000435598
0.000145218
0.000145218
0.000145218
0.000156632
0.000156632
0.000156632
0.000151903
0.000151903
0.000151903
0.000189546
0.000189546
0.000189546
0.00020568
0.00020568
0.00020568
6.87435e-05
6.87435e-05
6.87435e-05
0.000269108
0.000269108
0.000269108
0.000759257
0.000759257
0.000759257
0.00182168
0.00182168
0.00182168
0.00198039
0.00198039
0.00198039
0.00204098
0.00204098
0.00204098
0.00207643
0.00207643
0.00207643
0.00206992
0.00206992
0.00206992
0.00234546
0.00234546
0.00234546
0.0023146
0.0023146
0.0023146
0.00235503
0.00235503
0.00235503
0.00232648
0.00232648
0.00232648
0.00227279
0.00227279
0.00227279
0.0023123
0.0023123
0.0023123
0.00230531
0.00230531
0.00230531
0.00211359
0.00211359
0.00211359
0.00208831
0.00208831
0.00208831
0.00228142
0.00228142
0.00228142
0.00226078
0.00226078
0.00226078
0.00176646
0.00176646
0.00176646
0.00177774
0.00177774
0.00177774
0.00174198
0.00174198
0.00174198
0.00075138
0.00075138
0.00075138
8.20238e-05
8.20238e-05
8.20238e-05
9.17142e-05
9.17142e-05
9.17142e-05
0.000231602
0.000231602
0.000231602
0.00015106
0.00015106
0.00015106
0.000137686
0.000137686
0.000137686
0.000378658
0.000378658
0.000378658
0.000160131
0.000160131
0.000160131
0.000172659
0.000172659
0.000172659
0.000178842
0.000178842
0.000178842
0.000108165
0.000108165
0.000108165
8.39908e-05
8.39908e-05
8.39908e-05
8.79766e-05
8.79766e-05
8.79766e-05
0.000183688
0.000183688
0.000183688
0.000248081
0.000248081
0.000248081
0.000233325
0.000233325
0.000233325
0.000122303
0.000122303
0.000122303
0.000119944
0.000119944
0.000119944
0.000255252
0.000255252
0.000255252
0.00027791
0.00027791
0.00027791
0.000448436
0.000448436
0.000448436
0.000681373
0.000681373
0.000681373
0.000595205
0.000595205
0.000595205
0.000292126
0.000292126
0.000292126
0.000331197
0.000331197
0.000331197
0.000504609
0.000504609
0.000504609
0.000402054
0.000402054
0.000402054
0.000375494
0.000375494
0.000375494
0.000508334
0.000508334
0.000508334
0.000562275
0.000562275
0.000562275
0.000377053
0.000377053
0.000377053
8.18677e-05
8.18677e-05
8.18677e-05
8.2823e-05
8.2823e-05
8.2823e-05
8.51715e-05
8.51715e-05
8.51715e-05
5.6599e-05
5.6599e-05
5.6599e-05
5.95728e-05
5.95728e-05
5.95728e-05
5.8496e-05
5.8496e-05
5.8496e-05
5.76034e-05
5.76034e-05
5.76034e-05
4.48468e-05
4.48468e-05
4.48468e-05
4.34401e-05
4.34401e-05
4.34401e-05
0.000115829
0.000115829
0.000115829
0.000109
0.000109
0.000109
6.48895e-05
6.48895e-05
6.48895e-05
7.61402e-05
7.61402e-05
7.61402e-05
7.86605e-05
7.86605e-05
7.86605e-05
7.44589e-05
7.44589e-05
7.44589e-05
6.89872e-05
6.89872e-05
6.89872e-05
5.58875e-05
5.58875e-05
5.58875e-05
4.78447e-05
4.78447e-05
4.78447e-05
0.00172717
0.00172717
0.00172717
0.00171978
0.00171978
0.00171978
0.00189534
0.00189534
0.00189534
0.00184685
0.00184685
0.00184685
0.00195274
0.00195274
0.00195274
0.00194554
0.00194554
0.00194554
5.7435e-05
5.7435e-05
5.7435e-05
0.00205052
0.00205052
0.00205052
0.00205819
0.00205819
0.00205819
0.00202229
0.00202229
0.00202229
0.00197019
0.00197019
0.00197019
0.00199348
0.00199348
0.00199348
0.00202297
0.00202297
0.00202297
0.00197605
0.00197605
0.00197605
0.00198762
0.00198762
0.00198762
0.00203366
0.00203366
0.00203366
0.0020159
0.0020159
0.0020159
0.00199722
0.00199722
0.00199722
0.0019698
0.0019698
0.0019698
0.00196355
0.00196355
0.00196355
0.00200464
0.00200464
0.00200464
0.00198083
0.00198083
0.00198083
0.00221996
0.00221996
0.00221996
0.00225209
0.00225209
0.00225209
0.0022
0.0022
0.0022
0.00199796
0.00199796
0.00199796
0.00202917
0.00202917
0.00202917
0.00198606
0.00198606
0.00198606
0.00200394
0.00200394
0.00200394
0.00199353
0.00199353
0.00199353
0.00168967
0.00168967
0.00168967
0.00170139
0.00170139
0.00170139
0.00196424
0.00196424
0.00196424
0.00194642
0.00194642
0.00194642
0.00185622
0.00185622
0.00185622
0.00191135
0.00191135
0.00191135
0.00189407
0.00189407
0.00189407
0.0019508
0.0019508
0.0019508
0.0021182
0.0021182
0.0021182
0.00200573
0.00200573
0.00200573
0.0020226
0.0020226
0.0020226
0.00226775
0.00226775
0.00226775
0.00216652
0.00216652
0.00216652
0.00215389
0.00215389
0.00215389
0.00205965
0.00205965
0.00205965
0.0022265
0.0022265
0.0022265
0.00220636
0.00220636
0.00220636
0.0021736
0.0021736
0.0021736
0.00219926
0.00219926
0.00219926
0.00294726
0.00294726
0.00294726
0.00313983
0.00313983
0.00313983
0.00180266
0.00180266
0.00180266
0.00185402
0.00185402
0.00185402
0.00194223
0.00194223
0.00194223
0.00183382
0.00183382
0.00183382
0.00192416
0.00192416
0.00192416
0.00187108
0.00187108
0.00187108
0.00185098
0.00185098
0.00185098
0.00190612
0.00190612
0.00190612
0.00188581
0.00188581
0.00188581
0.00192417
0.00192417
0.00192417
0.00207647
0.00207647
0.00207647
0.00198711
0.00198711
0.00198711
0.00173439
0.00173439
0.00173439
0.000587882
0.000587882
0.000587882
0.00125366
0.00125366
0.00125366
0.000695009
0.000695009
0.000695009
0.0013136
0.0013136
0.0013136
0.00181918
0.00181918
0.00181918
0.00175036
0.00175036
0.00175036
0.00180416
0.00180416
0.00180416
0.000856279
0.000856279
0.000856279
0.00086824
0.00086824
0.00086824
0.000786636
0.000786636
0.000786636
0.000777121
0.000777121
0.000777121
0.000781817
0.000781817
0.000781817
0.00072737
0.00072737
0.00072737
0.000467024
0.000467024
0.000467024
0.000710492
0.000710492
0.000710492
2.23132e-05
2.23132e-05
2.23132e-05
2.19111e-05
2.19111e-05
2.19111e-05
2.35993e-05
2.35993e-05
2.35993e-05
2.46459e-05
2.46459e-05
2.46459e-05
2.09022e-05
2.09022e-05
2.09022e-05
1.98565e-05
1.98565e-05
1.98565e-05
2.04165e-05
2.04165e-05
2.04165e-05
2.14011e-05
2.14011e-05
2.14011e-05
1.99267e-05
1.99267e-05
1.99267e-05
1.93883e-05
1.93883e-05
1.93883e-05
1.85174e-05
1.85174e-05
1.85174e-05
2.40711e-05
2.40711e-05
2.40711e-05
2.08868e-05
2.08868e-05
2.08868e-05
2.1785e-05
2.1785e-05
2.1785e-05
2.30405e-05
2.30405e-05
2.30405e-05
2.34913e-05
2.34913e-05
2.34913e-05
2.11317e-05
2.11317e-05
2.11317e-05
1.83525e-05
1.83525e-05
1.83525e-05
1.83369e-05
1.83369e-05
1.83369e-05
0.000512728
0.000512728
0.000512728
0.000505528
0.000505528
0.000505528
0.000470469
0.000470469
0.000470469
0.000372109
0.000372109
0.000372109
0.000408532
0.000408532
0.000408532
0.000397635
0.000397635
0.000397635
0.000360017
0.000360017
0.000360017
4.04393e-05
4.04393e-05
4.04393e-05
4.32549e-05
4.32549e-05
4.32549e-05
3.85267e-05
3.85267e-05
3.85267e-05
8.10287e-05
8.10287e-05
8.10287e-05
7.76076e-05
7.76076e-05
7.76076e-05
0.000131323
0.000131323
0.000131323
0.000142297
0.000142297
0.000142297
0.000123145
0.000123145
0.000123145
0.000118972
0.000118972
0.000118972
0.000138163
0.000138163
0.000138163
0.000340266
0.000340266
0.000340266
0.000362398
0.000362398
0.000362398
0.000403636
0.000403636
0.000403636
0.000386423
0.000386423
0.000386423
0.000378139
0.000378139
0.000378139
0.000369548
0.000369548
0.000369548
0.000179735
0.000179735
0.000179735
0.000170889
0.000170889
0.000170889
7.66837e-05
7.66837e-05
7.66837e-05
7.3729e-05
7.3729e-05
7.3729e-05
0.000110486
0.000110486
0.000110486
6.66515e-05
6.66515e-05
6.66515e-05
0.000179309
0.000179309
0.000179309
0.000212073
0.000212073
0.000212073
0.000319118
0.000319118
0.000319118
0.000276849
0.000276849
0.000276849
0.000301758
0.000301758
0.000301758
0.000280528
0.000280528
0.000280528
0.000478906
0.000478906
0.000478906
0.000496904
0.000496904
0.000496904
0.000485907
0.000485907
0.000485907
0.000728776
0.000728776
0.000728776
0.000673462
0.000673462
0.000673462
1.42919e-05
1.42919e-05
1.42919e-05
0.00076547
0.00076547
0.00076547
0.00066321
0.00066321
0.00066321
0.000725387
0.000725387
0.000725387
0.000459864
0.000459864
0.000459864
0.00059096
0.00059096
0.00059096
0.000677716
0.000677716
0.000677716
0.000625789
0.000625789
0.000625789
8.91097e-05
8.91097e-05
8.91097e-05
8.11944e-05
8.11944e-05
8.11944e-05
8.13581e-05
8.13581e-05
8.13581e-05
7.77386e-05
7.77386e-05
7.77386e-05
0.000122879
0.000122879
0.000122879
0.000117032
0.000117032
0.000117032
0.000123171
0.000123171
0.000123171
0.000540392
0.000540392
0.000540392
0.000566329
0.000566329
0.000566329
0.000363991
0.000363991
0.000363991
0.000640972
0.000640972
0.000640972
0.000654802
0.000654802
0.000654802
0.000598247
0.000598247
0.000598247
0.000564601
0.000564601
0.000564601
0.00061609
0.00061609
0.00061609
0.000571301
0.000571301
0.000571301
8.15141e-05
8.15141e-05
8.15141e-05
7.16654e-05
7.16654e-05
7.16654e-05
7.78803e-05
7.78803e-05
7.78803e-05
6.92535e-05
6.92535e-05
6.92535e-05
8.8058e-05
8.8058e-05
8.8058e-05
8.55743e-05
8.55743e-05
8.55743e-05
9.32648e-05
9.32648e-05
9.32648e-05
0.000139509
0.000139509
0.000139509
0.000144647
0.000144647
0.000144647
0.000105966
0.000105966
0.000105966
9.95844e-05
9.95844e-05
9.95844e-05
9.09337e-05
9.09337e-05
9.09337e-05
8.83172e-05
8.83172e-05
8.83172e-05
0.000102731
0.000102731
0.000102731
9.38035e-05
9.38035e-05
9.38035e-05
0.000115761
0.000115761
0.000115761
0.000119485
0.000119485
0.000119485
0.000131153
0.000131153
0.000131153
0.000140244
0.000140244
0.000140244
0.000135338
0.000135338
0.000135338
0.000123284
0.000123284
0.000123284
8.00632e-05
8.00632e-05
8.00632e-05
8.22821e-05
8.22821e-05
8.22821e-05
7.83802e-05
7.83802e-05
7.83802e-05
7.2066e-05
7.2066e-05
7.2066e-05
0.000282487
0.000282487
0.000282487
0.00015533
0.00015533
0.00015533
0.000263455
0.000263455
0.000263455
5.41407e-05
5.41407e-05
5.41407e-05
4.63551e-05
4.63551e-05
4.63551e-05
5.26565e-05
5.26565e-05
5.26565e-05
4.88903e-05
4.88903e-05
4.88903e-05
4.48597e-05
4.48597e-05
4.48597e-05
4.73402e-05
4.73402e-05
4.73402e-05
5.09819e-05
5.09819e-05
5.09819e-05
5.2388e-05
5.2388e-05
5.2388e-05
4.93037e-05
4.93037e-05
4.93037e-05
4.57831e-05
4.57831e-05
4.57831e-05
6.14279e-05
6.14279e-05
6.14279e-05
6.41517e-05
6.41517e-05
6.41517e-05
0.000112579
0.000112579
0.000112579
0.000103407
0.000103407
0.000103407
0.000175153
0.000175153
0.000175153
0.000168393
0.000168393
0.000168393
0.000109923
0.000109923
0.000109923
0.000116394
0.000116394
0.000116394
0.000201257
0.000201257
0.000201257
0.000194165
0.000194165
0.000194165
0.00020631
0.00020631
0.00020631
0.000223266
0.000223266
0.000223266
0.00023943
0.00023943
0.00023943
0.000228898
0.000228898
0.000228898
9.95093e-05
9.95093e-05
9.95093e-05
8.40878e-05
8.40878e-05
8.40878e-05
8.86689e-05
8.86689e-05
8.86689e-05
9.64875e-05
9.64875e-05
9.64875e-05
0.00013085
0.00013085
0.00013085
0.00012657
0.00012657
0.00012657
8.64772e-05
8.64772e-05
8.64772e-05
0.000112118
0.000112118
0.000112118
0.000102342
0.000102342
0.000102342
7.78915e-05
7.78915e-05
7.78915e-05
4.93288e-05
4.93288e-05
4.93288e-05
5.04354e-05
5.04354e-05
5.04354e-05
5.43236e-05
5.43236e-05
5.43236e-05
7.68774e-05
7.68774e-05
7.68774e-05
8.11727e-05
8.11727e-05
8.11727e-05
7.34555e-05
7.34555e-05
7.34555e-05
7.92878e-05
7.92878e-05
7.92878e-05
0.00144981
0.00144981
0.00144981
0.001775
0.001775
0.001775
0.00178954
0.00178954
0.00178954
0.00183029
0.00183029
0.00183029
0.00161542
0.00161542
0.00161542
0.00157084
0.00157084
0.00157084
0.00155218
0.00155218
0.00155218
0.0019581
0.0019581
0.0019581
0.00195101
0.00195101
0.00195101
0.00194081
0.00194081
0.00194081
0.00160803
0.00160803
0.00160803
0.00162645
0.00162645
0.00162645
0.000115222
0.000115222
0.000115222
0.000119171
0.000119171
0.000119171
0.000130609
0.000130609
0.000130609
0.000138291
0.000138291
0.000138291
0.000156976
0.000156976
0.000156976
0.000151395
0.000151395
0.000151395
0.000178766
0.000178766
0.000178766
8.33872e-05
8.33872e-05
8.33872e-05
0.000272445
0.000272445
0.000272445
1.41022e-05
1.41022e-05
1.41022e-05
0.000158253
0.000158253
0.000158253
0.000156234
0.000156234
0.000156234
2.65187e-05
2.65187e-05
2.65187e-05
2.33755e-05
2.33755e-05
2.33755e-05
0.00241088
0.00241088
0.00241088
0.00237662
0.00237662
0.00237662
0.00228233
0.00228233
0.00228233
0.00229144
0.00229144
0.00229144
0.00226376
0.00226376
0.00226376
0.00222138
0.00222138
0.00222138
0.00219033
0.00219033
0.00219033
0.0021529
0.0021529
0.0021529
0.00218356
0.00218356
0.00218356
0.00213242
0.00213242
0.00213242
0.0021625
0.0021625
0.0021625
0.00217086
0.00217086
0.00217086
0.00212577
0.00212577
0.00212577
0.00214482
0.00214482
0.00214482
0.00213387
0.00213387
0.00213387
0.00210313
0.00210313
0.00210313
0.00203997
0.00203997
0.00203997
0.00201137
0.00201137
0.00201137
0.00207747
0.00207747
0.00207747
0.00204742
0.00204742
0.00204742
0.00209607
0.00209607
0.00209607
0.00208427
0.00208427
0.00208427
0.00203414
0.00203414
0.00203414
0.00205235
0.00205235
0.00205235
0.00214121
0.00214121
0.00214121
0.00216058
0.00216058
0.00216058
0.00214697
0.00214697
0.00214697
0.00211502
0.00211502
0.00211502
0.0017499
0.0017499
0.0017499
0.00177626
0.00177626
0.00177626
0.00176217
0.00176217
0.00176217
0.00171688
0.00171688
0.00171688
0.00174531
0.00174531
0.00174531
0.00173522
0.00173522
0.00173522
0.00178838
0.00178838
0.00178838
0.00176281
0.00176281
0.00176281
0.00180478
0.00180478
0.00180478
0.00182053
0.00182053
0.00182053
0.0020042
0.0020042
0.0020042
0.00196811
0.00196811
0.00196811
0.00196947
0.00196947
0.00196947
0.00195171
0.00195171
0.00195171
0.00202556
0.00202556
0.00202556
0.00200727
0.00200727
0.00200727
0.0020005
0.0020005
0.0020005
0.00202411
0.00202411
0.00202411
0.00199641
0.00199641
0.00199641
0.00208118
0.00208118
0.00208118
0.00206176
0.00206176
0.00206176
0.002019
0.002019
0.002019
0.00205694
0.00205694
0.00205694
0.00201503
0.00201503
0.00201503
0.00217866
0.00217866
0.00217866
0.00214047
0.00214047
0.00214047
0.00212051
0.00212051
0.00212051
0.00213829
0.00213829
0.00213829
0.00218109
0.00218109
0.00218109
0.00223907
0.00223907
0.00223907
0.00220164
0.00220164
0.00220164
0.00214059
0.00214059
0.00214059
0.00210433
0.00210433
0.00210433
0.00207489
0.00207489
0.00207489
0.00212359
0.00212359
0.00212359
0.00210892
0.00210892
0.00210892
0.00223393
0.00223393
0.00223393
0.00221352
0.00221352
0.00221352
0.00216768
0.00216768
0.00216768
0.00218258
0.00218258
0.00218258
0.00212826
0.00212826
0.00212826
0.00216272
0.00216272
0.00216272
0.00226023
0.00226023
0.00226023
0.00229834
0.00229834
0.00229834
0.00224359
0.00224359
0.00224359
0.00231407
0.00231407
0.00231407
0.00235088
0.00235088
0.00235088
0.00232041
0.00232041
0.00232041
0.00203533
0.00203533
0.00203533
0.00218128
0.00218128
0.00218128
0.0022022
0.0022022
0.0022022
0.00217663
0.00217663
0.00217663
0.00213201
0.00213201
0.00213201
0.00312866
0.00312866
0.00312866
0.00312244
0.00312244
0.00312244
0.00310683
0.00310683
0.00310683
0.00277732
0.00277732
0.00277732
0.00279012
0.00279012
0.00279012
0.00275538
0.00275538
0.00275538
0.00290221
0.00290221
0.00290221
0.00286004
0.00286004
0.00286004
0.00287352
0.00287352
0.00287352
0.00283733
0.00283733
0.00283733
0.00281752
0.00281752
0.00281752
0.00280968
0.00280968
0.00280968
0.00274217
0.00274217
0.00274217
0.00276901
0.00276901
0.00276901
0.00193299
0.00193299
0.00193299
0.00188913
0.00188913
0.00188913
0.00187201
0.00187201
0.00187201
0.00189796
0.00189796
0.00189796
0.00194218
0.00194218
0.00194218
0.00195995
0.00195995
0.00195995
0.00197883
0.00197883
0.00197883
0.00205311
0.00205311
0.00205311
0.00200594
0.00200594
0.00200594
0.00199743
0.00199743
0.00199743
0.000328053
0.000328053
0.000328053
0.000251279
0.000251279
0.000251279
0.000263233
0.000263233
0.000263233
0.0016479
0.0016479
0.0016479
0.00155656
0.00155656
0.00155656
0.00152742
0.00152742
0.00152742
0.00168977
0.00168977
0.00168977
0.00165708
0.00165708
0.00165708
0.00176897
0.00176897
0.00176897
0.00177939
0.00177939
0.00177939
0.00169448
0.00169448
0.00169448
0.00172961
0.00172961
0.00172961
0.00171772
0.00171772
0.00171772
0.00172143
0.00172143
0.00172143
0.00161007
0.00161007
0.00161007
0.00169471
0.00169471
0.00169471
0.000866055
0.000866055
0.000866055
0.000797753
0.000797753
0.000797753
0.000839113
0.000839113
0.000839113
0.000875596
0.000875596
0.000875596
0.000829954
0.000829954
0.000829954
0.000757984
0.000757984
0.000757984
0.000848015
0.000848015
0.000848015
0.000841075
0.000841075
0.000841075
0.000814014
0.000814014
0.000814014
0.000803254
0.000803254
0.000803254
0.000422903
0.000422903
0.000422903
0.000507338
0.000507338
0.000507338
0.000582613
0.000582613
0.000582613
0.000523281
0.000523281
0.000523281
0.000481501
0.000481501
0.000481501
0.000600606
0.000600606
0.000600606
0.000637621
0.000637621
0.000637621
0.000390466
0.000390466
0.000390466
0.000410275
0.000410275
0.000410275
0.000344529
0.000344529
0.000344529
0.000319158
0.000319158
0.000319158
0.000618153
0.000618153
0.000618153
0.000682622
0.000682622
0.000682622
0.00073421
0.00073421
0.00073421
0.000704973
0.000704973
0.000704973
0.000491796
0.000491796
0.000491796
0.000564635
0.000564635
0.000564635
0.000598713
0.000598713
0.000598713
0.000686847
0.000686847
0.000686847
0.000659741
0.000659741
0.000659741
0.000637531
0.000637531
0.000637531
0.000559934
0.000559934
0.000559934
0.0002154
0.0002154
0.0002154
0.000239529
0.000239529
0.000239529
0.000329041
0.000329041
0.000329041
0.00027152
0.00027152
0.00027152
0.00024291
0.00024291
0.00024291
0.000279573
0.000279573
0.000279573
0.000291019
0.000291019
0.000291019
0.000232785
0.000232785
0.000232785
0.000250085
0.000250085
0.000250085
0.000616857
0.000616857
0.000616857
0.000582994
0.000582994
0.000582994
0.000571476
0.000571476
0.000571476
2.38707e-05
2.38707e-05
2.38707e-05
2.03229e-05
2.03229e-05
2.03229e-05
1.95209e-05
1.95209e-05
1.95209e-05
1.94097e-05
1.94097e-05
1.94097e-05
0.000772836
0.000772836
0.000772836
0.000745774
0.000745774
0.000745774
0.00224484
0.00224484
0.00224484
0.00219763
0.00219763
0.00219763
2.34165e-05
2.34165e-05
2.34165e-05
0.000799229
0.000799229
0.000799229
0.000761422
0.000761422
0.000761422
0.00102624
0.00102624
0.00102624
0.00167621
0.00167621
0.00167621
0.000325064
0.000325064
0.000325064
0.000524975
0.000524975
0.000524975
0.00100533
0.00100533
0.00100533
0.000962039
0.000962039
0.000962039
0.000840038
0.000840038
0.000840038
0.00087804
0.00087804
0.00087804
0.000738695
0.000738695
0.000738695
7.02222e-05
7.02222e-05
7.02222e-05
1.86374e-05
1.86374e-05
1.86374e-05
1.90815e-05
1.90815e-05
1.90815e-05
1.89651e-05
1.89651e-05
1.89651e-05
0.000898383
0.000898383
0.000898383
0.00101449
0.00101449
0.00101449
0.000974454
0.000974454
0.000974454
0.000764808
0.000764808
0.000764808
0.000718662
0.000718662
0.000718662
0.000786301
0.000786301
0.000786301
0.000865514
0.000865514
0.000865514
0.000895495
0.000895495
0.000895495
0.000903257
0.000903257
0.000903257
2.05305e-05
2.05305e-05
2.05305e-05
2.01833e-05
2.01833e-05
2.01833e-05
2.12522e-05
2.12522e-05
2.12522e-05
2.29086e-05
2.29086e-05
2.29086e-05
2.24775e-05
2.24775e-05
2.24775e-05
2.17289e-05
2.17289e-05
2.17289e-05
2.07641e-05
2.07641e-05
2.07641e-05
1.96326e-05
1.96326e-05
1.96326e-05
1.93195e-05
1.93195e-05
1.93195e-05
1.78278e-05
1.78278e-05
1.78278e-05
1.87069e-05
1.87069e-05
1.87069e-05
1.50071e-05
1.50071e-05
1.50071e-05
1.83499e-05
1.83499e-05
1.83499e-05
1.78025e-05
1.78025e-05
1.78025e-05
0.000331505
0.000331505
0.000331505
0.000224775
0.000224775
0.000224775
0.000325662
0.000325662
0.000325662
0.000381741
0.000381741
0.000381741
0.000388103
0.000388103
0.000388103
0.000477276
0.000477276
0.000477276
0.000208859
0.000208859
0.000208859
0.000712274
0.000712274
0.000712274
0.000288451
0.000288451
0.000288451
0.000107729
0.000107729
0.000107729
0.000114511
0.000114511
0.000114511
0.000443739
0.000443739
0.000443739
0.000389789
0.000389789
0.000389789
0.000394868
0.000394868
0.000394868
0.000371436
0.000371436
0.000371436