<VTKFile type="UnstructuredGrid" version="1.0">
<UnstructuredGrid>
<Piece NumberOfPoints="10830" NumberOfCells="3610">
<Points>
<DataArray type="Float64" NumberOfComponents="3" format="ascii">
3.10314 1.29552 5.25075
3.11025 1.28841 5.225
3.11025 1.28841 5.27646
3.11025 1.28841 5.78008
3.11025 1.28841 5.831
3.10226 1.2964 5.80553
3.11025 1.28841 5.78008
3.10226 1.2964 5.80553
3.09025 1.30841 5.7801
2.21656 2.1821 6.25259
2.22913 2.16953 6.27
2.19928 2.19938 6.27
2.19928 2.19938 6.27
2.19928 2.19938 6.23984
2.21656 2.1821 6.25259
3.11025 1.28841 5.78008
3.09025 1.30841 5.7801
3.10227 1.29639 5.75468
2.20538 2.19328 5.50179
2.19928 2.19938 5.52701
2.19928 2.19938 5.47657
3.10229 1.29637 5.5019
3.11025 1.28841 5.52709
3.09026 1.3084 5.52711
3.10214 1.29652 5.40134
3.11025 1.28841 5.37628
3.11025 1.28841 5.42639
3.09026 1.3084 5.52711
3.11025 1.28841 5.52709
3.1023 1.29636 5.55231
3.11025 1.28841 5.52709
3.11025 1.28841 5.57754
3.1023 1.29636 5.55231
3.09026 1.3084 5.57755
3.1023 1.29636 5.55231
3.11025 1.28841 5.57754
3.09025 1.30841 5.72931
3.10227 1.29639 5.75468
3.08043 1.31823 5.7547
3.08043 1.31823 5.7547
3.10227 1.29639 5.75468
3.09025 1.30841 5.7801
3.08043 1.31823 5.7547
3.06939 1.32927 5.72932
3.09025 1.30841 5.72931
3.08043 1.31823 5.7547
3.09025 1.30841 5.7801
3.06938 1.32928 5.78012
3.11025 1.28841 5.62804
3.11025 1.28841 5.67862
3.10229 1.29637 5.65333
3.10229 1.29637 5.65333
3.09026 1.3084 5.67863
3.08044 1.31822 5.65334
3.11025 1.28841 5.67862
3.09026 1.3084 5.67863
3.10229 1.29637 5.65333
3.11025 1.28841 5.72929
3.10227 1.29639 5.75468
3.09025 1.30841 5.72931
3.11025 1.28841 5.78008
3.10227 1.29639 5.75468
3.11025 1.28841 5.72929
3.0901 1.30856 5.37632
3.11025 1.28841 5.37628
3.10214 1.29652 5.40134
3.09024 1.30842 5.83103
3.10226 1.2964 5.80553
3.11025 1.28841 5.831
2.80657 1.59209 6.01075
2.81699 1.58167 5.98498
2.8274 1.57126 6.01072
2.19928 2.19938 5.225
2.21889 2.17977 5.225
2.20626 2.1924 5.2497
2.25868 2.13998 5.47659
2.23814 2.16052 5.47657
2.24806 2.1506 5.45137
2.21801 2.18065 5.47656
2.23814 2.16052 5.47657
2.22704 2.17162 5.50178
2.21801 2.18065 5.47656
2.20538 2.19328 5.50179
2.19928 2.19938 5.47657
2.22704 2.17162 5.50178
2.20538 2.19328 5.50179
2.21801 2.18065 5.47656
2.20547 2.19319 5.70394
2.19928 2.19938 5.7293
2.19928 2.19938 5.67861
2.21807 2.1806 5.7293
2.22712 2.17155 5.70393
2.23821 2.16045 5.72929
2.19928 2.19938 5.7293
2.20547 2.19319 5.70394
2.21807 2.1806 5.7293
2.21807 2.1806 5.7293
2.20547 2.19319 5.70394
2.22712 2.17155 5.70393
2.21805 2.18061 5.6786
2.2382 2.16046 5.6786
2.22712 2.17155 5.70393
2.21805 2.18061 5.6786
2.20547 2.19319 5.70394
2.19928 2.19938 5.67861
2.22712 2.17155 5.70393
2.20547 2.19319 5.70394
2.21805 2.18061 5.6786
2.19928 2.19938 5.52701
2.20538 2.19328 5.50179
2.21802 2.18064 5.527
2.21802 2.18064 5.527
2.20538 2.19328 5.50179
2.22704 2.17162 5.50178
2.23821 2.16045 5.72929
2.22712 2.17155 5.70393
2.24816 2.15051 5.70393
2.22712 2.17155 5.70393
2.2382 2.16046 5.6786
2.24816 2.15051 5.70393
2.40353 1.99513 5.67867
2.41386 1.9848 5.70401
2.3932 2.00546 5.704
2.3932 2.00546 5.704
2.41386 1.9848 5.70401
2.40354 1.99512 5.72937
2.40354 1.99512 5.72937
2.41386 1.9848 5.70401
2.4242 1.97446 5.72938
2.79618 1.60248 5.985
2.81699 1.58167 5.98498
2.80657 1.59209 6.01075
3.10224 1.29642 5.45156
3.11025 1.28841 5.42639
3.11025 1.28841 5.4767
3.11025 1.28841 5.52709
3.10229 1.29637 5.5019
3.11025 1.28841 5.4767
3.02715 1.37151 5.6281
3.006 1.39266 5.62811
3.01659 1.38207 5.60285
3.09026 1.3084 5.62805
3.10229 1.29637 5.65333
3.08044 1.31822 5.65334
3.11025 1.28841 5.62804
3.10229 1.29637 5.65333
3.09026 1.3084 5.62805
3.08044 1.31822 5.65334
3.09026 1.3084 5.67863
3.0694 1.32926 5.67865
3.10228 1.29638 5.70395
3.09026 1.3084 5.67863
3.11025 1.28841 5.67862
3.11025 1.28841 5.67862
3.11025 1.28841 5.72929
3.10228 1.29638 5.70395
3.10228 1.29638 5.70395
3.11025 1.28841 5.72929
3.09025 1.30841 5.72931
3.08027 1.31839 5.40137
3.0901 1.30856 5.37632
3.10214 1.29652 5.40134
3.10224 1.29642 5.45156
3.11025 1.28841 5.4767
3.09024 1.30842 5.47674
3.09024 1.30842 5.47674
3.11025 1.28841 5.4767
3.10229 1.29637 5.5019
3.0165 1.38216 5.45161
3.00588 1.39278 5.42643
3.02702 1.37164 5.42643
3.04817 1.35049 5.42645
3.03759 1.36107 5.40126
3.05884 1.33982 5.40131
3.04817 1.35049 5.42645
3.02702 1.37164 5.42643
3.03759 1.36107 5.40126
3.08043 1.31823 5.50193
3.10229 1.29637 5.5019
3.09026 1.3084 5.52711
3.08043 1.31823 5.50193
3.09024 1.30842 5.47674
3.10229 1.29637 5.5019
3.08042 1.31824 5.80555
3.09025 1.30841 5.7801
3.10226 1.2964 5.80553
3.10226 1.2964 5.80553
3.09024 1.30842 5.83103
3.08042 1.31824 5.80555
3.06938 1.32928 5.78012
3.09025 1.30841 5.7801
3.08042 1.31824 5.80555
3.08041 1.31825 5.95905
3.05901 1.33965 5.95906
3.06938 1.32928 5.93337
3.05901 1.33966 5.90774
3.08041 1.31825 5.90772
3.06938 1.32928 5.93337
3.10225 1.29641 5.85653
3.09024 1.30842 5.83103
3.11025 1.28841 5.831
3.08041 1.31825 5.85656
3.09024 1.30842 5.83103
3.10225 1.29641 5.85653
2.84822 1.55044 6.06232
2.85863 1.54003 6.08816
2.83776 1.5609 6.0882
2.96373 1.43493 5.93343
2.97428 1.42438 5.90779
2.98483 1.41383 5.93341
2.98483 1.41383 5.93341
2.97428 1.42438 5.90779
2.9954 1.40326 5.90778
3.06938 1.32929 5.88213
3.05901 1.33965 5.85658
3.08041 1.31825 5.85656
3.06938 1.32929 5.88213
3.08041 1.31825 5.90772
3.05901 1.33966 5.90774
2.95319 1.44547 5.90781
2.97428 1.42438 5.90779
2.96373 1.43493 5.93343
2.90067 1.49799 5.67874
2.87971 1.51895 5.67874
2.89018 1.50848 5.65344
2.84833 1.55033 5.65344
2.83789 1.56077 5.67875
2.82746 1.5712 5.65344
2.85878 1.53988 5.67875
2.83789 1.56077 5.67875
2.84833 1.55033 5.65344
2.83788 1.56078 5.57765
2.85877 1.53989 5.57765
2.84833 1.55034 5.60289
2.84833 1.55034 5.60289
2.82745 1.57121 5.60289
2.83788 1.56078 5.57765
2.83788 1.56078 5.57765
2.82745 1.57121 5.60289
2.81702 1.58164 5.57764
2.84833 1.55034 5.60289
2.85877 1.53989 5.57765
2.86924 1.52943 5.6029
2.87968 1.51898 5.52723
2.89017 1.50849 5.55244
2.86922 1.52944 5.55243
2.86922 1.52944 5.55243
2.85875 1.53991 5.52723
2.87968 1.51898 5.52723
2.72357 1.6751 5.70409
2.73392 1.66474 5.67875
2.74429 1.65437 5.70409
2.73392 1.66474 5.67875
2.75466 1.644 5.67875
2.74429 1.65437 5.70409
2.83789 1.56077 5.62816
2.82745 1.57121 5.60289
2.84833 1.55034 5.60289
2.83789 1.56077 5.62816
2.84833 1.55033 5.65344
2.82746 1.5712 5.65344
2.82746 1.5712 5.65344
2.80662 1.59204 5.65344
2.81703 1.58163 5.62815
2.81703 1.58163 5.62815
2.83789 1.56077 5.62816
2.82746 1.5712 5.65344
2.82745 1.57121 5.60289
2.83789 1.56077 5.62816
2.81703 1.58163 5.62815
2.81702 1.58164 5.57764
2.7962 1.60246 5.57764
2.8066 1.59206 5.55241
2.79618 1.60248 5.52719
2.81701 1.58166 5.52721
2.8066 1.59206 5.55241
2.42419 1.97447 5.67868
2.41386 1.9848 5.70401
2.40353 1.99513 5.67867
2.40353 1.99513 5.67867
2.41385 1.98481 5.65336
2.42419 1.97447 5.67868
2.20539 2.19327 5.29987
2.19928 2.19938 5.32509
2.19928 2.19938 5.27442
2.19928 2.19938 5.225
2.20626 2.1924 5.2497
2.19928 2.19938 5.27442
2.21797 2.1807 5.3757
2.19928 2.19938 5.37567
2.20528 2.19338 5.35042
2.19928 2.19938 5.37567
2.19928 2.19938 5.32509
2.20528 2.19338 5.35042
3.11025 1.28841 5.225
3.10314 1.29552 5.25075
3.0911 1.30756 5.225
2.19928 2.19938 5.47657
2.19928 2.19938 5.42614
2.20536 2.19331 5.45136
2.20536 2.19331 5.45136
2.21801 2.18065 5.47656
2.19928 2.19938 5.47657
2.21799 2.18067 5.42613
2.20536 2.19331 5.45136
2.19928 2.19938 5.42614
2.21799 2.18067 5.42613
2.22698 2.17168 5.40094
2.23811 2.16055 5.42616
2.22702 2.17165 5.45135
2.24806 2.1506 5.45137
2.23814 2.16052 5.47657
2.23814 2.16052 5.47657
2.21801 2.18065 5.47656
2.22702 2.17165 5.45135
2.23811 2.16055 5.42616
2.24806 2.1506 5.45137
2.22702 2.17165 5.45135
2.22702 2.17165 5.45135
2.21799 2.18067 5.42613
2.23811 2.16055 5.42616
2.21801 2.18065 5.47656
2.20536 2.19331 5.45136
2.22702 2.17165 5.45135
2.20536 2.19331 5.45136
2.21799 2.18067 5.42613
2.22702 2.17165 5.45135
2.20532 2.19334 5.40091
2.19928 2.19938 5.42614
2.19928 2.19938 5.37567
2.20532 2.19334 5.40091
2.19928 2.19938 5.37567
2.21797 2.1807 5.3757
2.21797 2.1807 5.3757
2.22698 2.17168 5.40094
2.20532 2.19334 5.40091
2.20532 2.19334 5.40091
2.21799 2.18067 5.42613
2.19928 2.19938 5.42614
2.22698 2.17168 5.40094
2.21799 2.18067 5.42613
2.20532 2.19334 5.40091
2.24814 2.15052 5.65329
2.2382 2.16046 5.6786
2.2271 2.17156 5.65329
2.2382 2.16046 5.6786
2.21805 2.18061 5.6786
2.2271 2.17156 5.65329
2.2271 2.17156 5.65329
2.23819 2.16048 5.628
2.24814 2.15052 5.65329
2.24809 2.15058 5.50179
2.23814 2.16052 5.47657
2.25868 2.13998 5.47659
2.22704 2.17162 5.50178
2.23814 2.16052 5.47657
2.24809 2.15058 5.50179
2.26891 2.12975 5.5018
2.24809 2.15058 5.50179
2.25868 2.13998 5.47659
2.2587 2.13996 5.52701
2.24809 2.15058 5.50179
2.26891 2.12975 5.5018
2.2587 2.13996 5.52701
2.26891 2.12975 5.5018
2.27936 2.1193 5.52702
2.41384 1.98482 5.6028
2.42418 1.97448 5.62807
2.40352 1.99515 5.62807
2.40352 1.99515 5.62807
2.42418 1.97448 5.62807
2.41385 1.98481 5.65336
2.33114 2.06753 5.65332
2.35183 2.04683 5.65333
2.34149 2.05717 5.67863
2.34148 2.05718 5.62804
2.35183 2.04683 5.65333
2.33114 2.06753 5.65332
2.35182 2.04684 5.60277
2.34147 2.05719 5.57752
2.36216 2.03651 5.57753
2.34148 2.05718 5.62804
2.33112 2.06754 5.60276
2.35182 2.04684 5.60277
2.35182 2.04684 5.60277
2.33112 2.06754 5.60276
2.34147 2.05719 5.57752
2.35184 2.04682 5.70398
2.37253 2.02613 5.70399
2.3622 2.03646 5.72934
2.31047 2.08819 5.7547
2.32082 2.07785 5.72932
2.33117 2.06749 5.75471
2.3208 2.07786 5.67862
2.33114 2.06753 5.65332
2.34149 2.05717 5.67863
2.31043 2.08823 5.65331
2.33114 2.06753 5.65332
2.3208 2.07786 5.67862
2.23821 2.16045 5.72929
2.24816 2.15051 5.70393
2.25876 2.1399 5.72929
2.24814 2.15052 5.65329
2.23819 2.16048 5.628
2.25873 2.13993 5.628
2.25873 2.13993 5.628
2.26896 2.1297 5.65329
2.24814 2.15052 5.65329
2.30008 2.09858 5.62801
2.31043 2.08823 5.65331
2.28971 2.10895 5.6533
2.25874 2.13992 5.6786
2.24816 2.15051 5.70393
2.2382 2.16046 5.6786
2.25874 2.13992 5.6786
[...]
<PointData Scalars="View Factor" >
<DataArray type="Float64" Name="View Factor" NumberOfComponents="1" format="ascii">
0.00268762
0.00268762
0.00268762
0.00377752
0.00377752
0.00377752
0.0037141
0.0037141
0.0037141
0.000625579
0.000625579
0.000625579
0.000326644
0.000326644
0.000326644
0.00367417
0.00367417
0.00367417
0.000176759
0.000176759
0.000176759
0.0031377
0.0031377
0.0031377
0.00293943
0.00293943
0.00293943
0.00317031
0.00317031
0.00317031
0.00322285
0.00322285
0.00322285
0.00323661
0.00323661
0.00323661
0.00358243
0.00358243
0.00358243
0.00362104
0.00362104
0.00362104
0.00352699
0.00352699
0.00352699
0.00360344
0.00360344
0.00360344
0.00343124
0.00343124
0.00343124
0.00339701
0.00339701
0.00339701
0.00344649
0.00344649
0.00344649
0.00359626
0.00359626
0.00359626
0.00365724
0.00365724
0.00365724
0.00289221
0.00289221
0.00289221
0.00379545
0.00379545
0.00379545
0.00163956
0.00163956
0.00163956
0.000190934
0.000190934
0.000190934
0.000829923
0.000829923
0.000829923
0.00091059
0.00091059
0.00091059
0.000234521
0.000234521
0.000234521
0.000443569
0.000443569
0.000443569
0.000261073
0.000261073
0.000261073
0.00108577
0.00108577
0.00108577
0.000316921
0.000316921
0.000316921
0.000547082
0.000547082
0.000547082
0.00105481
0.00105481
0.00105481
0.000297323
0.000297323
0.000297323
0.000536726
0.000536726
0.000536726
0.000242433
0.000242433
0.000242433
0.000449637
0.000449637
0.000449637
0.00104192
0.00104192
0.00104192
0.00102688
0.00102688
0.00102688
0.000128732
0.000128732
0.000128732
0.000140949
0.000140949
0.000140949
0.000146987
0.000146987
0.000146987
0.00152031
0.00152031
0.00152031
0.0030302
0.0030302
0.0030302
0.00312465
0.00312465
0.00312465
0.00305246
0.00305246
0.00305246
0.00336147
0.00336147
0.00336147
0.0033747
0.0033747
0.0033747
0.00338017
0.00338017
0.00338017
0.00348319
0.00348319
0.00348319
0.00354191
0.00354191
0.00354191
0.003558
0.003558
0.003558
0.00288007
0.00288007
0.00288007
0.00304263
0.00304263
0.00304263
0.003074
0.003074
0.003074
0.00272544
0.00272544
0.00272544
0.00279151
0.00279151
0.00279151
0.00277026
0.00277026
0.00277026
0.00309314
0.00309314
0.00309314
0.00306152
0.00306152
0.00306152
0.00370002
0.00370002
0.00370002
0.00374035
0.00374035
0.00374035
0.00364254
0.00364254
0.00364254
0.00400356
0.00400356
0.00400356
0.00391537
0.00391537
0.00391537
0.00383713
0.00383713
0.00383713
0.00382277
0.00382277
0.00382277
0.00192242
0.00192242
0.00192242
0.00350395
0.00350395
0.00350395
0.00353537
0.00353537
0.00353537
0.00378793
0.00378793
0.00378793
0.00387222
0.00387222
0.00387222
0.00341971
0.00341971
0.00341971
0.00254013
0.00254013
0.00254013
0.000999828
0.000999828
0.000999828
0.0016375
0.0016375
0.0016375
0.00151056
0.00151056
0.00151056
0.000924582
0.000924582
0.000924582
0.000106235
0.000106235
0.000106235
0.00187858
0.00187858
0.00187858
0.00221033
0.00221033
0.00221033
0.0020295
0.0020295
0.0020295
0.000167199
0.000167199
0.000167199
0.000161481
0.000161481
0.000161481
0.0009409
0.0009409
0.0009409
0.000978238
0.000978238
0.000978238
0.000139948
0.000139948
0.000139948
0.000136793
0.000136793
0.000136793
0.000125097
0.000125097
0.000125097
9.59154e-05
9.59154e-05
9.59154e-05
8.27255e-05
8.27255e-05
8.27255e-05
0.00012286
0.00012286
0.00012286
0.000112152
0.000112152
0.000112152
0.000141686
0.000141686
0.000141686
0.000140517
0.000140517
0.000140517
0.000210034
0.000210034
0.000210034
0.000148714
0.000148714
0.000148714
0.00264515
0.00264515
0.00264515
0.000166654
0.000166654
0.000166654
0.000230829
0.000230829
0.000230829
0.000223639
0.000223639
0.000223639
0.000872029
0.000872029
0.000872029
0.000863916
0.000863916
0.000863916
0.000900661
0.000900661
0.000900661
0.000854427
0.000854427
0.000854427
0.000881513
0.000881513
0.000881513
0.000431793
0.000431793
0.000431793
0.00042608
0.00042608
0.00042608
0.000156824
0.000156824
0.000156824
0.000213348
0.000213348
0.000213348
0.000402797
0.000402797
0.000402797
0.000220094
0.000220094
0.000220094
0.000407816
0.000407816
0.000407816
0.000998003
0.000998003
0.000998003
0.00104032
0.00104032
0.00104032
0.00098441
0.00098441
0.00098441
0.000839214
0.000839214
0.000839214
0.000883279
0.000883279
0.000883279
0.000806155
0.000806155
0.000806155
0.000815006
0.000815006
0.000815006
0.000778611
0.000778611
0.000778611
8.72231e-05
8.72231e-05
8.72231e-05
9.49131e-05
9.49131e-05
9.49131e-05
0.000107184
0.000107184
0.000107184
9.80925e-05
9.80925e-05
9.80925e-05
7.42624e-05
7.42624e-05
7.42624e-05
8.30906e-05
8.30906e-05
8.30906e-05
7.66827e-05
7.66827e-05
7.66827e-05
0.00014054
0.00014054
0.00014054
0.000169227
0.000169227
0.000169227
0.000111726
0.000111726
0.000111726
0.000107133
0.000107133
0.000107133
0.00100618
0.00100618
0.00100618
0.000936182
0.000936182
0.000936182
0.000899468
0.000899468
0.000899468
9.80413e-05
9.80413e-05
9.80413e-05
0.000976113
0.000976113
0.000976113
0.000962117
0.000962117
0.000962117
0.000912413
0.000912413
0.000912413
0.000256587
0.000256587
0.000256587
0.00104577
0.00104577
0.00104577
0.000442597
0.000442597
0.000442597
0.000122541
0.000122541
0.000122541
0.000128592
0.000128592
0.000128592
0.000161676
0.000161676
0.000161676
0.000146879
0.000146879
0.000146879
0.000146719
0.000146719
0.000146719
0.000140659
0.000140659
0.000140659
0.000161886
0.000161886
0.000161886
0.000169654
0.000169654
0.000169654
0.000198019
0.000198019
0.000198019
0.000187929
0.000187929
0.000187929
0.00018757
0.00018757
0.00018757
0.000169541
0.000169541
0.000169541
0.000258864
0.000258864
0.000258864
0.000308348
0.000308348
0.000308348
0.000328036
0.000328036
0.000328036
0.000392553
0.000392553
0.000392553
0.000367862
0.000367862
0.000367862
0.000188177
0.000188177
0.000188177
0.000162137
0.000162137
0.000162137
0.000169878
0.000169878
0.000169878
0.00135555
0.00135555
0.00135555
0.00146189
0.00146189
0.00146189
0.00159471
0.00159471
0.00159471
0.00147962
0.00147962
0.00147962
0.00117422
0.00117422
0.00117422
0.00110659
0.00110659
0.00110659
0.000741811
0.000741811
0.000741811
0.00128013
0.00128013
0.00128013
2.13406e-05
2.13406e-05
2.13406e-05
2.00259e-05
2.00259e-05
2.00259e-05
2.31337e-05
2.31337e-05
2.31337e-05
2.47452e-05
2.47452e-05
2.47452e-05
1.79609e-05
1.79609e-05
1.79609e-05
1.73314e-05
1.73314e-05
1.73314e-05
1.84598e-05
1.84598e-05
1.84598e-05
2.05821e-05
2.05821e-05
2.05821e-05
1.89553e-05
1.89553e-05
1.89553e-05
1.78038e-05
1.78038e-05
1.78038e-05
0.000101983
0.000101983
0.000101983
2.54297e-05
2.54297e-05
2.54297e-05
2.11329e-05
2.11329e-05
2.11329e-05
2.19227e-05
2.19227e-05
2.19227e-05
2.37642e-05
2.37642e-05
2.37642e-05
2.61102e-05
2.61102e-05
2.61102e-05
2.87669e-05
2.87669e-05
2.87669e-05
0.00446129
0.00446129
0.00446129
0.00332493
0.00332493
0.00332493
0.0032508
0.0032508
0.0032508
0.00347039
0.00347039
0.00347039
0.0033912
0.0033912
0.0033912
0.00345682
0.00345682
0.00345682
0.00354898
0.00354898
0.00354898
0.00351119
0.00351119
0.00351119
0.00343757
0.00343757
0.00343757
0.00229113
0.00229113
0.00229113
0.00231993
0.00231993
0.00231993
0.00236052
0.00236052
0.00236052
0.00306407
0.00306407
0.00306407
0.00300488
0.00300488
0.00300488
0.00333945
0.00333945
0.00333945
0.00329168
0.00329168
0.00329168
0.00332497
0.00332497
0.00332497
0.00327048
0.00327048
0.00327048
0.00325753
0.00325753
0.00325753
0.00336481
0.00336481
0.00336481
0.00342008
0.00342008
0.00342008
0.0034895
0.0034895
0.0034895
0.00341615
0.00341615
0.00341615
0.00343694
0.00343694
0.00343694
0.00340065
0.00340065
0.00340065
0.00350676
0.00350676
0.00350676
0.00346969
0.00346969
0.00346969
0.0029813
0.0029813
0.0029813
0.00295112
0.00295112
0.00295112
0.00290935
0.00290935
0.00290935
0.00286331
0.00286331
0.00286331
0.00269781
0.00269781
0.00269781
0.00272028
0.00272028
0.00272028
0.00301485
0.00301485
0.00301485
0.0029249
0.0029249
0.0029249
0.00300072
0.00300072
0.00300072
0.00295496
0.00295496
0.00295496
0.00372235
0.00372235
0.00372235
0.00376317
0.00376317
0.00376317
0.00374671
0.00374671
0.00374671
0.00404864
0.00404864
0.00404864
0.00401523
0.00401523
0.00401523
0.00363868
0.00363868
0.00363868
0.00180374
0.00180374
0.00180374
0.00135157
0.00135157
0.00135157
0.00156225
0.00156225
0.00156225
0.0035434
0.0035434
0.0035434
0.00362395
0.00362395
0.00362395
0.00386532
0.00386532
0.00386532
0.00382216
0.00382216
0.00382216
0.00278272
0.00278272
0.00278272
0.00297724
0.00297724
0.00297724
0.00286806
0.00286806
0.00286806
0.00290746
0.00290746
0.00290746
0.00306578
0.00306578
0.00306578
0.00299224
0.00299224
0.00299224
0.00294919
0.00294919
0.00294919
0.00384652
0.00384652
0.00384652
0.00388903
0.00388903
0.00388903
0.00386484
0.00386484
0.00386484
0.00394059
0.00394059
0.00394059
0.0039197
0.0039197
0.0039197
0.00389693
0.00389693
0.00389693
0.00383334
0.00383334
0.00383334
0.0038502
0.0038502
0.0038502
0.00380761
0.00380761
0.00380761
0.00275471
0.00275471
0.00275471
0.0027681
0.0027681
0.0027681
0.00279717
0.00279717
0.00279717
0.00248968
0.00248968
0.00248968
0.000162305
0.000162305
0.000162305
0.000153433
0.000153433
0.000153433
0.00166807
0.00166807
0.00166807
0.00022009
0.00022009
0.00022009
0.000234373
0.000234373
0.000234373
0.000180364
0.000180364
0.000180364
0.000173975
0.000173975
0.000173975
0.000158554
0.000158554
0.000158554
0.000149844
0.000149844
0.000149844
0.000169828
0.000169828
0.000169828
0.000154788
0.000154788
0.000154788
0.000197698
0.000197698
0.000197698
0.000208964
0.000208964
0.000208964
0.000231278
0.000231278
0.000231278
0.000240265
0.000240265
0.000240265
0.000225687
0.000225687
0.000225687
0.000203942
0.000203942
0.000203942
0.00199583
0.00199583
0.00199583
0.00227335
0.00227335
0.00227335
0.00242667
0.00242667
0.00242667
0.00239454
0.00239454
0.00239454
0.000445077
0.000445077
0.000445077
0.000266395
0.000266395
0.000266395
0.000422386
0.000422386
0.000422386
9.8143e-05
9.8143e-05
9.8143e-05
8.46376e-05
8.46376e-05
8.46376e-05
9.34186e-05
9.34186e-05
9.34186e-05
8.67589e-05
8.67589e-05
8.67589e-05
0.00144867
0.00144867
0.00144867
0.000878983
0.000878983
0.000878983
0.000893068
0.000893068
0.000893068
0.00148888
0.00148888
0.00148888
0.00182706
0.00182706
0.00182706
0.00180313
0.00180313
0.00180313
0.00233119
0.00233119
0.00233119
0.00246173
0.00246173
0.00246173
0.000116882
0.000116882
0.000116882
0.000106695
0.000106695
0.000106695
0.000192605
0.000192605
0.000192605
0.000180381
0.000180381
0.000180381
0.000120597
0.000120597
0.000120597
0.000124109
0.000124109
0.000124109
0.000228244
0.000228244
0.000228244
0.000213332
0.000213332
0.000213332
0.000221179
0.000221179
0.000221179
0.000255599
0.000255599
0.000255599
0.000263811
0.000263811
0.000263811
0.000247648
0.000247648
0.000247648
0.000147205
0.000147205
0.000147205
0.000124151
0.000124151
0.000124151
0.000126805
0.000126805
0.000126805
0.000138987
0.000138987
0.000138987
0.00019384
0.00019384
0.00019384
0.000183218
0.000183218
0.000183218
0.000120949
0.000120949
0.000120949
0.00015728
0.00015728
0.00015728
0.000143396
0.000143396
0.000143396
0.000113561
0.000113561
0.000113561
8.03575e-05
8.03575e-05
8.03575e-05
8.47718e-05
8.47718e-05
8.47718e-05
9.12723e-05
9.12723e-05
9.12723e-05
0.000133659
0.000133659
0.000133659
0.000136687
0.000136687
0.000136687
0.000119357
0.000119357
0.000119357
0.000130505
0.000130505
0.000130505
5.9064e-05
5.9064e-05
5.9064e-05
6.8615e-05
6.8615e-05
6.8615e-05
7.42715e-05
7.42715e-05
7.42715e-05
7.67746e-05
7.67746e-05
7.67746e-05
5.90365e-05
5.90365e-05
5.90365e-05
6.61407e-05
6.61407e-05
6.61407e-05
6.14519e-05
6.14519e-05
6.14519e-05
0.000761504
0.000761504
0.000761504
0.000789495
0.000789495
0.000789495
0.000753087
0.000753087
0.000753087
7.70952e-05
7.70952e-05
7.70952e-05
8.33462e-05
8.33462e-05
8.33462e-05
0.00011316
0.00011316
0.00011316
0.000120217
0.000120217
0.000120217
0.000131793
0.000131793
0.000131793
0.000135956
0.000135956
0.000135956
0.000157973
0.000157973
0.000157973
0.000148879
0.000148879
0.000148879
0.00243827
0.00243827
0.00243827
0.00263503
0.00263503
0.00263503
0.0025961
0.0025961
0.0025961
0.00228769
0.00228769
0.00228769
0.00248929
0.00248929
0.00248929
0.00246538
0.00246538
0.00246538
0.00247592
0.00247592
0.00247592
0.00243007
0.00243007
0.00243007
0.000320605
0.000320605
0.000320605
0.000329683
0.000329683
0.000329683
0.000225611
0.000225611
0.000225611
0.000289788
0.000289788
0.000289788
0.000517022
0.000517022
0.000517022
0.000202799
0.000202799
0.000202799
0.000260547
0.000260547
0.000260547
0.000975803
0.000975803
0.000975803
0.000483871
0.000483871
0.000483871
0.000246585
0.000246585
0.000246585
0.000188231
0.000188231
0.000188231
0.000255669
0.000255669
0.000255669
0.000462585
0.000462585
0.000462585
0.000469248
0.000469248
0.000469248
0.000964155
0.000964155
0.000964155
0.000924754
0.000924754
0.000924754
0.000833661
0.000833661
0.000833661
0.000787255
0.000787255
0.000787255
0.000931205
0.000931205
0.000931205
0.000893207
0.000893207
0.000893207
0.000941852
0.000941852
0.000941852
0.000914046
0.000914046
0.000914046
0.000858548
0.000858548
0.000858548
0.000868557
0.000868557
0.000868557
0.000947615
0.000947615
0.000947615
0.000959347
0.000959347
0.000959347
0.000923631
0.000923631
0.000923631
0.000875698
0.000875698
0.000875698
8.69435e-05
8.69435e-05
8.69435e-05
8.32013e-05
8.32013e-05
8.32013e-05
7.68725e-05
7.68725e-05
7.68725e-05
8.32715e-05
8.32715e-05
8.32715e-05
0.000107395
0.000107395
0.000107395
9.82611e-05
9.82611e-05
9.82611e-05
0.00011202
0.00011202
0.00011202
9.48192e-05
9.48192e-05
9.48192e-05
9.81951e-05
9.81951e-05
9.81951e-05
0.000107291
0.000107291
0.000107291
9.80582e-05
9.80582e-05
9.80582e-05
8.30538e-05
8.30538e-05
8.30538e-05
9.45185e-05
9.45185e-05
9.45185e-05
8.68616e-05
8.68616e-05
8.68616e-05
9.45545e-05
9.45545e-05
9.45545e-05
8.68529e-05
8.68529e-05
8.68529e-05
0.000128376
0.000128376
0.000128376
0.000122251
0.000122251
0.000122251
0.000146703
0.000146703
0.000146703
0.00016136
0.00016136
0.00016136
0.000146667
0.000146667
0.000146667
0.000140451
0.000140451
0.000140451
0.000169332
0.000169332
0.000169332
0.000161502
0.000161502
0.000161502
0.000229998
0.000229998
0.000229998
0.000219611
0.000219611
0.000219611
0.000197146
0.000197146
0.000197146
0.000187309
0.000187309
0.000187309
0.000197038
0.000197038
0.000197038
0.000229835
0.000229835
0.000229835
0.000219373
0.000219373
0.000219373
0.000161252
0.000161252
0.000161252
0.000832124
0.000832124
0.000832124
0.00058602
0.00058602
0.00058602
0.000842297
0.000842297
0.000842297
0.000792976
0.000792976
0.000792976
0.000953527
0.000953527
0.000953527
0.000939392
0.000939392
0.000939392
0.000831305
0.000831305
0.000831305
0.000875197
0.000875197
0.000875197
0.000805554
0.000805554
0.000805554
0.000863368
0.000863368
0.000863368
0.000256383
0.000256383
0.000256383
0.000805983
0.000805983
0.000805983
0.000270793
0.000270793
0.000270793
0.00092578
0.00092578
0.00092578
0.00101507
0.00101507
0.00101507
0.000840083
0.000840083
0.000840083
0.000272086
0.000272086
0.000272086
0.000271019
0.000271019
0.000271019
0.00030296
0.00030296
0.00030296
0.000323152
0.000323152
0.000323152
0.000303337
0.000303337
0.000303337
0.000319118
0.000319118
0.000319118
0.00143053
0.00143053
0.00143053
0.00129452
0.00129452
0.00129452
0.00132777
0.00132777
0.00132777
0.00151024
0.00151024
0.00151024
0.00160037
0.00160037
0.00160037
0.00128059
0.00128059
0.00128059
0.00141173
0.00141173
0.00141173
0.00140108
0.00140108
0.00140108
0.0016985
0.0016985
0.0016985
0.00154995
0.00154995
0.00154995
0.00174544
0.00174544
0.00174544
0.00173628
0.00173628
0.00173628
0.00175334
0.00175334
0.00175334
0.000128472
0.000128472
0.000128472
0.000122422
0.000122422
0.000122422
0.0001119
0.0001119
0.0001119
0.000107205
0.000107205
0.000107205
0.000111807
0.000111807
0.000111807
0.000122324
0.000122324
0.000122324
0.000197746
0.000197746
0.000197746
0.000197524
0.000197524
0.000197524
0.000187727
0.000187727
0.000187727
0.000220169
0.000220169
0.000220169
0.000276276
0.000276276
0.000276276
0.000225071
0.000225071
0.000225071
0.000236378
0.000236378
0.000236378
0.000232972
0.000232972
0.000232972
0.000307334
0.000307334
0.000307334
0.000274574
0.000274574
0.000274574
0.000273845
0.000273845
0.000273845
0.000259507
0.000259507
0.000259507
0.000198395
0.000198395
0.000198395
0.000221052
0.000221052
0.000221052
0.000221585
0.000221585
0.000221585
0.000231846
0.000231846
0.000231846
0.000170063
0.000170063
0.000170063
0.000188463
0.000188463
0.000188463
0.000188798
0.000188798
0.000188798
0.000198753
0.000198753
0.000198753
0.00162963
0.00162963
0.00162963
0.00165132
0.00165132
0.00165132
0.00168057
0.00168057
0.00168057
0.00160553
0.00160553
0.00160553
0.00139695
0.00139695
0.00139695
0.0012096
0.0012096
0.0012096
0.00165527
0.00165527
0.00165527
0.00150624
0.00150624
0.00150624
0.00155006
0.00155006
0.00155006
0.00143796
0.00143796
0.00143796
0.000630649
0.000630649
0.000630649
0.000785241
0.000785241
0.000785241
0.000897769
0.000897769
0.000897769
0.000763021
0.000763021
0.000763021
0.000721764
0.000721764
0.000721764
0.000872117
0.000872117
0.000872117
0.000952563
0.000952563
0.000952563
0.00059926
0.00059926
0.00059926
0.000648507
0.000648507
0.000648507
0.000527021
0.000527021
0.000527021
0.000500478
0.000500478
0.000500478
0.000980364
0.000980364
0.000980364
0.00117208
0.00117208
0.00117208
0.00124452
0.00124452
0.00124452
0.00113927
0.00113927
0.00113927
0.000807482
0.000807482
0.000807482
0.000922805
0.000922805
0.000922805
0.00100822
0.00100822
0.00100822
0.00131579
0.00131579
0.00131579
0.00120371
0.00120371
0.00120371
0.0012366
0.0012366
0.0012366
0.0010641
0.0010641
0.0010641
0.000297133
0.000297133
0.000297133
0.000331574
0.000331574
0.000331574
0.000486929
0.000486929
0.000486929
0.000411233
0.000411233
0.000411233
0.000365801
0.000365801
0.000365801
0.000400064
0.000400064
0.000400064
0.000433124
0.000433124
0.000433124
0.000340882
0.000340882
0.000340882
0.00035592
0.00035592
0.00035592
0.00063038
0.00063038
0.00063038
0.000578053
0.000578053
0.000578053
0.00104261
0.00104261
0.00104261
1.95685e-05
1.95685e-05
1.95685e-05
1.68543e-05
1.68543e-05
1.68543e-05
0.000166176
0.000166176
0.000166176
9.50825e-05
9.50825e-05
9.50825e-05
0.00170347
0.00170347
0.00170347
0.00163388
0.00163388
0.00163388
0.000384136
0.000384136
0.000384136
0.000362341
0.000362341
0.000362341
1.8332e-05
1.8332e-05
1.8332e-05
0.00106602
0.00106602
0.00106602
0.000444723
0.000444723
0.000444723
0.00124922
0.00124922
0.00124922
0.000853556
0.000853556
0.000853556
0.000385166
0.000385166
0.000385166
0.000659992
0.000659992
0.000659992
0.00124337
0.00124337
0.00124337
0.00119183
0.00119183
0.00119183
0.000944574
0.000944574
0.000944574
0.00103387
0.00103387
0.00103387
0.00114739
0.00114739
0.00114739
0.000370953
0.000370953
0.000370953
0.000178569
0.000178569
0.000178569
0.000172342
0.000172342
0.000172342
9.85165e-05
9.85165e-05
9.85165e-05
0.00144604
0.00144604
0.00144604
0.0013631
0.0013631
0.0013631
0.00142874
0.00142874
0.00142874
0.00127385
0.00127385
0.00127385
0.00119055
0.00119055
0.00119055
0.00122844
0.00122844
0.00122844
0.00138327
0.00138327
0.00138327
0.00141777
0.00141777
0.00141777
0.00155653
0.00155653
0.00155653
2.94141e-05
2.94141e-05
2.94141e-05
2.68324e-05
2.68324e-05
2.68324e-05
2.24984e-05
2.24984e-05
2.24984e-05
2.67837e-05
2.67837e-05
2.67837e-05
2.43901e-05
2.43901e-05
2.43901e-05
2.8112e-05
2.8112e-05
2.8112e-05
2.62306e-05
2.62306e-05
2.62306e-05
2.41982e-05
2.41982e-05
2.41982e-05
2.27596e-05
2.27596e-05
2.27596e-05
0.00302572
0.00302572
0.00302572
0.00268292
0.00268292
0.00268292
0.00405959
0.00405959
0.00405959
0.00432118
0.00432118
0.00432118
0.00436354
0.00436354
0.00436354
0.0033262
0.0033262
0.0033262
0.00336476
0.00336476
0.00336476
0.00355132
0.00355132
0.00355132
0.00343075
0.00343075
0.00343075
0.0031782
0.0031782
0.0031782
0.00314179
0.00314179
0.00314179
0.00405662
0.00405662
0.00405662
0.00396952
0.00396952
0.00396952
0.00499888
0.00499888
0.00499888
0.00508738
0.00508738
0.00508738
0.00502239
0.00502239
0.00502239
0.00492899
0.00492899
0.00492899
0.00477953
0.00477953
0.00477953
0.00353171
0.00353171
0.00353171
0.0034746
0.0034746
0.0034746