<VTKFile type="UnstructuredGrid" version="1.0">
<UnstructuredGrid>
<Piece NumberOfPoints="10830" NumberOfCells="3610">
<Points>
<DataArray type="Float64" NumberOfComponents="3" format="ascii">
3.11035 1.27826 2.11575
3.11035 1.28831 2.14146
3.11035 1.28831 2.09
3.11035 1.28831 2.64508
3.11035 1.27701 2.67053
3.11035 1.28831 2.696
3.11035 1.28831 2.64508
3.11035 1.26002 2.6451
3.11035 1.27701 2.67053
3.11035 0.0244388 3.11759
3.11035 4.44089e-16 3.135
3.11035 0.0422213 3.135
3.11035 4.44089e-16 3.135
3.11035 0.0244388 3.11759
3.11035 -7.90479e-14 3.10484
3.11035 1.28831 2.64508
3.11035 1.27702 2.61968
3.11035 1.26002 2.6451
3.11035 0.00863377 2.36679
3.11035 1.50546e-13 2.34157
3.11035 1.49658e-13 2.39201
3.11035 1.27705 2.3669
3.11035 1.26004 2.39211
3.11035 1.28831 2.39209
3.11035 1.27684 2.26634
3.11035 1.28831 2.29139
3.11035 1.28831 2.24128
3.11035 1.26004 2.39211
3.11035 1.27707 2.41732
3.11035 1.28831 2.39209
3.11035 1.28831 2.39209
3.11035 1.27707 2.41732
3.11035 1.28831 2.44254
3.11035 1.26005 2.44255
3.11035 1.28831 2.44254
3.11035 1.27707 2.41732
3.11035 1.26003 2.59431
3.11035 1.24613 2.6197
3.11035 1.27702 2.61968
3.11035 1.24613 2.6197
3.11035 1.26002 2.6451
3.11035 1.27702 2.61968
3.11035 1.24613 2.6197
3.11035 1.26003 2.59431
3.11035 1.23052 2.59432
3.11035 1.24613 2.6197
3.11035 1.23052 2.64512
3.11035 1.26002 2.6451
3.11035 1.28831 2.49304
3.11035 1.27705 2.51833
3.11035 1.28831 2.54362
3.11035 1.27705 2.51833
3.11035 1.24616 2.51834
3.11035 1.26004 2.54363
3.11035 1.28831 2.54362
3.11035 1.27705 2.51833
3.11035 1.26004 2.54363
3.11035 1.28831 2.59429
3.11035 1.26003 2.59431
3.11035 1.27702 2.61968
3.11035 1.28831 2.64508
3.11035 1.28831 2.59429
3.11035 1.27702 2.61968
3.11035 1.25981 2.24132
3.11035 1.27684 2.26634
3.11035 1.28831 2.24128
3.11035 1.26002 2.69602
3.11035 1.28831 2.696
3.11035 1.27701 2.67053
3.11035 0.85884 2.87575
3.11035 0.888295 2.87572
3.11035 0.873578 2.84998
3.11035 4.44089e-16 2.09
3.11035 0.00987207 2.11471
3.11035 0.0277369 2.09
3.11035 0.0840033 2.34159
3.11035 0.0689903 2.31637
3.11035 0.0549577 2.34157
3.11035 0.0264927 2.34156
3.11035 0.0392653 2.36678
3.11035 0.0549577 2.34157
3.11035 0.0264927 2.34156
3.11035 1.50546e-13 2.34157
3.11035 0.00863377 2.36679
3.11035 0.0392653 2.36678
3.11035 0.0264927 2.34156
3.11035 0.00863377 2.36679
3.11035 0.0087521 2.56894
3.11035 1.48326e-13 2.54361
3.11035 -9.59233e-14 2.5943
3.11035 0.0265703 2.5943
3.11035 0.0550657 2.59429
3.11035 0.0393699 2.56893
3.11035 -9.59233e-14 2.5943
3.11035 0.0265703 2.5943
3.11035 0.0087521 2.56894
3.11035 0.0265703 2.5943
3.11035 0.0393699 2.56893
3.11035 0.0087521 2.56894
3.11035 0.0265544 2.5436
3.11035 0.0393699 2.56893
3.11035 0.0550443 2.5436
3.11035 0.0265544 2.5436
3.11035 1.48326e-13 2.54361
3.11035 0.0087521 2.56894
3.11035 0.0393699 2.56893
3.11035 0.0265544 2.5436
3.11035 0.0087521 2.56894
3.11035 1.49658e-13 2.39201
3.11035 0.0265126 2.392
3.11035 0.00863377 2.36679
3.11035 0.0265126 2.392
3.11035 0.0392653 2.36678
3.11035 0.00863377 2.36679
3.11035 0.0550657 2.59429
3.11035 0.0691236 2.56893
3.11035 0.0393699 2.56893
3.11035 0.0393699 2.56893
3.11035 0.0691236 2.56893
3.11035 0.0550443 2.5436
3.11035 0.288852 2.54367
3.11035 0.274248 2.569
3.11035 0.303471 2.56901
3.11035 0.274248 2.569
3.11035 0.288872 2.59437
3.11035 0.303471 2.56901
3.11035 0.288872 2.59437
3.11035 0.318088 2.59438
3.11035 0.303471 2.56901
3.11035 0.844143 2.85
3.11035 0.85884 2.87575
3.11035 0.873578 2.84998
3.11035 1.27699 2.31656
3.11035 1.28831 2.3417
3.11035 1.28831 2.29139
3.11035 1.28831 2.39209
3.11035 1.28831 2.3417
3.11035 1.27705 2.3669
3.11035 1.17079 2.4931
3.11035 1.15586 2.46785
3.11035 1.14088 2.49311
3.11035 1.26004 2.49305
3.11035 1.24616 2.51834
3.11035 1.27705 2.51833
3.11035 1.28831 2.49304
3.11035 1.26004 2.49305
3.11035 1.27705 2.51833
3.11035 1.24616 2.51834
3.11035 1.23053 2.54365
3.11035 1.26004 2.54363
3.11035 1.27704 2.56895
3.11035 1.28831 2.54362
3.11035 1.26004 2.54363
3.11035 1.28831 2.54362
3.11035 1.27704 2.56895
3.11035 1.28831 2.59429
3.11035 1.27704 2.56895
3.11035 1.26003 2.59431
3.11035 1.28831 2.59429
3.11035 1.24591 2.26637
3.11035 1.27684 2.26634
3.11035 1.25981 2.24132
3.11035 1.27699 2.31656
3.11035 1.26001 2.34174
3.11035 1.28831 2.3417
3.11035 1.26001 2.34174
3.11035 1.27705 2.3669
3.11035 1.28831 2.3417
3.11035 1.15573 2.31661
3.11035 1.1706 2.29143
3.11035 1.1407 2.29143
3.11035 1.20051 2.29145
3.11035 1.21561 2.26631
3.11035 1.18556 2.26626
3.11035 1.20051 2.29145
3.11035 1.18556 2.26626
3.11035 1.1706 2.29143
3.11035 1.24614 2.36693
3.11035 1.26004 2.39211
3.11035 1.27705 2.3669
3.11035 1.24614 2.36693
3.11035 1.27705 2.3669
3.11035 1.26001 2.34174
3.11035 1.24612 2.67055
3.11035 1.27701 2.67053
3.11035 1.26002 2.6451
3.11035 1.27701 2.67053
3.11035 1.24612 2.67055
3.11035 1.26002 2.69602
3.11035 1.23052 2.64512
3.11035 1.24612 2.67055
3.11035 1.26002 2.6451
3.11035 1.24611 2.82405
3.11035 1.23051 2.79837
3.11035 1.21584 2.82406
3.11035 1.21584 2.77274
3.11035 1.23051 2.79837
3.11035 1.24611 2.77272
3.11035 1.27699 2.72153
3.11035 1.28831 2.696
3.11035 1.26002 2.69602
3.11035 1.24611 2.72156
3.11035 1.27699 2.72153
3.11035 1.26002 2.69602
3.11035 0.917741 2.92732
3.11035 0.902954 2.9532
3.11035 0.932465 2.95316
3.11035 1.08109 2.79843
3.11035 1.11094 2.79841
3.11035 1.09602 2.77279
3.11035 1.11094 2.79841
3.11035 1.12589 2.77278
3.11035 1.09602 2.77279
3.11035 1.2305 2.74713
3.11035 1.24611 2.72156
3.11035 1.21584 2.72158
3.11035 1.2305 2.74713
3.11035 1.21584 2.77274
3.11035 1.24611 2.77272
3.11035 1.0662 2.77281
3.11035 1.08109 2.79843
3.11035 1.09602 2.77279
3.11035 0.991917 2.54374
3.11035 0.977089 2.51844
3.11035 0.962274 2.54374
3.11035 0.917902 2.51844
3.11035 0.888384 2.51844
3.11035 0.903138 2.54375
3.11035 0.932681 2.54375
3.11035 0.917902 2.51844
3.11035 0.903138 2.54375
3.11035 0.903119 2.44265
3.11035 0.917893 2.46789
3.11035 0.932664 2.44265
3.11035 0.917893 2.46789
3.11035 0.903119 2.44265
3.11035 0.888374 2.46789
3.11035 0.903119 2.44265
3.11035 0.873625 2.44264
3.11035 0.888374 2.46789
3.11035 0.917893 2.46789
3.11035 0.947463 2.4679
3.11035 0.932664 2.44265
3.11035 0.962233 2.39223
3.11035 0.947444 2.41743
3.11035 0.977066 2.41744
3.11035 0.947444 2.41743
3.11035 0.962233 2.39223
3.11035 0.932637 2.39223
3.11035 0.741456 2.56909
3.11035 0.770765 2.56909
3.11035 0.756104 2.54375
3.11035 0.756104 2.54375
3.11035 0.770765 2.56909
3.11035 0.785431 2.54375
3.11035 0.903133 2.49316
3.11035 0.917893 2.46789
3.11035 0.888374 2.46789
3.11035 0.903133 2.49316
3.11035 0.888384 2.51844
3.11035 0.917902 2.51844
3.11035 0.888384 2.51844
3.11035 0.873639 2.49315
3.11035 0.858913 2.51844
3.11035 0.873639 2.49315
3.11035 0.888384 2.51844
3.11035 0.903133 2.49316
3.11035 0.888374 2.46789
3.11035 0.873639 2.49315
3.11035 0.903133 2.49316
3.11035 0.873625 2.44264
3.11035 0.858884 2.41741
3.11035 0.844177 2.44264
3.11035 0.844153 2.39219
3.11035 0.858884 2.41741
3.11035 0.873599 2.39221
3.11035 0.318069 2.54368
3.11035 0.288852 2.54367
3.11035 0.303471 2.56901
3.11035 0.288852 2.54367
3.11035 0.318069 2.54368
3.11035 0.303454 2.51836
3.11035 0.00864568 2.16487
3.11035 -9.63674e-14 2.13942
3.11035 1.49658e-13 2.19009
3.11035 4.44089e-16 2.09
3.11035 -9.63674e-14 2.13942
3.11035 0.00987207 2.11471
3.11035 0.0264295 2.2407
3.11035 0.00849117 2.21542
3.11035 1.50546e-13 2.24067
3.11035 1.50546e-13 2.24067
3.11035 0.00849117 2.21542
3.11035 1.49658e-13 2.19009
3.11035 1.28831 2.09
3.11035 1.26122 2.09
3.11035 1.27826 2.11575
3.11035 1.50546e-13 2.34157
3.11035 0.00859461 2.31636
3.11035 1.50546e-13 2.29114
3.11035 0.00859461 2.31636
3.11035 1.50546e-13 2.34157
3.11035 0.0264927 2.34156
3.11035 0.0264637 2.29113
3.11035 1.50546e-13 2.29114
3.11035 0.00859461 2.31636
3.11035 0.0264637 2.29113
3.11035 0.0549232 2.29116
3.11035 0.0391815 2.26594
3.11035 0.0392276 2.31635
3.11035 0.0549577 2.34157
3.11035 0.0689903 2.31637
3.11035 0.0549577 2.34157
3.11035 0.0392276 2.31635
3.11035 0.0264927 2.34156
3.11035 0.0549232 2.29116
3.11035 0.0392276 2.31635
3.11035 0.0689903 2.31637
3.11035 0.0392276 2.31635
3.11035 0.0549232 2.29116
3.11035 0.0264637 2.29113
3.11035 0.0264927 2.34156
3.11035 0.0392276 2.31635
3.11035 0.00859461 2.31636
3.11035 0.00859461 2.31636
3.11035 0.0392276 2.31635
3.11035 0.0264637 2.29113
3.11035 0.00854014 2.26591
3.11035 1.50546e-13 2.24067
3.11035 1.50546e-13 2.29114
3.11035 0.00854014 2.26591
3.11035 0.0264295 2.2407
3.11035 1.50546e-13 2.24067
3.11035 0.0264295 2.2407
3.11035 0.00854014 2.26591
3.11035 0.0391815 2.26594
3.11035 0.00854014 2.26591
3.11035 1.50546e-13 2.29114
3.11035 0.0264637 2.29113
3.11035 0.0391815 2.26594
3.11035 0.00854014 2.26591
3.11035 0.0264637 2.29113
3.11035 0.0690987 2.51829
3.11035 0.0393425 2.51829
3.11035 0.0550443 2.5436
3.11035 0.0550443 2.5436
3.11035 0.0393425 2.51829
3.11035 0.0265544 2.5436
3.11035 0.0393425 2.51829
3.11035 0.0690987 2.51829
3.11035 0.0550252 2.493
3.11035 0.0690242 2.36679
3.11035 0.0840033 2.34159
3.11035 0.0549577 2.34157
3.11035 0.0392653 2.36678
3.11035 0.0690242 2.36679
3.11035 0.0549577 2.34157
3.11035 0.0984777 2.3668
3.11035 0.0840033 2.34159
3.11035 0.0690242 2.36679
3.11035 0.0840313 2.39201
3.11035 0.0984777 2.3668
3.11035 0.0690242 2.36679
3.11035 0.0840313 2.39201
3.11035 0.113251 2.39202
3.11035 0.0984777 2.3668
3.11035 0.303441 2.4678
3.11035 0.288836 2.49307
3.11035 0.318055 2.49307
3.11035 0.288836 2.49307
3.11035 0.303454 2.51836
3.11035 0.318055 2.49307
3.11035 0.186476 2.51832
3.11035 0.201123 2.54363
3.11035 0.215741 2.51833
3.11035 0.201103 2.49304
3.11035 0.186476 2.51832
3.11035 0.215741 2.51833
3.11035 0.215723 2.46777
3.11035 0.230345 2.44253
3.11035 0.201085 2.44252
3.11035 0.201103 2.49304
3.11035 0.215723 2.46777
3.11035 0.186456 2.46776
3.11035 0.215723 2.46777
3.11035 0.201085 2.44252
3.11035 0.186456 2.46776
3.11035 0.215762 2.56898
3.11035 0.230402 2.59434
3.11035 0.245012 2.56899
3.11035 0.157245 2.6197
3.11035 0.186525 2.61971
3.11035 0.171881 2.59432
[...]
<PointData Scalars="View Factor" >
<DataArray type="Float64" Name="View Factor" NumberOfComponents="1" format="ascii">
0.0238463
0.0238463
0.0238463
0.0454968
0.0454968
0.0454968
0.0446941
0.0446941
0.0446941
0.0648006
0.0648006
0.0648006
0.0697828
0.0697828
0.0697828
0.0437689
0.0437689
0.0437689
0.026252
0.026252
0.026252
0.0323381
0.0323381
0.0323381
0.0281885
0.0281885
0.0281885
0.032977
0.032977
0.032977
0.0335315
0.0335315
0.0335315
0.0343017
0.0343017
0.0343017
0.0426231
0.0426231
0.0426231
0.0435188
0.0435188
0.0435188
0.0423977
0.0423977
0.0423977
0.0442007
0.0442007
0.0442007
0.037792
0.037792
0.037792
0.0384679
0.0384679
0.0384679
0.0386838
0.0386838
0.0386838
0.0419878
0.0419878
0.0419878
0.0427316
0.0427316
0.0427316
0.0277418
0.0277418
0.0277418
0.0466172
0.0466172
0.0466172
0.0183228
0.0183228
0.0183228
0.0181972
0.0181972
0.0181972
0.0159298
0.0159298
0.0159298
0.0206535
0.0206535
0.0206535
0.0245838
0.0245838
0.0245838
0.0228875
0.0228875
0.0228875
0.0339161
0.0339161
0.0339161
0.0276595
0.0276595
0.0276595
0.0331153
0.0331153
0.0331153
0.0301152
0.0301152
0.0301152
0.0265017
0.0265017
0.0265017
0.0317006
0.0317006
0.0317006
0.0294702
0.0294702
0.0294702
0.0256256
0.0256256
0.0256256
0.0233638
0.0233638
0.0233638
0.0240618
0.0240618
0.0240618
0.0235626
0.0235626
0.0235626
0
0
0
0
0
0
0
0
0
0.0148808
0.0148808
0.0148808
0.0298431
0.0298431
0.0298431
0.0316213
0.0316213
0.0316213
0.0353896
0.0353896
0.0353896
0.0376973
0.0376973
0.0376973
0.0371511
0.0371511
0.0371511
0.0390536
0.0390536
0.0390536
0.0394792
0.0394792
0.0394792
0.0401692
0.0401692
0.0401692
0.0411305
0.0411305
0.0411305
0.0281221
0.0281221
0.0281221
0.0305105
0.0305105
0.0305105
0.0311051
0.0311051
0.0311051
0.0282953
0.0282953
0.0282953
0.0287403
0.0287403
0.0287403
0.0286883
0.0286883
0.0286883
0.0321638
0.0321638
0.0321638
0.0315441
0.0315441
0.0315441
0.0453803
0.0453803
0.0453803
0.0463475
0.0463475
0.0463475
0.0451373
0.0451373
0.0451373
0.0556413
0.0556413
0.0556413
0.0532573
0.0532573
0.0532573
0.0476167
0.0476167
0.0476167
0.0483587
0.0483587
0.0483587
0.0619432
0.0619432
0.0619432
0.0488288
0.0488288
0.0488288
0.0492301
0.0492301
0.0492301
0.0499095
0.0499095
0.0499095
0.0521119
0.0521119
0.0521119
0.0463714
0.0463714
0.0463714
0.0188932
0.0188932
0.0188932
0.00549706
0.00549706
0.00549706
0.00791671
0.00791671
0.00791671
0.0070942
0.0070942
0.0070942
0.00504347
0.00504347
0.00504347
0.00299742
0.00299742
0.00299742
0.00982603
0.00982603
0.00982603
0.0134335
0.0134335
0.0134335
0.01119
0.01119
0.01119
0
0
0
0
0
0
0.00515258
0.00515258
0.00515258
0.00537929
0.00537929
0.00537929
0.00121104
0.00121104
0.00121104
0.00319229
0.00319229
0.00319229
0.00312572
0.00312572
0.00312572
0
0
0
0
0
0
0
0
0
0
0
0
0.0205616
0.0205616
0.0205616
0.0193857
0.0193857
0.0193857
0.0213134
0.0213134
0.0213134
0.021836
0.021836
0.021836
0.0234656
0.0234656
0.0234656
0.0246719
0.0246719
0.0246719
0.024082
0.024082
0.024082
0.0231143
0.0231143
0.0231143
0.0190557
0.0190557
0.0190557
0.0177184
0.0177184
0.0177184
0.0202396
0.0202396
0.0202396
0.0173712
0.0173712
0.0173712
0.0194409
0.0194409
0.0194409
0.0219694
0.0219694
0.0219694
0.0215267
0.0215267
0.0215267
0.0232033
0.0232033
0.0232033
0.0217477
0.0217477
0.0217477
0.0202611
0.0202611
0.0202611
0.0226478
0.0226478
0.0226478
0.0206729
0.0206729
0.0206729
0.0226008
0.0226008
0.0226008
0.0259446
0.0259446
0.0259446
0.0221375
0.0221375
0.0221375
0.016244
0.016244
0.016244
0.0184378
0.0184378
0.0184378
0.0144147
0.0144147
0.0144147
0.0146942
0.0146942
0.0146942
0.0128501
0.0128501
0.0128501
0
0
0
0
0
0
0.00212584
0.00212584
0.00212584
0.00209433
0.00209433
0.00209433
0.000954149
0.000954149
0.000954149
0.00203276
0.00203276
0.00203276
0.00200269
0.00200269
0.00200269
0
0
0
0.0051526
0.0051526
0.0051526
0.00338922
0.00338922
0.00338922
0.00475408
0.00475408
0.00475408
0.0215141
0.0215141
0.0215141
0.0194276
0.0194276
0.0194276
0.0171746
0.0171746
0.0171746
0.00823862
0.00823862
0.00823862
0.0206491
0.0206491
0.0206491
0.0202322
0.0202322
0.0202322
0.017518
0.017518
0.017518
0.00549709
0.00549709
0.00549709
0.0811623
0.0811623
0.0811623
0.0693849
0.0693849
0.0693849
0
0
0
0
0
0
0
0
0
0
0
0
0
0
0
0
0
0
0
0
0
0
0
0
0
0
0
0
0
0
0.00232558
0.00232558
0.00232558
0
0
0
0
0
0
0
0
0
0
0
0
0
0
0
0
0
0
0
0
0
0
0
0
0
0
0
0.0151864
0.0151864
0.0151864
0.0172638
0.0172638
0.0172638
0.0169985
0.0169985
0.0169985
0.0149612
0.0149612
0.0149612
0.0105781
0.0105781
0.0105781
0.00909938
0.00909938
0.00909938
0.00205699
0.00205699
0.00205699
0.0104275
0.0104275
0.0104275
0.0187386
0.0187386
0.0187386
0.0288352
0.0288352
0.0288352
0
0
0
0
0
0
0.0425116
0.0425116
0.0425116
0.0469584
0.0469584
0.0469584
0.0423058
0.0423058
0.0423058
0.0286965
0.0286965
0.0286965
0.0420895
0.0420895
0.0420895
0.0467242
0.0467242
0.0467242
0.0564199
0.0564199
0.0564199
0
0
0
0.0285506
0.0285506
0.0285506
0.0186463
0.0186463
0.0186463
0
0
0
0
0
0
0
0
0
0.078809
0.078809
0.078809
0.0376709
0.0376709
0.0376709
0.0617705
0.0617705
0.0617705
0.0637316
0.0637316
0.0637316
0.0651592
0.0651592
0.0651592
0.0428043
0.0428043
0.0428043
0.0439507
0.0439507
0.0439507
0.0430439
0.0430439
0.0430439
0.0429397
0.0429397
0.0429397
0.0154018
0.0154018
0.0154018
0.0157488
0.0157488
0.0157488
0.017153
0.017153
0.017153
0.036159
0.036159
0.036159
0.0349101
0.0349101
0.0349101
0.0364125
0.0364125
0.0364125
0.0362115
0.0362115
0.0362115
0.0355842
0.0355842
0.0355842
0.0349883
0.0349883
0.0349883
0.0354955
0.0354955
0.0354955
0.0411833
0.0411833
0.0411833
0.0419262
0.0419262
0.0419262
0.0415299
0.0415299
0.0415299
0.0398585
0.0398585
0.0398585
0.0412979
0.0412979
0.0412979
0.0404574
0.0404574
0.0404574
0.0408983
0.0408983
0.0408983
0.0400679
0.0400679
0.0400679
0.0293627
0.0293627
0.0293627
0.0288095
0.0288095
0.0288095
0.0286589
0.0286589
0.0286589
0.0272274
0.0272274
0.0272274
0.0277393
0.0277393
0.0277393
0.0279236
0.0279236
0.0279236
0.0313869
0.0313869
0.0313869
0.031058
0.031058
0.031058
0.031833
0.031833
0.031833
0.0316661
0.0316661
0.0316661
0.0470844
0.0470844
0.0470844
0.0480963
0.0480963
0.0480963
0.0488508
0.0488508
0.0488508
0.0568817
0.0568817
0.0568817
0.063359
0.063359
0.063359
0.0683536
0.0683536
0.0683536
0.0238808
0.0238808
0.0238808
0.0144796
0.0144796
0.0144796
0.018726
0.018726
0.018726
0.050316
0.050316
0.050316
0.0537021
0.0537021
0.0537021
0.0564083
0.0564083
0.0564083
0.0550219
0.0550219
0.0550219
0.0286051
0.0286051
0.0286051
0.034288
0.034288
0.034288
0.0315298
0.0315298
0.0315298
0.0325094
0.0325094
0.0325094
0.0363653
0.0363653
0.0363653
0.0345186
0.0345186
0.0345186
0.0329082
0.0329082
0.0329082
0.0502011
0.0502011
0.0502011
0.0512956
0.0512956
0.0512956
0.0494042
0.0494042
0.0494042
0.055314
0.055314
0.055314
0.0557295
0.0557295
0.0557295
0.0541149
0.0541149
0.0541149
0.0532609
0.0532609
0.0532609
0.0548251
0.0548251
0.0548251
0.0535649
0.0535649
0.0535649
0.0279567
0.0279567
0.0279567
0.0286932
0.0286932
0.0286932
0.0293486
0.0293486
0.0293486
0.018041
0.018041
0.018041
0.00333049
0.00333049
0.00333049
0.00123639
0.00123639
0.00123639
0.00809458
0.00809458
0.00809458
0
0
0
0
0
0
0
0
0
0
0
0
0
0
0
0
0
0
0
0
0
0
0
0
0
0
0
0
0
0
0
0
0
0
0
0
0
0
0
0
0
0
0.0107445
0.0107445
0.0107445
0.0133921
0.0133921
0.0133921
0.0157403
0.0157403
0.0157403
0.015383
0.015383
0.015383
0
0
0
0
0
0
0
0
0
0.0029356
0.0029356
0.0029356
0.0028164
0.0028164
0.0028164
0.00109302
0.00109302
0.00109302
0.00107106
0.00107106
0.00107106
0.00664956
0.00664956
0.00664956
0.00473222
0.00473222
0.00473222
0.00483337
0.00483337
0.00483337
0.00694216
0.00694216
0.00694216
0.00940218
0.00940218
0.00940218
0.00919849
0.00919849
0.00919849
0.0146974
0.0146974
0.0146974
0.0176323
0.0176323
0.0176323
0
0
0
0
0
0
0
0
0
0
0
0
0
0
0
0
0
0
0
0
0
0
0
0
0
0
0
0
0
0
0
0
0
0
0
0
0
0
0
0
0
0
0
0
0
0
0
0
0
0
0
0
0
0
0
0
0
0
0
0
0
0
0
0
0
0
0
0
0
0
0
0
0
0
0
0
0
0
0
0
0
0
0
0
0
0
0
0
0
0
0
0
0
0
0
0
0
0
0
0
0
0
0
0
0
0
0
0
0.0123777
0.0123777
0.0123777
0.0138742
0.0138742
0.0138742
0.0121492
0.0121492
0.0121492
0
0
0
0
0
0
0
0
0
0
0
0
0
0
0
0
0
0
0
0
0
0
0
0
0.0226763
0.0226763
0.0226763
0.0237773
0.0237773
0.0237773
0.0236543
0.0236543
0.0236543
0.0196654
0.0196654
0.0196654
0.0237364
0.0237364
0.0237364
0.0232954
0.0232954
0.0232954
0.0227666
0.0227666
0.0227666
0.0218338
0.0218338
0.0218338
0.0362351
0.0362351
0.0362351
0.0338509
0.0338509
0.0338509
0.031773
0.031773
0.031773
0.0310206
0.0310206
0.0310206
0.0282293
0.0282293
0.0282293
0.0297904
0.0297904
0.0297904
0.0278717
0.0278717
0.0278717
0.0233603
0.0233603
0.0233603
0.0259303
0.0259303
0.0259303
0.0261661
0.0261661
0.0261661
0.0279542
0.0279542
0.0279542
0.0272888
0.0272888
0.0272888
0.0243522
0.0243522
0.0243522
0.0248651
0.0248651
0.0248651
0.022881
0.022881
0.022881
0.0199834
0.0199834
0.0199834
0.0152725
0.0152725
0.0152725
0.0130941
0.0130941
0.0130941
0.021512
0.021512
0.021512
0.0188104
0.0188104
0.0188104
0.0219572
0.0219572
0.0219572
0.019583
0.019583
0.019583
0.0168946
0.0168946
0.0168946
0.0172314
0.0172314
0.0172314
0.0208137
0.0208137
0.0208137
0.0212442
0.0212442
0.0212442
0.0190396
0.0190396
0.0190396
0.0165113
0.0165113
0.0165113
0
0
0
0
0
0
0
0
0
0
0
0
0
0
0
0
0
0
0
0
0
0
0
0
0
0
0
0
0
0
0.00467842
0.00467842
0.00467842
0.00453097
0.00453097
0.00453097
0.00328593
0.00328593
0.00328593
0.00323554
0.00323554
0.00323554
0.0063859
0.0063859
0.0063859
0.00628039
0.00628039
0.00628039
0.00219036
0.00219036
0.00219036
0.00344215
0.00344215
0.00344215
0.00107084
0.00107084
0.00107084
0.00360624
0.00360624
0.00360624
0.00355064
0.00355064
0.00355064
0.00222339
0.00222339
0.00222339
0.00229098
0.00229098
0.00229098
0.00108642
0.00108642
0.00108642
0.00540873
0.00540873
0.00540873
0.00377857
0.00377857
0.00377857
0.00372019
0.00372019
0.00372019
0.00523651
0.00523651
0.00523651
0.00710983
0.00710983
0.00710983
0.00964201
0.00964201
0.00964201
0.00715236
0.00715236
0.00715236
0.00698047
0.00698047
0.00698047
0.0143981
0.0143981
0.0143981
0.010038
0.010038
0.010038
0.0146766
0.0146766
0.0146766
0.0121818
0.0121818
0.0121818
0.0185976
0.0185976
0.0185976
0.0182293
0.0182293
0.0182293
0.0128814
0.0128814
0.0128814
0.0155507
0.0155507
0.0155507
0.0124101
0.0124101
0.0124101
0.0152528
0.0152528
0.0152528
0.00981361
0.00981361
0.00981361
0.0122553
0.0122553
0.0122553
0.00739752
0.00739752
0.00739752
0.0147
0.0147
0.0147
0.0176415
0.0176415
0.0176415
0.0124827
0.0124827
0.0124827
0
0
0
0.00389822
0.00389822
0.00389822
0.00395952
0.00395952
0.00395952
0.00250676
0.00250676
0.00250676
0.00118487
0.00118487
0.00118487
0.0758263
0.0758263
0.0758263
0.0564361
0.0564361
0.0564361
0.0633769
0.0633769
0.0633769
0.0580547
0.0580547
0.0580547
0.0599301
0.0599301
0.0599301
0.0550044
0.0550044
0.0550044
0.079974
0.079974
0.079974
0.0700627
0.0700627
0.0700627
0.0755599
0.0755599
0.0755599
0.0708054
0.0708054
0.0708054
0.0642554
0.0642554
0.0642554
0.0642124
0.0642124
0.0642124
0.0537893
0.0537893
0.0537893
0.0590201
0.0590201
0.0590201
0
0
0
0
0
0
0
0
0
0
0
0
0.00102545
0.00102545
0.00102545
0.00104035
0.00104035
0.00104035
0
0
0
0.00111828
0.00111828
0.00111828
0
0
0
0
0
0
0
0
0
0
0
0
0
0
0
0
0
0
0
0
0
0
0
0
0
0
0
0
0
0
0
0
0
0
0
0
0
0
0
0
0
0
0
0
0
0
0
0
0
0
0
0
0
0
0.027163
0.027163
0.027163
0.0359174
0.0359174
0.0359174
0.0270243
0.0270243
0.0270243
0.0230922
0.0230922
0.0230922
0.015114
0.015114
0.015114
0.0105297
0.0105297
0.0105297
0.0229741
0.0229741
0.0229741
0.0171785
0.0171785
0.0171785
0.01709
0.01709
0.01709
0.0150389
0.0150389
0.0150389
0.000745275
0.000745275
0.000745275
0.00306902
0.00306902
0.00306902
0.00488301
0.00488301
0.00488301
0.00308175
0.00308175
0.00308175
0.00206553
0.00206553
0.00206553
0.00503356
0.00503356
0.00503356
0.00623006
0.00623006
0.00623006
0
0
0
0.000742205
0.000742205
0.000742205
0
0
0
0
0
0
0.00620244
0.00620244
0.00620244
0.00901417
0.00901417
0.00901417
0.0104795
0.0104795
0.0104795
0.00905752
0.00905752
0.00905752
0.00305581
0.00305581
0.00305581
0.00482708
0.00482708
0.00482708
0.00617383
0.00617383
0.00617383
0.0103738
0.0103738
0.0103738
0.00896933
0.00896933
0.00896933
0.0104876
0.0104876
0.0104876
0.00772063
0.00772063
0.00772063
0
0
0
0
0
0
0
0
0
0
0
0
0
0
0
0
0
0
0
0
0
0
0
0
0
0
0
0.00314832
0.00314832
0.00314832
0.00211668
0.00211668
0.00211668
0.0731139
0.0731139
0.0731139
0.0189876
0.0189876
0.0189876
0.047181
0.047181
0.047181
0.0597552
0.0597552
0.0597552
0.0569727
0.0569727
0.0569727
0.0357283
0.0357283
0.0357283
0.0401668
0.0401668
0.0401668
0.00408511
0.00408511
0.00408511
0.00254469
0.00254469
0.00254469
0.0292091
0.0292091
0.0292091
0.0642498
0.0642498
0.0642498
0
0
0
0.0372907
0.0372907
0.0372907
0.0749052
0.0749052
0.0749052
0
0
0
0.00208932
0.00208932
0.00208932
0.0176435
0.0176435
0.0176435
0.0154489
0.0154489
0.0154489
0.00928587
0.00928587
0.00928587
0.0107539
0.0107539
0.0107539
0.0635453
0.0635453
0.0635453
0.0645202
0.0645202
0.0645202
0.059191
0.059191
0.059191
0.0594802
0.0594802
0.0594802
0.0567032
0.0567032
0.0567032
0.0366008
0.0366008
0.0366008
0.0236171
0.0236171
0.0236171
0.0276653
0.0276653
0.0276653
0.0546727
0.0546727
0.0546727
0.0632831
0.0632831
0.0632831
0.0549035
0.0549035
0.0549035
0.0424143
0.0424143
0.0424143
0.017346
0.017346
0.017346
0.0232059
0.0232059
0.0232059
0
0
0
0
0
0
0.0185492
0.0185492
0.0185492
0
0
0
0
0
0
0
0
0
0
0
0
0.0182281
0.0182281
0.0182281
0.0280678
0.0280678
0.0280678
0.0309817
0.0309817
0.0309817
0.0251372
0.0251372
0.0251372
0.0725445
0.0725445
0.0725445
0.0750949
0.0750949
0.0750949
0.076158
0.076158
0.076158
0.0699539
0.0699539
0.0699539
0.0698361
0.0698361
0.0698361
0.0700686
0.0700686
0.0700686
0.0696821
0.0696821
0.0696821
0.0697101
0.0697101
0.0697101
0.0648044
0.0648044
0.0648044
0.0709231
0.0709231
0.0709231
0.0615944
0.0615944
0.0615944
0.0831853
0.0831853
0.0831853
0.0822688
0.0822688
0.0822688
0.0815925
0.0815925
0.0815925
0.0825598
0.0825598
0.0825598
0.0813334
0.0813334
0.0813334
0.0446289
0.0446289
0.0446289
0.0438521
0.0438521
0.0438521
0.0408321
0.0408321
0.0408321
0.0417303
0.0417303
0.0417303
0.0369474
0.0369474
0.0369474
0.0371906
0.0371906
0.0371906
0.0384906
0.0384906
0.0384906
0.038274
0.038274
0.038274
0.0391047
0.0391047
0.0391047
0.039429
0.039429
0.039429
0.0376855
0.0376855
0.0376855
0.0359068
0.0359068
0.0359068
0.0366757
0.0366757
0.0366757
0.0361356
0.0361356
0.0361356
0.0370316
0.0370316
0.0370316
0.0378106
0.0378106
0.0378106
0.0346422
0.0346422
0.0346422
0.0341628
0.0341628
0.0341628
0.0344264
0.0344264
0.0344264
0.0339126
0.0339126
0.0339126
0.0327252
0.0327252
0.0327252
0.0301522
0.0301522
0.0301522
0.0317983
0.0317983
0.0317983
0.0328215
0.0328215
0.0328215
0.0321165
0.0321165
0.0321165
0.0367552
0.0367552
0.0367552
0.0375026
0.0375026
0.0375026
0.0323414
0.0323414
0.0323414
0.0337138
0.0337138
0.0337138
0.0353143
0.0353143
0.0353143
0.0364365
0.0364365
0.0364365
0.0355311
0.0355311
0.0355311
0.0256147
0.0256147
0.0256147
0.027086
0.027086
0.027086
0.0265848
0.0265848
0.0265848
0.0257516
0.0257516
0.0257516
0.026233
0.026233
0.026233
0.0266507
0.0266507
0.0266507
0.0252134
0.0252134
0.0252134
0.0281938
0.0281938
0.0281938
0.0271379
0.0271379
0.0271379
0.0259843
0.0259843
0.0259843
0.0266277
0.0266277
0.0266277
0.0293172
0.0293172
0.0293172
0.0298839
0.0298839
0.0298839
0.0289136
0.0289136
0.0289136
0.0290654
0.0290654
0.0290654
0.0307856
0.0307856
0.0307856
0.0303483
0.0303483
0.0303483
0.0297717
0.0297717
0.0297717
0.0296251
0.0296251
0.0296251
0.0306235
0.0306235
0.0306235
0.03004
0.03004
0.03004
0.0310266
0.0310266
0.0310266
0.0316722
0.0316722
0.0316722
0.029044
0.029044
0.029044
0.0296244
0.0296244
0.0296244
0.0292524
0.0292524
0.0292524
0.0304211
0.0304211
0.0304211
0.0298718
0.0298718
0.0298718
0.0304578
0.0304578
0.0304578
0.0574891
0.0574891
0.0574891
0.0570189
0.0570189
0.0570189
0.0578099
0.0578099
0.0578099
0.0641948
0.0641948
0.0641948
0.0547577
0.0547577
0.0547577
0.0535729
0.0535729
0.0535729
0.0627577
0.0627577
0.0627577
0.0660278
0.0660278
0.0660278
0.0700432
0.0700432
0.0700432
0.0709249
0.0709249
0.0709249
0.0268803
0.0268803
0.0268803
0.0228516
0.0228516
0.0228516
0.0227248
0.0227248
0.0227248
0.0265765
0.0265765
0.0265765
0.026731
0.026731
0.026731
0.0351171
0.0351171
0.0351171
0.0392851
0.0392851
0.0392851
0.0353281
0.0353281
0.0353281
0.0399409
0.0399409
0.0399409
0.054391
0.054391
0.054391
0.067668
0.067668
0.067668
0.0689071
0.0689071
0.0689071
0.0233107
0.0233107
0.0233107
0.0243557
0.0243557
0.0243557
0.0471691
0.0471691
0.0471691
0.0592746
0.0592746
0.0592746
0.0512676
0.0512676
0.0512676
0.0463294
0.0463294
0.0463294
0.0568553
0.0568553
0.0568553
0.0633718
0.0633718
0.0633718
0.0414516
0.0414516
0.0414516
0.0429982
0.0429982
0.0429982
0.0376164
0.0376164
0.0376164
0.0296773
0.0296773
0.0296773
0.028419
0.028419
0.028419
0.0343332
0.0343332
0.0343332
0.0353334
0.0353334
0.0353334
0.0313392
0.0313392
0.0313392
0.0333812
0.0333812
0.0333812
0.034201
0.034201
0.034201
0.0157587
0.0157587
0.0157587
0.0189893
0.0189893
0.0189893
0.0194498
0.0194498
0.0194498
0.0165249
0.0165249
0.0165249
0.0352235
0.0352235
0.0352235
0.0321195
0.0321195
0.0321195
0.0376873
0.0376873
0.0376873
0.0362292
0.0362292
0.0362292
0.0257885
0.0257885
0.0257885
0.0298133
0.0298133
0.0298133
0.0312541
0.0312541
0.0312541
0.0288815
0.0288815
0.0288815
0.0251611
0.0251611
0.0251611
0.028002
0.028002
0.028002
0.0169246
0.0169246
0.0169246
0.0177593
0.0177593
0.0177593
0.0204118
0.0204118
0.0204118
0.020914
0.020914
0.020914
0.0538639
0.0538639
0.0538639
0.0509246
0.0509246
0.0509246
0.060942
0.060942
0.060942
0.0604507
0.0604507
0.0604507
0.0556716
0.0556716
0.0556716
0.0574266
0.0574266
0.0574266
0.0594039
0.0594039
0.0594039
0.0495703
0.0495703
0.0495703
0.0513489
0.0513489
0.0513489
0.036904
0.036904
0.036904
0.0412483
0.0412483
0.0412483
0.0361338
0.0361338
0.0361338
0.0318109
0.0318109
0.0318109
0.0344985
0.0344985
0.0344985
0.0350508
0.0350508
0.0350508
0.0364645
0.0364645
0.0364645
0.0322468
0.0322468
0.0322468
0.0337406
0.0337406
0.0337406
0.0347604
0.0347604
0.0347604
0.0339899
0.0339899
0.0339899
0.030714
0.030714
0.030714
0.0314253
0.0314253
0.0314253
0.0398305
0.0398305
0.0398305
0.041214
0.041214
0.041214
0.0421371
0.0421371
0.0421371
0.0416529
0.0416529
0.0416529
0.0409585
0.0409585
0.0409585
0.0370767
0.0370767
0.0370767
0.0379866
0.0379866
0.0379866
0.0449614
0.0449614
0.0449614
0.0425799
0.0425799
0.0425799
0.0496954
0.0496954
0.0496954
0.0484839
0.0484839
0.0484839
0.0523944
0.0523944
0.0523944
0.0512135
0.0512135
0.0512135
0.052532
0.052532
0.052532
0.0137026
0.0137026
0.0137026
0.0112423
0.0112423
0.0112423
0.0153915
0.0153915
0.0153915
0.0123231
0.0123231
0.0123231
0.0267122
0.0267122
0.0267122
0.0210351
0.0210351
0.0210351
0.0205548
0.0205548
0.0205548
0.0235409
0.0235409
0.0235409
0.0224801
0.0224801
0.0224801
0.0257527
0.0257527
0.0257527
0.0251691
0.0251691
0.0251691
0.00340223
0.00340223
0.00340223
0.00586915
0.00586915
0.00586915
0.0057419
0.0057419
0.0057419
0.00355121
0.00355121
0.00355121
0.00131625
0.00131625
0.00131625
0.00128898
0.00128898
0.00128898
0
0
0
0
0
0
0
0
0
0
0
0
0
0
0
0
0
0
0
0
0
0
0
0
0
0
0
0
0
0
0
0
0
0
0
0
0
0
0
0
0
0
0
0
0
0
0
0
0.0105056
0.0105056
0.0105056
0.0100465
0.0100465
0.0100465
0.01251
0.01251
0.01251
0.0127961
0.0127961
0.0127961
0.00741037
0.00741037
0.00741037
0.00757474
0.00757474
0.00757474
0
0
0
0
0
0
0
0
0
0
0
0
0
0
0
0
0
0
0
0
0
0
0
0
0
0
0
0
0
0
0
0
0
0
0
0
0
0
0
0
0
0
0.00970245
0.00970245
0.00970245
0.0132158
0.0132158
0.0132158
0.0129099
0.0129099
0.0129099
0.0143685
0.0143685
0.0143685
0.0137368
0.0137368
0.0137368
0.0164715
0.0164715
0.0164715
0.0168479
0.0168479
0.0168479
0.0116969
0.0116969
0.0116969
0.0119607
0.0119607
0.0119607
0
0
0
0
0
0
0
0
0
0
0
0
0
0
0
0
0
0
0
0
0
0
0
0
0
0
0
0
0
0
0
0
0
0
0
0
0
0
0
0
0
0
0
0
0
0
0
0
0
0
0
0
0
0
0
0
0
0
0
0
0
0
0
0
0
0
0
0
0
0
0
0
0
0
0
0
0
0
0
0
0
0
0
0
0
0
0
0
0
0
0
0
0
0
0
0
0.00113854
0.00113854
0.00113854
0.00116213
0.00116213
0.00116213
0
0
0
0
0
0
0
0
0
0
0
0
0
0
0
0
0
0
0.000940515
0.000940515
0.000940515
0
0
0
0
0
0
0.00099629
0.00099629
0.00099629
0.000982033
0.000982033