<VTKFile type="UnstructuredGrid" version="1.0">
<UnstructuredGrid>
<Piece NumberOfPoints="10830" NumberOfCells="3610">
<Points>
<DataArray type="Float64" NumberOfComponents="3" format="ascii">
3.10314 1.29552 1.07075
3.11025 1.28841 1.045
3.11025 1.28841 1.09646
3.11025 1.28841 1.60008
3.11025 1.28841 1.651
3.10226 1.2964 1.62553
3.11025 1.28841 1.60008
3.10226 1.2964 1.62553
3.09025 1.30841 1.6001
2.21656 2.1821 2.07259
2.22913 2.16953 2.09
2.19928 2.19938 2.09
2.19928 2.19938 2.09
2.19928 2.19938 2.05984
2.21656 2.1821 2.07259
3.11025 1.28841 1.60008
3.09025 1.30841 1.6001
3.10227 1.29639 1.57468
2.20538 2.19328 1.32179
2.19928 2.19938 1.34701
2.19928 2.19938 1.29657
3.10229 1.29637 1.3219
3.11025 1.28841 1.34709
3.09026 1.3084 1.34711
3.10214 1.29652 1.22134
3.11025 1.28841 1.19628
3.11025 1.28841 1.24639
3.09026 1.3084 1.34711
3.11025 1.28841 1.34709
3.1023 1.29636 1.37231
3.11025 1.28841 1.34709
3.11025 1.28841 1.39754
3.1023 1.29636 1.37231
3.09026 1.3084 1.39755
3.1023 1.29636 1.37231
3.11025 1.28841 1.39754
3.09025 1.30841 1.54931
3.10227 1.29639 1.57468
3.08043 1.31823 1.5747
3.08043 1.31823 1.5747
3.10227 1.29639 1.57468
3.09025 1.30841 1.6001
3.08043 1.31823 1.5747
3.06939 1.32927 1.54932
3.09025 1.30841 1.54931
3.08043 1.31823 1.5747
3.09025 1.30841 1.6001
3.06938 1.32928 1.60012
3.11025 1.28841 1.44804
3.11025 1.28841 1.49862
3.10229 1.29637 1.47333
3.10229 1.29637 1.47333
3.09026 1.3084 1.49863
3.08044 1.31822 1.47334
3.11025 1.28841 1.49862
3.09026 1.3084 1.49863
3.10229 1.29637 1.47333
3.11025 1.28841 1.54929
3.10227 1.29639 1.57468
3.09025 1.30841 1.54931
3.11025 1.28841 1.60008
3.10227 1.29639 1.57468
3.11025 1.28841 1.54929
3.0901 1.30856 1.19632
3.11025 1.28841 1.19628
3.10214 1.29652 1.22134
3.09024 1.30842 1.65102
3.10226 1.2964 1.62553
3.11025 1.28841 1.651
2.80657 1.59209 1.83075
2.81699 1.58167 1.80498
2.8274 1.57126 1.83072
2.19928 2.19938 1.045
2.21889 2.17977 1.045
2.20626 2.1924 1.06971
2.25868 2.13998 1.29659
2.23814 2.16052 1.29657
2.24806 2.1506 1.27137
2.21801 2.18065 1.29656
2.23814 2.16052 1.29657
2.22704 2.17162 1.32178
2.21801 2.18065 1.29656
2.20538 2.19328 1.32179
2.19928 2.19938 1.29657
2.22704 2.17162 1.32178
2.20538 2.19328 1.32179
2.21801 2.18065 1.29656
2.20547 2.19319 1.52394
2.19928 2.19938 1.5493
2.19928 2.19938 1.49861
2.21807 2.1806 1.5493
2.22712 2.17155 1.52393
2.23821 2.16045 1.54929
2.19928 2.19938 1.5493
2.20547 2.19319 1.52394
2.21807 2.1806 1.5493
2.21807 2.1806 1.5493
2.20547 2.19319 1.52394
2.22712 2.17155 1.52393
2.21805 2.18061 1.4986
2.2382 2.16046 1.4986
2.22712 2.17155 1.52393
2.21805 2.18061 1.4986
2.20547 2.19319 1.52394
2.19928 2.19938 1.49861
2.22712 2.17155 1.52393
2.20547 2.19319 1.52394
2.21805 2.18061 1.4986
2.19928 2.19938 1.34701
2.20538 2.19328 1.32179
2.21802 2.18064 1.347
2.21802 2.18064 1.347
2.20538 2.19328 1.32179
2.22704 2.17162 1.32178
2.23821 2.16045 1.54929
2.22712 2.17155 1.52393
2.24816 2.15051 1.52393
2.22712 2.17155 1.52393
2.2382 2.16046 1.4986
2.24816 2.15051 1.52393
2.40353 1.99513 1.49867
2.41386 1.9848 1.52401
2.3932 2.00546 1.524
2.3932 2.00546 1.524
2.41386 1.9848 1.52401
2.40354 1.99512 1.54937
2.40354 1.99512 1.54937
2.41386 1.9848 1.52401
2.4242 1.97446 1.54938
2.79618 1.60248 1.805
2.81699 1.58167 1.80498
2.80657 1.59209 1.83075
3.10224 1.29642 1.27156
3.11025 1.28841 1.24639
3.11025 1.28841 1.2967
3.11025 1.28841 1.34709
3.10229 1.29637 1.3219
3.11025 1.28841 1.2967
3.02715 1.37151 1.4481
3.006 1.39266 1.44811
3.01659 1.38207 1.42285
3.09026 1.3084 1.44805
3.10229 1.29637 1.47333
3.08044 1.31822 1.47334
3.11025 1.28841 1.44804
3.10229 1.29637 1.47333
3.09026 1.3084 1.44805
3.08044 1.31822 1.47334
3.09026 1.3084 1.49863
3.0694 1.32926 1.49865
3.10228 1.29638 1.52395
3.09026 1.3084 1.49863
3.11025 1.28841 1.49862
3.11025 1.28841 1.49862
3.11025 1.28841 1.54929
3.10228 1.29638 1.52395
3.10228 1.29638 1.52395
3.11025 1.28841 1.54929
3.09025 1.30841 1.54931
3.08027 1.31839 1.22137
3.0901 1.30856 1.19632
3.10214 1.29652 1.22134
3.10224 1.29642 1.27156
3.11025 1.28841 1.2967
3.09024 1.30842 1.29674
3.09024 1.30842 1.29674
3.11025 1.28841 1.2967
3.10229 1.29637 1.3219
3.0165 1.38216 1.27161
3.00588 1.39278 1.24643
3.02702 1.37164 1.24643
3.04817 1.35049 1.24645
3.03759 1.36107 1.22126
3.05884 1.33982 1.22131
3.04817 1.35049 1.24645
3.02702 1.37164 1.24643
3.03759 1.36107 1.22126
3.08043 1.31823 1.32193
3.10229 1.29637 1.3219
3.09026 1.3084 1.34711
3.08043 1.31823 1.32193
3.09024 1.30842 1.29674
3.10229 1.29637 1.3219
3.08042 1.31824 1.62555
3.09025 1.30841 1.6001
3.10226 1.2964 1.62553
3.10226 1.2964 1.62553
3.09024 1.30842 1.65102
3.08042 1.31824 1.62555
3.06938 1.32928 1.60012
3.09025 1.30841 1.6001
3.08042 1.31824 1.62555
3.08041 1.31825 1.77905
3.05901 1.33965 1.77906
3.06938 1.32928 1.75337
3.05901 1.33966 1.72774
3.08041 1.31825 1.72772
3.06938 1.32928 1.75337
3.10225 1.29641 1.67653
3.09024 1.30842 1.65102
3.11025 1.28841 1.651
3.08041 1.31825 1.67656
3.09024 1.30842 1.65102
3.10225 1.29641 1.67653
2.84822 1.55044 1.88232
2.85863 1.54003 1.90816
2.83776 1.5609 1.9082
2.96373 1.43493 1.75343
2.97428 1.42438 1.72779
2.98483 1.41383 1.75341
2.98483 1.41383 1.75341
2.97428 1.42438 1.72779
2.9954 1.40326 1.72778
3.06938 1.32929 1.70213
3.05901 1.33965 1.67658
3.08041 1.31825 1.67656
3.06938 1.32929 1.70213
3.08041 1.31825 1.72772
3.05901 1.33966 1.72774
2.95319 1.44547 1.72781
2.97428 1.42438 1.72779
2.96373 1.43493 1.75343
2.90067 1.49799 1.49874
2.87971 1.51895 1.49874
2.89018 1.50848 1.47344
2.84833 1.55033 1.47344
2.83789 1.56077 1.49875
2.82746 1.5712 1.47344
2.85878 1.53988 1.49875
2.83789 1.56077 1.49875
2.84833 1.55033 1.47344
2.83788 1.56078 1.39765
2.85877 1.53989 1.39765
2.84833 1.55034 1.42289
2.84833 1.55034 1.42289
2.82745 1.57121 1.42289
2.83788 1.56078 1.39765
2.83788 1.56078 1.39765
2.82745 1.57121 1.42289
2.81702 1.58164 1.39764
2.84833 1.55034 1.42289
2.85877 1.53989 1.39765
2.86924 1.52943 1.4229
2.87968 1.51898 1.34723
2.89017 1.50849 1.37244
2.86922 1.52944 1.37243
2.86922 1.52944 1.37243
2.85875 1.53991 1.34723
2.87968 1.51898 1.34723
2.72357 1.6751 1.52409
2.73392 1.66474 1.49875
2.74429 1.65437 1.52409
2.73392 1.66474 1.49875
2.75466 1.644 1.49875
2.74429 1.65437 1.52409
2.83789 1.56077 1.44816
2.82745 1.57121 1.42289
2.84833 1.55034 1.42289
2.83789 1.56077 1.44816
2.84833 1.55033 1.47344
2.82746 1.5712 1.47344
2.82746 1.5712 1.47344
2.80662 1.59204 1.47344
2.81703 1.58163 1.44815
2.81703 1.58163 1.44815
2.83789 1.56077 1.44816
2.82746 1.5712 1.47344
2.82745 1.57121 1.42289
2.83789 1.56077 1.44816
2.81703 1.58163 1.44815
2.81702 1.58164 1.39764
2.7962 1.60246 1.39764
2.8066 1.59206 1.37241
2.79618 1.60248 1.34719
2.81701 1.58166 1.34721
2.8066 1.59206 1.37241
2.42419 1.97447 1.49868
2.41386 1.9848 1.52401
2.40353 1.99513 1.49867
2.40353 1.99513 1.49867
2.41385 1.98481 1.47336
2.42419 1.97447 1.49868
2.20539 2.19327 1.11987
2.19928 2.19938 1.14509
2.19928 2.19938 1.09442
2.19928 2.19938 1.045
2.20626 2.1924 1.06971
2.19928 2.19938 1.09442
2.21797 2.1807 1.1957
2.19928 2.19938 1.19567
2.20528 2.19338 1.17042
2.19928 2.19938 1.19567
2.19928 2.19938 1.14509
2.20528 2.19338 1.17042
3.11025 1.28841 1.045
3.10314 1.29552 1.07075
3.0911 1.30756 1.045
2.19928 2.19938 1.29657
2.19928 2.19938 1.24614
2.20536 2.19331 1.27136
2.20536 2.19331 1.27136
2.21801 2.18065 1.29656
2.19928 2.19938 1.29657
2.21799 2.18067 1.24613
2.20536 2.19331 1.27136
2.19928 2.19938 1.24614
2.21799 2.18067 1.24613
2.22698 2.17168 1.22094
2.23811 2.16055 1.24616
2.22702 2.17165 1.27135
2.24806 2.1506 1.27137
2.23814 2.16052 1.29657
2.23814 2.16052 1.29657
2.21801 2.18065 1.29656
2.22702 2.17165 1.27135
2.23811 2.16055 1.24616
2.24806 2.1506 1.27137
2.22702 2.17165 1.27135
2.22702 2.17165 1.27135
2.21799 2.18067 1.24613
2.23811 2.16055 1.24616
2.21801 2.18065 1.29656
2.20536 2.19331 1.27136
2.22702 2.17165 1.27135
2.20536 2.19331 1.27136
2.21799 2.18067 1.24613
2.22702 2.17165 1.27135
2.20532 2.19334 1.22091
2.19928 2.19938 1.24614
2.19928 2.19938 1.19567
2.20532 2.19334 1.22091
2.19928 2.19938 1.19567
2.21797 2.1807 1.1957
2.21797 2.1807 1.1957
2.22698 2.17168 1.22094
2.20532 2.19334 1.22091
2.20532 2.19334 1.22091
2.21799 2.18067 1.24613
2.19928 2.19938 1.24614
2.22698 2.17168 1.22094
2.21799 2.18067 1.24613
2.20532 2.19334 1.22091
2.24814 2.15052 1.47329
2.2382 2.16046 1.4986
2.2271 2.17156 1.47329
2.2382 2.16046 1.4986
2.21805 2.18061 1.4986
2.2271 2.17156 1.47329
2.2271 2.17156 1.47329
2.23819 2.16048 1.448
2.24814 2.15052 1.47329
2.24809 2.15058 1.32179
2.23814 2.16052 1.29657
2.25868 2.13998 1.29659
2.22704 2.17162 1.32178
2.23814 2.16052 1.29657
2.24809 2.15058 1.32179
2.26891 2.12975 1.3218
2.24809 2.15058 1.32179
2.25868 2.13998 1.29659
2.2587 2.13996 1.34701
2.24809 2.15058 1.32179
2.26891 2.12975 1.3218
2.2587 2.13996 1.34701
2.26891 2.12975 1.3218
2.27936 2.1193 1.34702
2.41384 1.98482 1.4228
2.42418 1.97448 1.44807
2.40352 1.99515 1.44807
2.40352 1.99515 1.44807
2.42418 1.97448 1.44807
2.41385 1.98481 1.47336
2.33114 2.06753 1.47332
2.35183 2.04683 1.47333
2.34149 2.05717 1.49863
2.34148 2.05718 1.44804
2.35183 2.04683 1.47333
2.33114 2.06753 1.47332
2.35182 2.04684 1.42277
2.34147 2.05719 1.39752
2.36216 2.03651 1.39753
2.34148 2.05718 1.44804
2.33112 2.06754 1.42276
2.35182 2.04684 1.42277
2.35182 2.04684 1.42277
2.33112 2.06754 1.42276
2.34147 2.05719 1.39752
2.35184 2.04682 1.52398
2.37253 2.02613 1.52399
2.3622 2.03646 1.54934
2.31047 2.08819 1.5747
2.32082 2.07785 1.54932
2.33117 2.06749 1.57471
2.3208 2.07786 1.49862
2.33114 2.06753 1.47332
2.34149 2.05717 1.49863
2.31043 2.08823 1.47331
2.33114 2.06753 1.47332
2.3208 2.07786 1.49862
2.23821 2.16045 1.54929
2.24816 2.15051 1.52393
2.25876 2.1399 1.54929
2.24814 2.15052 1.47329
2.23819 2.16048 1.448
2.25873 2.13993 1.448
2.25873 2.13993 1.448
2.26896 2.1297 1.47329
2.24814 2.15052 1.47329
2.30008 2.09858 1.44801
2.31043 2.08823 1.47331
2.28971 2.10895 1.4733
2.25874 2.13992 1.4986
2.24816 2.15051 1.52393
2.2382 2.16046 1.4986
2.25874 2.13992 1.4986
[...]
<PointData Scalars="View Factor" >
<DataArray type="Float64" Name="View Factor" NumberOfComponents="1" format="ascii">
6.06671e-05
6.06671e-05
6.06671e-05
6.93121e-05
6.93121e-05
6.93121e-05
6.86215e-05
6.86215e-05
6.86215e-05
9.34411e-06
9.34411e-06
9.34411e-06
6.78313e-06
6.78313e-06
6.78313e-06
6.83335e-05
6.83335e-05
6.83335e-05
9.36785e-06
9.36785e-06
9.36785e-06
6.42731e-05
6.42731e-05
6.42731e-05
6.28599e-05
6.28599e-05
6.28599e-05
6.45382e-05
6.45382e-05
6.45382e-05
6.51808e-05
6.51808e-05
6.51808e-05
6.50607e-05
6.50607e-05
6.50607e-05
6.73174e-05
6.73174e-05
6.73174e-05
6.75937e-05
6.75937e-05
6.75937e-05
6.65222e-05
6.65222e-05
6.65222e-05
6.70703e-05
6.70703e-05
6.70703e-05
6.67911e-05
6.67911e-05
6.67911e-05
6.59491e-05
6.59491e-05
6.59491e-05
6.66703e-05
6.66703e-05
6.66703e-05
6.77777e-05
6.77777e-05
6.77777e-05
6.84568e-05
6.84568e-05
6.84568e-05
6.22404e-05
6.22404e-05
6.22404e-05
6.9191e-05
6.9191e-05
6.9191e-05
2.52506e-06
2.52506e-06
2.52506e-06
6.31948e-06
6.31948e-06
6.31948e-06
2.21348e-05
2.21348e-05
2.21348e-05
2.36574e-05
2.36574e-05
2.36574e-05
1.00536e-05
1.00536e-05
1.00536e-05
1.42364e-05
1.42364e-05
1.42364e-05
1.54212e-05
1.54212e-05
1.54212e-05
2.62241e-05
2.62241e-05
2.62241e-05
1.55831e-05
1.55831e-05
1.55831e-05
2.0441e-05
2.0441e-05
2.0441e-05
2.7072e-05
2.7072e-05
2.7072e-05
1.70501e-05
1.70501e-05
1.70501e-05
2.11575e-05
2.11575e-05
2.11575e-05
1.09642e-05
1.09642e-05
1.09642e-05
1.48104e-05
1.48104e-05
1.48104e-05
2.58959e-05
2.58959e-05
2.58959e-05
2.63482e-05
2.63482e-05
2.63482e-05
1.25131e-05
1.25131e-05
1.25131e-05
1.154e-05
1.154e-05
1.154e-05
1.08957e-05
1.08957e-05
1.08957e-05
2.45161e-06
2.45161e-06
2.45161e-06
6.36211e-05
6.36211e-05
6.36211e-05
6.43948e-05
6.43948e-05
6.43948e-05
6.05554e-05
6.05554e-05
6.05554e-05
6.56825e-05
6.56825e-05
6.56825e-05
6.61303e-05
6.61303e-05
6.61303e-05
6.5437e-05
6.5437e-05
6.5437e-05
6.69463e-05
6.69463e-05
6.69463e-05
6.76167e-05
6.76167e-05
6.76167e-05
6.74965e-05
6.74965e-05
6.74965e-05
6.18107e-05
6.18107e-05
6.18107e-05
6.35022e-05
6.35022e-05
6.35022e-05
6.3762e-05
6.3762e-05
6.3762e-05
5.78824e-05
5.78824e-05
5.78824e-05
5.96668e-05
5.96668e-05
5.96668e-05
5.90818e-05
5.90818e-05
5.90818e-05
6.35818e-05
6.35818e-05
6.35818e-05
6.33253e-05
6.33253e-05
6.33253e-05
6.81574e-05
6.81574e-05
6.81574e-05
6.84409e-05
6.84409e-05
6.84409e-05
6.73505e-05
6.73505e-05
6.73505e-05
6.94236e-05
6.94236e-05
6.94236e-05
6.88394e-05
6.88394e-05
6.88394e-05
6.94843e-05
6.94843e-05
6.94843e-05
6.90139e-05
6.90139e-05
6.90139e-05
3.83474e-05
3.83474e-05
3.83474e-05
6.20137e-05
6.20137e-05
6.20137e-05
6.2711e-05
6.2711e-05
6.2711e-05
6.79798e-05
6.79798e-05
6.79798e-05
6.85486e-05
6.85486e-05
6.85486e-05
6.09098e-05
6.09098e-05
6.09098e-05
4.98352e-05
4.98352e-05
4.98352e-05
2.19017e-05
2.19017e-05
2.19017e-05
3.36865e-05
3.36865e-05
3.36865e-05
3.28677e-05
3.28677e-05
3.28677e-05
2.5097e-05
2.5097e-05
2.5097e-05
1.45686e-05
1.45686e-05
1.45686e-05
3.9474e-05
3.9474e-05
3.9474e-05
4.61452e-05
4.61452e-05
4.61452e-05
4.30846e-05
4.30846e-05
4.30846e-05
1.51815e-05
1.51815e-05
1.51815e-05
1.60862e-05
1.60862e-05
1.60862e-05
2.4099e-05
2.4099e-05
2.4099e-05
2.2445e-05
2.2445e-05
2.2445e-05
1.80927e-05
1.80927e-05
1.80927e-05
1.80408e-05
1.80408e-05
1.80408e-05
1.68623e-05
1.68623e-05
1.68623e-05
1.32875e-05
1.32875e-05
1.32875e-05
1.16136e-05
1.16136e-05
1.16136e-05
1.28538e-05
1.28538e-05
1.28538e-05
1.31157e-05
1.31157e-05
1.31157e-05
5.87528e-06
5.87528e-06
5.87528e-06
5.45477e-06
5.45477e-06
5.45477e-06
7.77416e-06
7.77416e-06
7.77416e-06
6.49426e-06
6.49426e-06
6.49426e-06
6.00854e-05
6.00854e-05
6.00854e-05
8.17159e-06
8.17159e-06
8.17159e-06
9.64481e-06
9.64481e-06
9.64481e-06
8.93624e-06
8.93624e-06
8.93624e-06
2.2704e-05
2.2704e-05
2.2704e-05
2.26923e-05
2.26923e-05
2.26923e-05
2.341e-05
2.341e-05
2.341e-05
2.24422e-05
2.24422e-05
2.24422e-05
2.29293e-05
2.29293e-05
2.29293e-05
1.30951e-05
1.30951e-05
1.30951e-05
1.25071e-05
1.25071e-05
1.25071e-05
7.25553e-06
7.25553e-06
7.25553e-06
8.03829e-06
8.03829e-06
8.03829e-06
1.08601e-05
1.08601e-05
1.08601e-05
8.6176e-06
8.6176e-06
8.6176e-06
1.13713e-05
1.13713e-05
1.13713e-05
2.66913e-05
2.66913e-05
2.66913e-05
2.72081e-05
2.72081e-05
2.72081e-05
2.64937e-05
2.64937e-05
2.64937e-05
2.23867e-05
2.23867e-05
2.23867e-05
2.32091e-05
2.32091e-05
2.32091e-05
2.18643e-05
2.18643e-05
2.18643e-05
2.21589e-05
2.21589e-05
2.21589e-05
2.13622e-05
2.13622e-05
2.13622e-05
1.15736e-05
1.15736e-05
1.15736e-05
1.23365e-05
1.23365e-05
1.23365e-05
1.31921e-05
1.31921e-05
1.31921e-05
1.26679e-05
1.26679e-05
1.26679e-05
9.99322e-06
9.99322e-06
9.99322e-06
1.11328e-05
1.11328e-05
1.11328e-05
1.03575e-05
1.03575e-05
1.03575e-05
1.17982e-05
1.17982e-05
1.17982e-05
9.4312e-06
9.4312e-06
9.4312e-06
1.33111e-05
1.33111e-05
1.33111e-05
1.32268e-05
1.32268e-05
1.32268e-05
2.49626e-05
2.49626e-05
2.49626e-05
2.5702e-05
2.5702e-05
2.5702e-05
2.52924e-05
2.52924e-05
2.52924e-05
1.26861e-05
1.26861e-05
1.26861e-05
2.59026e-05
2.59026e-05
2.59026e-05
2.606e-05
2.606e-05
2.606e-05
2.54894e-05
2.54894e-05
2.54894e-05
3.20707e-06
3.20707e-06
3.20707e-06
5.08854e-06
5.08854e-06
5.08854e-06
7.59964e-06
7.59964e-06
7.59964e-06
1.29333e-05
1.29333e-05
1.29333e-05
1.26129e-05
1.26129e-05
1.26129e-05
9.8072e-06
9.8072e-06
9.8072e-06
1.10261e-05
1.10261e-05
1.10261e-05
1.11581e-05
1.11581e-05
1.11581e-05
1.1667e-05
1.1667e-05
1.1667e-05
9.6725e-06
9.6725e-06
9.6725e-06
9.01942e-06
9.01942e-06
9.01942e-06
6.61667e-06
6.61667e-06
6.61667e-06
7.50276e-06
7.50276e-06
7.50276e-06
7.78131e-06
7.78131e-06
7.78131e-06
9.15565e-06
9.15565e-06
9.15565e-06
2.71854e-06
2.71854e-06
2.71854e-06
1.46861e-06
1.46861e-06
1.46861e-06
1.40126e-06
1.40126e-06
1.40126e-06
1.34198e-06
1.34198e-06
1.34198e-06
1.33639e-06
1.33639e-06
1.33639e-06
7.35908e-06
7.35908e-06
7.35908e-06
9.53049e-06
9.53049e-06
9.53049e-06
8.88543e-06
8.88543e-06
8.88543e-06
2.20556e-06
2.20556e-06
2.20556e-06
2.28047e-06
2.28047e-06
2.28047e-06
2.4638e-06
2.4638e-06
2.4638e-06
2.39155e-06
2.39155e-06
2.39155e-06
2.12853e-06
2.12853e-06
2.12853e-06
2.11119e-06
2.11119e-06
2.11119e-06
1.93751e-06
1.93751e-06
1.93751e-06
2.30197e-06
2.30197e-06
2.30197e-06
3.59683e-06
3.59683e-06
3.59683e-06
3.45964e-06
3.45964e-06
3.45964e-06
3.76905e-06
3.76905e-06
3.76905e-06
3.8058e-06
3.8058e-06
3.8058e-06
3.32009e-06
3.32009e-06
3.32009e-06
3.30305e-06
3.30305e-06
3.30305e-06
3.41961e-06
3.41961e-06
3.41961e-06
3.56353e-06
3.56353e-06
3.56353e-06
3.51933e-06
3.51933e-06
3.51933e-06
3.40053e-06
3.40053e-06
3.40053e-06
3.26004e-06
3.26004e-06
3.26004e-06
3.92009e-06
3.92009e-06
3.92009e-06
3.66733e-06
3.66733e-06
3.66733e-06
3.70337e-06
3.70337e-06
3.70337e-06
3.88073e-06
3.88073e-06
3.88073e-06
4.03476e-06
4.03476e-06
4.03476e-06
4.49327e-06
4.49327e-06
4.49327e-06
6.82608e-05
6.82608e-05
6.82608e-05
5.40603e-05
5.40603e-05
5.40603e-05
5.6018e-05
5.6018e-05
5.6018e-05
5.91043e-05
5.91043e-05
5.91043e-05
5.78185e-05
5.78185e-05
5.78185e-05
6.52545e-05
6.52545e-05
6.52545e-05
6.63033e-05
6.63033e-05
6.63033e-05
6.60344e-05
6.60344e-05
6.60344e-05
6.47204e-05
6.47204e-05
6.47204e-05
4.79996e-05
4.79996e-05
4.79996e-05
4.81965e-05
4.81965e-05
4.81965e-05
4.92616e-05
4.92616e-05
4.92616e-05
5.97601e-05
5.97601e-05
5.97601e-05
5.88624e-05
5.88624e-05
5.88624e-05
6.58589e-05
6.58589e-05
6.58589e-05
6.51472e-05
6.51472e-05
6.51472e-05
6.59793e-05
6.59793e-05
6.59793e-05
6.53278e-05
6.53278e-05
6.53278e-05
6.48851e-05
6.48851e-05
6.48851e-05
6.41907e-05
6.41907e-05
6.41907e-05
6.49845e-05
6.49845e-05
6.49845e-05
6.62471e-05
6.62471e-05
6.62471e-05
6.57076e-05
6.57076e-05
6.57076e-05
6.54892e-05
6.54892e-05
6.54892e-05
6.5223e-05
6.5223e-05
6.5223e-05
6.67668e-05
6.67668e-05
6.67668e-05
6.64935e-05
6.64935e-05
6.64935e-05
6.2995e-05
6.2995e-05
6.2995e-05
6.2739e-05
6.2739e-05
6.2739e-05
6.20614e-05
6.20614e-05
6.20614e-05
6.19927e-05
6.19927e-05
6.19927e-05
5.76436e-05
5.76436e-05
5.76436e-05
5.8247e-05
5.8247e-05
5.8247e-05
6.25786e-05
6.25786e-05
6.25786e-05
6.114e-05
6.114e-05
6.114e-05
6.21172e-05
6.21172e-05
6.21172e-05
6.13857e-05
6.13857e-05
6.13857e-05
6.79109e-05
6.79109e-05
6.79109e-05
6.81961e-05
6.81961e-05
6.81961e-05
6.76986e-05
6.76986e-05
6.76986e-05
6.97181e-05
6.97181e-05
6.97181e-05
6.72687e-05
6.72687e-05
6.72687e-05
5.94059e-05
5.94059e-05
5.94059e-05
2.60827e-06
2.60827e-06
2.60827e-06
2.41749e-06
2.41749e-06
2.41749e-06
2.51184e-06
2.51184e-06
2.51184e-06
6.22849e-05
6.22849e-05
6.22849e-05
6.28124e-05
6.28124e-05
6.28124e-05
6.67948e-05
6.67948e-05
6.67948e-05
6.65144e-05
6.65144e-05
6.65144e-05
5.48231e-05
5.48231e-05
5.48231e-05
5.82498e-05
5.82498e-05
5.82498e-05
5.65669e-05
5.65669e-05
5.65669e-05
5.73278e-05
5.73278e-05
5.73278e-05
5.84972e-05
5.84972e-05
5.84972e-05
5.7533e-05
5.7533e-05
5.7533e-05
5.66888e-05
5.66888e-05
5.66888e-05
6.87681e-05
6.87681e-05
6.87681e-05
6.90526e-05
6.90526e-05
6.90526e-05
6.93008e-05
6.93008e-05
6.93008e-05
6.86e-05
6.86e-05
6.86e-05
6.80388e-05
6.80388e-05
6.80388e-05
6.83093e-05
6.83093e-05
6.83093e-05
6.7467e-05
6.7467e-05
6.7467e-05
6.71401e-05
6.71401e-05
6.71401e-05
6.6855e-05
6.6855e-05
6.6855e-05
5.45884e-05
5.45884e-05
5.45884e-05
5.52614e-05
5.52614e-05
5.52614e-05
5.54887e-05
5.54887e-05
5.54887e-05
4.948e-05
4.948e-05
4.948e-05
1.85727e-05
1.85727e-05
1.85727e-05
1.84773e-05
1.84773e-05
1.84773e-05
3.39019e-05
3.39019e-05
3.39019e-05
1.15223e-05
1.15223e-05
1.15223e-05
1.0684e-05
1.0684e-05
1.0684e-05
1.64357e-05
1.64357e-05
1.64357e-05
1.73979e-05
1.73979e-05
1.73979e-05
1.81153e-05
1.81153e-05
1.81153e-05
1.80175e-05
1.80175e-05
1.80175e-05
1.69597e-05
1.69597e-05
1.69597e-05
1.76593e-05
1.76593e-05
1.76593e-05
1.47771e-05
1.47771e-05
1.47771e-05
1.40864e-05
1.40864e-05
1.40864e-05
1.21331e-05
1.21331e-05
1.21331e-05
1.09664e-05
1.09664e-05
1.09664e-05
1.18269e-05
1.18269e-05
1.18269e-05
1.37316e-05
1.37316e-05
1.37316e-05
4.02604e-05
4.02604e-05
4.02604e-05
4.47588e-05
4.47588e-05
4.47588e-05
4.77018e-05
4.77018e-05
4.77018e-05
4.74537e-05
4.74537e-05
4.74537e-05
1.69452e-06
1.69452e-06
1.69452e-06
8.80568e-06
8.80568e-06
8.80568e-06
1.71179e-06
1.71179e-06
1.71179e-06
1.36206e-05
1.36206e-05
1.36206e-05
1.1904e-05
1.1904e-05
1.1904e-05
1.29712e-05
1.29712e-05
1.29712e-05
1.21762e-05
1.21762e-05
1.21762e-05
3.23749e-05
3.23749e-05
3.23749e-05
2.78532e-05
2.78532e-05
2.78532e-05
2.70021e-05
2.70021e-05
2.70021e-05
3.27236e-05
3.27236e-05
3.27236e-05
3.90957e-05
3.90957e-05
3.90957e-05
3.89179e-05
3.89179e-05
3.89179e-05
4.70401e-05
4.70401e-05
4.70401e-05
4.92784e-05
4.92784e-05
4.92784e-05
1.39207e-05
1.39207e-05
1.39207e-05
1.36343e-05
1.36343e-05
1.36343e-05
8.74387e-06
8.74387e-06
8.74387e-06
9.40377e-06
9.40377e-06
9.40377e-06
1.4373e-05
1.4373e-05
1.4373e-05
1.40431e-05
1.40431e-05
1.40431e-05
6.21586e-06
6.21586e-06
6.21586e-06
7.02372e-06
7.02372e-06
7.02372e-06
6.02327e-06
6.02327e-06
6.02327e-06
4.41024e-06
4.41024e-06
4.41024e-06
3.56175e-06
3.56175e-06
3.56175e-06
4.27373e-06
4.27373e-06
4.27373e-06
1.67502e-05
1.67502e-05
1.67502e-05
1.6259e-05
1.6259e-05
1.6259e-05
1.62992e-05
1.62992e-05
1.62992e-05
1.6645e-05
1.6645e-05
1.6645e-05
1.30241e-05
1.30241e-05
1.30241e-05
1.36559e-05
1.36559e-05
1.36559e-05
1.58047e-05
1.58047e-05
1.58047e-05
1.56505e-05
1.56505e-05
1.56505e-05
1.62978e-05
1.62978e-05
1.62978e-05
1.5212e-05
1.5212e-05
1.5212e-05
1.13236e-05
1.13236e-05
1.13236e-05
1.18761e-05
1.18761e-05
1.18761e-05
1.26509e-05
1.26509e-05
1.26509e-05
1.75983e-05
1.75983e-05
1.75983e-05
1.76432e-05
1.76432e-05
1.76432e-05
1.60354e-05
1.60354e-05
1.60354e-05
1.71561e-05
1.71561e-05
1.71561e-05
8.18182e-06
8.18182e-06
8.18182e-06
9.35439e-06
9.35439e-06
9.35439e-06
9.99605e-06
9.99605e-06
9.99605e-06
1.03632e-05
1.03632e-05
1.03632e-05
8.17637e-06
8.17637e-06
8.17637e-06
9.03518e-06
9.03518e-06
9.03518e-06
8.45598e-06
8.45598e-06
8.45598e-06
2.07492e-05
2.07492e-05
2.07492e-05
2.13304e-05
2.13304e-05
2.13304e-05
2.04962e-05
2.04962e-05
2.04962e-05
1.03807e-05
1.03807e-05
1.03807e-05
1.11517e-05
1.11517e-05
1.11517e-05
1.34694e-05
1.34694e-05
1.34694e-05
1.35946e-05
1.35946e-05
1.35946e-05
1.30541e-05
1.30541e-05
1.30541e-05
1.22827e-05
1.22827e-05
1.22827e-05
1.05685e-05
1.05685e-05
1.05685e-05
1.10431e-05
1.10431e-05
1.10431e-05
5.55982e-05
5.55982e-05
5.55982e-05
5.9693e-05
5.9693e-05
5.9693e-05
5.90109e-05
5.90109e-05
5.90109e-05
5.22473e-05
5.22473e-05
5.22473e-05
5.58019e-05
5.58019e-05
5.58019e-05
5.55836e-05
5.55836e-05
5.55836e-05
5.31388e-05
5.31388e-05
5.31388e-05
5.27011e-05
5.27011e-05
5.27011e-05
1.17337e-05
1.17337e-05
1.17337e-05
1.42477e-05
1.42477e-05
1.42477e-05
1.52835e-05
1.52835e-05
1.52835e-05
1.69712e-05
1.69712e-05
1.69712e-05
2.10632e-05
2.10632e-05
2.10632e-05
1.28957e-05
1.28957e-05
1.28957e-05
1.33048e-05
1.33048e-05
1.33048e-05
2.55773e-05
2.55773e-05
2.55773e-05
1.79182e-05
1.79182e-05
1.79182e-05
1.1456e-05
1.1456e-05
1.1456e-05
1.08894e-05
1.08894e-05
1.08894e-05
1.26495e-05
1.26495e-05
1.26495e-05
1.59457e-05
1.59457e-05
1.59457e-05
1.65538e-05
1.65538e-05
1.65538e-05
2.52166e-05
2.52166e-05
2.52166e-05
2.44681e-05
2.44681e-05
2.44681e-05
2.28198e-05
2.28198e-05
2.28198e-05
2.16702e-05
2.16702e-05
2.16702e-05
2.42288e-05
2.42288e-05
2.42288e-05
2.34963e-05
2.34963e-05
2.34963e-05
2.45178e-05
2.45178e-05
2.45178e-05
2.41302e-05
2.41302e-05
2.41302e-05
2.2974e-05
2.2974e-05
2.2974e-05
2.32696e-05
2.32696e-05
2.32696e-05
2.52598e-05
2.52598e-05
2.52598e-05
2.56812e-05
2.56812e-05
2.56812e-05
2.52711e-05
2.52711e-05
2.52711e-05
2.44381e-05
2.44381e-05
2.44381e-05
1.15677e-05
1.15677e-05
1.15677e-05
1.11402e-05
1.11402e-05
1.11402e-05
1.03697e-05
1.03697e-05
1.03697e-05
1.11457e-05
1.11457e-05
1.11457e-05
1.31014e-05
1.31014e-05
1.31014e-05
1.26504e-05
1.26504e-05
1.26504e-05
1.31607e-05
1.31607e-05
1.31607e-05
1.23315e-05
1.23315e-05
1.23315e-05
1.26579e-05
1.26579e-05
1.26579e-05
1.31314e-05
1.31314e-05
1.31314e-05
1.2676e-05
1.2676e-05
1.2676e-05
1.11315e-05
1.11315e-05
1.11315e-05
1.23271e-05
1.23271e-05
1.23271e-05
1.15523e-05
1.15523e-05
1.15523e-05
1.23212e-05
1.23212e-05
1.23212e-05
1.15481e-05
1.15481e-05
1.15481e-05
1.28159e-05
1.28159e-05
1.28159e-05
1.31812e-05
1.31812e-05
1.31812e-05
1.12914e-05
1.12914e-05
1.12914e-05
1.0081e-05
1.0081e-05
1.0081e-05
1.14259e-05
1.14259e-05
1.14259e-05
1.1928e-05
1.1928e-05
1.1928e-05
9.29277e-06
9.29277e-06
9.29277e-06
9.94349e-06
9.94349e-06
9.94349e-06
4.65034e-06
4.65034e-06
4.65034e-06
5.36968e-06
5.36968e-06
5.36968e-06
7.03036e-06
7.03036e-06
7.03036e-06
7.92087e-06
7.92087e-06
7.92087e-06
7.17047e-06
7.17047e-06
7.17047e-06
4.78142e-06
4.78142e-06
4.78142e-06
5.50338e-06
5.50338e-06
5.50338e-06
1.02198e-05
1.02198e-05
1.02198e-05
2.37669e-05
2.37669e-05
2.37669e-05
1.95346e-05
1.95346e-05
1.95346e-05
2.4219e-05
2.4219e-05
2.4219e-05
2.33184e-05
2.33184e-05
2.33184e-05
2.45761e-05
2.45761e-05
2.45761e-05
2.50822e-05
2.50822e-05
2.50822e-05
2.30645e-05
2.30645e-05
2.30645e-05
2.43957e-05
2.43957e-05
2.43957e-05
2.35195e-05
2.35195e-05
2.35195e-05
2.45773e-05
2.45773e-05
2.45773e-05
3.30542e-06
3.30542e-06
3.30542e-06
1.43482e-05
1.43482e-05
1.43482e-05
2.66536e-06
2.66536e-06
2.66536e-06
1.83773e-05
1.83773e-05
1.83773e-05
1.96494e-05
1.96494e-05
1.96494e-05
1.42022e-05
1.42022e-05
1.42022e-05
2.41609e-06
2.41609e-06
2.41609e-06
2.58397e-06
2.58397e-06
2.58397e-06
1.77745e-06
1.77745e-06
1.77745e-06
1.55934e-06
1.55934e-06
1.55934e-06
1.73319e-06
1.73319e-06
1.73319e-06
6.51095e-06
6.51095e-06
6.51095e-06
2.63351e-05
2.63351e-05
2.63351e-05
2.27047e-05
2.27047e-05
2.27047e-05
4.55996e-06
4.55996e-06
4.55996e-06
5.13724e-06
5.13724e-06
5.13724e-06
9.67051e-06
9.67051e-06
9.67051e-06
5.73926e-06
5.73926e-06
5.73926e-06
4.79864e-06
4.79864e-06
4.79864e-06
5.54672e-06
5.54672e-06
5.54672e-06
9.88763e-06
9.88763e-06
9.88763e-06
5.2513e-06
5.2513e-06
5.2513e-06
9.81259e-06
9.81259e-06
9.81259e-06
2.43738e-05
2.43738e-05
2.43738e-05
2.45014e-05
2.45014e-05
2.45014e-05
1.27141e-05
1.27141e-05
1.27141e-05
1.3014e-05
1.3014e-05
1.3014e-05
1.32066e-05
1.32066e-05
1.32066e-05
1.31598e-05
1.31598e-05
1.31598e-05
1.32563e-05
1.32563e-05
1.32563e-05
1.30965e-05
1.30965e-05
1.30965e-05
6.7535e-06
6.7535e-06
6.7535e-06
6.89142e-06
6.89142e-06
6.89142e-06
7.64287e-06
7.64287e-06
7.64287e-06
5.10349e-06
5.10349e-06
5.10349e-06
1.93766e-06
1.93766e-06
1.93766e-06
4.07121e-06
4.07121e-06
4.07121e-06
3.30128e-06
3.30128e-06
3.30128e-06
3.90267e-06
3.90267e-06
3.90267e-06
1.51151e-06
1.51151e-06
1.51151e-06
2.0958e-06
2.0958e-06
2.0958e-06
2.17538e-06
2.17538e-06
2.17538e-06
2.62307e-06
2.62307e-06
2.62307e-06
6.47132e-06
6.47132e-06
6.47132e-06
4.84066e-06
4.84066e-06
4.84066e-06
4.71065e-06
4.71065e-06
4.71065e-06
4.02486e-06
4.02486e-06
4.02486e-06
8.75232e-06
8.75232e-06
8.75232e-06
7.22367e-06
7.22367e-06
7.22367e-06
7.08737e-06
7.08737e-06
7.08737e-06
6.33592e-06
6.33592e-06
6.33592e-06
2.37896e-06
2.37896e-06
2.37896e-06
2.45771e-06
2.45771e-06
2.45771e-06
2.44335e-06
2.44335e-06
2.44335e-06
2.35545e-06
2.35545e-06
2.35545e-06
2.26563e-06
2.26563e-06
2.26563e-06
2.18627e-06
2.18627e-06
2.18627e-06
2.4186e-06
2.4186e-06
2.4186e-06
2.34184e-06
2.34184e-06
2.34184e-06
2.40271e-06
2.40271e-06
2.40271e-06
2.33159e-06
2.33159e-06
2.33159e-06
1.82362e-06
1.82362e-06
1.82362e-06
1.94815e-06
1.94815e-06
1.94815e-06
2.02107e-06
2.02107e-06
2.02107e-06
1.89678e-06
1.89678e-06
1.89678e-06
1.88702e-06
1.88702e-06
1.88702e-06
1.96787e-06
1.96787e-06
1.96787e-06
2.03413e-06
2.03413e-06
2.03413e-06
1.80758e-06
1.80758e-06
1.80758e-06
1.8725e-06
1.8725e-06
1.8725e-06
1.74089e-06
1.74089e-06
1.74089e-06
1.74628e-06
1.74628e-06
1.74628e-06
2.08846e-06
2.08846e-06
2.08846e-06
2.22425e-06
2.22425e-06
2.22425e-06
2.24392e-06
2.24392e-06
2.24392e-06
2.16747e-06
2.16747e-06
2.16747e-06
1.99954e-06
1.99954e-06
1.99954e-06
2.07451e-06
2.07451e-06
2.07451e-06
2.14293e-06
2.14293e-06
2.14293e-06
2.35953e-06
2.35953e-06
2.35953e-06
2.28078e-06
2.28078e-06
2.28078e-06
2.33723e-06
2.33723e-06
2.33723e-06
2.25223e-06
2.25223e-06
2.25223e-06
4.01003e-06
4.01003e-06
4.01003e-06
2.59509e-06
2.59509e-06
2.59509e-06
1.7008e-06
1.7008e-06
1.7008e-06
1.6678e-06
1.6678e-06
1.6678e-06
2.18256e-06
2.18256e-06
2.18256e-06
1.62383e-06
1.62383e-06
1.62383e-06
1.65049e-06
1.65049e-06
1.65049e-06
2.66743e-06
2.66743e-06
2.66743e-06
2.1243e-06
2.1243e-06
2.1243e-06
1.58854e-06
1.58854e-06
1.58854e-06
1.53884e-06
1.53884e-06
1.53884e-06
2.38429e-06
2.38429e-06
2.38429e-06
3.27779e-06
3.27779e-06
3.27779e-06
3.20533e-06
3.20533e-06
3.20533e-06
2.96679e-06
2.96679e-06
2.96679e-06
3.07282e-06
3.07282e-06
3.07282e-06
2.52449e-06
2.52449e-06
2.52449e-06
2.55024e-06
2.55024e-06
2.55024e-06
1.34492e-06
1.34492e-06
1.34492e-06
1.34342e-06
1.34342e-06
1.34342e-06
3.14814e-06
3.14814e-06
3.14814e-06
2.10248e-06
2.10248e-06
2.10248e-06
1.39228e-06
1.39228e-06
1.39228e-06
1.94441e-06
1.94441e-06
1.94441e-06
2.23608e-06
2.23608e-06
2.23608e-06
1.47412e-06
1.47412e-06
1.47412e-06
1.74101e-06
1.74101e-06
1.74101e-06
1.97566e-06
1.97566e-06
1.97566e-06
1.96658e-06
1.96658e-06
1.96658e-06
1.82881e-06
1.82881e-06
1.82881e-06
1.89763e-06
1.89763e-06
1.89763e-06
2.22519e-06
2.22519e-06
2.22519e-06
2.94061e-06
2.94061e-06
2.94061e-06
3.15022e-06
3.15022e-06
3.15022e-06
3.05839e-06
3.05839e-06
3.05839e-06
3.1662e-06
3.1662e-06
3.1662e-06
2.19096e-06
2.19096e-06
2.19096e-06
2.04056e-06
2.04056e-06
2.04056e-06
2.12103e-06
2.12103e-06
2.12103e-06
2.30494e-06
2.30494e-06
2.30494e-06
2.29721e-06
2.29721e-06
2.29721e-06
2.23385e-06
2.23385e-06
2.23385e-06
2.20891e-06
2.20891e-06
2.20891e-06
2.21944e-06
2.21944e-06
2.21944e-06
2.29263e-06
2.29263e-06
2.29263e-06
4.60798e-06
4.60798e-06
4.60798e-06
4.4399e-06
4.4399e-06
4.4399e-06
3.80966e-06
3.80966e-06
3.80966e-06
4.14925e-06
4.14925e-06
4.14925e-06
3.99263e-06
3.99263e-06
3.99263e-06
4.37846e-06
4.37846e-06
4.37846e-06
4.32795e-06
4.32795e-06
4.32795e-06
4.12949e-06
4.12949e-06
4.12949e-06
3.9795e-06
3.9795e-06
3.9795e-06
5.05204e-05
5.05204e-05
5.05204e-05
4.88654e-05
4.88654e-05