<VTKFile type="UnstructuredGrid" version="1.0">
<UnstructuredGrid>
<Piece NumberOfPoints="10830" NumberOfCells="3610">
<Points>
<DataArray type="Float64" NumberOfComponents="3" format="ascii">
3.11035 1.27826 10.4757
3.11035 1.28831 10.5015
3.11035 1.28831 10.45
3.11035 1.28831 11.0051
3.11035 1.27701 11.0305
3.11035 1.28831 11.056
3.11035 1.28831 11.0051
3.11035 1.26002 11.0051
3.11035 1.27701 11.0305
3.11035 0.0244388 11.4776
3.11035 4.44089e-16 11.495
3.11035 0.0422213 11.495
3.11035 4.44089e-16 11.495
3.11035 0.0244388 11.4776
3.11035 -7.90479e-14 11.4648
3.11035 1.28831 11.0051
3.11035 1.27702 10.9797
3.11035 1.26002 11.0051
3.11035 0.00863377 10.7268
3.11035 1.50546e-13 10.7016
3.11035 1.49658e-13 10.752
3.11035 1.27705 10.7269
3.11035 1.26004 10.7521
3.11035 1.28831 10.7521
3.11035 1.27684 10.6263
3.11035 1.28831 10.6514
3.11035 1.28831 10.6013
3.11035 1.26004 10.7521
3.11035 1.27707 10.7773
3.11035 1.28831 10.7521
3.11035 1.28831 10.7521
3.11035 1.27707 10.7773
3.11035 1.28831 10.8025
3.11035 1.26005 10.8026
3.11035 1.28831 10.8025
3.11035 1.27707 10.7773
3.11035 1.26003 10.9543
3.11035 1.24613 10.9797
3.11035 1.27702 10.9797
3.11035 1.24613 10.9797
3.11035 1.26002 11.0051
3.11035 1.27702 10.9797
3.11035 1.24613 10.9797
3.11035 1.26003 10.9543
3.11035 1.23052 10.9543
3.11035 1.24613 10.9797
3.11035 1.23052 11.0051
3.11035 1.26002 11.0051
3.11035 1.28831 10.853
3.11035 1.27705 10.8783
3.11035 1.28831 10.9036
3.11035 1.27705 10.8783
3.11035 1.24616 10.8783
3.11035 1.26004 10.9036
3.11035 1.28831 10.9036
3.11035 1.27705 10.8783
3.11035 1.26004 10.9036
3.11035 1.28831 10.9543
3.11035 1.26003 10.9543
3.11035 1.27702 10.9797
3.11035 1.28831 11.0051
3.11035 1.28831 10.9543
3.11035 1.27702 10.9797
3.11035 1.25981 10.6013
3.11035 1.27684 10.6263
3.11035 1.28831 10.6013
3.11035 1.26002 11.056
3.11035 1.28831 11.056
3.11035 1.27701 11.0305
3.11035 0.85884 11.2357
3.11035 0.888295 11.2357
3.11035 0.873578 11.21
3.11035 4.44089e-16 10.45
3.11035 0.00987207 10.4747
3.11035 0.0277369 10.45
3.11035 0.0840033 10.7016
3.11035 0.0689903 10.6764
3.11035 0.0549577 10.7016
3.11035 0.0264927 10.7016
3.11035 0.0392653 10.7268
3.11035 0.0549577 10.7016
3.11035 0.0264927 10.7016
3.11035 1.50546e-13 10.7016
3.11035 0.00863377 10.7268
3.11035 0.0392653 10.7268
3.11035 0.0264927 10.7016
3.11035 0.00863377 10.7268
3.11035 0.0087521 10.9289
3.11035 1.48326e-13 10.9036
3.11035 -9.59233e-14 10.9543
3.11035 0.0265703 10.9543
3.11035 0.0550657 10.9543
3.11035 0.0393699 10.9289
3.11035 -9.59233e-14 10.9543
3.11035 0.0265703 10.9543
3.11035 0.0087521 10.9289
3.11035 0.0265703 10.9543
3.11035 0.0393699 10.9289
3.11035 0.0087521 10.9289
3.11035 0.0265544 10.9036
3.11035 0.0393699 10.9289
3.11035 0.0550443 10.9036
3.11035 0.0265544 10.9036
3.11035 1.48326e-13 10.9036
3.11035 0.0087521 10.9289
3.11035 0.0393699 10.9289
3.11035 0.0265544 10.9036
3.11035 0.0087521 10.9289
3.11035 1.49658e-13 10.752
3.11035 0.0265126 10.752
3.11035 0.00863377 10.7268
3.11035 0.0265126 10.752
3.11035 0.0392653 10.7268
3.11035 0.00863377 10.7268
3.11035 0.0550657 10.9543
3.11035 0.0691236 10.9289
3.11035 0.0393699 10.9289
3.11035 0.0393699 10.9289
3.11035 0.0691236 10.9289
3.11035 0.0550443 10.9036
3.11035 0.288852 10.9037
3.11035 0.274248 10.929
3.11035 0.303471 10.929
3.11035 0.274248 10.929
3.11035 0.288872 10.9544
3.11035 0.303471 10.929
3.11035 0.288872 10.9544
3.11035 0.318088 10.9544
3.11035 0.303471 10.929
3.11035 0.844143 11.21
3.11035 0.85884 11.2357
3.11035 0.873578 11.21
3.11035 1.27699 10.6766
3.11035 1.28831 10.7017
3.11035 1.28831 10.6514
3.11035 1.28831 10.7521
3.11035 1.28831 10.7017
3.11035 1.27705 10.7269
3.11035 1.17079 10.8531
3.11035 1.15586 10.8278
3.11035 1.14088 10.8531
3.11035 1.26004 10.8531
3.11035 1.24616 10.8783
3.11035 1.27705 10.8783
3.11035 1.28831 10.853
3.11035 1.26004 10.8531
3.11035 1.27705 10.8783
3.11035 1.24616 10.8783
3.11035 1.23053 10.9036
3.11035 1.26004 10.9036
3.11035 1.27704 10.9289
3.11035 1.28831 10.9036
3.11035 1.26004 10.9036
3.11035 1.28831 10.9036
3.11035 1.27704 10.9289
3.11035 1.28831 10.9543
3.11035 1.27704 10.9289
3.11035 1.26003 10.9543
3.11035 1.28831 10.9543
3.11035 1.24591 10.6264
3.11035 1.27684 10.6263
3.11035 1.25981 10.6013
3.11035 1.27699 10.6766
3.11035 1.26001 10.7017
3.11035 1.28831 10.7017
3.11035 1.26001 10.7017
3.11035 1.27705 10.7269
3.11035 1.28831 10.7017
3.11035 1.15573 10.6766
3.11035 1.1706 10.6514
3.11035 1.1407 10.6514
3.11035 1.20051 10.6515
3.11035 1.21561 10.6263
3.11035 1.18556 10.6263
3.11035 1.20051 10.6515
3.11035 1.18556 10.6263
3.11035 1.1706 10.6514
3.11035 1.24614 10.7269
3.11035 1.26004 10.7521
3.11035 1.27705 10.7269
3.11035 1.24614 10.7269
3.11035 1.27705 10.7269
3.11035 1.26001 10.7017
3.11035 1.24612 11.0306
3.11035 1.27701 11.0305
3.11035 1.26002 11.0051
3.11035 1.27701 11.0305
3.11035 1.24612 11.0306
3.11035 1.26002 11.056
3.11035 1.23052 11.0051
3.11035 1.24612 11.0306
3.11035 1.26002 11.0051
3.11035 1.24611 11.1841
3.11035 1.23051 11.1584
3.11035 1.21584 11.1841
3.11035 1.21584 11.1327
3.11035 1.23051 11.1584
3.11035 1.24611 11.1327
3.11035 1.27699 11.0815
3.11035 1.28831 11.056
3.11035 1.26002 11.056
3.11035 1.24611 11.0816
3.11035 1.27699 11.0815
3.11035 1.26002 11.056
3.11035 0.917741 11.2873
3.11035 0.902954 11.3132
3.11035 0.932465 11.3132
3.11035 1.08109 11.1584
3.11035 1.11094 11.1584
3.11035 1.09602 11.1328
3.11035 1.11094 11.1584
3.11035 1.12589 11.1328
3.11035 1.09602 11.1328
3.11035 1.2305 11.1071
3.11035 1.24611 11.0816
3.11035 1.21584 11.0816
3.11035 1.2305 11.1071
3.11035 1.21584 11.1327
3.11035 1.24611 11.1327
3.11035 1.0662 11.1328
3.11035 1.08109 11.1584
3.11035 1.09602 11.1328
3.11035 0.991917 10.9037
3.11035 0.977089 10.8784
3.11035 0.962274 10.9037
3.11035 0.917902 10.8784
3.11035 0.888384 10.8784
3.11035 0.903138 10.9037
3.11035 0.932681 10.9037
3.11035 0.917902 10.8784
3.11035 0.903138 10.9037
3.11035 0.903119 10.8027
3.11035 0.917893 10.8279
3.11035 0.932664 10.8027
3.11035 0.917893 10.8279
3.11035 0.903119 10.8027
3.11035 0.888374 10.8279
3.11035 0.903119 10.8027
3.11035 0.873625 10.8026
3.11035 0.888374 10.8279
3.11035 0.917893 10.8279
3.11035 0.947463 10.8279
3.11035 0.932664 10.8027
3.11035 0.962233 10.7522
3.11035 0.947444 10.7774
3.11035 0.977066 10.7774
3.11035 0.947444 10.7774
3.11035 0.962233 10.7522
3.11035 0.932637 10.7522
3.11035 0.741456 10.9291
3.11035 0.770765 10.9291
3.11035 0.756104 10.9037
3.11035 0.756104 10.9037
3.11035 0.770765 10.9291
3.11035 0.785431 10.9038
3.11035 0.903133 10.8532
3.11035 0.917893 10.8279
3.11035 0.888374 10.8279
3.11035 0.903133 10.8532
3.11035 0.888384 10.8784
3.11035 0.917902 10.8784
3.11035 0.888384 10.8784
3.11035 0.873639 10.8532
3.11035 0.858913 10.8784
3.11035 0.873639 10.8532
3.11035 0.888384 10.8784
3.11035 0.903133 10.8532
3.11035 0.888374 10.8279
3.11035 0.873639 10.8532
3.11035 0.903133 10.8532
3.11035 0.873625 10.8026
3.11035 0.858884 10.7774
3.11035 0.844177 10.8026
3.11035 0.844153 10.7522
3.11035 0.858884 10.7774
3.11035 0.873599 10.7522
3.11035 0.318069 10.9037
3.11035 0.288852 10.9037
3.11035 0.303471 10.929
3.11035 0.288852 10.9037
3.11035 0.318069 10.9037
3.11035 0.303454 10.8784
3.11035 0.00864568 10.5249
3.11035 -9.63674e-14 10.4994
3.11035 1.49658e-13 10.5501
3.11035 4.44089e-16 10.45
3.11035 -9.63674e-14 10.4994
3.11035 0.00987207 10.4747
3.11035 0.0264295 10.6007
3.11035 0.00849117 10.5754
3.11035 1.50546e-13 10.6007
3.11035 1.50546e-13 10.6007
3.11035 0.00849117 10.5754
3.11035 1.49658e-13 10.5501
3.11035 1.28831 10.45
3.11035 1.26122 10.45
3.11035 1.27826 10.4757
3.11035 1.50546e-13 10.7016
3.11035 0.00859461 10.6764
3.11035 1.50546e-13 10.6511
3.11035 0.00859461 10.6764
3.11035 1.50546e-13 10.7016
3.11035 0.0264927 10.7016
3.11035 0.0264637 10.6511
3.11035 1.50546e-13 10.6511
3.11035 0.00859461 10.6764
3.11035 0.0264637 10.6511
3.11035 0.0549232 10.6512
3.11035 0.0391815 10.6259
3.11035 0.0392276 10.6764
3.11035 0.0549577 10.7016
3.11035 0.0689903 10.6764
3.11035 0.0549577 10.7016
3.11035 0.0392276 10.6764
3.11035 0.0264927 10.7016
3.11035 0.0549232 10.6512
3.11035 0.0392276 10.6764
3.11035 0.0689903 10.6764
3.11035 0.0392276 10.6764
3.11035 0.0549232 10.6512
3.11035 0.0264637 10.6511
3.11035 0.0264927 10.7016
3.11035 0.0392276 10.6764
3.11035 0.00859461 10.6764
3.11035 0.00859461 10.6764
3.11035 0.0392276 10.6764
3.11035 0.0264637 10.6511
3.11035 0.00854014 10.6259
3.11035 1.50546e-13 10.6007
3.11035 1.50546e-13 10.6511
3.11035 0.00854014 10.6259
3.11035 0.0264295 10.6007
3.11035 1.50546e-13 10.6007
3.11035 0.0264295 10.6007
3.11035 0.00854014 10.6259
3.11035 0.0391815 10.6259
3.11035 0.00854014 10.6259
3.11035 1.50546e-13 10.6511
3.11035 0.0264637 10.6511
3.11035 0.0391815 10.6259
3.11035 0.00854014 10.6259
3.11035 0.0264637 10.6511
3.11035 0.0690987 10.8783
3.11035 0.0393425 10.8783
3.11035 0.0550443 10.9036
3.11035 0.0550443 10.9036
3.11035 0.0393425 10.8783
3.11035 0.0265544 10.9036
3.11035 0.0393425 10.8783
3.11035 0.0690987 10.8783
3.11035 0.0550252 10.853
3.11035 0.0690242 10.7268
3.11035 0.0840033 10.7016
3.11035 0.0549577 10.7016
3.11035 0.0392653 10.7268
3.11035 0.0690242 10.7268
3.11035 0.0549577 10.7016
3.11035 0.0984777 10.7268
3.11035 0.0840033 10.7016
3.11035 0.0690242 10.7268
3.11035 0.0840313 10.752
3.11035 0.0984777 10.7268
3.11035 0.0690242 10.7268
3.11035 0.0840313 10.752
3.11035 0.113251 10.752
3.11035 0.0984777 10.7268
3.11035 0.303441 10.8278
3.11035 0.288836 10.8531
3.11035 0.318055 10.8531
3.11035 0.288836 10.8531
3.11035 0.303454 10.8784
3.11035 0.318055 10.8531
3.11035 0.186476 10.8783
3.11035 0.201123 10.9036
3.11035 0.215741 10.8783
3.11035 0.201103 10.853
3.11035 0.186476 10.8783
3.11035 0.215741 10.8783
3.11035 0.215723 10.8278
3.11035 0.230345 10.8025
3.11035 0.201085 10.8025
3.11035 0.201103 10.853
3.11035 0.215723 10.8278
3.11035 0.186456 10.8278
3.11035 0.215723 10.8278
3.11035 0.201085 10.8025
3.11035 0.186456 10.8278
3.11035 0.215762 10.929
3.11035 0.230402 10.9543
3.11035 0.245012 10.929
3.11035 0.157245 10.9797
[...]
<PointData Scalars="View Factor" >
<DataArray type="Float64" Name="View Factor" NumberOfComponents="1" format="ascii">
5.21757e-05
5.21757e-05
5.21757e-05
4.54647e-05
4.54647e-05
4.54647e-05
4.56616e-05
4.56616e-05
4.56616e-05
2.44259e-05
2.44259e-05
2.44259e-05
2.61346e-05
2.61346e-05
2.61346e-05
4.58511e-05
4.58511e-05
4.58511e-05
4.23391e-05
4.23391e-05
4.23391e-05
4.87995e-05
4.87995e-05
4.87995e-05
5.02386e-05
5.02386e-05
5.02386e-05
4.85964e-05
4.85964e-05
4.85964e-05
4.83854e-05
4.83854e-05
4.83854e-05
4.81931e-05
4.81931e-05
4.81931e-05
4.61491e-05
4.61491e-05
4.61491e-05
4.59582e-05
4.59582e-05
4.59582e-05
4.62581e-05
4.62581e-05
4.62581e-05
4.58762e-05
4.58762e-05
4.58762e-05
4.7193e-05
4.7193e-05
4.7193e-05
4.71162e-05
4.71162e-05
4.71162e-05
4.7006e-05
4.7006e-05
4.7006e-05
4.62327e-05
4.62327e-05
4.62327e-05
4.60332e-05
4.60332e-05
4.60332e-05
5.04584e-05
5.04584e-05
5.04584e-05
4.52849e-05
4.52849e-05
4.52849e-05
1.12113e-06
1.12113e-06
1.12113e-06
3.31935e-05
3.31935e-05
3.31935e-05
3.39388e-05
3.39388e-05
3.39388e-05
3.84268e-05
3.84268e-05
3.84268e-05
4.04327e-05
4.04327e-05
4.04327e-05
4.01071e-05
4.01071e-05
4.01071e-05
3.4234e-05
3.4234e-05
3.4234e-05
2.87163e-05
2.87163e-05
2.87163e-05
3.19311e-05
3.19311e-05
3.19311e-05
3.11917e-05
3.11917e-05
3.11917e-05
3.21472e-05
3.21472e-05
3.21472e-05
3.4829e-05
3.4829e-05
3.4829e-05
3.27714e-05
3.27714e-05
3.27714e-05
4.31642e-05
4.31642e-05
4.31642e-05
4.16508e-05
4.16508e-05
4.16508e-05
2.78126e-05
2.78126e-05
2.78126e-05
2.96902e-05
2.96902e-05
2.96902e-05
1.22945e-05
1.22945e-05
1.22945e-05
8.76247e-06
8.76247e-06
8.76247e-06
6.82119e-06
6.82119e-06
6.82119e-06
0
0
0
4.96126e-05
4.96126e-05
4.96126e-05
4.89946e-05
4.89946e-05
4.89946e-05
4.4809e-05
4.4809e-05
4.4809e-05
4.73123e-05
4.73123e-05
4.73123e-05
4.7398e-05
4.7398e-05
4.7398e-05
4.70321e-05
4.70321e-05
4.70321e-05
4.68114e-05
4.68114e-05
4.68114e-05
4.66092e-05
4.66092e-05
4.66092e-05
4.64247e-05
4.64247e-05
4.64247e-05
5.03669e-05
5.03669e-05
5.03669e-05
4.94147e-05
4.94147e-05
4.94147e-05
4.92086e-05
4.92086e-05
4.92086e-05
4.34438e-05
4.34438e-05
4.34438e-05
4.82965e-05
4.82965e-05
4.82965e-05
4.66208e-05
4.66208e-05
4.66208e-05
4.89146e-05
4.89146e-05
4.89146e-05
4.91192e-05
4.91192e-05
4.91192e-05
4.5579e-05
4.5579e-05
4.5579e-05
4.53905e-05
4.53905e-05
4.53905e-05
4.56865e-05
4.56865e-05
4.56865e-05
4.39346e-05
4.39346e-05
4.39346e-05
4.43003e-05
4.43003e-05
4.43003e-05
4.50977e-05
4.50977e-05
4.50977e-05
4.5016e-05
4.5016e-05
4.5016e-05
6.30467e-06
6.30467e-06
6.30467e-06
2.96357e-05
2.96357e-05
2.96357e-05
3.14458e-05
3.14458e-05
3.14458e-05
4.48544e-05
4.48544e-05
4.48544e-05
4.44842e-05
4.44842e-05
4.44842e-05
2.75917e-05
2.75917e-05
2.75917e-05
2.72295e-05
2.72295e-05
2.72295e-05
2.28053e-05
2.28053e-05
2.28053e-05
2.19761e-05
2.19761e-05
2.19761e-05
3.88061e-05
3.88061e-05
3.88061e-05
3.75713e-05
3.75713e-05
3.75713e-05
3.79432e-05
3.79432e-05
3.79432e-05
3.86066e-05
3.86066e-05
3.86066e-05
4.07158e-05
4.07158e-05
4.07158e-05
3.91576e-05
3.91576e-05
3.91576e-05
1.22535e-05
1.22535e-05
1.22535e-05
1.38287e-05
1.38287e-05
1.38287e-05
3.40018e-05
3.40018e-05
3.40018e-05
2.61305e-05
2.61305e-05
2.61305e-05
2.42036e-05
2.42036e-05
2.42036e-05
2.73033e-05
2.73033e-05
2.73033e-05
3.14977e-05
3.14977e-05
3.14977e-05
3.98484e-05
3.98484e-05
3.98484e-05
3.62041e-05
3.62041e-05
3.62041e-05
1.38766e-05
1.38766e-05
1.38766e-05
1.76878e-05
1.76878e-05
1.76878e-05
3.389e-05
3.389e-05
3.389e-05
3.43236e-05
3.43236e-05
3.43236e-05
3.2085e-05
3.2085e-05
3.2085e-05
3.34587e-05
3.34587e-05
3.34587e-05
5.24119e-05
5.24119e-05
5.24119e-05
3.81487e-05
3.81487e-05
3.81487e-05
3.89222e-05
3.89222e-05
3.89222e-05
3.56028e-05
3.56028e-05
3.56028e-05
3.05079e-05
3.05079e-05
3.05079e-05
3.38665e-05
3.38665e-05
3.38665e-05
3.65498e-05
3.65498e-05
3.65498e-05
3.19108e-05
3.19108e-05
3.19108e-05
3.24295e-05
3.24295e-05
3.24295e-05
3.67175e-05
3.67175e-05
3.67175e-05
3.51412e-05
3.51412e-05
3.51412e-05
3.33183e-05
3.33183e-05
3.33183e-05
3.1949e-05
3.1949e-05
3.1949e-05
2.9841e-05
2.9841e-05
2.9841e-05
3.40567e-05
3.40567e-05
3.40567e-05
3.1053e-05
3.1053e-05
3.1053e-05
3.37424e-05
3.37424e-05
3.37424e-05
3.39884e-05
3.39884e-05
3.39884e-05
3.59289e-05
3.59289e-05
3.59289e-05
3.62141e-05
3.62141e-05
3.62141e-05
3.80663e-05
3.80663e-05
3.80663e-05
3.62101e-05
3.62101e-05
3.62101e-05
3.84586e-05
3.84586e-05
3.84586e-05
3.90357e-05
3.90357e-05
3.90357e-05
3.04689e-05
3.04689e-05
3.04689e-05
2.59709e-05
2.59709e-05
2.59709e-05
2.22321e-05
2.22321e-05
2.22321e-05
2.60601e-05
2.60601e-05
2.60601e-05
3.84706e-05
3.84706e-05
3.84706e-05
3.37968e-05
3.37968e-05
3.37968e-05
3.75406e-05
3.75406e-05
3.75406e-05
8.76431e-06
8.76431e-06
8.76431e-06
9.3839e-06
9.3839e-06
9.3839e-06
2.13293e-05
2.13293e-05
2.13293e-05
2.4436e-05
2.4436e-05
2.4436e-05
2.51823e-05
2.51823e-05
2.51823e-05
3.60377e-05
3.60377e-05
3.60377e-05
3.40247e-05
3.40247e-05
3.40247e-05
3.00385e-05
3.00385e-05
3.00385e-05
2.91916e-05
2.91916e-05
2.91916e-05
3.13551e-05
3.13551e-05
3.13551e-05
3.15216e-05
3.15216e-05
3.15216e-05
7.41904e-06
7.41904e-06
7.41904e-06
2.77006e-05
2.77006e-05
2.77006e-05
2.52369e-05
2.52369e-05
2.52369e-05
1.38782e-05
1.38782e-05
1.38782e-05
1.22959e-05
1.22959e-05
1.22959e-05
3.55097e-06
3.55097e-06
3.55097e-06
6.82199e-06
6.82199e-06
6.82199e-06
6.8227e-06
6.8227e-06
6.8227e-06
8.76344e-06
8.76344e-06
8.76344e-06
3.5506e-06
3.5506e-06
3.5506e-06
2.15569e-06
2.15569e-06
2.15569e-06
0
0
0
0
0
0
3.81334e-06
3.81334e-06
3.81334e-06
2.18409e-06
2.18409e-06
2.18409e-06
0
0
0
0
0
0
0
0
0
0
0
0
0
0
0
0
0
0
3.55019e-06
3.55019e-06
3.55019e-06
2.14844e-06
2.14844e-06
2.14844e-06
0
0
0
0
0
0
0
0
0
0
0
0
0
0
0
0
0
0
0
0
0
0
0
0
0
0
0
0
0
0
0
0
0
0
0
0
0
0
0
0
0
0
0
0
0
0
0
0
0
0
0
0
0
0
0
0
0
0
0
0
0
0
0
0
0
0
0
0
0
0
0
0
0
0
0
2.86106e-05
2.86106e-05
2.86106e-05
1.13165e-05
1.13165e-05
1.13165e-05
1.56397e-05
1.56397e-05
1.56397e-05
1.94178e-05
1.94178e-05
1.94178e-05
1.73229e-05
1.73229e-05
1.73229e-05
4.62832e-05
4.62832e-05
4.62832e-05
4.59837e-05
4.59837e-05
4.59837e-05
4.61747e-05
4.61747e-05
4.61747e-05
4.43771e-05
4.43771e-05
4.43771e-05
3.78725e-05
3.78725e-05
3.78725e-05
4.02659e-05
4.02659e-05
4.02659e-05
3.75447e-05
3.75447e-05
3.75447e-05
3.96877e-05
3.96877e-05
3.96877e-05
3.92561e-05
3.92561e-05
3.92561e-05
4.75954e-05
4.75954e-05
4.75954e-05
4.77071e-05
4.77071e-05
4.77071e-05
4.77849e-05
4.77849e-05
4.77849e-05
4.79929e-05
4.79929e-05
4.79929e-05
4.7906e-05
4.7906e-05
4.7906e-05
4.50234e-05
4.50234e-05
4.50234e-05
4.64756e-05
4.64756e-05
4.64756e-05
4.64503e-05
4.64503e-05
4.64503e-05
4.68373e-05
4.68373e-05
4.68373e-05
4.65593e-05
4.65593e-05
4.65593e-05
4.67529e-05
4.67529e-05
4.67529e-05
4.65333e-05
4.65333e-05
4.65333e-05
4.67267e-05
4.67267e-05
4.67267e-05
4.98295e-05
4.98295e-05
4.98295e-05
5.00383e-05
5.00383e-05
5.00383e-05
5.01567e-05
5.01567e-05
5.01567e-05
5.06695e-05
5.06695e-05
5.06695e-05
4.28863e-05
4.28863e-05
4.28863e-05
4.4301e-05
4.4301e-05
4.4301e-05
4.92363e-05
4.92363e-05
4.92363e-05
4.94702e-05
4.94702e-05
4.94702e-05
4.91472e-05
4.91472e-05
4.91472e-05
4.92639e-05
4.92639e-05
4.92639e-05
4.53094e-05
4.53094e-05
4.53094e-05
4.51221e-05
4.51221e-05
4.51221e-05
4.50407e-05
4.50407e-05
4.50407e-05
4.37528e-05
4.37528e-05
4.37528e-05
3.58658e-05
3.58658e-05
3.58658e-05
1.68944e-05
1.68944e-05
1.68944e-05
1.11647e-06
1.11647e-06
1.11647e-06
2.92751e-06
2.92751e-06
2.92751e-06
2.91532e-06
2.91532e-06
2.91532e-06
2.95124e-05
2.95124e-05
2.95124e-05
2.92673e-05
2.92673e-05
2.92673e-05
3.82451e-05
3.82451e-05
3.82451e-05
3.84044e-05
3.84044e-05
3.84044e-05
3.01966e-05
3.01966e-05
3.01966e-05
3.73706e-05
3.73706e-05
3.73706e-05
3.48009e-05
3.48009e-05
3.48009e-05
3.68834e-05
3.68834e-05
3.68834e-05
2.9521e-05
2.9521e-05
2.9521e-05
2.8469e-05
2.8469e-05
2.8469e-05
2.56562e-05
2.56562e-05
2.56562e-05
4.47498e-05
4.47498e-05
4.47498e-05
4.45648e-05
4.45648e-05
4.45648e-05
4.483e-05
4.483e-05
4.483e-05
4.40375e-05
4.40375e-05
4.40375e-05
4.21481e-05
4.21481e-05
4.21481e-05
4.42204e-05
4.42204e-05
4.42204e-05
4.24993e-05
4.24993e-05
4.24993e-05
4.05322e-05
4.05322e-05
4.05322e-05
4.07009e-05
4.07009e-05
4.07009e-05
3.22122e-05
3.22122e-05
3.22122e-05
3.65162e-05
3.65162e-05
3.65162e-05
3.44921e-05
3.44921e-05
3.44921e-05
3.29128e-05
3.29128e-05
3.29128e-05
1.9588e-05
1.9588e-05
1.9588e-05
2.05598e-05
2.05598e-05
2.05598e-05
1.87167e-05
1.87167e-05
1.87167e-05
3.53728e-06
3.53728e-06
3.53728e-06
1.75269e-06
1.75269e-06
1.75269e-06
1.22417e-05
1.22417e-05
1.22417e-05
1.38151e-05
1.38151e-05
1.38151e-05
1.76084e-05
1.76084e-05
1.76084e-05
1.98672e-05
1.98672e-05
1.98672e-05
1.38198e-05
1.38198e-05
1.38198e-05
1.76144e-05
1.76144e-05
1.76144e-05
8.72527e-06
8.72527e-06
8.72527e-06
6.7917e-06
6.7917e-06
6.7917e-06
3.535e-06
3.535e-06
3.535e-06
1.75214e-06
1.75214e-06
1.75214e-06
3.53616e-06
3.53616e-06
3.53616e-06
6.79395e-06
6.79395e-06
6.79395e-06
2.52421e-05
2.52421e-05
2.52421e-05
2.4605e-05
2.4605e-05
2.4605e-05
2.74554e-05
2.74554e-05
2.74554e-05
3.01637e-05
3.01637e-05
3.01637e-05
0
0
0
0
0
0
0
0
0
4.04215e-05
4.04215e-05
4.04215e-05
3.70372e-05
3.70372e-05
3.70372e-05
4.05055e-05
4.05055e-05
4.05055e-05
3.79824e-05
3.79824e-05
3.79824e-05
3.80466e-05
3.80466e-05
3.80466e-05
3.88633e-05
3.88633e-05
3.88633e-05
4.11592e-05
4.11592e-05
4.11592e-05
4.11019e-05
4.11019e-05
4.11019e-05
4.18856e-05
4.18856e-05
4.18856e-05
3.98372e-05
3.98372e-05
3.98372e-05
3.66303e-05
3.66303e-05
3.66303e-05
3.59967e-05
3.59967e-05
3.59967e-05
1.99195e-05
1.99195e-05
1.99195e-05
2.40637e-05
2.40637e-05
2.40637e-05
1.75603e-06
1.75603e-06
1.75603e-06
3.54397e-06
3.54397e-06
3.54397e-06
1.99146e-05
1.99146e-05
1.99146e-05
1.76554e-05
1.76554e-05
1.76554e-05
0
0
0
0
0
0
0
0
0
0
0
0
0
0
0
0
0
0
1.76259e-05
1.76259e-05
1.76259e-05
2.58776e-05
2.58776e-05
2.58776e-05
2.374e-05
2.374e-05
2.374e-05
1.98868e-05
1.98868e-05
1.98868e-05
6.79821e-06
6.79821e-06
6.79821e-06
8.73354e-06
8.73354e-06
8.73354e-06
2.58858e-05
2.58858e-05
2.58858e-05
1.38329e-05
1.38329e-05
1.38329e-05
1.76314e-05
1.76314e-05
1.76314e-05
3.03579e-05
3.03579e-05
3.03579e-05
3.62184e-05
3.62184e-05
3.62184e-05
3.77089e-05
3.77089e-05
3.77089e-05
4.03005e-05
4.03005e-05
4.03005e-05
2.58511e-05
2.58511e-05
2.58511e-05
2.3622e-05
2.3622e-05
2.3622e-05
3.03373e-05
3.03373e-05
3.03373e-05
2.58602e-05
2.58602e-05
2.58602e-05
3.63849e-05
3.63849e-05
3.63849e-05
4.00682e-05
4.00682e-05
4.00682e-05
3.80237e-05
3.80237e-05
3.80237e-05
3.6541e-05
3.6541e-05
3.6541e-05
3.63903e-05
3.63903e-05
3.63903e-05
4.04933e-05
4.04933e-05
4.04933e-05
3.78916e-05
3.78916e-05
3.78916e-05
3.42071e-05
3.42071e-05
3.42071e-05
3.12738e-05
3.12738e-05
3.12738e-05
3.15655e-05
3.15655e-05
3.15655e-05
3.65059e-05
3.65059e-05
3.65059e-05
3.24869e-05
3.24869e-05
3.24869e-05
1.99241e-05
1.99241e-05
1.99241e-05
1.76595e-05
1.76595e-05
1.76595e-05
1.38547e-05
1.38547e-05
1.38547e-05
1.22759e-05
1.22759e-05
1.22759e-05
6.81067e-06
6.81067e-06
6.81067e-06
8.7493e-06
8.7493e-06
8.7493e-06
4.50697e-05
4.50697e-05
4.50697e-05
5.23126e-05
5.23126e-05
5.23126e-05
5.24418e-05
5.24418e-05
5.24418e-05
3.43806e-05
3.43806e-05
3.43806e-05
4.32932e-05
4.32932e-05
4.32932e-05
4.3474e-05
4.3474e-05
4.3474e-05
3.18496e-05
3.18496e-05
3.18496e-05
2.94797e-05
2.94797e-05
2.94797e-05
3.03979e-05
3.03979e-05
3.03979e-05
3.0583e-05
3.0583e-05
3.0583e-05
3.86426e-05
3.86426e-05
3.86426e-05
3.6381e-05
3.6381e-05
3.6381e-05
3.61844e-05
3.61844e-05
3.61844e-05
4.37821e-05
4.37821e-05
4.37821e-05
4.45297e-05
4.45297e-05
4.45297e-05
4.36273e-05
4.36273e-05
4.36273e-05
4.36001e-05
4.36001e-05
4.36001e-05
4.44102e-05
4.44102e-05
4.44102e-05
4.57711e-05
4.57711e-05
4.57711e-05
4.55334e-05
4.55334e-05
4.55334e-05
4.44617e-05
4.44617e-05
4.44617e-05
4.54298e-05
4.54298e-05
4.54298e-05
4.48375e-05
4.48375e-05
4.48375e-05
4.46998e-05
4.46998e-05
4.46998e-05
4.25864e-05
4.25864e-05
4.25864e-05
4.12388e-05
4.12388e-05
4.12388e-05
4.18317e-05
4.18317e-05
4.18317e-05
3.99769e-05
3.99769e-05
3.99769e-05
4.33878e-05
4.33878e-05
4.33878e-05
4.34818e-05
4.34818e-05
4.34818e-05
4.03694e-05
4.03694e-05
4.03694e-05
4.22623e-05
4.22623e-05
4.22623e-05
4.25391e-05
4.25391e-05
4.25391e-05
4.03504e-05
4.03504e-05
4.03504e-05
3.85716e-05
3.85716e-05
3.85716e-05
3.90858e-05
3.90858e-05
3.90858e-05
3.04727e-05
3.04727e-05
3.04727e-05
3.2495e-05
3.2495e-05
3.2495e-05
3.65262e-05
3.65262e-05
3.65262e-05
3.24912e-05
3.24912e-05
3.24912e-05
1.99552e-05
1.99552e-05
1.99552e-05
2.41073e-05
2.41073e-05
2.41073e-05
1.76899e-05
1.76899e-05
1.76899e-05
2.59741e-05
2.59741e-05
2.59741e-05
2.41101e-05
2.41101e-05
2.41101e-05
1.99575e-05
1.99575e-05
1.99575e-05
2.79495e-05
2.79495e-05
2.79495e-05
3.50512e-05
3.50512e-05
3.50512e-05
2.86549e-05
2.86549e-05
2.86549e-05
3.26329e-05
3.26329e-05
3.26329e-05
3.05464e-05
3.05464e-05
3.05464e-05
3.41522e-05
3.41522e-05
3.41522e-05
1.51656e-05
1.51656e-05
1.51656e-05
1.79539e-05
1.79539e-05
1.79539e-05
8.50976e-06
8.50976e-06
8.50976e-06
8.81138e-06
8.81138e-06
8.81138e-06
1.17106e-05
1.17106e-05
1.17106e-05
1.19012e-05
1.19012e-05
1.19012e-05
5.84389e-06
5.84389e-06
5.84389e-06
5.36552e-06
5.36552e-06
5.36552e-06
7.4498e-06
7.4498e-06
7.4498e-06
5.62599e-06
5.62599e-06
5.62599e-06
5.6493e-06
5.6493e-06
5.6493e-06
7.51174e-06
7.51174e-06
7.51174e-06
9.43175e-06
9.43175e-06
9.43175e-06
1.14934e-05
1.14934e-05
1.14934e-05
9.30645e-06
9.30645e-06
9.30645e-06
1.24697e-05
1.24697e-05
1.24697e-05
3.71536e-05
3.71536e-05
3.71536e-05
3.23394e-05
3.23394e-05
3.23394e-05
3.4275e-05
3.4275e-05
3.4275e-05
3.19376e-05
3.19376e-05
3.19376e-05
2.47434e-05
2.47434e-05
2.47434e-05
2.68883e-05
2.68883e-05
2.68883e-05
2.38102e-05
2.38102e-05
2.38102e-05
2.65091e-05
2.65091e-05
2.65091e-05
2.9082e-05
2.9082e-05
2.9082e-05
2.89617e-05
2.89617e-05
2.89617e-05
1.14458e-05
1.14458e-05
1.14458e-05
1.32513e-05
1.32513e-05
1.32513e-05
9.22966e-06
9.22966e-06
9.22966e-06
1.51131e-05
1.51131e-05
1.51131e-05
1.69135e-05
1.69135e-05
1.69135e-05
1.31964e-05
1.31964e-05
1.31964e-05
0
0
0
5.57967e-06
5.57967e-06
5.57967e-06
5.55665e-06
5.55665e-06
5.55665e-06
3.73542e-06
3.73542e-06
3.73542e-06
1.91458e-06
1.91458e-06
1.91458e-06
2.63203e-05
2.63203e-05
2.63203e-05
2.2497e-05
2.2497e-05
2.2497e-05
2.32421e-05
2.32421e-05
2.32421e-05
2.84124e-05
2.84124e-05
2.84124e-05
2.72488e-05
2.72488e-05
2.72488e-05
2.55596e-05
2.55596e-05
2.55596e-05
2.67943e-05
2.67943e-05
2.67943e-05
2.80568e-05
2.80568e-05
2.80568e-05
2.69079e-05
2.69079e-05
2.69079e-05
2.52412e-05
2.52412e-05
2.52412e-05
2.71348e-05
2.71348e-05
2.71348e-05
2.53468e-05
2.53468e-05
2.53468e-05
2.34144e-05
2.34144e-05
2.34144e-05
2.3317e-05
2.3317e-05
2.3317e-05
1.22972e-05
1.22972e-05
1.22972e-05
1.38797e-05
1.38797e-05
1.38797e-05
1.76918e-05
1.76918e-05
1.76918e-05
1.99595e-05
1.99595e-05
1.99595e-05
1.89456e-05
1.89456e-05
1.89456e-05
1.52829e-05
1.52829e-05
1.52829e-05
0
0
0
1.94642e-06
1.94642e-06
1.94642e-06
0
0
0
0
0
0
0
0
0
0
0
0
0
0
0
0
0
0
0
0
0
0
0
0
0
0
0
0
0
0
0
0
0
0
0
0
0
0
0
0
0
0
2.12698e-06
2.12698e-06
2.12698e-06
0
0
0
0
0
0
0
0
0
0
0
0
0
0
0
0
0
0
0
0
0
0
0
0
0
0
0
0
0
0
0
0
0
0
0
0
0
0
0
0
0
0
0
0
0
0
0
0
0
0
0
0
0
0
0
0
0
0
0
0
0
0
0
0
0
0
0
0
0
0
0
0
0
0
0
0
0
0
0
0
0
0
0
0
0
0
0
0
0
0
0
0
0
0
0
0
0
0
0
1.13051e-06
1.13051e-06
1.13051e-06
1.13523e-06
1.13523e-06
1.13523e-06
0
0
0
0
0
0
0
0
0
0
0
0
0
0
0
0
0
0
0
0
0
0
0
0
0
0
0
0
0
0
0
0
0
0
0
0
0
0
0
0
0
0
0
0
0
0
0
0
0
0
0
0
0
0
5.51092e-06
5.51092e-06
5.51092e-06
3.72003e-06
3.72003e-06
3.72003e-06
0
0
0
0
0
0
0
0
0
0
0
0
0
0
0
0
0
0
0
0
0
0
0
0
0
0
0
0
0
0
0
0
0
0
0
0
0
0
0
0
0
0
0
0
0
0
0
0
0
0
0
0
0
0
0
0
0
0
0
0
0
0
0
0
0
0
0
0
0
0
0
0
0
0
0
0
0
0
0
0
0
0
0
0
0
0
0
0
0
0
0
0
0
0
0
0
0
0
0
0
0
0
9.68719e-06
9.68719e-06
9.68719e-06
8.01637e-06
8.01637e-06
8.01637e-06
2.37834e-05
2.37834e-05
2.37834e-05
2.53842e-05
2.53842e-05
2.53842e-05
2.70564e-05
2.70564e-05
2.70564e-05
1.55096e-05
1.55096e-05
1.55096e-05
1.5445e-05
1.5445e-05
1.5445e-05
1.92564e-05
1.92564e-05
1.92564e-05
1.72507e-05
1.72507e-05
1.72507e-05
1.38306e-05
1.38306e-05
1.38306e-05
1.38885e-05
1.38885e-05
1.38885e-05
2.99131e-05
2.99131e-05
2.99131e-05
3.60151e-05
3.60151e-05
3.60151e-05
4.07674e-05
4.07674e-05
4.07674e-05
4.07527e-05
4.07527e-05
4.07527e-05
4.08477e-05
4.08477e-05
4.08477e-05
4.08622e-05
4.08622e-05
4.08622e-05
4.0643e-05
4.0643e-05
4.0643e-05
4.5901e-05
4.5901e-05
4.5901e-05
4.41163e-05
4.41163e-05
4.41163e-05
3.71809e-05
3.71809e-05
3.71809e-05
3.66193e-05
3.66193e-05
3.66193e-05
3.85862e-05
3.85862e-05
3.85862e-05
4.5743e-05
4.5743e-05
4.5743e-05
4.14305e-05
4.14305e-05
4.14305e-05
3.974e-05
3.974e-05
3.974e-05
3.88703e-05
3.88703e-05
3.88703e-05
4.24247e-05
4.24247e-05
4.24247e-05
4.22177e-05
4.22177e-05
4.22177e-05
4.26106e-05
4.26106e-05
4.26106e-05
4.16093e-05
4.16093e-05
4.16093e-05
4.39069e-05
4.39069e-05
4.39069e-05
4.44231e-05
4.44231e-05
4.44231e-05
4.37291e-05
4.37291e-05
4.37291e-05
4.20527e-05
4.20527e-05
4.20527e-05
4.05929e-05
4.05929e-05
4.05929e-05
4.46221e-05
4.46221e-05
4.46221e-05
4.33186e-05
4.33186e-05
4.33186e-05
4.32953e-05
4.32953e-05
4.32953e-05
3.84693e-05
3.84693e-05
3.84693e-05
3.85674e-05
3.85674e-05
3.85674e-05
4.03543e-05
4.03543e-05
4.03543e-05
4.1958e-05
4.1958e-05
4.1958e-05
4.7622e-05
4.7622e-05
4.7622e-05
4.74244e-05
4.74244e-05
4.74244e-05
4.67026e-05
4.67026e-05
4.67026e-05
4.55891e-05
4.55891e-05
4.55891e-05
4.80198e-05
4.80198e-05
4.80198e-05
4.62743e-05
4.62743e-05
4.62743e-05
4.5815e-05
4.5815e-05
4.5815e-05
5.14326e-05
5.14326e-05
5.14326e-05
5.07901e-05
5.07901e-05
5.07901e-05
5.10033e-05
5.10033e-05
5.10033e-05
5.13087e-05
5.13087e-05
5.13087e-05
5.10946e-05
5.10946e-05
5.10946e-05
5.08715e-05
5.08715e-05
5.08715e-05
5.15135e-05
5.15135e-05
5.15135e-05
4.83571e-05
4.83571e-05
4.83571e-05
4.8766e-05
4.8766e-05
4.8766e-05
4.68031e-05
4.68031e-05
4.68031e-05
4.89721e-05
4.89721e-05
4.89721e-05
5.00955e-05
5.00955e-05
5.00955e-05
4.9886e-05
4.9886e-05
4.9886e-05
5.0186e-05
5.0186e-05
5.0186e-05
5.00668e-05
5.00668e-05
5.00668e-05
4.94425e-05
4.94425e-05
4.94425e-05
4.95314e-05
4.95314e-05
4.95314e-05
4.97388e-05
4.97388e-05
4.97388e-05
4.98577e-05
4.98577e-05
4.98577e-05
4.95597e-05
4.95597e-05
4.95597e-05
4.97675e-05
4.97675e-05
4.97675e-05
4.73026e-05
4.73026e-05
4.73026e-05
4.82352e-05
4.82352e-05
4.82352e-05
4.52292e-05
4.52292e-05
4.52292e-05
4.55606e-05
4.55606e-05
4.55606e-05
4.67831e-05
4.67831e-05
4.67831e-05
4.71553e-05
4.71553e-05
4.71553e-05
4.83118e-05
4.83118e-05
4.83118e-05
4.82809e-05
4.82809e-05
4.82809e-05
4.0197e-05
4.0197e-05
4.0197e-05
4.19736e-05
4.19736e-05
4.19736e-05
4.36739e-05
4.36739e-05
4.36739e-05
3.7459e-05
3.7459e-05
3.7459e-05
4.40141e-05
4.40141e-05
4.40141e-05
4.41969e-05
4.41969e-05
4.41969e-05
1.51261e-05
1.51261e-05
1.51261e-05
1.6824e-05
1.6824e-05
1.6824e-05
1.89376e-05
1.89376e-05
1.89376e-05
2.05639e-05
2.05639e-05
2.05639e-05
0
0
0
0
0
0
0
0
0
0
0
0
0
0
0
0
0
0
0
0
0
0
0
0
1.0974e-06
1.0974e-06
1.0974e-06
4.58884e-06
4.58884e-06
4.58884e-06
1.52528e-05
1.52528e-05
1.52528e-05
1.53166e-05
1.53166e-05
1.53166e-05
4.6661e-06
4.6661e-06
4.6661e-06
6.43766e-06
6.43766e-06
6.43766e-06
8.42768e-06
8.42768e-06
8.42768e-06
1.18479e-05
1.18479e-05
1.18479e-05
1.18974e-05
1.18974e-05
1.18974e-05
1.01845e-05
1.01845e-05
1.01845e-05
8.39256e-06
8.39256e-06
8.39256e-06
1.00998e-05
1.00998e-05
1.00998e-05
6.35752e-06
6.35752e-06
6.35752e-06
4.60803e-06
4.60803e-06
4.60803e-06
2.87906e-06
2.87906e-06
2.87906e-06
2.89109e-06
2.89109e-06
2.89109e-06
4.64666e-06
4.64666e-06
4.64666e-06
6.38412e-06
6.38412e-06
6.38412e-06
2.2355e-05
2.2355e-05
2.2355e-05
1.82136e-05
1.82136e-05
1.82136e-05
2.05017e-05
2.05017e-05
2.05017e-05
2.04162e-05
2.04162e-05
2.04162e-05
1.08434e-05
1.08434e-05
1.08434e-05
1.26673e-05
1.26673e-05
1.26673e-05
1.26144e-05
1.26144e-05
1.26144e-05
1.07531e-05
1.07531e-05
1.07531e-05
1.79866e-05
1.79866e-05
1.79866e-05
1.81376e-05
1.81376e-05
1.81376e-05
2.01618e-05
2.01618e-05
2.01618e-05
2.02462e-05
2.02462e-05
2.02462e-05
1.45418e-05
1.45418e-05
1.45418e-05