<VTKFile type="UnstructuredGrid" version="1.0">
<UnstructuredGrid>
<Piece NumberOfPoints="10830" NumberOfCells="3610">
<Points>
<DataArray type="Float64" NumberOfComponents="3" format="ascii">
3.10314 1.29552 5.25075
3.11025 1.28841 5.225
3.11025 1.28841 5.27646
3.11025 1.28841 5.78008
3.11025 1.28841 5.831
3.10226 1.2964 5.80553
3.11025 1.28841 5.78008
3.10226 1.2964 5.80553
3.09025 1.30841 5.7801
2.21656 2.1821 6.25259
2.22913 2.16953 6.27
2.19928 2.19938 6.27
2.19928 2.19938 6.27
2.19928 2.19938 6.23984
2.21656 2.1821 6.25259
3.11025 1.28841 5.78008
3.09025 1.30841 5.7801
3.10227 1.29639 5.75468
2.20538 2.19328 5.50179
2.19928 2.19938 5.52701
2.19928 2.19938 5.47657
3.10229 1.29637 5.5019
3.11025 1.28841 5.52709
3.09026 1.3084 5.52711
3.10214 1.29652 5.40134
3.11025 1.28841 5.37628
3.11025 1.28841 5.42639
3.09026 1.3084 5.52711
3.11025 1.28841 5.52709
3.1023 1.29636 5.55231
3.11025 1.28841 5.52709
3.11025 1.28841 5.57754
3.1023 1.29636 5.55231
3.09026 1.3084 5.57755
3.1023 1.29636 5.55231
3.11025 1.28841 5.57754
3.09025 1.30841 5.72931
3.10227 1.29639 5.75468
3.08043 1.31823 5.7547
3.08043 1.31823 5.7547
3.10227 1.29639 5.75468
3.09025 1.30841 5.7801
3.08043 1.31823 5.7547
3.06939 1.32927 5.72932
3.09025 1.30841 5.72931
3.08043 1.31823 5.7547
3.09025 1.30841 5.7801
3.06938 1.32928 5.78012
3.11025 1.28841 5.62804
3.11025 1.28841 5.67862
3.10229 1.29637 5.65333
3.10229 1.29637 5.65333
3.09026 1.3084 5.67863
3.08044 1.31822 5.65334
3.11025 1.28841 5.67862
3.09026 1.3084 5.67863
3.10229 1.29637 5.65333
3.11025 1.28841 5.72929
3.10227 1.29639 5.75468
3.09025 1.30841 5.72931
3.11025 1.28841 5.78008
3.10227 1.29639 5.75468
3.11025 1.28841 5.72929
3.0901 1.30856 5.37632
3.11025 1.28841 5.37628
3.10214 1.29652 5.40134
3.09024 1.30842 5.83103
3.10226 1.2964 5.80553
3.11025 1.28841 5.831
2.80657 1.59209 6.01075
2.81699 1.58167 5.98498
2.8274 1.57126 6.01072
2.19928 2.19938 5.225
2.21889 2.17977 5.225
2.20626 2.1924 5.2497
2.25868 2.13998 5.47659
2.23814 2.16052 5.47657
2.24806 2.1506 5.45137
2.21801 2.18065 5.47656
2.23814 2.16052 5.47657
2.22704 2.17162 5.50178
2.21801 2.18065 5.47656
2.20538 2.19328 5.50179
2.19928 2.19938 5.47657
2.22704 2.17162 5.50178
2.20538 2.19328 5.50179
2.21801 2.18065 5.47656
2.20547 2.19319 5.70394
2.19928 2.19938 5.7293
2.19928 2.19938 5.67861
2.21807 2.1806 5.7293
2.22712 2.17155 5.70393
2.23821 2.16045 5.72929
2.19928 2.19938 5.7293
2.20547 2.19319 5.70394
2.21807 2.1806 5.7293
2.21807 2.1806 5.7293
2.20547 2.19319 5.70394
2.22712 2.17155 5.70393
2.21805 2.18061 5.6786
2.2382 2.16046 5.6786
2.22712 2.17155 5.70393
2.21805 2.18061 5.6786
2.20547 2.19319 5.70394
2.19928 2.19938 5.67861
2.22712 2.17155 5.70393
2.20547 2.19319 5.70394
2.21805 2.18061 5.6786
2.19928 2.19938 5.52701
2.20538 2.19328 5.50179
2.21802 2.18064 5.527
2.21802 2.18064 5.527
2.20538 2.19328 5.50179
2.22704 2.17162 5.50178
2.23821 2.16045 5.72929
2.22712 2.17155 5.70393
2.24816 2.15051 5.70393
2.22712 2.17155 5.70393
2.2382 2.16046 5.6786
2.24816 2.15051 5.70393
2.40353 1.99513 5.67867
2.41386 1.9848 5.70401
2.3932 2.00546 5.704
2.3932 2.00546 5.704
2.41386 1.9848 5.70401
2.40354 1.99512 5.72937
2.40354 1.99512 5.72937
2.41386 1.9848 5.70401
2.4242 1.97446 5.72938
2.79618 1.60248 5.985
2.81699 1.58167 5.98498
2.80657 1.59209 6.01075
3.10224 1.29642 5.45156
3.11025 1.28841 5.42639
3.11025 1.28841 5.4767
3.11025 1.28841 5.52709
3.10229 1.29637 5.5019
3.11025 1.28841 5.4767
3.02715 1.37151 5.6281
3.006 1.39266 5.62811
3.01659 1.38207 5.60285
3.09026 1.3084 5.62805
3.10229 1.29637 5.65333
3.08044 1.31822 5.65334
3.11025 1.28841 5.62804
3.10229 1.29637 5.65333
3.09026 1.3084 5.62805
3.08044 1.31822 5.65334
3.09026 1.3084 5.67863
3.0694 1.32926 5.67865
3.10228 1.29638 5.70395
3.09026 1.3084 5.67863
3.11025 1.28841 5.67862
3.11025 1.28841 5.67862
3.11025 1.28841 5.72929
3.10228 1.29638 5.70395
3.10228 1.29638 5.70395
3.11025 1.28841 5.72929
3.09025 1.30841 5.72931
3.08027 1.31839 5.40137
3.0901 1.30856 5.37632
3.10214 1.29652 5.40134
3.10224 1.29642 5.45156
3.11025 1.28841 5.4767
3.09024 1.30842 5.47674
3.09024 1.30842 5.47674
3.11025 1.28841 5.4767
3.10229 1.29637 5.5019
3.0165 1.38216 5.45161
3.00588 1.39278 5.42643
3.02702 1.37164 5.42643
3.04817 1.35049 5.42645
3.03759 1.36107 5.40126
3.05884 1.33982 5.40131
3.04817 1.35049 5.42645
3.02702 1.37164 5.42643
3.03759 1.36107 5.40126
3.08043 1.31823 5.50193
3.10229 1.29637 5.5019
3.09026 1.3084 5.52711
3.08043 1.31823 5.50193
3.09024 1.30842 5.47674
3.10229 1.29637 5.5019
3.08042 1.31824 5.80555
3.09025 1.30841 5.7801
3.10226 1.2964 5.80553
3.10226 1.2964 5.80553
3.09024 1.30842 5.83103
3.08042 1.31824 5.80555
3.06938 1.32928 5.78012
3.09025 1.30841 5.7801
3.08042 1.31824 5.80555
3.08041 1.31825 5.95905
3.05901 1.33965 5.95906
3.06938 1.32928 5.93337
3.05901 1.33966 5.90774
3.08041 1.31825 5.90772
3.06938 1.32928 5.93337
3.10225 1.29641 5.85653
3.09024 1.30842 5.83103
3.11025 1.28841 5.831
3.08041 1.31825 5.85656
3.09024 1.30842 5.83103
3.10225 1.29641 5.85653
2.84822 1.55044 6.06232
2.85863 1.54003 6.08816
2.83776 1.5609 6.0882
2.96373 1.43493 5.93343
2.97428 1.42438 5.90779
2.98483 1.41383 5.93341
2.98483 1.41383 5.93341
2.97428 1.42438 5.90779
2.9954 1.40326 5.90778
3.06938 1.32929 5.88213
3.05901 1.33965 5.85658
3.08041 1.31825 5.85656
3.06938 1.32929 5.88213
3.08041 1.31825 5.90772
3.05901 1.33966 5.90774
2.95319 1.44547 5.90781
2.97428 1.42438 5.90779
2.96373 1.43493 5.93343
2.90067 1.49799 5.67874
2.87971 1.51895 5.67874
2.89018 1.50848 5.65344
2.84833 1.55033 5.65344
2.83789 1.56077 5.67875
2.82746 1.5712 5.65344
2.85878 1.53988 5.67875
2.83789 1.56077 5.67875
2.84833 1.55033 5.65344
2.83788 1.56078 5.57765
2.85877 1.53989 5.57765
2.84833 1.55034 5.60289
2.84833 1.55034 5.60289
2.82745 1.57121 5.60289
2.83788 1.56078 5.57765
2.83788 1.56078 5.57765
2.82745 1.57121 5.60289
2.81702 1.58164 5.57764
2.84833 1.55034 5.60289
2.85877 1.53989 5.57765
2.86924 1.52943 5.6029
2.87968 1.51898 5.52723
2.89017 1.50849 5.55244
2.86922 1.52944 5.55243
2.86922 1.52944 5.55243
2.85875 1.53991 5.52723
2.87968 1.51898 5.52723
2.72357 1.6751 5.70409
2.73392 1.66474 5.67875
2.74429 1.65437 5.70409
2.73392 1.66474 5.67875
2.75466 1.644 5.67875
2.74429 1.65437 5.70409
2.83789 1.56077 5.62816
2.82745 1.57121 5.60289
2.84833 1.55034 5.60289
2.83789 1.56077 5.62816
2.84833 1.55033 5.65344
2.82746 1.5712 5.65344
2.82746 1.5712 5.65344
2.80662 1.59204 5.65344
2.81703 1.58163 5.62815
2.81703 1.58163 5.62815
2.83789 1.56077 5.62816
2.82746 1.5712 5.65344
2.82745 1.57121 5.60289
2.83789 1.56077 5.62816
2.81703 1.58163 5.62815
2.81702 1.58164 5.57764
2.7962 1.60246 5.57764
2.8066 1.59206 5.55241
2.79618 1.60248 5.52719
2.81701 1.58166 5.52721
2.8066 1.59206 5.55241
2.42419 1.97447 5.67868
2.41386 1.9848 5.70401
2.40353 1.99513 5.67867
2.40353 1.99513 5.67867
2.41385 1.98481 5.65336
2.42419 1.97447 5.67868
2.20539 2.19327 5.29987
2.19928 2.19938 5.32509
2.19928 2.19938 5.27442
2.19928 2.19938 5.225
2.20626 2.1924 5.2497
2.19928 2.19938 5.27442
2.21797 2.1807 5.3757
2.19928 2.19938 5.37567
2.20528 2.19338 5.35042
2.19928 2.19938 5.37567
2.19928 2.19938 5.32509
2.20528 2.19338 5.35042
3.11025 1.28841 5.225
3.10314 1.29552 5.25075
3.0911 1.30756 5.225
2.19928 2.19938 5.47657
2.19928 2.19938 5.42614
2.20536 2.19331 5.45136
2.20536 2.19331 5.45136
2.21801 2.18065 5.47656
2.19928 2.19938 5.47657
2.21799 2.18067 5.42613
2.20536 2.19331 5.45136
2.19928 2.19938 5.42614
2.21799 2.18067 5.42613
2.22698 2.17168 5.40094
2.23811 2.16055 5.42616
2.22702 2.17165 5.45135
2.24806 2.1506 5.45137
2.23814 2.16052 5.47657
2.23814 2.16052 5.47657
2.21801 2.18065 5.47656
2.22702 2.17165 5.45135
2.23811 2.16055 5.42616
2.24806 2.1506 5.45137
2.22702 2.17165 5.45135
2.22702 2.17165 5.45135
2.21799 2.18067 5.42613
2.23811 2.16055 5.42616
2.21801 2.18065 5.47656
2.20536 2.19331 5.45136
2.22702 2.17165 5.45135
2.20536 2.19331 5.45136
2.21799 2.18067 5.42613
2.22702 2.17165 5.45135
2.20532 2.19334 5.40091
2.19928 2.19938 5.42614
2.19928 2.19938 5.37567
2.20532 2.19334 5.40091
2.19928 2.19938 5.37567
2.21797 2.1807 5.3757
2.21797 2.1807 5.3757
2.22698 2.17168 5.40094
2.20532 2.19334 5.40091
2.20532 2.19334 5.40091
2.21799 2.18067 5.42613
2.19928 2.19938 5.42614
2.22698 2.17168 5.40094
2.21799 2.18067 5.42613
2.20532 2.19334 5.40091
2.24814 2.15052 5.65329
2.2382 2.16046 5.6786
2.2271 2.17156 5.65329
2.2382 2.16046 5.6786
2.21805 2.18061 5.6786
2.2271 2.17156 5.65329
2.2271 2.17156 5.65329
2.23819 2.16048 5.628
2.24814 2.15052 5.65329
2.24809 2.15058 5.50179
2.23814 2.16052 5.47657
2.25868 2.13998 5.47659
2.22704 2.17162 5.50178
2.23814 2.16052 5.47657
2.24809 2.15058 5.50179
2.26891 2.12975 5.5018
2.24809 2.15058 5.50179
2.25868 2.13998 5.47659
2.2587 2.13996 5.52701
2.24809 2.15058 5.50179
2.26891 2.12975 5.5018
2.2587 2.13996 5.52701
2.26891 2.12975 5.5018
2.27936 2.1193 5.52702
2.41384 1.98482 5.6028
2.42418 1.97448 5.62807
2.40352 1.99515 5.62807
2.40352 1.99515 5.62807
2.42418 1.97448 5.62807
2.41385 1.98481 5.65336
2.33114 2.06753 5.65332
2.35183 2.04683 5.65333
2.34149 2.05717 5.67863
2.34148 2.05718 5.62804
2.35183 2.04683 5.65333
2.33114 2.06753 5.65332
2.35182 2.04684 5.60277
2.34147 2.05719 5.57752
2.36216 2.03651 5.57753
2.34148 2.05718 5.62804
2.33112 2.06754 5.60276
2.35182 2.04684 5.60277
2.35182 2.04684 5.60277
2.33112 2.06754 5.60276
2.34147 2.05719 5.57752
2.35184 2.04682 5.70398
2.37253 2.02613 5.70399
2.3622 2.03646 5.72934
2.31047 2.08819 5.7547
2.32082 2.07785 5.72932
2.33117 2.06749 5.75471
2.3208 2.07786 5.67862
2.33114 2.06753 5.65332
2.34149 2.05717 5.67863
2.31043 2.08823 5.65331
2.33114 2.06753 5.65332
2.3208 2.07786 5.67862
2.23821 2.16045 5.72929
2.24816 2.15051 5.70393
2.25876 2.1399 5.72929
2.24814 2.15052 5.65329
2.23819 2.16048 5.628
2.25873 2.13993 5.628
2.25873 2.13993 5.628
2.26896 2.1297 5.65329
2.24814 2.15052 5.65329
2.30008 2.09858 5.62801
2.31043 2.08823 5.65331
2.28971 2.10895 5.6533
2.25874 2.13992 5.6786
2.24816 2.15051 5.70393
2.2382 2.16046 5.6786
2.25874 2.13992 5.6786
[...]
<PointData Scalars="View Factor" >
<DataArray type="Float64" Name="View Factor" NumberOfComponents="1" format="ascii">
0.000188519
0.000188519
0.000188519
0.000225031
0.000225031
0.000225031
0.000222469
0.000222469
0.000222469
2.99384e-05
2.99384e-05
2.99384e-05
1.574e-05
1.574e-05
1.574e-05
0.000221233
0.000221233
0.000221233
2.07193e-05
2.07193e-05
2.07193e-05
0.000203907
0.000203907
0.000203907
0.000197606
0.000197606
0.000197606
0.000205016
0.000205016
0.000205016
0.000207343
0.000207343
0.000207343
0.00020723
0.00020723
0.00020723
0.000217476
0.000217476
0.000217476
0.000218671
0.000218671
0.000218671
0.000214742
0.000214742
0.000214742
0.000217112
0.000217112
0.000217112
0.000214184
0.000214184
0.000214184
0.000211606
0.000211606
0.000211606
0.000214079
0.000214079
0.000214079
0.000218824
0.000218824
0.000218824
0.000221333
0.000221333
0.000221333
0.000195398
0.000195398
0.000195398
0.000224943
0.000224943
0.000224943
4.39258e-06
4.39258e-06
4.39258e-06
1.37229e-05
1.37229e-05
1.37229e-05
6.46175e-05
6.46175e-05
6.46175e-05
6.96102e-05
6.96102e-05
6.96102e-05
2.34739e-05
2.34739e-05
2.34739e-05
3.04313e-05
3.04313e-05
3.04313e-05
3.91615e-05
3.91615e-05
3.91615e-05
8.41687e-05
8.41687e-05
8.41687e-05
4.57443e-05
4.57443e-05
4.57443e-05
5.70394e-05
5.70394e-05
5.70394e-05
8.11054e-05
8.11054e-05
8.11054e-05
4.03467e-05
4.03467e-05
4.03467e-05
5.3414e-05
5.3414e-05
5.3414e-05
2.5208e-05
2.5208e-05
2.5208e-05
3.09105e-05
3.09105e-05
3.09105e-05
8.16175e-05
8.16175e-05
8.16175e-05
8.00135e-05
8.00135e-05
8.00135e-05
2.98171e-05
2.98171e-05
2.98171e-05
3.25771e-05
3.25771e-05
3.25771e-05
3.39569e-05
3.39569e-05
3.39569e-05
4.35301e-06
4.35301e-06
4.35301e-06
0.000200783
0.000200783
0.000200783
0.000204029
0.000204029
0.000204029
0.000193658
0.000193658
0.000193658
0.000210464
0.000210464
0.000210464
0.000211769
0.000211769
0.000211769
0.00021009
0.00021009
0.00021009
0.000215256
0.000215256
0.000215256
0.000217718
0.000217718
0.000217718
0.00021762
0.00021762
0.00021762
0.000194164
0.000194164
0.000194164
0.000200663
0.000200663
0.000200663
0.000201747
0.000201747
0.000201747
0.000182367
0.000182367
0.000182367
0.000187604
0.000187604
0.000187604
0.000185945
0.000185945
0.000185945
0.000201566
0.000201566
0.000201566
0.000200488
0.000200488
0.000200488
0.000221105
0.000221105
0.000221105
0.000222333
0.000222333
0.000222333
0.000218319
0.000218319
0.000218319
0.000228054
0.000228054
0.000228054
0.000225491
0.000225491
0.000225491
0.000226209
0.000226209
0.000226209
0.000224822
0.000224822
0.000224822
0.000120595
0.000120595
0.000120595
0.0002033
0.0002033
0.0002033
0.000205456
0.000205456
0.000205456
0.000221731
0.000221731
0.000221731
0.000224222
0.000224222
0.000224222
0.000199359
0.000199359
0.000199359
0.000157823
0.000157823
0.000157823
9.93611e-05
9.93611e-05
9.93611e-05
0.000110179
0.000110179
0.000110179
0.000117852
0.000117852
0.000117852
8.90828e-05
8.90828e-05
8.90828e-05
2.6436e-05
2.6436e-05
2.6436e-05
0.000123301
0.000123301
0.000123301
0.000144054
0.000144054
0.000144054
0.000134155
0.000134155
0.000134155
3.89188e-05
3.89188e-05
3.89188e-05
3.79246e-05
3.79246e-05
3.79246e-05
9.15905e-05
9.15905e-05
9.15905e-05
9.70496e-05
9.70496e-05
9.70496e-05
3.39357e-05
3.39357e-05
3.39357e-05
3.2975e-05
3.2975e-05
3.2975e-05
3.06945e-05
3.06945e-05
3.06945e-05
2.39582e-05
2.39582e-05
2.39582e-05
2.07971e-05
2.07971e-05
2.07971e-05
2.86613e-05
2.86613e-05
2.86613e-05
2.64195e-05
2.64195e-05
2.64195e-05
1.38773e-05
1.38773e-05
1.38773e-05
1.3094e-05
1.3094e-05
1.3094e-05
1.81838e-05
1.81838e-05
1.81838e-05
1.51532e-05
1.51532e-05
1.51532e-05
0.000186459
0.000186459
0.000186459
1.84091e-05
1.84091e-05
1.84091e-05
2.26627e-05
2.26627e-05
2.26627e-05
2.11346e-05
2.11346e-05
2.11346e-05
6.71373e-05
6.71373e-05
6.71373e-05
6.66508e-05
6.66508e-05
6.66508e-05
6.89807e-05
6.89807e-05
6.89807e-05
6.60256e-05
6.60256e-05
6.60256e-05
6.77317e-05
6.77317e-05
6.77317e-05
2.95444e-05
2.95444e-05
2.95444e-05
2.91386e-05
2.91386e-05
2.91386e-05
1.6589e-05
1.6589e-05
1.6589e-05
1.8895e-05
1.8895e-05
1.8895e-05
2.7534e-05
2.7534e-05
2.7534e-05
2.03854e-05
2.03854e-05
2.03854e-05
2.78787e-05
2.78787e-05
2.78787e-05
7.7273e-05
7.7273e-05
7.7273e-05
7.97379e-05
7.97379e-05
7.97379e-05
7.60656e-05
7.60656e-05
7.60656e-05
6.52472e-05
6.52472e-05
6.52472e-05
6.79828e-05
6.79828e-05
6.79828e-05
6.32855e-05
6.32855e-05
6.32855e-05
6.3969e-05
6.3969e-05
6.3969e-05
6.15e-05
6.15e-05
6.15e-05
2.09401e-05
2.09401e-05
2.09401e-05
2.25469e-05
2.25469e-05
2.25469e-05
2.5303e-05
2.5303e-05
2.5303e-05
2.34103e-05
2.34103e-05
2.34103e-05
1.80447e-05
1.80447e-05
1.80447e-05
2.00646e-05
2.00646e-05
2.00646e-05
1.86775e-05
1.86775e-05
1.86775e-05
3.25178e-05
3.25178e-05
3.25178e-05
3.86547e-05
3.86547e-05
3.86547e-05
2.63504e-05
2.63504e-05
2.63504e-05
2.52916e-05
2.52916e-05
2.52916e-05
8.02576e-05
8.02576e-05
8.02576e-05
7.31233e-05
7.31233e-05
7.31233e-05
7.14087e-05
7.14087e-05
7.14087e-05
2.33773e-05
2.33773e-05
2.33773e-05
7.70627e-05
7.70627e-05
7.70627e-05
7.56416e-05
7.56416e-05
7.56416e-05
7.2656e-05
7.2656e-05
7.2656e-05
5.15058e-05
5.15058e-05
5.15058e-05
1.20908e-05
1.20908e-05
1.20908e-05
2.09594e-05
2.09594e-05
2.09594e-05
2.86328e-05
2.86328e-05
2.86328e-05
2.97895e-05
2.97895e-05
2.97895e-05
3.70327e-05
3.70327e-05
3.70327e-05
3.39398e-05
3.39398e-05
3.39398e-05
3.39079e-05
3.39079e-05
3.39079e-05
3.25461e-05
3.25461e-05
3.25461e-05
3.70855e-05
3.70855e-05
3.70855e-05
3.87429e-05
3.87429e-05
3.87429e-05
4.44916e-05
4.44916e-05
4.44916e-05
4.25675e-05
4.25675e-05
4.25675e-05
4.24882e-05
4.24882e-05
4.24882e-05
3.87078e-05
3.87078e-05
3.87078e-05
5.07838e-05
5.07838e-05
5.07838e-05
4.77402e-05
4.77402e-05
4.77402e-05
4.58022e-05
4.58022e-05
4.58022e-05
3.84005e-05
3.84005e-05
3.84005e-05
4.11252e-05
4.11252e-05
4.11252e-05
4.26056e-05
4.26056e-05
4.26056e-05
3.71261e-05
3.71261e-05
3.71261e-05
3.87881e-05
3.87881e-05
3.87881e-05
3.93023e-06
3.93023e-06
3.93023e-06
3.97109e-06
3.97109e-06
3.97109e-06
4.28718e-06
4.28718e-06
4.28718e-06
4.24748e-06
4.24748e-06
4.24748e-06
4.33098e-06
4.33098e-06
4.33098e-06
6.09198e-06
6.09198e-06
6.09198e-06
2.83189e-05
2.83189e-05
2.83189e-05
4.68478e-06
4.68478e-06
4.68478e-06
6.5575e-06
6.5575e-06
6.5575e-06
6.22413e-06
6.22413e-06
6.22413e-06
6.74754e-06
6.74754e-06
6.74754e-06
6.88698e-06
6.88698e-06
6.88698e-06
5.96445e-06
5.96445e-06
5.96445e-06
5.90089e-06
5.90089e-06
5.90089e-06
6.14227e-06
6.14227e-06
6.14227e-06
6.41002e-06
6.41002e-06
6.41002e-06
6.32026e-06
6.32026e-06
6.32026e-06
6.07404e-06
6.07404e-06
6.07404e-06
5.80408e-06
5.80408e-06
5.80408e-06
7.09273e-06
7.09273e-06
7.09273e-06
6.5956e-06
6.5956e-06
6.5956e-06
6.75062e-06
6.75062e-06
6.75062e-06
6.94635e-06
6.94635e-06
6.94635e-06
7.29897e-06
7.29897e-06
7.29897e-06
8.12208e-06
8.12208e-06
8.12208e-06
0.00023009
0.00023009
0.00023009
0.000186635
0.000186635
0.000186635
0.000186688
0.000186688
0.000186688
0.000194366
0.000194366
0.000194366
0.000190694
0.000190694
0.000190694
0.000210618
0.000210618
0.000210618
0.000214465
0.000214465
0.000214465
0.000213298
0.000213298
0.000213298
0.000209028
0.000209028
0.000209028
0.000149854
0.000149854
0.000149854
0.000150667
0.000150667
0.000150667
0.000154377
0.000154377
0.000154377
0.000191907
0.000191907
0.000191907
0.000188872
0.000188872
0.000188872
0.000210617
0.000210617
0.000210617
0.000208188
0.000208188
0.000208188
0.000210727
0.000210727
0.000210727
0.000208357
0.000208357
0.000208357
0.00020707
0.00020707
0.00020707
0.000206747
0.000206747
0.000206747
0.000209461
0.000209461
0.000209461
0.000213563
0.000213563
0.000213563
0.000211244
0.000211244
0.000211244
0.00021096
0.00021096
0.00021096
0.000209815
0.000209815
0.000209815
0.000215105
0.000215105
0.000215105
0.000213932
0.000213932
0.000213932
0.000198538
0.000198538
0.000198538
0.000197476
0.000197476
0.000197476
0.000195204
0.000195204
0.000195204
0.000194368
0.000194368
0.000194368
0.000181376
0.000181376
0.000181376
0.000183181
0.000183181
0.000183181
0.00019798
0.00019798
0.00019798
0.000193145
0.000193145
0.000193145
0.000196635
0.000196635
0.000196635
0.000194178
0.000194178
0.000194178
0.00022075
0.00022075
0.00022075
0.000221986
0.000221986
0.000221986
0.000220502
0.000220502
0.000220502
0.00022935
0.00022935
0.00022935
0.000222477
0.000222477
0.000222477
0.000196987
0.000196987
0.000196987
4.62408e-06
4.62408e-06
4.62408e-06
4.99207e-06
4.99207e-06
4.99207e-06
4.46207e-06
4.46207e-06
4.46207e-06
0.00020445
0.00020445
0.00020445
0.000206784
0.000206784
0.000206784
0.000219555
0.000219555
0.000219555
0.000218327
0.000218327
0.000218327
0.000176253
0.000176253
0.000176253
0.000186872
0.000186872
0.000186872
0.00018074
0.00018074
0.00018074
0.000183279
0.000183279
0.000183279
0.000188401
0.000188401
0.000188401
0.000184739
0.000184739
0.000184739
0.000182149
0.000182149
0.000182149
0.000224478
0.000224478
0.000224478
0.000225729
0.000225729
0.000225729
0.000226076
0.000226076
0.000226076
0.00022517
0.00022517
0.00022517
0.000223439
0.000223439
0.000223439
0.000223898
0.000223898
0.000223898
0.000220935
0.000220935
0.000220935
0.000220216
0.000220216
0.000220216
0.000218999
0.000218999
0.000218999
0.000175396
0.000175396
0.000175396
0.000176718
0.000176718
0.000176718
0.000177599
0.000177599
0.000177599
0.000156018
0.000156018
0.000156018
3.87223e-05
3.87223e-05
3.87223e-05
3.67453e-05
3.67453e-05
3.67453e-05
0.000108964
0.000108964
0.000108964
5.06026e-05
5.06026e-05
5.06026e-05
5.36974e-05
5.36974e-05
5.36974e-05
4.21432e-05
4.21432e-05
4.21432e-05
4.1023e-05
4.1023e-05
4.1023e-05
3.77688e-05
3.77688e-05
3.77688e-05
3.58313e-05
3.58313e-05
3.58313e-05
3.99883e-05
3.99883e-05
3.99883e-05
3.68178e-05
3.68178e-05
3.68178e-05
4.60824e-05
4.60824e-05
4.60824e-05
4.87376e-05
4.87376e-05
4.87376e-05
5.33054e-05
5.33054e-05
5.33054e-05
5.51137e-05
5.51137e-05
5.51137e-05
5.19509e-05
5.19509e-05
5.19509e-05
4.75036e-05
4.75036e-05
4.75036e-05
0.000125784
0.000125784
0.000125784
0.000140559
0.000140559
0.000140559
0.000150053
0.000150053
0.000150053
0.0001492
0.0001492
0.0001492
5.90292e-05
5.90292e-05
5.90292e-05
6.04868e-05
6.04868e-05
6.04868e-05
6.29076e-05
6.29076e-05
6.29076e-05
2.4557e-05
2.4557e-05
2.4557e-05
2.13152e-05
2.13152e-05
2.13152e-05
2.33795e-05
2.33795e-05
2.33795e-05
2.18828e-05
2.18828e-05
2.18828e-05
0.000117864
0.000117864
0.000117864
8.28827e-05
8.28827e-05
8.28827e-05
8.47361e-05
8.47361e-05
8.47361e-05
0.000118409
0.000118409
0.000118409
0.000123212
0.000123212
0.000123212
0.00012344
0.00012344
0.00012344
0.000147423
0.000147423
0.000147423
0.000155062
0.000155062
0.000155062
2.76739e-05
2.76739e-05
2.76739e-05
2.55953e-05
2.55953e-05
2.55953e-05
4.38651e-05
4.38651e-05
4.38651e-05
4.12303e-05
4.12303e-05
4.12303e-05
2.85754e-05
2.85754e-05
2.85754e-05
2.92307e-05
2.92307e-05
2.92307e-05
5.12427e-05
5.12427e-05
5.12427e-05
4.81178e-05
4.81178e-05
4.81178e-05
4.96343e-05
4.96343e-05
4.96343e-05
5.4838e-05
5.4838e-05
5.4838e-05
5.5128e-05
5.5128e-05
5.5128e-05
5.31126e-05
5.31126e-05
5.31126e-05
3.49209e-05
3.49209e-05
3.49209e-05
2.97493e-05
2.97493e-05
2.97493e-05
3.05737e-05
3.05737e-05
3.05737e-05
3.31008e-05
3.31008e-05
3.31008e-05
4.50427e-05
4.50427e-05
4.50427e-05
4.25511e-05
4.25511e-05
4.25511e-05
2.89449e-05
2.89449e-05
2.89449e-05
3.68948e-05
3.68948e-05
3.68948e-05
3.3935e-05
3.3935e-05
3.3935e-05
2.76947e-05
2.76947e-05
2.76947e-05
2.02796e-05
2.02796e-05
2.02796e-05
2.13451e-05
2.13451e-05
2.13451e-05
2.27752e-05
2.27752e-05
2.27752e-05
3.21675e-05
3.21675e-05
3.21675e-05
3.30937e-05
3.30937e-05
3.30937e-05
2.91923e-05
2.91923e-05
2.91923e-05
3.13603e-05
3.13603e-05
3.13603e-05
1.46734e-05
1.46734e-05
1.46734e-05
1.68524e-05
1.68524e-05
1.68524e-05
1.80734e-05
1.80734e-05
1.80734e-05
1.86871e-05
1.86871e-05
1.86871e-05
1.4662e-05
1.4662e-05
1.4662e-05
1.62359e-05
1.62359e-05
1.62359e-05
1.52001e-05
1.52001e-05
1.52001e-05
6.00349e-05
6.00349e-05
6.00349e-05
6.19977e-05
6.19977e-05
6.19977e-05
5.93932e-05
5.93932e-05
5.93932e-05
1.8729e-05
1.8729e-05
1.8729e-05
2.01494e-05
2.01494e-05
2.01494e-05
2.67743e-05
2.67743e-05
2.67743e-05
2.82942e-05
2.82942e-05
2.82942e-05
3.07549e-05
3.07549e-05
3.07549e-05
3.14603e-05
3.14603e-05
3.14603e-05
3.65013e-05
3.65013e-05
3.65013e-05
3.43842e-05
3.43842e-05
3.43842e-05
0.000172458
0.000172458
0.000172458
0.000185352
0.000185352
0.000185352
0.000183103
0.000183103
0.000183103
0.000161897
0.000161897
0.000161897
0.000173746
0.000173746
0.000173746
0.000172843
0.000172843
0.000172843
0.000167187
0.000167187
0.000167187
0.00016548
0.00016548
0.00016548
4.86222e-05
4.86222e-05
4.86222e-05
4.88714e-05
4.88714e-05
4.88714e-05
3.237e-05
3.237e-05
3.237e-05
3.81346e-05
3.81346e-05
3.81346e-05
4.68927e-05
4.68927e-05
4.68927e-05
2.74033e-05
2.74033e-05
2.74033e-05
2.96515e-05
2.96515e-05
2.96515e-05
7.43204e-05
7.43204e-05
7.43204e-05
3.65249e-05
3.65249e-05
3.65249e-05
2.61446e-05
2.61446e-05
2.61446e-05
2.36257e-05
2.36257e-05
2.36257e-05
2.84164e-05
2.84164e-05
2.84164e-05
3.24023e-05
3.24023e-05
3.24023e-05
3.34696e-05
3.34696e-05
3.34696e-05
7.34269e-05
7.34269e-05
7.34269e-05
7.10209e-05
7.10209e-05
7.10209e-05
6.5479e-05
6.5479e-05
6.5479e-05
6.22383e-05
6.22383e-05
6.22383e-05
7.10298e-05
7.10298e-05
7.10298e-05
6.86859e-05
6.86859e-05
6.86859e-05
7.17577e-05
7.17577e-05
7.17577e-05
7.02115e-05
7.02115e-05
7.02115e-05
6.66913e-05
6.66913e-05
6.66913e-05
6.7425e-05
6.7425e-05
6.7425e-05
7.28484e-05
7.28484e-05
7.28484e-05
7.38431e-05
7.38431e-05
7.38431e-05
7.20361e-05
7.20361e-05
7.20361e-05
6.91279e-05
6.91279e-05
6.91279e-05
2.09189e-05
2.09189e-05
2.09189e-05
2.00931e-05
2.00931e-05
2.00931e-05
1.86985e-05
1.86985e-05
1.86985e-05
2.01113e-05
2.01113e-05
2.01113e-05
2.53672e-05
2.53672e-05
2.53672e-05
2.34726e-05
2.34726e-05
2.34726e-05
2.63948e-05
2.63948e-05
2.63948e-05
2.25298e-05
2.25298e-05
2.25298e-05
2.34525e-05
2.34525e-05
2.34525e-05
2.5346e-05
2.5346e-05
2.5346e-05
2.33966e-05
2.33966e-05
2.33966e-05
2.00552e-05
2.00552e-05
2.00552e-05
2.24867e-05
2.24867e-05
2.24867e-05
2.08667e-05
2.08667e-05
2.08667e-05
2.248e-05
2.248e-05
2.248e-05
2.0857e-05
2.0857e-05
2.0857e-05
2.97476e-05
2.97476e-05
2.97476e-05
2.85497e-05
2.85497e-05
2.85497e-05
3.38806e-05
3.38806e-05
3.38806e-05
3.69758e-05
3.69758e-05
3.69758e-05
3.38582e-05
3.38582e-05
3.38582e-05
3.24953e-05
3.24953e-05
3.24953e-05
3.86779e-05
3.86779e-05
3.86779e-05
3.70014e-05
3.70014e-05
3.70014e-05
4.96509e-05
4.96509e-05
4.96509e-05
4.8019e-05
4.8019e-05
4.8019e-05
4.43879e-05
4.43879e-05
4.43879e-05
4.24304e-05
4.24304e-05
4.24304e-05
4.4352e-05
4.4352e-05
4.4352e-05
4.97031e-05
4.97031e-05
4.97031e-05
4.80167e-05
4.80167e-05
4.80167e-05
3.69564e-05
3.69564e-05
3.69564e-05
6.69832e-05
6.69832e-05
6.69832e-05
5.22002e-05
5.22002e-05
5.22002e-05
6.81124e-05
6.81124e-05
6.81124e-05
6.40093e-05
6.40093e-05
6.40093e-05
7.71282e-05
7.71282e-05
7.71282e-05
7.54676e-05
7.54676e-05
7.54676e-05
6.82334e-05
6.82334e-05
6.82334e-05
7.21854e-05
7.21854e-05
7.21854e-05
6.52836e-05
6.52836e-05
6.52836e-05
7.07142e-05
7.07142e-05
7.07142e-05
5.16782e-05
5.16782e-05
5.16782e-05
6.79419e-05
6.79419e-05
6.79419e-05
5.17596e-05
5.17596e-05
5.17596e-05
8.04862e-05
8.04862e-05
8.04862e-05
8.48917e-05
8.48917e-05
8.48917e-05
6.65533e-05
6.65533e-05
6.65533e-05
5.11409e-05
5.11409e-05
5.11409e-05
5.15608e-05
5.15608e-05
5.15608e-05
4.98629e-05
4.98629e-05
4.98629e-05
4.79262e-05
4.79262e-05
4.79262e-05
4.95263e-05
4.95263e-05
4.95263e-05
1.52474e-05
1.52474e-05
1.52474e-05
8.49272e-05
8.49272e-05
8.49272e-05
7.35623e-05
7.35623e-05
7.35623e-05
1.12594e-05
1.12594e-05
1.12594e-05
1.55624e-05
1.55624e-05
1.55624e-05
3.12615e-05
3.12615e-05
3.12615e-05
1.61474e-05
1.61474e-05
1.61474e-05
1.16116e-05
1.16116e-05
1.16116e-05
1.59921e-05
1.59921e-05
1.59921e-05
3.19685e-05
3.19685e-05
3.19685e-05
1.56889e-05
1.56889e-05
1.56889e-05
3.17301e-05
3.17301e-05
3.17301e-05
7.78281e-05
7.78281e-05
7.78281e-05
7.8316e-05
7.8316e-05
7.8316e-05
2.9766e-05
2.9766e-05
2.9766e-05
2.85993e-05
2.85993e-05
2.85993e-05
2.63726e-05
2.63726e-05
2.63726e-05
2.53289e-05
2.53289e-05
2.53289e-05
2.63632e-05
2.63632e-05
2.63632e-05
2.8567e-05
2.8567e-05
2.8567e-05
4.44435e-05
4.44435e-05
4.44435e-05
4.44199e-05
4.44199e-05
4.44199e-05
4.25222e-05
4.25222e-05
4.25222e-05
4.80258e-05
4.80258e-05
4.80258e-05
5.0225e-05
5.0225e-05
5.0225e-05
4.83391e-05
4.83391e-05
4.83391e-05
4.94805e-05
4.94805e-05
4.94805e-05
4.94057e-05
4.94057e-05
4.94057e-05
4.80097e-05
4.80097e-05
4.80097e-05
5.05037e-05
5.05037e-05
5.05037e-05
5.06249e-05
5.06249e-05
5.06249e-05
5.06764e-05
5.06764e-05
5.06764e-05
4.45466e-05
4.45466e-05
4.45466e-05
4.80469e-05
4.80469e-05
4.80469e-05
4.81078e-05
4.81078e-05
4.81078e-05
4.94146e-05
4.94146e-05
4.94146e-05
3.88384e-05
3.88384e-05
3.88384e-05
4.2663e-05
4.2663e-05
4.2663e-05
4.27292e-05
4.27292e-05
4.27292e-05
4.46422e-05
4.46422e-05
4.46422e-05
4.15811e-06
4.15811e-06
4.15811e-06
4.31661e-06
4.31661e-06
4.31661e-06
4.26971e-06
4.26971e-06
4.26971e-06
4.18009e-06
4.18009e-06
4.18009e-06
4.03634e-06
4.03634e-06
4.03634e-06
4.44881e-06
4.44881e-06
4.44881e-06
4.29115e-06
4.29115e-06
4.29115e-06
4.07697e-06
4.07697e-06
4.07697e-06
4.18194e-06
4.18194e-06
4.18194e-06
4.14201e-06
4.14201e-06
4.14201e-06
3.63175e-05
3.63175e-05
3.63175e-05
2.33026e-05
2.33026e-05
2.33026e-05
1.52198e-05
1.52198e-05
1.52198e-05
2.26592e-05
2.26592e-05
2.26592e-05
2.75459e-05
2.75459e-05
2.75459e-05
1.47424e-05
1.47424e-05
1.47424e-05
1.13836e-05
1.13836e-05
1.13836e-05
4.08807e-05
4.08807e-05
4.08807e-05
3.73375e-05
3.73375e-05
3.73375e-05
4.85212e-05
4.85212e-05
4.85212e-05
5.26062e-05
5.26062e-05
5.26062e-05
1.17e-05
1.17e-05
1.17e-05
6.42471e-06
6.42471e-06
6.42471e-06
4.56647e-06
4.56647e-06
4.56647e-06
6.25781e-06
6.25781e-06
6.25781e-06
2.39476e-05
2.39476e-05
2.39476e-05
1.56399e-05
1.56399e-05
1.56399e-05
1.20748e-05
1.20748e-05
1.20748e-05
4.87213e-06
4.87213e-06
4.87213e-06
6.59128e-06
6.59128e-06
6.59128e-06
6.75783e-06
6.75783e-06
6.75783e-06
1.27155e-05
1.27155e-05
1.27155e-05
6.22141e-05
6.22141e-05
6.22141e-05
6.31801e-05
6.31801e-05
6.31801e-05
5.11711e-05
5.11711e-05
5.11711e-05
6.12149e-05
6.12149e-05
6.12149e-05
6.53812e-05
6.53812e-05
6.53812e-05
5.95264e-05
5.95264e-05
5.95264e-05
5.74211e-05
5.74211e-05
5.74211e-05
6.49931e-05
6.49931e-05
6.49931e-05
6.35776e-05
6.35776e-05
6.35776e-05
1.88314e-05
1.88314e-05
1.88314e-05
2.215e-05
2.215e-05
2.215e-05
4.26061e-06
4.26061e-06
4.26061e-06
5.97834e-06
5.97834e-06
5.97834e-06
5.72721e-06
5.72721e-06
5.72721e-06
5.34189e-06
5.34189e-06
5.34189e-06
5.47256e-06
5.47256e-06
5.47256e-06
4.43289e-06
4.43289e-06
4.43289e-06
4.47356e-06
4.47356e-06
4.47356e-06
4.11513e-05
4.11513e-05
4.11513e-05
4.35015e-05
4.35015e-05
4.35015e-05
5.66601e-06
5.66601e-06
5.66601e-06
3.73983e-06
3.73983e-06
3.73983e-06
3.2715e-05
3.2715e-05
3.2715e-05
3.41921e-06
3.41921e-06
3.41921e-06
3.96361e-06
3.96361e-06
3.96361e-06
5.10261e-05
5.10261e-05
5.10261e-05
2.51932e-05
2.51932e-05
2.51932e-05
3.44369e-06
3.44369e-06
3.44369e-06
3.50713e-06
3.50713e-06
3.50713e-06
5.26312e-06
5.26312e-06
5.26312e-06
3.85961e-06
3.85961e-06
3.85961e-06
3.95782e-06
3.95782e-06
3.95782e-06
5.16148e-06
5.16148e-06
5.16148e-06
5.67035e-06
5.67035e-06
5.67035e-06
5.50598e-06
5.50598e-06
5.50598e-06
5.638e-06
5.638e-06
5.638e-06
3.85114e-06
3.85114e-06
3.85114e-06
3.62482e-06
3.62482e-06
3.62482e-06
3.71015e-06
3.71015e-06
3.71015e-06
4.0275e-06
4.0275e-06
4.0275e-06
4.08531e-06
4.08531e-06
4.08531e-06
3.90388e-06
3.90388e-06
3.90388e-06
3.89191e-06
3.89191e-06
3.89191e-06
3.86567e-06
3.86567e-06
3.86567e-06
4.06948e-06
4.06948e-06
4.06948e-06
8.32755e-06
8.32755e-06
8.32755e-06
7.93939e-06
7.93939e-06
7.93939e-06
6.94316e-06
6.94316e-06
6.94316e-06
7.50478e-06
7.50478e-06
7.50478e-06
7.14539e-06
7.14539e-06
7.14539e-06
7.91626e-06
7.91626e-06
7.91626e-06
7.74093e-06
7.74093e-06
7.74093e-06
7.52153e-06
7.52153e-06
7.52153e-06
7.15283e-06
7.15283e-06
7.15283e-06
0.000174691
0.000174691
0.000174691
0.000159172
0.000159172