<VTKFile type="UnstructuredGrid" version="1.0">
<UnstructuredGrid>
<Piece NumberOfPoints="10830" NumberOfCells="3610">
<Points>
<DataArray type="Float64" NumberOfComponents="3" format="ascii">
2.19217 2.20649 6.29575
2.19928 2.19938 6.27
2.19928 2.19938 6.32146
2.19928 2.19938 6.82508
2.19928 2.19938 6.876
2.19129 2.20737 6.85053
2.19928 2.19938 6.82508
2.19129 2.20737 6.85053
2.17928 2.21938 6.8251
1.30559 3.09307 7.29759
1.31816 3.0805 7.315
1.28831 3.11035 7.315
1.28831 3.11035 7.315
1.28831 3.11035 7.28484
1.30559 3.09307 7.29759
2.19928 2.19938 6.82508
2.17928 2.21938 6.8251
2.1913 2.20736 6.79968
1.29441 3.10425 6.54679
1.28831 3.11035 6.57201
1.28831 3.11035 6.52157
2.19132 2.20734 6.5469
2.19928 2.19938 6.57209
2.17929 2.21937 6.57211
2.19117 2.20749 6.44634
2.19928 2.19938 6.42128
2.19928 2.19938 6.47139
2.17929 2.21937 6.57211
2.19928 2.19938 6.57209
2.19133 2.20733 6.59731
2.19928 2.19938 6.57209
2.19928 2.19938 6.62254
2.19133 2.20733 6.59731
2.17929 2.21937 6.62255
2.19133 2.20733 6.59731
2.19928 2.19938 6.62254
2.17928 2.21938 6.77431
2.1913 2.20736 6.79968
2.16946 2.22921 6.7997
2.16946 2.22921 6.7997
2.1913 2.20736 6.79968
2.17928 2.21938 6.8251
2.16946 2.22921 6.7997
2.15842 2.24024 6.77432
2.17928 2.21938 6.77431
2.16946 2.22921 6.7997
2.17928 2.21938 6.8251
2.15841 2.24025 6.82512
2.19928 2.19938 6.67304
2.19928 2.19938 6.72362
2.19132 2.20734 6.69833
2.19132 2.20734 6.69833
2.17929 2.21937 6.72363
2.16947 2.22919 6.69834
2.19928 2.19938 6.72362
2.17929 2.21937 6.72363
2.19132 2.20734 6.69833
2.19928 2.19938 6.77429
2.1913 2.20736 6.79968
2.17928 2.21938 6.77431
2.19928 2.19938 6.82508
2.1913 2.20736 6.79968
2.19928 2.19938 6.77429
2.17913 2.21954 6.42132
2.19928 2.19938 6.42128
2.19117 2.20749 6.44634
2.17927 2.21939 6.87602
2.19129 2.20737 6.85053
2.19928 2.19938 6.876
1.8956 2.50306 7.05575
1.90602 2.49264 7.02998
1.91643 2.48223 7.05572
1.28831 3.11035 6.27
1.30792 3.09074 6.27
1.29529 3.10337 6.2947
1.34771 3.05096 6.52159
1.32717 3.07149 6.52157
1.33709 3.06157 6.49637
1.30704 3.09162 6.52156
1.32717 3.07149 6.52157
1.31607 3.08259 6.54678
1.30704 3.09162 6.52156
1.29441 3.10425 6.54679
1.28831 3.11035 6.52157
1.31607 3.08259 6.54678
1.29441 3.10425 6.54679
1.30704 3.09162 6.52156
1.2945 3.10417 6.74894
1.28831 3.11035 6.7743
1.28831 3.11035 6.72361
1.3071 3.09157 6.7743
1.31615 3.08252 6.74893
1.32724 3.07142 6.77429
1.28831 3.11035 6.7743
1.2945 3.10417 6.74894
1.3071 3.09157 6.7743
1.3071 3.09157 6.7743
1.2945 3.10417 6.74894
1.31615 3.08252 6.74893
1.30708 3.09158 6.7236
1.32723 3.07143 6.7236
1.31615 3.08252 6.74893
1.30708 3.09158 6.7236
1.2945 3.10417 6.74894
1.28831 3.11035 6.72361
1.31615 3.08252 6.74893
1.2945 3.10417 6.74894
1.30708 3.09158 6.7236
1.28831 3.11035 6.57201
1.29441 3.10425 6.54679
1.30705 3.09161 6.572
1.30705 3.09161 6.572
1.29441 3.10425 6.54679
1.31607 3.08259 6.54678
1.32724 3.07142 6.77429
1.31615 3.08252 6.74893
1.33718 3.06148 6.74893
1.31615 3.08252 6.74893
1.32723 3.07143 6.7236
1.33718 3.06148 6.74893
1.49256 2.90611 6.72367
1.50289 2.89577 6.74901
1.48223 2.91643 6.749
1.48223 2.91643 6.749
1.50289 2.89577 6.74901
1.49257 2.90609 6.77437
1.49257 2.90609 6.77437
1.50289 2.89577 6.74901
1.51323 2.88543 6.77438
1.88521 2.51346 7.03
1.90602 2.49264 7.02998
1.8956 2.50306 7.05575
2.19127 2.20739 6.49656
2.19928 2.19938 6.47139
2.19928 2.19938 6.5217
2.19928 2.19938 6.57209
2.19132 2.20734 6.5469
2.19928 2.19938 6.5217
2.11618 2.28248 6.6731
2.09503 2.30363 6.67311
2.10562 2.29304 6.64785
2.17929 2.21937 6.67305
2.19132 2.20734 6.69833
2.16947 2.22919 6.69834
2.19928 2.19938 6.67304
2.19132 2.20734 6.69833
2.17929 2.21937 6.67305
2.16947 2.22919 6.69834
2.17929 2.21937 6.72363
2.15843 2.24024 6.72365
2.19131 2.20735 6.74895
2.17929 2.21937 6.72363
2.19928 2.19938 6.72362
2.19928 2.19938 6.72362
2.19928 2.19938 6.77429
2.19131 2.20735 6.74895
2.19131 2.20735 6.74895
2.19928 2.19938 6.77429
2.17928 2.21938 6.77431
2.1693 2.22936 6.44637
2.17913 2.21954 6.42132
2.19117 2.20749 6.44634
2.19127 2.20739 6.49656
2.19928 2.19938 6.5217
2.17927 2.21939 6.52174
2.17927 2.21939 6.52174
2.19928 2.19938 6.5217
2.19132 2.20734 6.5469
2.10553 2.29313 6.49661
2.09491 2.30375 6.47143
2.11605 2.28261 6.47143
2.1372 2.26147 6.47145
2.12662 2.27204 6.44626
2.14787 2.25079 6.44631
2.1372 2.26147 6.47145
2.11605 2.28261 6.47143
2.12662 2.27204 6.44626
2.16946 2.2292 6.54693
2.19132 2.20734 6.5469
2.17929 2.21937 6.57211
2.16946 2.2292 6.54693
2.17927 2.21939 6.52174
2.19132 2.20734 6.5469
2.16945 2.22921 6.85055
2.17928 2.21938 6.8251
2.19129 2.20737 6.85053
2.19129 2.20737 6.85053
2.17927 2.21939 6.87602
2.16945 2.22921 6.85055
2.15841 2.24025 6.82512
2.17928 2.21938 6.8251
2.16945 2.22921 6.85055
2.16944 2.22922 7.00405
2.14804 2.25062 7.00406
2.15841 2.24025 6.97837
2.14804 2.25063 6.95274
2.16944 2.22922 6.95272
2.15841 2.24025 6.97837
2.19128 2.20738 6.90153
2.17927 2.21939 6.87602
2.19928 2.19938 6.876
2.16944 2.22922 6.90156
2.17927 2.21939 6.87602
2.19128 2.20738 6.90153
1.93725 2.46141 7.10732
1.94766 2.451 7.13316
1.92679 2.47187 7.1332
2.05276 2.34591 6.97843
2.06331 2.33535 6.95279
2.07386 2.3248 6.97841
2.07386 2.3248 6.97841
2.06331 2.33535 6.95279
2.08443 2.31423 6.95278
2.15841 2.24026 6.92713
2.14804 2.25062 6.90158
2.16944 2.22922 6.90156
2.15841 2.24026 6.92713
2.16944 2.22922 6.95272
2.14804 2.25063 6.95274
2.04222 2.35644 6.95281
2.06331 2.33535 6.95279
2.05276 2.34591 6.97843
1.9897 2.40896 6.72374
1.96874 2.42992 6.72374
1.97921 2.41945 6.69844
1.93736 2.4613 6.69844
1.92692 2.47174 6.72375
1.91649 2.48217 6.69844
1.94781 2.45085 6.72375
1.92692 2.47174 6.72375
1.93736 2.4613 6.69844
1.92691 2.47175 6.62265
1.9478 2.45086 6.62265
1.93736 2.46131 6.64789
1.93736 2.46131 6.64789
1.91648 2.48218 6.64789
1.92691 2.47175 6.62265
1.92691 2.47175 6.62265
1.91648 2.48218 6.64789
1.90605 2.49261 6.62264
1.93736 2.46131 6.64789
1.9478 2.45086 6.62265
1.95826 2.4404 6.6479
1.96871 2.42995 6.57223
1.9792 2.41946 6.59744
1.95825 2.44041 6.59743
1.95825 2.44041 6.59743
1.94778 2.45088 6.57223
1.96871 2.42995 6.57223
1.8126 2.58607 6.74909
1.82295 2.57571 6.72375
1.83332 2.56534 6.74909
1.82295 2.57571 6.72375
1.84369 2.55497 6.72375
1.83332 2.56534 6.74909
1.92692 2.47174 6.67316
1.91648 2.48218 6.64789
1.93736 2.46131 6.64789
1.92692 2.47174 6.67316
1.93736 2.4613 6.69844
1.91649 2.48217 6.69844
1.91649 2.48217 6.69844
1.89565 2.50301 6.69844
1.90606 2.4926 6.67315
1.90606 2.4926 6.67315
1.92692 2.47174 6.67316
1.91649 2.48217 6.69844
1.91648 2.48218 6.64789
1.92692 2.47174 6.67316
1.90606 2.4926 6.67315
1.90605 2.49261 6.62264
1.88523 2.51343 6.62264
1.89563 2.50303 6.59741
1.88521 2.51345 6.57219
1.90603 2.49263 6.57221
1.89563 2.50303 6.59741
1.51322 2.88545 6.72368
1.50289 2.89577 6.74901
1.49256 2.90611 6.72367
1.49256 2.90611 6.72367
1.50288 2.89578 6.69836
1.51322 2.88545 6.72368
1.29442 3.10424 6.34487
1.28831 3.11035 6.37009
1.28831 3.11035 6.31942
1.28831 3.11035 6.27
1.29529 3.10337 6.2947
1.28831 3.11035 6.31942
1.307 3.09167 6.4207
1.28831 3.11035 6.42067
1.29431 3.10435 6.39542
1.28831 3.11035 6.42067
1.28831 3.11035 6.37009
1.29431 3.10435 6.39542
2.19928 2.19938 6.27
2.19217 2.20649 6.29575
2.18013 2.21854 6.27
1.28831 3.11035 6.52157
1.28831 3.11035 6.47114
1.29438 3.10428 6.49636
1.29438 3.10428 6.49636
1.30704 3.09162 6.52156
1.28831 3.11035 6.52157
1.30702 3.09164 6.47113
1.29438 3.10428 6.49636
1.28831 3.11035 6.47114
1.30702 3.09164 6.47113
1.31601 3.08265 6.44594
1.32714 3.07152 6.47116
1.31605 3.08262 6.49635
1.33709 3.06157 6.49637
1.32717 3.07149 6.52157
1.32717 3.07149 6.52157
1.30704 3.09162 6.52156
1.31605 3.08262 6.49635
1.32714 3.07152 6.47116
1.33709 3.06157 6.49637
1.31605 3.08262 6.49635
1.31605 3.08262 6.49635
1.30702 3.09164 6.47113
1.32714 3.07152 6.47116
1.30704 3.09162 6.52156
1.29438 3.10428 6.49636
1.31605 3.08262 6.49635
1.29438 3.10428 6.49636
1.30702 3.09164 6.47113
1.31605 3.08262 6.49635
1.29435 3.10432 6.44591
1.28831 3.11035 6.47114
1.28831 3.11035 6.42067
1.29435 3.10432 6.44591
1.28831 3.11035 6.42067
1.307 3.09167 6.4207
1.307 3.09167 6.4207
1.31601 3.08265 6.44594
1.29435 3.10432 6.44591
1.29435 3.10432 6.44591
1.30702 3.09164 6.47113
1.28831 3.11035 6.47114
1.31601 3.08265 6.44594
1.30702 3.09164 6.47113
1.29435 3.10432 6.44591
1.33717 3.06149 6.69829
1.32723 3.07143 6.7236
1.31613 3.08254 6.69829
1.32723 3.07143 6.7236
1.30708 3.09158 6.7236
1.31613 3.08254 6.69829
1.31613 3.08254 6.69829
1.32722 3.07145 6.673
1.33717 3.06149 6.69829
1.33711 3.06155 6.54679
1.32717 3.07149 6.52157
1.34771 3.05096 6.52159
1.31607 3.08259 6.54678
1.32717 3.07149 6.52157
1.33711 3.06155 6.54679
1.35794 3.04072 6.5468
1.33711 3.06155 6.54679
1.34771 3.05096 6.52159
1.34773 3.05094 6.57201
1.33711 3.06155 6.54679
1.35794 3.04072 6.5468
1.34773 3.05094 6.57201
1.35794 3.04072 6.5468
1.36839 3.03027 6.57202
1.50287 2.89579 6.6478
1.51321 2.88546 6.67307
1.49255 2.90612 6.67307
1.49255 2.90612 6.67307
1.51321 2.88546 6.67307
1.50288 2.89578 6.69836
1.42017 2.9785 6.69832
1.44086 2.9578 6.69833
1.43052 2.96814 6.72363
1.43051 2.96815 6.67304
1.44086 2.9578 6.69833
1.42017 2.9785 6.69832
1.44085 2.95782 6.64777
1.4305 2.96817 6.62252
1.45119 2.94748 6.62253
1.43051 2.96815 6.67304
1.42015 2.97851 6.64776
1.44085 2.95782 6.64777
1.44085 2.95782 6.64777
1.42015 2.97851 6.64776
1.4305 2.96817 6.62252
1.44087 2.95779 6.74898
1.46156 2.9371 6.74899
1.45123 2.94744 6.77434
1.3995 2.99917 6.7997
1.40985 2.98882 6.77432
1.4202 2.97846 6.79971
1.40983 2.98883 6.72362
1.42017 2.9785 6.69832
1.43052 2.96814 6.72363
1.39946 2.9992 6.69831
1.42017 2.9785 6.69832
1.40983 2.98883 6.72362
1.32724 3.07142 6.77429
1.33718 3.06148 6.74893
1.34779 3.05087 6.77429
1.33717 3.06149 6.69829
1.32722 3.07145 6.673
1.34776 3.0509 6.673
1.34776 3.0509 6.673
1.35799 3.04067 6.69829
1.33717 3.06149 6.69829
1.38911 3.00955 6.67301
1.39946 2.9992 6.69831
1.37874 3.01992 6.6983
1.34777 3.05089 6.7236
1.33718 3.06148 6.74893
1.32723 3.07143 6.7236
1.34777 3.05089 6.7236
[...]
<PointData Scalars="View Factor" >
<DataArray type="Float64" Name="View Factor" NumberOfComponents="1" format="ascii">
1.46614e-05
1.46614e-05
1.46614e-05
3.54414e-05
3.54414e-05
3.54414e-05
3.72316e-05
3.72316e-05
3.72316e-05
0.000229604
0.000229604
0.000229604
0.000232178
0.000232178
0.000232178
4.00978e-05
4.00978e-05
4.00978e-05
0.00029641
0.00029641
0.00029641
1.3374e-05
1.3374e-05
1.3374e-05
1.12726e-05
1.12726e-05
1.12726e-05
1.81099e-05
1.81099e-05
1.81099e-05
2.445e-05
2.445e-05
2.445e-05
3.14785e-05
3.14785e-05
3.14785e-05
4.96814e-05
4.96814e-05
4.96814e-05
4.62281e-05
4.62281e-05
4.62281e-05
6.73459e-05
6.73459e-05
6.73459e-05
6.24268e-05
6.24268e-05
6.24268e-05
5.88147e-05
5.88147e-05
5.88147e-05
6.39266e-05
6.39266e-05
6.39266e-05
5.92554e-05
5.92554e-05
5.92554e-05
4.69257e-05
4.69257e-05
4.69257e-05
4.40868e-05
4.40868e-05
4.40868e-05
1.18501e-05
1.18501e-05
1.18501e-05
3.24361e-05
3.24361e-05
3.24361e-05
1.36708e-05
1.36708e-05
1.36708e-05
0.000322448
0.000322448
0.000322448
0.000287338
0.000287338
0.000287338
0.000291535
0.000291535
0.000291535
0.000296582
0.000296582
0.000296582
0.000293556
0.000293556
0.000293556
0.000277407
0.000277407
0.000277407
0.00026993
0.00026993
0.00026993
0.0002745
0.0002745
0.0002745
0.000273214
0.000273214
0.000273214
0.000272915
0.000272915
0.000272915
0.000277555
0.000277555
0.000277555
0.000274724
0.000274724
0.000274724
0.000293297
0.000293297
0.000293297
0.000291937
0.000291937
0.000291937
0.000268138
0.000268138
0.000268138
0.00026963
0.00026963
0.00026963
0.000215818
0.000215818
0.000215818
0.0002146
0.0002146
0.0002146
0.00020645
0.00020645
0.00020645
1.43982e-05
1.43982e-05
1.43982e-05
1.04643e-05
1.04643e-05
1.04643e-05
1.0669e-05
1.0669e-05
1.0669e-05
6.15938e-05
6.15938e-05
6.15938e-05
6.16388e-05
6.16388e-05
6.16388e-05
5.47279e-05
5.47279e-05
5.47279e-05
7.81481e-05
7.81481e-05
7.81481e-05
5.78992e-05
5.78992e-05
5.78992e-05
5.55486e-05
5.55486e-05
5.55486e-05
5.08702e-05
5.08702e-05
5.08702e-05
1.52624e-05
1.52624e-05
1.52624e-05
1.05717e-05
1.05717e-05
1.05717e-05
1.02938e-05
1.02938e-05
1.02938e-05
2.86552e-05
2.86552e-05
2.86552e-05
3.93057e-05
3.93057e-05
3.93057e-05
3.66996e-05
3.66996e-05
3.66996e-05
1.58724e-05
1.58724e-05
1.58724e-05
1.41576e-05
1.41576e-05
1.41576e-05
4.03934e-05
4.03934e-05
4.03934e-05
3.79563e-05
3.79563e-05
3.79563e-05
6.03031e-05
6.03031e-05
6.03031e-05
4.55444e-05
4.55444e-05
4.55444e-05
4.75043e-05
4.75043e-05
4.75043e-05
3.03939e-05
3.03939e-05
3.03939e-05
3.36839e-05
3.36839e-05
3.36839e-05
9.82039e-06
9.82039e-06
9.82039e-06
1.6962e-05
1.6962e-05
1.6962e-05
1.75539e-05
1.75539e-05
1.75539e-05
5.09524e-05
5.09524e-05
5.09524e-05
4.84981e-05
4.84981e-05
4.84981e-05
1.7573e-05
1.7573e-05
1.7573e-05
5.69792e-05
5.69792e-05
5.69792e-05
6.12116e-05
6.12116e-05
6.12116e-05
5.96128e-05
5.96128e-05
5.96128e-05
3.92419e-05
3.92419e-05
3.92419e-05
4.32771e-05
4.32771e-05
4.32771e-05
4.05697e-05
4.05697e-05
4.05697e-05
4.17957e-05
4.17957e-05
4.17957e-05
1.84835e-05
1.84835e-05
1.84835e-05
1.48265e-05
1.48265e-05
1.48265e-05
6.5376e-05
6.5376e-05
6.5376e-05
6.67493e-05
6.67493e-05
6.67493e-05
4.96437e-05
4.96437e-05
4.96437e-05
5.99168e-05
5.99168e-05
5.99168e-05
6.19665e-05
6.19665e-05
6.19665e-05
5.8843e-05
5.8843e-05
5.8843e-05
5.35006e-05
5.35006e-05
5.35006e-05
3.40223e-05
3.40223e-05
3.40223e-05
1.638e-05
1.638e-05
1.638e-05
0.000208922
0.000208922
0.000208922
0.00021019
0.00021019
0.00021019
0.000317033
0.000317033
0.000317033
0.000322346
0.000322346
0.000322346
0.000308413
0.000308413
0.000308413
0.000311713
0.000311713
0.000311713
1.4367e-05
1.4367e-05
1.4367e-05
0.000301401
0.000301401
0.000301401
0.000298236
0.000298236
0.000298236
0.000301577
0.000301577
0.000301577
0.000298118
0.000298118
0.000298118
0.00029109
0.00029109
0.00029109
0.00029317
0.00029317
0.00029317
0.000292712
0.000292712
0.000292712
0.00029645
0.00029645
0.00029645
0.000296855
0.000296855
0.000296855
0.000298503
0.000298503
0.000298503
0.0003065
0.0003065
0.0003065
0.000306697
0.000306697
0.000306697
0.000303572
0.000303572
0.000303572
0.000303268
0.000303268
0.000303268
0.000301869
0.000301869
0.000301869
0.000272615
0.000272615
0.000272615
0.000274422
0.000274422
0.000274422
0.00027411
0.00027411
0.00027411
0.000285804
0.000285804
0.000285804
0.000287907
0.000287907
0.000287907
0.00028235
0.00028235
0.00028235
0.000280856
0.000280856
0.000280856
0.000277428
0.000277428
0.000277428
0.00021411
0.00021411
0.00021411
0.00021275
0.00021275
0.00021275
0.000242937
0.000242937
0.000242937
0.000244284
0.000244284
0.000244284
0.000245491
0.000245491
0.000245491
0.00024704
0.00024704
0.00024704
0.000248424
0.000248424
0.000248424
0.000232582
0.000232582
0.000232582
0.000242814
0.000242814
0.000242814
0.000245957
0.000245957
0.000245957
0.000249679
0.000249679
0.000249679
0.000264736
0.000264736
0.000264736
0.000272137
0.000272137
0.000272137
0.000268826
0.000268826
0.000268826
0.000257661
0.000257661
0.000257661
0.000267717
0.000267717
0.000267717
0.00026915
0.00026915
0.00026915
0.000267354
0.000267354
0.000267354
0.000237407
0.000237407
0.000237407
0.000243184
0.000243184
0.000243184
0.000232251
0.000232251
0.000232251
0.000222626
0.000222626
0.000222626
0.000226826
0.000226826
0.000226826
0.000227796
0.000227796
0.000227796
0.000219996
0.000219996
0.000219996
0.000228947
0.000228947
0.000228947
0.000225613
0.000225613
0.000225613
0.000218727
0.000218727
0.000218727
0.000222942
0.000222942
0.000222942
0.0002161
0.0002161
0.0002161
0.000221602
0.000221602
0.000221602
0.000234952
0.000234952
0.000234952
0.000230148
0.000230148
0.000230148
0.000191022
0.000191022
0.000191022
6.85154e-05
6.85154e-05
6.85154e-05
0.000138735
0.000138735
0.000138735
6.21853e-05
6.21853e-05
6.21853e-05
0.000136006
0.000136006
0.000136006
0.000210719
0.000210719
0.000210719
0.000205255
0.000205255
0.000205255
0.000211988
0.000211988
0.000211988
1.62114e-05
1.62114e-05
1.62114e-05
1.54202e-05
1.54202e-05
1.54202e-05
1.41083e-05
1.41083e-05
1.41083e-05
1.48523e-05
1.48523e-05
1.48523e-05
1.73478e-05
1.73478e-05
1.73478e-05
1.75791e-05
1.75791e-05
1.75791e-05
2.11547e-05
2.11547e-05
2.11547e-05
1.58934e-05
1.58934e-05
1.58934e-05
7.72909e-06
7.72909e-06
7.72909e-06
8.04061e-06
8.04061e-06
8.04061e-06
7.3511e-06
7.3511e-06
7.3511e-06
7.26242e-06
7.26242e-06
7.26242e-06
8.47055e-06
8.47055e-06
8.47055e-06
8.62374e-06
8.62374e-06
8.62374e-06
8.25788e-06
8.25788e-06
8.25788e-06
7.83915e-06
7.83915e-06
7.83915e-06
8.04493e-06
8.04493e-06
8.04493e-06
8.40411e-06
8.40411e-06
8.40411e-06
8.88021e-06
8.88021e-06
8.88021e-06
7.08081e-06
7.08081e-06
7.08081e-06
7.63739e-06
7.63739e-06
7.63739e-06
7.53304e-06
7.53304e-06
7.53304e-06
7.16476e-06
7.16476e-06
7.16476e-06
6.89904e-06
6.89904e-06
6.89904e-06
6.16801e-06
6.16801e-06
6.16801e-06
5.31991e-06
5.31991e-06
5.31991e-06
5.31947e-06
5.31947e-06
5.31947e-06
9.71364e-06
9.71364e-06
9.71364e-06
9.70547e-06
9.70547e-06
9.70547e-06
9.44146e-06
9.44146e-06
9.44146e-06
6.37312e-05
6.37312e-05
6.37312e-05
6.15945e-05
6.15945e-05
6.15945e-05
6.40838e-05
6.40838e-05
6.40838e-05
6.07722e-05
6.07722e-05
6.07722e-05
8.36966e-06
8.36966e-06
8.36966e-06
1.44925e-05
1.44925e-05
1.44925e-05
6.00269e-06
6.00269e-06
6.00269e-06
5.49942e-05
5.49942e-05
5.49942e-05
5.53268e-05
5.53268e-05
5.53268e-05
4.98776e-05
4.98776e-05
4.98776e-05
5.19831e-05
5.19831e-05
5.19831e-05
4.46269e-05
4.46269e-05
4.46269e-05
3.82339e-05
3.82339e-05
3.82339e-05
4.61303e-05
4.61303e-05
4.61303e-05
6.69351e-05
6.69351e-05
6.69351e-05
6.66594e-05
6.66594e-05
6.66594e-05
7.01508e-05
7.01508e-05
7.01508e-05
7.62655e-05
7.62655e-05
7.62655e-05
6.99977e-05
6.99977e-05
6.99977e-05
7.32304e-05
7.32304e-05
7.32304e-05
5.75919e-05
5.75919e-05
5.75919e-05
6.13313e-05
6.13313e-05
6.13313e-05
1.1094e-05
1.1094e-05
1.1094e-05
1.13344e-05
1.13344e-05
1.13344e-05
1.5106e-05
1.5106e-05
1.5106e-05
1.20963e-05
1.20963e-05
1.20963e-05
2.87503e-05
2.87503e-05
2.87503e-05
3.39664e-05
3.39664e-05
3.39664e-05
4.56533e-05
4.56533e-05
4.56533e-05
4.07429e-05
4.07429e-05
4.07429e-05
4.29339e-05
4.29339e-05
4.29339e-05
4.03766e-05
4.03766e-05
4.03766e-05
5.6733e-05
5.6733e-05
5.6733e-05
5.51887e-05
5.51887e-05
5.51887e-05
5.23774e-05
5.23774e-05
5.23774e-05
4.47039e-05
4.47039e-05
4.47039e-05
2.90099e-05
2.90099e-05
2.90099e-05
6.7159e-06
6.7159e-06
6.7159e-06
1.27771e-05
1.27771e-05
1.27771e-05
1.49195e-05
1.49195e-05
1.49195e-05
1.39442e-05
1.39442e-05
1.39442e-05
1.57815e-05
1.57815e-05
1.57815e-05
1.37964e-05
1.37964e-05
1.37964e-05
3.6696e-05
3.6696e-05
3.6696e-05
3.75528e-05
3.75528e-05
3.75528e-05
5.38811e-05
5.38811e-05
5.38811e-05
5.53687e-05
5.53687e-05
5.53687e-05
5.57557e-05
5.57557e-05
5.57557e-05
5.57731e-05
5.57731e-05
5.57731e-05
3.94656e-05
3.94656e-05
3.94656e-05
4.1447e-05
4.1447e-05
4.1447e-05
3.95456e-05
3.95456e-05
3.95456e-05
5.2429e-05
5.2429e-05
5.2429e-05
5.12595e-05
5.12595e-05
5.12595e-05
3.18392e-05
3.18392e-05
3.18392e-05
4.38847e-05
4.38847e-05
4.38847e-05
4.15528e-05
4.15528e-05
4.15528e-05
4.48732e-05
4.48732e-05
4.48732e-05
4.35607e-05
4.35607e-05
4.35607e-05
4.02344e-05
4.02344e-05
4.02344e-05
4.12524e-05
4.12524e-05
4.12524e-05
5.61535e-05
5.61535e-05
5.61535e-05
5.46844e-05
5.46844e-05
5.46844e-05
5.62308e-05
5.62308e-05
5.62308e-05
5.41728e-05
5.41728e-05
5.41728e-05
6.1679e-05
6.1679e-05
6.1679e-05
6.33005e-05
6.33005e-05
6.33005e-05
5.68937e-05
5.68937e-05
5.68937e-05
4.94305e-05
4.94305e-05
4.94305e-05
4.63433e-05
4.63433e-05
4.63433e-05
5.96731e-05
5.96731e-05
5.96731e-05
6.08351e-05
6.08351e-05
6.08351e-05
6.37475e-05
6.37475e-05
6.37475e-05
6.53901e-05
6.53901e-05
6.53901e-05
6.28066e-05
6.28066e-05
6.28066e-05
6.58154e-05
6.58154e-05
6.58154e-05
5.44366e-05
5.44366e-05
5.44366e-05
5.09213e-05
5.09213e-05
5.09213e-05
4.6441e-05
4.6441e-05
4.6441e-05
4.49212e-05
4.49212e-05
4.49212e-05
4.79353e-05
4.79353e-05
4.79353e-05
5.25641e-05
5.25641e-05
5.25641e-05
5.91244e-05
5.91244e-05
5.91244e-05
5.75441e-05
5.75441e-05
5.75441e-05
5.76978e-05
5.76978e-05
5.76978e-05
5.643e-05
5.643e-05
5.643e-05
2.86425e-05
2.86425e-05
2.86425e-05
4.10371e-05
4.10371e-05
4.10371e-05
2.93208e-05
2.93208e-05
2.93208e-05
3.29129e-05
3.29129e-05
3.29129e-05
1.58954e-05
1.58954e-05
1.58954e-05
2.90364e-05
2.90364e-05
2.90364e-05
2.03878e-05
2.03878e-05
2.03878e-05
1.53607e-05
1.53607e-05
1.53607e-05
1.97122e-05
1.97122e-05
1.97122e-05
2.80744e-05
2.80744e-05
2.80744e-05
3.18038e-05
3.18038e-05
3.18038e-05
2.71121e-05
2.71121e-05
2.71121e-05
1.90374e-05
1.90374e-05
1.90374e-05
4.67114e-05
4.67114e-05
4.67114e-05
4.92101e-05
4.92101e-05
4.92101e-05
8.42109e-05
8.42109e-05
8.42109e-05
8.2525e-05
8.2525e-05
8.2525e-05
5.62966e-05
5.62966e-05
5.62966e-05
5.98992e-05
5.98992e-05
5.98992e-05
8.21089e-05
8.21089e-05
8.21089e-05
8.24124e-05
8.24124e-05
8.24124e-05
4.85803e-05
4.85803e-05
4.85803e-05
5.14035e-05
5.14035e-05
5.14035e-05
4.98193e-05
4.98193e-05
4.98193e-05
4.42799e-05
4.42799e-05
4.42799e-05
4.30713e-05
4.30713e-05
4.30713e-05
4.54069e-05
4.54069e-05
4.54069e-05
6.9957e-05
6.9957e-05
6.9957e-05
6.67678e-05
6.67678e-05
6.67678e-05
7.0171e-05
7.0171e-05
7.0171e-05
7.16689e-05
7.16689e-05
7.16689e-05
5.58494e-05
5.58494e-05
5.58494e-05
5.96267e-05
5.96267e-05
5.96267e-05
6.87504e-05
6.87504e-05
6.87504e-05
6.87225e-05
6.87225e-05
6.87225e-05
7.2033e-05
7.2033e-05
7.2033e-05
6.07105e-05
6.07105e-05
6.07105e-05
1.69134e-05
1.69134e-05
1.69134e-05
2.10163e-05
2.10163e-05
2.10163e-05
2.99996e-05
2.99996e-05
2.99996e-05
6.0823e-05
6.0823e-05
6.0823e-05
6.40172e-05
6.40172e-05
6.40172e-05
5.71029e-05
5.71029e-05
5.71029e-05
6.2804e-05
6.2804e-05
6.2804e-05
0.000199308
0.000199308
0.000199308
0.000239357
0.000239357
0.000239357
0.000238205
0.000238205
0.000238205
0.000240853
0.000240853
0.000240853
0.000220609
0.000220609
0.000220609
0.000209073
0.000209073
0.000209073
0.000210443
0.000210443
0.000210443
0.000280479
0.000280479
0.000280479
0.000285412
0.000285412
0.000285412
0.000282015
0.000282015
0.000282015
0.000206564
0.000206564
0.000206564
0.000205319
0.000205319
0.000205319
8.63165e-05
8.63165e-05
8.63165e-05
8.44947e-05
8.44947e-05
8.44947e-05
8.0584e-05
8.0584e-05
8.0584e-05
7.87152e-05
7.87152e-05
7.87152e-05
6.73631e-05
6.73631e-05
6.73631e-05
7.17607e-05
7.17607e-05
7.17607e-05
3.54414e-05
3.54414e-05
3.54414e-05
1.58226e-05
1.58226e-05
1.58226e-05
5.16563e-05
5.16563e-05
5.16563e-05
5.95258e-06
5.95258e-06
5.95258e-06
3.11734e-05
3.11734e-05
3.11734e-05
3.15294e-05
3.15294e-05
3.15294e-05
3.68853e-06
3.68853e-06
3.68853e-06
4.06573e-06
4.06573e-06
4.06573e-06
0.000272876
0.000272876
0.000272876
0.000273014
0.000273014
0.000273014
0.000282023
0.000282023
0.000282023
0.000279072
0.000279072
0.000279072
0.000277768
0.000277768
0.000277768
0.000286726
0.000286726
0.000286726
0.00028688
0.00028688
0.00028688
0.000282074
0.000282074
0.000282074
0.00028396
0.00028396
0.00028396
0.000291682
0.000291682
0.000291682
0.00029152
0.00029152
0.00029152
0.000288463
0.000288463
0.000288463
0.000288712
0.000288712
0.000288712
0.000287118
0.000287118
0.000287118
0.000283633
0.000283633
0.000283633
0.000281681
0.000281681
0.000281681
0.000277794
0.000277794
0.000277794
0.000275951
0.000275951
0.000275951
0.00028834
0.00028834
0.00028834
0.00028634
0.00028634
0.00028634
0.000286762
0.000286762
0.000286762
0.000283224
0.000283224
0.000283224
0.000282702
0.000282702
0.000282702
0.0002812
0.0002812
0.0002812
0.000278625
0.000278625
0.000278625
0.0002771
0.0002771
0.0002771
0.000273631
0.000273631
0.000273631
0.000271758
0.000271758
0.000271758
0.000228106
0.000228106
0.000228106
0.000233053
0.000233053
0.000233053
0.000234206
0.000234206
0.000234206
0.000222459
0.000222459
0.000222459
0.00021845
0.00021845
0.00021845
0.000219754
0.000219754
0.000219754
0.000223969
0.000223969
0.000223969
0.000226688
0.000226688
0.000226688
0.000230611
0.000230611
0.000230611
0.000229379
0.000229379
0.000229379
0.00025107
0.00025107
0.00025107
0.000253891
0.000253891
0.000253891
0.000248727
0.000248727
0.000248727
0.000250152
0.000250152
0.000250152
0.000255406
0.000255406
0.000255406
0.000256869
0.000256869
0.000256869
0.000240227
0.000240227
0.000240227
0.000244626
0.000244626
0.000244626
0.000234937
0.000234937
0.000234937
0.000240593
0.000240593
0.000240593
0.000241916
0.000241916
0.000241916
0.000238932
0.000238932
0.000238932
0.000236269
0.000236269
0.000236269
0.000233751
0.000233751
0.000233751
0.000238763
0.000238763
0.000238763
0.000236528
0.000236528
0.000236528
0.000237855
0.000237855
0.000237855
0.000241422
0.000241422
0.000241422
0.000244235
0.000244235
0.000244235
0.000245033
0.000245033
0.000245033
0.000242872
0.000242872
0.000242872
0.000247045
0.000247045
0.000247045
0.000268502
0.000268502
0.000268502
0.000261321
0.000261321
0.000261321
0.000267027
0.000267027
0.000267027
0.000263535
0.000263535
0.000263535
0.000262937
0.000262937
0.000262937
0.000264408
0.000264408
0.000264408
0.000259155
0.000259155
0.000259155
0.00026268
0.00026268
0.00026268
0.000262086
0.000262086
0.000262086
0.000264099
0.000264099
0.000264099
0.000243647
0.000243647
0.000243647
0.000245773
0.000245773
0.000245773
0.000240204
0.000240204
0.000240204
0.000249204
0.000249204
0.000249204
0.00025129
0.00025129
0.00025129
0.000244412
0.000244412
0.000244412
0.000221594
0.000221594
0.000221594
0.000233921
0.000233921
0.000233921
0.000232641
0.000232641
0.000232641
0.000228861
0.000228861
0.000228861
0.000226729
0.000226729
0.000226729
0.000234364
0.000234364
0.000234364
0.000227713
0.000227713
0.000227713
0.000229678
0.000229678
0.000229678
0.000251377
0.000251377
0.000251377
0.000248756
0.000248756
0.000248756
0.000247584
0.000247584
0.000247584
0.000243357
0.000243357
0.000243357
0.00024728
0.00024728
0.00024728
0.000244706
0.000244706
0.000244706
0.000243567
0.000243567
0.000243567
0.000247411
0.000247411
0.000247411
0.000244898
0.000244898
0.000244898
0.000244588
0.000244588
0.000244588
0.000243255
0.000243255
0.000243255
0.000233666
0.000233666
0.000233666
0.000231276
0.000231276
0.000231276
0.000232469
0.000232469
0.000232469
0.000236024
0.000236024
0.000236024
0.0002387
0.0002387
0.0002387
0.00023741
0.00023741
0.00023741
0.00022533
0.00022533
0.00022533
0.000231341
0.000231341
0.000231341
0.000228954
0.000228954
0.000228954
0.000224026
0.000224026
0.000224026
4.42275e-05
4.42275e-05
4.42275e-05
5.00036e-05
5.00036e-05
5.00036e-05
4.73967e-05
4.73967e-05
4.73967e-05
0.000165765
0.000165765
0.000165765
0.000149888
0.000149888
0.000149888
0.000148098
0.000148098
0.000148098
0.000179866
0.000179866
0.000179866
0.000164765
0.000164765
0.000164765
0.000202792
0.000202792
0.000202792
0.000201524
0.000201524
0.000201524
0.00018198
0.00018198
0.00018198
0.000192165
0.000192165
0.000192165
0.000195632
0.000195632
0.000195632
0.000194449
0.000194449
0.000194449
0.000167739
0.000167739
0.000167739
0.000183125
0.000183125
0.000183125
1.43067e-05
1.43067e-05
1.43067e-05
1.32993e-05
1.32993e-05
1.32993e-05
1.39079e-05
1.39079e-05
1.39079e-05
1.44118e-05
1.44118e-05
1.44118e-05
1.57597e-05
1.57597e-05
1.57597e-05
1.68635e-05
1.68635e-05
1.68635e-05
1.40249e-05
1.40249e-05
1.40249e-05
1.49837e-05
1.49837e-05
1.49837e-05
1.45462e-05
1.45462e-05
1.45462e-05
1.53062e-05
1.53062e-05
1.53062e-05
2.32586e-05
2.32586e-05
2.32586e-05
2.07043e-05
2.07043e-05
2.07043e-05
1.93044e-05
1.93044e-05
1.93044e-05
2.13016e-05
2.13016e-05
2.13016e-05
2.17743e-05
2.17743e-05
2.17743e-05
1.98612e-05
1.98612e-05
1.98612e-05
1.88229e-05
1.88229e-05
1.88229e-05
2.39474e-05
2.39474e-05
2.39474e-05
2.2596e-05
2.2596e-05
2.2596e-05
2.58611e-05
2.58611e-05
2.58611e-05
2.64561e-05
2.64561e-05
2.64561e-05
1.82883e-05
1.82883e-05
1.82883e-05
1.66212e-05
1.66212e-05
1.66212e-05
1.63786e-05
1.63786e-05
1.63786e-05
1.70594e-05
1.70594e-05
1.70594e-05
2.01073e-05
2.01073e-05
2.01073e-05
1.87347e-05
1.87347e-05
1.87347e-05
1.77534e-05
1.77534e-05
1.77534e-05
1.54066e-05
1.54066e-05
1.54066e-05
1.61206e-05
1.61206e-05
1.61206e-05
1.56184e-05
1.56184e-05
1.56184e-05
1.66821e-05
1.66821e-05
1.66821e-05
3.87454e-05
3.87454e-05
3.87454e-05
3.56661e-05
3.56661e-05
3.56661e-05
2.72402e-05
2.72402e-05
2.72402e-05
3.01978e-05
3.01978e-05
3.01978e-05
3.27978e-05
3.27978e-05
3.27978e-05
3.10745e-05
3.10745e-05
3.10745e-05
2.94862e-05
2.94862e-05
2.94862e-05
3.46708e-05
3.46708e-05
3.46708e-05
3.375e-05
3.375e-05
3.375e-05
2.48732e-05
2.48732e-05
2.48732e-05
2.60608e-05
2.60608e-05
2.60608e-05
1.26091e-05
1.26091e-05
1.26091e-05
8.31612e-06
8.31612e-06
8.31612e-06
8.8423e-06
8.8423e-06
8.8423e-06
9.7445e-06
9.7445e-06
9.7445e-06
9.34353e-06
9.34353e-06
9.34353e-06
1.29297e-05
1.29297e-05
1.29297e-05
1.28685e-05
1.28685e-05
1.28685e-05
0.000230091
0.000230091
0.000230091
0.000227663
0.000227663
0.000227663
8.64331e-06
8.64331e-06
8.64331e-06
1.47237e-05
1.47237e-05
1.47237e-05
5.94352e-05
5.94352e-05
5.94352e-05
1.66104e-05
1.66104e-05
1.66104e-05
0.000161093
0.000161093
0.000161093
3.2855e-05
3.2855e-05
3.2855e-05
2.35963e-05
2.35963e-05
2.35963e-05
1.75558e-05
1.75558e-05
1.75558e-05
1.80161e-05
1.80161e-05
1.80161e-05
2.00642e-05
2.00642e-05
2.00642e-05
1.92641e-05
1.92641e-05
1.92641e-05
1.37497e-05
1.37497e-05
1.37497e-05
9.96304e-06
9.96304e-06
9.96304e-06
9.26739e-06
9.26739e-06
9.26739e-06
9.50585e-06
9.50585e-06
9.50585e-06
9.11211e-06
9.11211e-06
9.11211e-06
1.47748e-05
1.47748e-05
1.47748e-05
1.64427e-05
1.64427e-05
1.64427e-05
1.58961e-05
1.58961e-05
1.58961e-05
1.36122e-05
1.36122e-05
1.36122e-05
1.34249e-05
1.34249e-05
1.34249e-05
1.39472e-05
1.39472e-05
1.39472e-05
1.46645e-05
1.46645e-05
1.46645e-05
1.58556e-05
1.58556e-05
1.58556e-05
1.48191e-05
1.48191e-05
1.48191e-05
5.9848e-06
5.9848e-06
5.9848e-06
6.22819e-06
6.22819e-06
6.22819e-06
7.33684e-06
7.33684e-06
7.33684e-06
6.71648e-06
6.71648e-06
6.71648e-06
6.97799e-06
6.97799e-06
6.97799e-06
6.35092e-06
6.35092e-06
6.35092e-06
6.41575e-06
6.41575e-06
6.41575e-06
6.73633e-06
6.73633e-06
6.73633e-06
7.0306e-06
7.0306e-06
7.0306e-06
5.47357e-06
5.47357e-06
5.47357e-06
5.43264e-06
5.43264e-06
5.43264e-06
6.37748e-06
6.37748e-06