<VTKFile type="UnstructuredGrid" version="1.0">
<UnstructuredGrid>
<Piece NumberOfPoints="10830" NumberOfCells="3610">
<Points>
<DataArray type="Float64" NumberOfComponents="3" format="ascii">
1.27826 3.11035 1.07075
1.28831 3.11035 1.045
1.28831 3.11035 1.09646
1.28831 3.11035 1.60008
1.28831 3.11035 1.651
1.27701 3.11035 1.62553
1.28831 3.11035 1.60008
1.27701 3.11035 1.62553
1.26002 3.11035 1.6001
0.0244388 3.11035 2.07259
0.0422213 3.11035 2.09
0 3.11035 2.09
0 3.11035 2.09
-7.89601e-14 3.11035 2.05984
0.0244388 3.11035 2.07259
1.28831 3.11035 1.60008
1.26002 3.11035 1.6001
1.27702 3.11035 1.57468
0.00863377 3.11035 1.32179
1.49469e-13 3.11035 1.34701
1.49791e-13 3.11035 1.29657
1.27705 3.11035 1.3219
1.28831 3.11035 1.34709
1.26004 3.11035 1.34711
1.27684 3.11035 1.22134
1.28831 3.11035 1.19628
1.28831 3.11035 1.24639
1.26004 3.11035 1.34711
1.28831 3.11035 1.34709
1.27707 3.11035 1.37231
1.28831 3.11035 1.34709
1.28831 3.11035 1.39754
1.27707 3.11035 1.37231
1.26005 3.11035 1.39755
1.27707 3.11035 1.37231
1.28831 3.11035 1.39754
1.26003 3.11035 1.54931
1.27702 3.11035 1.57468
1.24613 3.11035 1.5747
1.24613 3.11035 1.5747
1.27702 3.11035 1.57468
1.26002 3.11035 1.6001
1.24613 3.11035 1.5747
1.23052 3.11035 1.54932
1.26003 3.11035 1.54931
1.24613 3.11035 1.5747
1.26002 3.11035 1.6001
1.23052 3.11035 1.60012
1.28831 3.11035 1.44804
1.28831 3.11035 1.49862
1.27705 3.11035 1.47333
1.27705 3.11035 1.47333
1.26004 3.11035 1.49863
1.24616 3.11035 1.47334
1.28831 3.11035 1.49862
1.26004 3.11035 1.49863
1.27705 3.11035 1.47333
1.28831 3.11035 1.54929
1.27702 3.11035 1.57468
1.26003 3.11035 1.54931
1.28831 3.11035 1.60008
1.27702 3.11035 1.57468
1.28831 3.11035 1.54929
1.25981 3.11035 1.19632
1.28831 3.11035 1.19628
1.27684 3.11035 1.22134
1.26002 3.11035 1.65102
1.27701 3.11035 1.62553
1.28831 3.11035 1.651
0.85884 3.11035 1.83075
0.873578 3.11035 1.80498
0.888295 3.11035 1.83072
0 3.11035 1.045
0.0277369 3.11035 1.045
0.00987207 3.11035 1.06971
0.0840033 3.11035 1.29659
0.0549577 3.11035 1.29657
0.0689903 3.11035 1.27137
0.0264927 3.11035 1.29656
0.0549577 3.11035 1.29657
0.0392653 3.11035 1.32178
0.0264927 3.11035 1.29656
0.00863377 3.11035 1.32179
1.49791e-13 3.11035 1.29657
0.0392653 3.11035 1.32178
0.00863377 3.11035 1.32179
0.0264927 3.11035 1.29656
0.0087521 3.11035 1.52394
-9.63464e-14 3.11035 1.5493
1.47962e-13 3.11035 1.49861
0.0265703 3.11035 1.5493
0.0393699 3.11035 1.52393
0.0550657 3.11035 1.54929
-9.63464e-14 3.11035 1.5493
0.0087521 3.11035 1.52394
0.0265703 3.11035 1.5493
0.0265703 3.11035 1.5493
0.0087521 3.11035 1.52394
0.0393699 3.11035 1.52393
0.0265544 3.11035 1.4986
0.0550443 3.11035 1.4986
0.0393699 3.11035 1.52393
0.0265544 3.11035 1.4986
0.0087521 3.11035 1.52394
1.47962e-13 3.11035 1.49861
0.0393699 3.11035 1.52393
0.0087521 3.11035 1.52394
0.0265544 3.11035 1.4986
1.49469e-13 3.11035 1.34701
0.00863377 3.11035 1.32179
0.0265126 3.11035 1.347
0.0265126 3.11035 1.347
0.00863377 3.11035 1.32179
0.0392653 3.11035 1.32178
0.0550657 3.11035 1.54929
0.0393699 3.11035 1.52393
0.0691236 3.11035 1.52393
0.0393699 3.11035 1.52393
0.0550443 3.11035 1.4986
0.0691236 3.11035 1.52393
0.288852 3.11035 1.49867
0.303471 3.11035 1.52401
0.274248 3.11035 1.524
0.274248 3.11035 1.524
0.303471 3.11035 1.52401
0.288872 3.11035 1.54937
0.288872 3.11035 1.54937
0.303471 3.11035 1.52401
0.318088 3.11035 1.54938
0.844143 3.11035 1.805
0.873578 3.11035 1.80498
0.85884 3.11035 1.83075
1.27699 3.11035 1.27156
1.28831 3.11035 1.24639
1.28831 3.11035 1.2967
1.28831 3.11035 1.34709
1.27705 3.11035 1.3219
1.28831 3.11035 1.2967
1.17079 3.11035 1.4481
1.14088 3.11035 1.44811
1.15586 3.11035 1.42285
1.26004 3.11035 1.44805
1.27705 3.11035 1.47333
1.24616 3.11035 1.47334
1.28831 3.11035 1.44804
1.27705 3.11035 1.47333
1.26004 3.11035 1.44805
1.24616 3.11035 1.47334
1.26004 3.11035 1.49863
1.23053 3.11035 1.49865
1.27704 3.11035 1.52395
1.26004 3.11035 1.49863
1.28831 3.11035 1.49862
1.28831 3.11035 1.49862
1.28831 3.11035 1.54929
1.27704 3.11035 1.52395
1.27704 3.11035 1.52395
1.28831 3.11035 1.54929
1.26003 3.11035 1.54931
1.24591 3.11035 1.22137
1.25981 3.11035 1.19632
1.27684 3.11035 1.22134
1.27699 3.11035 1.27156
1.28831 3.11035 1.2967
1.26001 3.11035 1.29674
1.26001 3.11035 1.29674
1.28831 3.11035 1.2967
1.27705 3.11035 1.3219
1.15573 3.11035 1.27161
1.1407 3.11035 1.24643
1.1706 3.11035 1.24643
1.20051 3.11035 1.24645
1.18556 3.11035 1.22126
1.21561 3.11035 1.22131
1.20051 3.11035 1.24645
1.1706 3.11035 1.24643
1.18556 3.11035 1.22126
1.24614 3.11035 1.32193
1.27705 3.11035 1.3219
1.26004 3.11035 1.34711
1.24614 3.11035 1.32193
1.26001 3.11035 1.29674
1.27705 3.11035 1.3219
1.24612 3.11035 1.62555
1.26002 3.11035 1.6001
1.27701 3.11035 1.62553
1.27701 3.11035 1.62553
1.26002 3.11035 1.65102
1.24612 3.11035 1.62555
1.23052 3.11035 1.60012
1.26002 3.11035 1.6001
1.24612 3.11035 1.62555
1.24611 3.11035 1.77905
1.21584 3.11035 1.77906
1.23051 3.11035 1.75337
1.21584 3.11035 1.72774
1.24611 3.11035 1.72772
1.23051 3.11035 1.75337
1.27699 3.11035 1.67653
1.26002 3.11035 1.65102
1.28831 3.11035 1.651
1.24611 3.11035 1.67656
1.26002 3.11035 1.65102
1.27699 3.11035 1.67653
0.917741 3.11035 1.88232
0.932465 3.11035 1.90816
0.902954 3.11035 1.9082
1.08109 3.11035 1.75343
1.09602 3.11035 1.72779
1.11094 3.11035 1.75341
1.11094 3.11035 1.75341
1.09602 3.11035 1.72779
1.12589 3.11035 1.72778
1.2305 3.11035 1.70213
1.21584 3.11035 1.67658
1.24611 3.11035 1.67656
1.2305 3.11035 1.70213
1.24611 3.11035 1.72772
1.21584 3.11035 1.72774
1.0662 3.11035 1.72781
1.09602 3.11035 1.72779
1.08109 3.11035 1.75343
0.991917 3.11035 1.49874
0.962274 3.11035 1.49874
0.977089 3.11035 1.47344
0.917902 3.11035 1.47344
0.903138 3.11035 1.49875
0.888384 3.11035 1.47344
0.932681 3.11035 1.49875
0.903138 3.11035 1.49875
0.917902 3.11035 1.47344
0.903119 3.11035 1.39765
0.932664 3.11035 1.39765
0.917893 3.11035 1.42289
0.917893 3.11035 1.42289
0.888374 3.11035 1.42289
0.903119 3.11035 1.39765
0.903119 3.11035 1.39765
0.888374 3.11035 1.42289
0.873625 3.11035 1.39764
0.917893 3.11035 1.42289
0.932664 3.11035 1.39765
0.947463 3.11035 1.4229
0.962233 3.11035 1.34723
0.977066 3.11035 1.37244
0.947444 3.11035 1.37243
0.947444 3.11035 1.37243
0.932637 3.11035 1.34723
0.962233 3.11035 1.34723
0.741456 3.11035 1.52409
0.756104 3.11035 1.49875
0.770765 3.11035 1.52409
0.756104 3.11035 1.49875
0.785431 3.11035 1.49875
0.770765 3.11035 1.52409
0.903133 3.11035 1.44816
0.888374 3.11035 1.42289
0.917893 3.11035 1.42289
0.903133 3.11035 1.44816
0.917902 3.11035 1.47344
0.888384 3.11035 1.47344
0.888384 3.11035 1.47344
0.858913 3.11035 1.47344
0.873639 3.11035 1.44815
0.873639 3.11035 1.44815
0.903133 3.11035 1.44816
0.888384 3.11035 1.47344
0.888374 3.11035 1.42289
0.903133 3.11035 1.44816
0.873639 3.11035 1.44815
0.873625 3.11035 1.39764
0.844177 3.11035 1.39764
0.858884 3.11035 1.37241
0.844153 3.11035 1.34719
0.873599 3.11035 1.34721
0.858884 3.11035 1.37241
0.318069 3.11035 1.49868
0.303471 3.11035 1.52401
0.288852 3.11035 1.49867
0.288852 3.11035 1.49867
0.303454 3.11035 1.47336
0.318069 3.11035 1.49868
0.00864568 3.11035 1.11987
1.4958e-13 3.11035 1.14509
-9.64495e-14 3.11035 1.09442
0 3.11035 1.045
0.00987207 3.11035 1.06971
-9.64495e-14 3.11035 1.09442
0.0264295 3.11035 1.1957
1.50097e-13 3.11035 1.19567
0.00849117 3.11035 1.17042
1.50097e-13 3.11035 1.19567
1.4958e-13 3.11035 1.14509
0.00849117 3.11035 1.17042
1.28831 3.11035 1.045
1.27826 3.11035 1.07075
1.26122 3.11035 1.045
1.49791e-13 3.11035 1.29657
1.50032e-13 3.11035 1.24614
0.00859461 3.11035 1.27136
0.00859461 3.11035 1.27136
0.0264927 3.11035 1.29656
1.49791e-13 3.11035 1.29657
0.0264637 3.11035 1.24613
0.00859461 3.11035 1.27136
1.50032e-13 3.11035 1.24614
0.0264637 3.11035 1.24613
0.0391815 3.11035 1.22094
0.0549232 3.11035 1.24616
0.0392276 3.11035 1.27135
0.0689903 3.11035 1.27137
0.0549577 3.11035 1.29657
0.0549577 3.11035 1.29657
0.0264927 3.11035 1.29656
0.0392276 3.11035 1.27135
0.0549232 3.11035 1.24616
0.0689903 3.11035 1.27137
0.0392276 3.11035 1.27135
0.0392276 3.11035 1.27135
0.0264637 3.11035 1.24613
0.0549232 3.11035 1.24616
0.0264927 3.11035 1.29656
0.00859461 3.11035 1.27136
0.0392276 3.11035 1.27135
0.00859461 3.11035 1.27136
0.0264637 3.11035 1.24613
0.0392276 3.11035 1.27135
0.00854014 3.11035 1.22091
1.50032e-13 3.11035 1.24614
1.50097e-13 3.11035 1.19567
0.00854014 3.11035 1.22091
1.50097e-13 3.11035 1.19567
0.0264295 3.11035 1.1957
0.0264295 3.11035 1.1957
0.0391815 3.11035 1.22094
0.00854014 3.11035 1.22091
0.00854014 3.11035 1.22091
0.0264637 3.11035 1.24613
1.50032e-13 3.11035 1.24614
0.0391815 3.11035 1.22094
0.0264637 3.11035 1.24613
0.00854014 3.11035 1.22091
0.0690987 3.11035 1.47329
0.0550443 3.11035 1.4986
0.0393425 3.11035 1.47329
0.0550443 3.11035 1.4986
0.0265544 3.11035 1.4986
0.0393425 3.11035 1.47329
0.0393425 3.11035 1.47329
0.0550252 3.11035 1.448
0.0690987 3.11035 1.47329
0.0690242 3.11035 1.32179
0.0549577 3.11035 1.29657
0.0840033 3.11035 1.29659
0.0392653 3.11035 1.32178
0.0549577 3.11035 1.29657
0.0690242 3.11035 1.32179
0.0984777 3.11035 1.3218
0.0690242 3.11035 1.32179
0.0840033 3.11035 1.29659
0.0840313 3.11035 1.34701
0.0690242 3.11035 1.32179
0.0984777 3.11035 1.3218
0.0840313 3.11035 1.34701
0.0984777 3.11035 1.3218
0.113251 3.11035 1.34702
0.303441 3.11035 1.4228
0.318055 3.11035 1.44807
0.288836 3.11035 1.44807
0.288836 3.11035 1.44807
0.318055 3.11035 1.44807
0.303454 3.11035 1.47336
0.186476 3.11035 1.47332
0.215741 3.11035 1.47333
0.201123 3.11035 1.49863
0.201103 3.11035 1.44804
0.215741 3.11035 1.47333
0.186476 3.11035 1.47332
0.215723 3.11035 1.42277
0.201085 3.11035 1.39752
0.230345 3.11035 1.39753
0.201103 3.11035 1.44804
0.186456 3.11035 1.42276
0.215723 3.11035 1.42277
0.215723 3.11035 1.42277
0.186456 3.11035 1.42276
0.201085 3.11035 1.39752
0.215762 3.11035 1.52398
0.245012 3.11035 1.52399
0.230402 3.11035 1.54934
0.157245 3.11035 1.5747
0.171881 3.11035 1.54932
0.186525 3.11035 1.57471
0.171857 3.11035 1.49862
[...]
<PointData Scalars="View Factor" >
<DataArray type="Float64" Name="View Factor" NumberOfComponents="1" format="ascii">
0.098138
0.098138
0.098138
0.194418
0.194418
0.194418
0.191237
0.191237
0.191237
0.340529
0.340529
0.340529
0.349702
0.349702
0.349702
0.18745
0.18745
0.18745
0.119462
0.119462
0.119462
0.137696
0.137696
0.137696
0.118524
0.118524
0.118524
0.140604
0.140604
0.140604
0.143094
0.143094
0.143094
0.146593
0.146593
0.146593
0.182788
0.182788
0.182788
0.186508
0.186508
0.186508
0.181928
0.181928
0.181928
0.189411
0.189411
0.189411
0.162039
0.162039
0.162039
0.165078
0.165078
0.165078
0.165959
0.165959
0.165959
0.180051
0.180051
0.180051
0.183099
0.183099
0.183099
0.11645
0.11645
0.11645
0.198984
0.198984
0.198984
0.00797052
0.00797052
0.00797052
0.0791239
0.0791239
0.0791239
0.0636331
0.0636331
0.0636331
0.0890458
0.0890458
0.0890458
0.11009
0.11009
0.11009
0.10196
0.10196
0.10196
0.154914
0.154914
0.154914
0.119446
0.119446
0.119446
0.148927
0.148927
0.148927
0.134657
0.134657
0.134657
0.114624
0.114624
0.114624
0.142745
0.142745
0.142745
0.131856
0.131856
0.131856
0.115016
0.115016
0.115016
0.104196
0.104196
0.104196
0.101273
0.101273
0.101273
0.0992705
0.0992705
0.0992705
0
0
0
0
0
0
0
0
0
0
0
0
0.126211
0.126211
0.126211
0.134399
0.134399
0.134399
0.158777
0.158777
0.158777
0.161715
0.161715
0.161715
0.159268
0.159268
0.159268
0.167677
0.167677
0.167677
0.169393
0.169393
0.169393
0.172304
0.172304
0.172304
0.176439
0.176439
0.176439
0.118242
0.118242
0.118242
0.12931
0.12931
0.12931
0.132049
0.132049
0.132049
0.125688
0.125688
0.125688
0.123129
0.123129
0.123129
0.124253
0.124253
0.124253
0.136927
0.136927
0.136927
0.13409
0.13409
0.13409
0.194124
0.194124
0.194124
0.198018
0.198018
0.198018
0.193241
0.193241
0.193241
0.233593
0.233593
0.233593
0.224906
0.224906
0.224906
0.202942
0.202942
0.202942
0.205977
0.205977
0.205977
0.0917099
0.0917099
0.0917099
0.221267
0.221267
0.221267
0.221952
0.221952
0.221952
0.212258
0.212258
0.212258
0.220637
0.220637
0.220637
0.215251
0.215251
0.215251
0.0985861
0.0985861
0.0985861
0.0250003
0.0250003
0.0250003
0.038272
0.038272
0.038272
0.0344395
0.0344395
0.0344395
0.0230582
0.0230582
0.0230582
0.0137258
0.0137258
0.0137258
0.0478106
0.0478106
0.0478106
0.0704197
0.0704197
0.0704197
0.0568701
0.0568701
0.0568701
0
0
0
0
0
0
0.0235319
0.0235319
0.0235319
0.0245029
0.0245029
0.0245029
0.00552553
0.00552553
0.00552553
0.0145671
0.0145671
0.0145671
0.0142862
0.0142862
0.0142862
0
0
0
0
0
0
0
0
0
0
0
0
0.0916076
0.0916076
0.0916076
0.0857515
0.0857515
0.0857515
0.094369
0.094369
0.094369
0.0979243
0.0979243
0.0979243
0.0963493
0.0963493
0.0963493
0.11183
0.11183
0.11183
0.107702
0.107702
0.107702
0.10307
0.10307
0.10307
0.0817517
0.0817517
0.0817517
0.0745682
0.0745682
0.0745682
0.0871668
0.0871668
0.0871668
0.0730361
0.0730361
0.0730361
0.0835201
0.0835201
0.0835201
0.0976221
0.0976221
0.0976221
0.0955187
0.0955187
0.0955187
0.104658
0.104658
0.104658
0.0964761
0.0964761
0.0964761
0.0894654
0.0894654
0.0894654
0.100826
0.100826
0.100826
0.0914413
0.0914413
0.0914413
0.0953611
0.0953611
0.0953611
0.112274
0.112274
0.112274
0.0934543
0.0934543
0.0934543
0.0649131
0.0649131
0.0649131
0.0777225
0.0777225
0.0777225
0.0540785
0.0540785
0.0540785
0.055111
0.055111
0.055111
0.0448031
0.0448031
0.0448031
0
0
0
0
0
0
0.00375168
0.00375168
0.00375168
0.00370942
0.00370942
0.00370942
0.000815123
0.000815123
0.000815123
0.00362561
0.00362561
0.00362561
0.00358406
0.00358406
0.00358406
0
0
0
0.012576
0.012576
0.012576
0.00739895
0.00739895
0.00739895
0.0118166
0.0118166
0.0118166
0.0853285
0.0853285
0.0853285
0.0774974
0.0774974
0.0774974
0.0639903
0.0639903
0.0639903
0.0226091
0.0226091
0.0226091
0.0821241
0.0821241
0.0821241
0.0805578
0.0805578
0.0805578
0.0651778
0.0651778
0.0651778
0.0131995
0.0131995
0.0131995
0.275584
0.275584
0.275584
0.349142
0.349142
0.349142
0
0
0
0
0
0
0
0
0
0
0
0
0
0
0
0
0
0
0
0
0
0
0
0
0
0
0
0
0
0
0.00400951
0.00400951
0.00400951
0
0
0
0
0
0
0
0
0
0
0
0
0
0
0
0
0
0
0
0
0
0
0
0
0
0
0
0
0
0
0
0
0
0
0
0
0
0
0
0
0
0
0
0
0
0
0
0
0
0
0
0.303617
0.303617
0.303617
0.311623
0.311623
0.311623
0.283605
0.283605
0.283605
0.271017
0.271017
0.271017
0.322524
0.322524
0.322524
0.325727
0.325727
0.325727
0.321343
0.321343
0.321343
0.310494
0.310494
0.310494
0.320094
0.320094
0.320094
0.324493
0.324493
0.324493
0.295014
0.295014
0.295014
0.270066
0.270066
0.270066
0.3093
0.3093
0.3093
0.302491
0.302491
0.302491
0.282569
0.282569
0.282569
0.269058
0.269058
0.269058
0.264416
0.264416
0.264416
0.324436
0.324436
0.324436
0.295277
0.295277
0.295277
0.199096
0.199096
0.199096
0.230204
0.230204
0.230204
0.220934
0.220934
0.220934
0.18377
0.18377
0.18377
0.188463
0.188463
0.188463
0.184701
0.184701
0.184701
0.186546
0.186546
0.186546
0.0799635
0.0799635
0.0799635
0.0818633
0.0818633
0.0818633
0.0899194
0.0899194
0.0899194
0.166643
0.166643
0.166643
0.162986
0.162986
0.162986
0.156012
0.156012
0.156012
0.155166
0.155166
0.155166
0.152305
0.152305
0.152305
0.149675
0.149675
0.149675
0.15198
0.15198
0.15198
0.179124
0.179124
0.179124
0.180078
0.180078
0.180078
0.178275
0.178275
0.178275
0.17115
0.17115
0.17115
0.177357
0.177357
0.177357
0.173775
0.173775
0.173775
0.175526
0.175526
0.175526
0.171983
0.171983
0.171983
0.124
0.124
0.124
0.121429
0.121429
0.121429
0.120745
0.120745
0.120745
0.114044
0.114044
0.114044
0.123025
0.123025
0.123025
0.122439
0.122439
0.122439
0.133391
0.133391
0.133391
0.131911
0.131911
0.131911
0.135459
0.135459
0.135459
0.13471
0.13471
0.13471
0.201075
0.201075
0.201075
0.205077
0.205077
0.205077
0.20815
0.20815
0.20815
0.238008
0.238008
0.238008
0.261059
0.261059
0.261059
0.306532
0.306532
0.306532
0.0103026
0.0103026
0.0103026
0.0210101
0.0210101
0.0210101
0.021371
0.021371
0.021371
0.225658
0.225658
0.225658
0.234588
0.234588
0.234588
0.240394
0.240394
0.240394
0.235906
0.235906
0.235906
0.145785
0.145785
0.145785
0.1622
0.1622
0.1622
0.154676
0.154676
0.154676
0.157193
0.157193
0.157193
0.175037
0.175037
0.175037
0.168727
0.168727
0.168727
0.16481
0.16481
0.16481
0.21325
0.21325
0.21325
0.217417
0.217417
0.217417
0.21004
0.21004
0.21004
0.232589
0.232589
0.232589
0.23595
0.23595
0.23595
0.228223
0.228223
0.228223
0.227173
0.227173
0.227173
0.233929
0.233929
0.233929
0.229525
0.229525
0.229525
0.142559
0.142559
0.142559
0.144408
0.144408
0.144408
0.147656
0.147656
0.147656
0.0941468
0.0941468
0.0941468
0.0151513
0.0151513
0.0151513
0.00562865
0.00562865
0.00562865
0.0390787
0.0390787
0.0390787
0
0
0
0
0
0
0
0
0
0
0
0
0
0
0
0
0
0
0
0
0
0
0
0
0
0
0
0
0
0
0
0
0
0
0
0
0
0
0
0
0
0
0.0521857
0.0521857
0.0521857
0.0681445
0.0681445
0.0681445
0.0827377
0.0827377
0.0827377
0.0808703
0.0808703
0.0808703
0
0
0
0
0
0
0
0
0
0.0134582
0.0134582
0.0134582
0.0129246
0.0129246
0.0129246
0.00503181
0.00503181
0.00503181
0.00493745
0.00493745
0.00493745
0.0322999
0.0322999
0.0322999
0.0216845
0.0216845
0.0216845
0.0221345
0.0221345
0.0221345
0.0337131
0.0337131
0.0337131
0.0457439
0.0457439
0.0457439
0.0447404
0.0447404
0.0447404
0.0772441
0.0772441
0.0772441
0.0919925
0.0919925
0.0919925
0
0
0
0
0
0
0
0
0
0
0
0
0
0
0
0
0
0
0
0
0
0
0
0
0
0
0
0
0
0
0
0
0
0
0
0
0
0
0
0
0
0
0
0
0
0
0
0
0
0
0
0
0
0
0
0
0
0
0
0
0
0
0
0
0
0
0
0
0
0
0
0
0
0
0
0
0
0
0
0
0
0
0
0
0
0
0
0
0
0
0
0
0
0
0
0
0
0
0
0
0
0
0
0
0
0
0
0
0.043229
0.043229
0.043229
0.0520645
0.0520645
0.0520645
0.0424597
0.0424597
0.0424597
0
0
0
0
0
0
0
0
0
0
0
0
0
0
0
0
0
0
0
0
0
0
0
0
0.0975803
0.0975803
0.0975803
0.0978278
0.0978278
0.0978278
0.0972552
0.0972552
0.0972552
0.0908324
0.0908324
0.0908324
0.10365
0.10365
0.10365
0.101498
0.101498
0.101498
0.110634
0.110634
0.110634
0.105738
0.105738
0.105738
0.16505
0.16505
0.16505
0.152098
0.152098
0.152098
0.145291
0.145291
0.145291
0.139734
0.139734
0.139734
0.126401
0.126401
0.126401
0.13618
0.13618
0.13618
0.125478
0.125478
0.125478
0.101124
0.101124
0.101124
0.116062
0.116062
0.116062
0.117555
0.117555
0.117555
0.127573
0.127573
0.127573
0.122785
0.122785
0.122785
0.108803
0.108803
0.108803
0.111176
0.111176
0.111176
0.0990133
0.0990133
0.0990133
0.0843997
0.0843997
0.0843997
0.0572273
0.0572273
0.0572273
0.045608
0.045608
0.045608
0.0929172
0.0929172
0.0929172
0.0793454
0.0793454
0.0793454
0.0949103
0.0949103
0.0949103
0.0826836
0.0826836
0.0826836
0.0675432
0.0675432
0.0675432
0.0688935
0.0688935
0.0688935
0.087926
0.087926
0.087926
0.0897369
0.0897369
0.0897369
0.0760033
0.0760033
0.0760033
0.0616669
0.0616669
0.0616669
0
0
0
0
0
0
0
0
0
0
0
0
0
0
0
0
0
0
0
0
0
0
0
0
0
0
0
0
0
0
0.0116677
0.0116677
0.0116677
0.0113731
0.0113731
0.0113731
0.00722404
0.00722404
0.00722404
0.00713739
0.00713739
0.00713739
0.0169793
0.0169793
0.0169793
0.01675
0.01675
0.01675
0.00383683
0.00383683
0.00383683
0.00748718
0.00748718
0.00748718
0.000888489
0.000888489
0.000888489
0.00775481
0.00775481
0.00775481
0.00766513
0.00766513
0.00766513
0.00387971
0.00387971
0.00387971
0.00396606
0.00396606
0.00396606
0.000897838
0.000897838
0.000897838
0.0130424
0.0130424
0.0130424
0.00802646
0.00802646
0.00802646
0.0079355
0.0079355
0.0079355
0.0127306
0.0127306
0.0127306
0.0188788
0.0188788
0.0188788
0.025628
0.025628
0.025628
0.0191237
0.0191237
0.0191237
0.0183937
0.0183937
0.0183937
0.0498109
0.0498109
0.0498109
0.0302461
0.0302461
0.0302461
0.050687
0.050687
0.050687
0.0399493
0.0399493
0.0399493
0.0688427
0.0688427
0.0688427
0.0676041
0.0676041
0.0676041
0.0419357
0.0419357
0.0419357
0.0533853
0.0533853
0.0533853
0.0406039
0.0406039
0.0406039
0.0524743
0.0524743
0.0524743
0.0259762
0.0259762
0.0259762
0.0356103
0.0356103
0.0356103
0.0196178
0.0196178
0.0196178
0.0468237
0.0468237
0.0468237
0.0610751
0.0610751
0.0610751
0.0361231
0.0361231
0.0361231
0
0
0
0.00820953
0.00820953
0.00820953
0.00830159
0.00830159
0.00830159
0.00422908
0.00422908
0.00422908
0.000954564
0.000954564
0.000954564
0.352155
0.352155
0.352155
0.337131
0.337131
0.337131
0.343944
0.343944
0.343944
0.222942
0.222942
0.222942
0.215718
0.215718
0.215718
0.19375
0.19375
0.19375
0.250507
0.250507
0.250507
0.243474
0.243474
0.243474
0.239637
0.239637
0.239637
0.216577
0.216577
0.216577
0.22242
0.22242
0.22242
0.207663
0.207663
0.207663
0.172397
0.172397
0.172397
0.179102
0.179102
0.179102
0
0
0
0
0
0
0
0
0
0
0
0
0.000860664
0.000860664
0.000860664
0.000869901
0.000869901
0.000869901
0
0
0
0.000916634
0.000916634
0.000916634
0
0
0
0
0
0
0
0
0
0
0
0
0
0
0
0
0
0
0
0
0
0
0
0
0
0
0
0
0
0
0
0
0
0
0
0
0
0
0
0
0
0
0
0
0
0
0
0
0
0
0
0
0
0
0.00588332
0.00588332
0.00588332
0.0134594
0.0134594
0.0134594
0.00585524
0.00585524
0.00585524
0.00233084
0.00233084
0.00233084
0
0
0
0
0
0
0.00231946
0.00231946
0.00231946
0
0
0
0
0
0
0
0
0
0
0
0
0
0
0
0
0
0
0
0
0
0
0
0
0
0
0
0
0
0
0
0
0
0
0
0
0
0
0
0
0
0
0
0
0
0
0
0
0
0
0
0
0
0
0
0
0
0
0
0
0
0
0
0
0
0
0
0
0
0.00771564
0.00771564
0.00771564
0.00758958
0.00758958
0.00758958
0
0
0
0
0
0
0
0
0
0
0
0
0
0
0
0
0
0
0
0
0
0
0
0
0
0
0
0
0
0
0
0
0
0.0617032
0.0617032
0.0617032
0.306624
0.306624
0.306624
0.326894
0.326894
0.326894
0.265956
0.265956
0.265956
0.297241
0.297241
0.297241
0.0133939
0.0133939
0.0133939
0.018657
0.018657
0.018657
0.00848663
0.00848663
0.00848663
0.00427339
0.00427339
0.00427339
0.314634
0.314634
0.314634
0.0414012
0.0414012
0.0414012
0
0
0
0.0139332
0.0139332
0.0139332
0.0765246
0.0765246
0.0765246
0
0
0
0
0
0
0
0
0
0
0
0
0
0
0
0
0
0
0.0409966
0.0409966
0.0409966
0.201957
0.201957
0.201957
0.263987
0.263987
0.263987
0.264999
0.264999
0.264999
0.296158
0.296158
0.296158
0.0137019
0.0137019
0.0137019
0.00238123
0.00238123
0.00238123
0.00598467
0.00598467
0.00598467
0.0324482
0.0324482
0.0324482
0.040846
0.040846
0.040846
0.0325711
0.0325711
0.0325711
0.0190748
0.0190748
0.0190748
0
0
0
0.00234178
0.00234178
0.00234178
0.263092
0.263092
0.263092
0.276434
0.276434
0.276434
0.301299
0.301299
0.301299
0.267991
0.267991
0.267991
0.281473
0.281473
0.281473
0.265672
0.265672
0.265672
0.277796
0.277796
0.277796
0.297311
0.297311
0.297311
0.305299
0.305299
0.305299
0.295861
0.295861
0.295861
0.283169
0.283169
0.283169
0.313604
0.313604
0.313604
0.323216
0.323216
0.323216
0.322482
0.322482
0.322482
0.221678
0.221678
0.221678
0.236164
0.236164
0.236164
0.248931
0.248931
0.248931
0.231185
0.231185
0.231185
0.196248
0.196248
0.196248
0.183955
0.183955
0.183955
0.283747
0.283747
0.283747
0.256107
0.256107
0.256107
0.315213
0.315213
0.315213
0.311966
0.311966
0.311966
0.310689
0.310689
0.310689
0.314109
0.314109
0.314109
0.312308
0.312308
0.312308
0.191334
0.191334
0.191334
0.190348
0.190348
0.190348
0.184538
0.184538
0.184538
0.18837
0.18837
0.18837
0.170192
0.170192
0.170192
0.16326
0.16326
0.16326
0.17262
0.17262
0.17262
0.173411
0.173411
0.173411
0.177058
0.177058
0.177058
0.175091
0.175091
0.175091
0.169067
0.169067
0.169067
0.162843
0.162843
0.162843
0.166303
0.166303
0.166303
0.162145
0.162145
0.162145
0.164538
0.164538
0.164538
0.167994
0.167994
0.167994
0.159733
0.159733
0.159733
0.159543
0.159543
0.159543
0.156107
0.156107
0.156107
0.156371
0.156371
0.156371
0.152846
0.152846
0.152846
0.148023
0.148023
0.148023
0.153811
0.153811
0.153811
0.155362
0.155362
0.155362
0.152037
0.152037
0.152037
0.157618
0.157618
0.157618
0.160912
0.160912
0.160912
0.146463
0.146463
0.146463
0.152831
0.152831
0.152831
0.15121
0.15121
0.15121
0.159903
0.159903
0.159903
0.157809
0.157809
0.157809
0.106486
0.106486
0.106486
0.113396
0.113396
0.113396
0.111045
0.111045
0.111045
0.107119
0.107119
0.107119
0.109381
0.109381
0.109381
0.111331
0.111331
0.111331
0.104579
0.104579
0.104579
0.120562
0.120562
0.120562
0.115585
0.115585
0.115585
0.111766
0.111766
0.111766
0.113173
0.113173
0.113173
0.12385
0.12385
0.12385
0.126482
0.126482
0.126482
0.12196
0.12196
0.12196
0.122654
0.122654
0.122654
0.130623
0.130623
0.130623
0.128584
0.128584
0.128584
0.125915
0.125915
0.125915
0.125255
0.125255
0.125255
0.129892
0.129892
0.129892
0.127193
0.127193
0.127193
0.13521
0.13521
0.13521
0.136782
0.136782
0.136782
0.127761
0.127761
0.127761
0.130505
0.130505
0.130505
0.12691
0.12691
0.12691
0.132387
0.132387
0.132387
0.128424
0.128424
0.128424
0.131154
0.131154
0.131154
0.24288
0.24288
0.24288
0.24041
0.24041
0.24041
0.241465
0.241465
0.241465
0.263831
0.263831
0.263831
0.23023
0.23023
0.23023
0.225909
0.225909
0.225909
0.315401
0.315401
0.315401
0.315296
0.315296
0.315296
0.301006
0.301006
0.301006
0.308112
0.308112
0.308112
0.00582606
0.00582606
0.00582606
0.00230765
0.00230765
0.00230765
0.0022954
0.0022954
0.0022954
0.00576437
0.00576437
0.00576437
0.00579577
0.00579577
0.00579577
0.0131818
0.0131818
0.0131818
0.0183658
0.0183658
0.0183658
0.0132551
0.0132551
0.0132551
0.0260283
0.0260283
0.0260283
0.0656544
0.0656544
0.0656544
0.29475
0.29475
0.29475
0.27314
0.27314
0.27314
0.0364915
0.0364915
0.0364915
0.0557487
0.0557487
0.0557487
0.0964694
0.0964694
0.0964694
0.155562
0.155562
0.155562
0.145779
0.145779
0.145779
0.116636
0.116636
0.116636
0.107128
0.107128
0.107128
0.137234
0.137234
0.137234
0.0692574
0.0692574
0.0692574
0.0540582
0.0540582
0.0540582
0.0343502
0.0343502
0.0343502
0.0272059
0.0272059
0.0272059
0.0390981
0.0390981
0.0390981
0.0623764
0.0623764
0.0623764
0.177493
0.177493
0.177493
0.162077
0.162077
0.162077
0.169331
0.169331
0.169331
0.172996
0.172996
0.172996
0.0794849
0.0794849
0.0794849
0.0989852
0.0989852
0.0989852
0.101178
0.101178
0.101178
0.0829754
0.0829754
0.0829754
0.172726
0.172726
0.172726
0.165579
0.165579
0.165579
0.184302
0.184302
0.184302
0.180482
0.180482
0.180482
0.131674
0.131674
0.131674
0.151505
0.151505
0.151505
0.154758
0.154758
0.154758
0.137384
0.137384
0.137384
0.128877
0.128877
0.128877
0.145132
0.145132
0.145132
0.0847611
0.0847611
0.0847611
0.0884113
0.0884113
0.0884113
0.105668
0.105668
0.105668
0.107965
0.107965
0.107965
0.233109
0.233109
0.233109
0.226233
0.226233
0.226233
0.253853
0.253853
0.253853
0.252762
0.252762
0.252762
0.239121
0.239121
0.239121
0.244377
0.244377
0.244377
0.24923
0.24923
0.24923
0.223958
0.223958
0.223958
0.228385
0.228385
0.228385
0.176369
0.176369
0.176369
0.192085
0.192085
0.192085
0.179625
0.179625
0.179625
0.162164
0.162164
0.162164
0.173737
0.173737
0.173737
0.165712
0.165712
0.165712
0.170057
0.170057
0.170057
0.158096
0.158096
0.158096
0.165121
0.165121
0.165121
0.167713
0.167713
0.167713
0.164144
0.164144
0.164144
0.154334
0.154334
0.154334
0.157765
0.157765
0.157765
0.184946
0.184946
0.184946
0.188866
0.188866
0.188866
0.192785
0.192785
0.192785
0.19276
0.19276
0.19276
0.199447
0.199447
0.199447
0.185173
0.185173
0.185173
0.189094
0.189094
0.189094
0.210974
0.210974
0.210974
0.203876
0.203876
0.203876
0.211023
0.211023
0.211023
0.206248
0.206248
0.206248
0.227075
0.227075
0.227075
0.225511
0.225511
0.225511
0.228685
0.228685
0.228685
0.06968
0.06968
0.06968
0.0544951
0.0544951
0.0544951
0.0777808
0.0777808
0.0777808
0.0593572
0.0593572
0.0593572
0.136287
0.136287
0.136287
0.110916
0.110916
0.110916
0.108387
0.108387
0.108387
0.124125
0.124125
0.124125
0.118557
0.118557
0.118557
0.132711
0.132711
0.132711
0.129727
0.129727
0.129727
0.0154453
0.0154453
0.0154453
0.0265397
0.0265397
0.0265397
0.0260188
0.0260188
0.0260188
0.0160464
0.0160464
0.0160464
0.00594664
0.00594664
0.00594664
0.00583921
0.00583921
0.00583921
0
0
0
0
0
0
0
0
0
0
0
0
0
0
0
0
0
0
0
0
0
0
0
0
0
0
0
0
0
0
0
0
0
0
0
0
0
0
0
0
0
0
0
0
0
0
0
0
0.0510615
0.0510615
0.0510615
0.048874
0.048874
0.048874
0.0637076
0.0637076
0.0637076
0.0651584
0.0651584
0.0651584
0.0359323
0.0359323
0.0359323
0.0366988
0.0366988
0.0366988
0
0
0
0
0
0
0
0
0
0
0
0
0
0
0
0
0
0
0
0
0
0
0
0
0
0
0
0
0
0
0
0
0
0
0
0
0
0
0
0
0
0
0.0460066
0.0460066
0.0460066
0.0632131
0.0632131
0.0632131
0.0619082
0.0619082
0.0619082
0.0754849
0.0754849
0.0754849
0.072073
0.072073
0.072073
0.0857878
0.0857878
0.0857878
0.0878133
0.0878133
0.0878133
0.0595225
0.0595225
0.0595225
0.0608898
0.0608898
0.0608898
0
0
0
0
0
0
0
0
0
0
0
0
0
0
0
0
0
0
0
0
0
0
0
0
0
0
0
0
0
0
0
0
0
0
0
0
0
0
0
0
0
0
0
0
0
0
0
0
0
0
0
0
0
0
0
0
0
0
0
0
0
0
0
0
0
0
0
0
0
0
0
0
0
0
0
0
0
0
0
0
0
0
0
0
0
0
0
0
0
0
0
0
0
0
0
0
0.00522491
0.00522491
0.00522491
0.00532366
0.00532366
0.00532366
0
0
0
0
0
0
0
0
0
0
0
0
0
0
0
0
0
0
0.000806154
0.000806154
0.000806154
0
0
0
0
0
0
0.000842315
0.000842315
0.000842315
0.000833205
0.000833205
0.000833205
0
0
0
0
0
0
0
0
0
0.0349919
0.0349919
0.0349919
0.0344077
0.0344077
0.0344077
0.0262857
0.0262857
0.0262857
0.0271303
0.0271303
0.0271303
0
0
0
0
0
0
0
0
0
0
0
0
0
0
0
0
0
0
0
0
0
0
0
0
0
0
0
0
0
0
0
0
0
0
0
0
0
0
0
0
0
0
0
0
0
0
0
0
0
0
0
0
0
0
0
0
0
0
0
0
0
0
0
0
0
0
0
0
0
0
0
0
0
0
0
0
0
0
0
0
0
0
0
0
0
0
0
0
0
0
0
0
0
0
0
0
0
0
0
0.0480127
0.0480127
0.0480127
0.0722152
0.0722152
0.0722152
0.0632596
0.0632596
0.0632596
0.0568477
0.0568477
0.0568477
0.0328781
0.0328781
0.0328781
0.0405455
0.0405455
0.0405455
0.0700609
0.0700609
0.0700609
0.0883114
0.0883114
0.0883114
0.0902887
0.0902887
0.0902887
0.0380901
0.0380901
0.0380901
0.0464233
0.0464233
0.0464233
0.115579
0.115579
0.115579
0.120719
0.120719
0.120719
0.118145
0.118145
0.118145
0.120724
0.120724
0.120724
0.102296
0.102296
0.102296
0.119446
0.119446
0.119446
0.124843
0.124843
0.124843
0.111769
0.111769
0.111769
0.110312
0.110312
0.110312
0.112808
0.112808
0.112808
0.116832
0.116832
0.116832
0.117715
0.117715
0.117715
0.11516
0.11516
0.11516
0.0967809
0.0967809
0.0967809
0.0978796
0.0978796
0.0978796
0.095326
0.095326
0.095326
0.117862
0.117862
0.117862
0.119858
0.119858
0.119858
0.119102
0.119102
0.119102
0.116605
0.116605
0.116605
0.0987721
0.0987721
0.0987721
0.0981404
0.0981404
0.0981404
0.107743
0.107743
0.107743
0.105479
0.105479
0.105479
0.109425
0.109425
0.109425
0.1049
0.1049
0.1049
0.102717
0.102717
0.102717
0.101877
0.101877
0.101877
0.0990912
0.0990912
0.0990912
0.101143
0.101143
0.101143
0.0985807
0.0985807
0.0985807
0.0996863
0.0996863
0.0996863
0.0943784
0.0943784
0.0943784
0.103372
0.103372
0.103372
0.0987963
0.0987963
0.0987963
0.0959588
0.0959588
0.0959588
0.0981822
0.0981822
0.0981822
0.0965909
0.0965909
0.0965909
0.10117
0.10117
0.10117
0.105164
0.105164
0.105164
0.102784
0.102784
0.102784
0.0916293
0.0916293
0.0916293
0.0937992
0.0937992