<VTKFile type="UnstructuredGrid" version="1.0">
<UnstructuredGrid>
<Piece NumberOfPoints="10830" NumberOfCells="3610">
<Points>
<DataArray type="Float64" NumberOfComponents="3" format="ascii">
3.10314 1.29552 12.5657
3.11025 1.28841 12.54
3.11025 1.28841 12.5915
3.11025 1.28841 13.0951
3.11025 1.28841 13.146
3.10226 1.2964 13.1205
3.11025 1.28841 13.0951
3.10226 1.2964 13.1205
3.09025 1.30841 13.0951
2.21656 2.1821 13.5676
2.22913 2.16953 13.585
2.19928 2.19938 13.585
2.19928 2.19938 13.585
2.19928 2.19938 13.5548
2.21656 2.1821 13.5676
3.11025 1.28841 13.0951
3.09025 1.30841 13.0951
3.10227 1.29639 13.0697
2.20538 2.19328 12.8168
2.19928 2.19938 12.842
2.19928 2.19938 12.7916
3.10229 1.29637 12.8169
3.11025 1.28841 12.8421
3.09026 1.3084 12.8421
3.10214 1.29652 12.7163
3.11025 1.28841 12.6913
3.11025 1.28841 12.7414
3.09026 1.3084 12.8421
3.11025 1.28841 12.8421
3.1023 1.29636 12.8673
3.11025 1.28841 12.8421
3.11025 1.28841 12.8925
3.1023 1.29636 12.8673
3.09026 1.3084 12.8926
3.1023 1.29636 12.8673
3.11025 1.28841 12.8925
3.09025 1.30841 13.0443
3.10227 1.29639 13.0697
3.08043 1.31823 13.0697
3.08043 1.31823 13.0697
3.10227 1.29639 13.0697
3.09025 1.30841 13.0951
3.08043 1.31823 13.0697
3.06939 1.32927 13.0443
3.09025 1.30841 13.0443
3.08043 1.31823 13.0697
3.09025 1.30841 13.0951
3.06938 1.32928 13.0951
3.11025 1.28841 12.943
3.11025 1.28841 12.9936
3.10229 1.29637 12.9683
3.10229 1.29637 12.9683
3.09026 1.3084 12.9936
3.08044 1.31822 12.9683
3.11025 1.28841 12.9936
3.09026 1.3084 12.9936
3.10229 1.29637 12.9683
3.11025 1.28841 13.0443
3.10227 1.29639 13.0697
3.09025 1.30841 13.0443
3.11025 1.28841 13.0951
3.10227 1.29639 13.0697
3.11025 1.28841 13.0443
3.0901 1.30856 12.6913
3.11025 1.28841 12.6913
3.10214 1.29652 12.7163
3.09024 1.30842 13.146
3.10226 1.2964 13.1205
3.11025 1.28841 13.146
2.80657 1.59209 13.3257
2.81699 1.58167 13.3
2.8274 1.57126 13.3257
2.19928 2.19938 12.54
2.21889 2.17977 12.54
2.20626 2.1924 12.5647
2.25868 2.13998 12.7916
2.23814 2.16052 12.7916
2.24806 2.1506 12.7664
2.21801 2.18065 12.7916
2.23814 2.16052 12.7916
2.22704 2.17162 12.8168
2.21801 2.18065 12.7916
2.20538 2.19328 12.8168
2.19928 2.19938 12.7916
2.22704 2.17162 12.8168
2.20538 2.19328 12.8168
2.21801 2.18065 12.7916
2.20547 2.19319 13.0189
2.19928 2.19938 13.0443
2.19928 2.19938 12.9936
2.21807 2.1806 13.0443
2.22712 2.17155 13.0189
2.23821 2.16045 13.0443
2.19928 2.19938 13.0443
2.20547 2.19319 13.0189
2.21807 2.1806 13.0443
2.21807 2.1806 13.0443
2.20547 2.19319 13.0189
2.22712 2.17155 13.0189
2.21805 2.18061 12.9936
2.2382 2.16046 12.9936
2.22712 2.17155 13.0189
2.21805 2.18061 12.9936
2.20547 2.19319 13.0189
2.19928 2.19938 12.9936
2.22712 2.17155 13.0189
2.20547 2.19319 13.0189
2.21805 2.18061 12.9936
2.19928 2.19938 12.842
2.20538 2.19328 12.8168
2.21802 2.18064 12.842
2.21802 2.18064 12.842
2.20538 2.19328 12.8168
2.22704 2.17162 12.8168
2.23821 2.16045 13.0443
2.22712 2.17155 13.0189
2.24816 2.15051 13.0189
2.22712 2.17155 13.0189
2.2382 2.16046 12.9936
2.24816 2.15051 13.0189
2.40353 1.99513 12.9937
2.41386 1.9848 13.019
2.3932 2.00546 13.019
2.3932 2.00546 13.019
2.41386 1.9848 13.019
2.40354 1.99512 13.0444
2.40354 1.99512 13.0444
2.41386 1.9848 13.019
2.4242 1.97446 13.0444
2.79618 1.60248 13.3
2.81699 1.58167 13.3
2.80657 1.59209 13.3257
3.10224 1.29642 12.7666
3.11025 1.28841 12.7414
3.11025 1.28841 12.7917
3.11025 1.28841 12.8421
3.10229 1.29637 12.8169
3.11025 1.28841 12.7917
3.02715 1.37151 12.9431
3.006 1.39266 12.9431
3.01659 1.38207 12.9178
3.09026 1.3084 12.9431
3.10229 1.29637 12.9683
3.08044 1.31822 12.9683
3.11025 1.28841 12.943
3.10229 1.29637 12.9683
3.09026 1.3084 12.9431
3.08044 1.31822 12.9683
3.09026 1.3084 12.9936
3.0694 1.32926 12.9936
3.10228 1.29638 13.0189
3.09026 1.3084 12.9936
3.11025 1.28841 12.9936
3.11025 1.28841 12.9936
3.11025 1.28841 13.0443
3.10228 1.29638 13.0189
3.10228 1.29638 13.0189
3.11025 1.28841 13.0443
3.09025 1.30841 13.0443
3.08027 1.31839 12.7164
3.0901 1.30856 12.6913
3.10214 1.29652 12.7163
3.10224 1.29642 12.7666
3.11025 1.28841 12.7917
3.09024 1.30842 12.7917
3.09024 1.30842 12.7917
3.11025 1.28841 12.7917
3.10229 1.29637 12.8169
3.0165 1.38216 12.7666
3.00588 1.39278 12.7414
3.02702 1.37164 12.7414
3.04817 1.35049 12.7415
3.03759 1.36107 12.7163
3.05884 1.33982 12.7163
3.04817 1.35049 12.7415
3.02702 1.37164 12.7414
3.03759 1.36107 12.7163
3.08043 1.31823 12.8169
3.10229 1.29637 12.8169
3.09026 1.3084 12.8421
3.08043 1.31823 12.8169
3.09024 1.30842 12.7917
3.10229 1.29637 12.8169
3.08042 1.31824 13.1206
3.09025 1.30841 13.0951
3.10226 1.2964 13.1205
3.10226 1.2964 13.1205
3.09024 1.30842 13.146
3.08042 1.31824 13.1206
3.06938 1.32928 13.0951
3.09025 1.30841 13.0951
3.08042 1.31824 13.1206
3.08041 1.31825 13.2741
3.05901 1.33965 13.2741
3.06938 1.32928 13.2484
3.05901 1.33966 13.2227
3.08041 1.31825 13.2227
3.06938 1.32928 13.2484
3.10225 1.29641 13.1715
3.09024 1.30842 13.146
3.11025 1.28841 13.146
3.08041 1.31825 13.1716
3.09024 1.30842 13.146
3.10225 1.29641 13.1715
2.84822 1.55044 13.3773
2.85863 1.54003 13.4032
2.83776 1.5609 13.4032
2.96373 1.43493 13.2484
2.97428 1.42438 13.2228
2.98483 1.41383 13.2484
2.98483 1.41383 13.2484
2.97428 1.42438 13.2228
2.9954 1.40326 13.2228
3.06938 1.32929 13.1971
3.05901 1.33965 13.1716
3.08041 1.31825 13.1716
3.06938 1.32929 13.1971
3.08041 1.31825 13.2227
3.05901 1.33966 13.2227
2.95319 1.44547 13.2228
2.97428 1.42438 13.2228
2.96373 1.43493 13.2484
2.90067 1.49799 12.9937
2.87971 1.51895 12.9937
2.89018 1.50848 12.9684
2.84833 1.55033 12.9684
2.83789 1.56077 12.9937
2.82746 1.5712 12.9684
2.85878 1.53988 12.9937
2.83789 1.56077 12.9937
2.84833 1.55033 12.9684
2.83788 1.56078 12.8927
2.85877 1.53989 12.8927
2.84833 1.55034 12.9179
2.84833 1.55034 12.9179
2.82745 1.57121 12.9179
2.83788 1.56078 12.8927
2.83788 1.56078 12.8927
2.82745 1.57121 12.9179
2.81702 1.58164 12.8926
2.84833 1.55034 12.9179
2.85877 1.53989 12.8927
2.86924 1.52943 12.9179
2.87968 1.51898 12.8422
2.89017 1.50849 12.8674
2.86922 1.52944 12.8674
2.86922 1.52944 12.8674
2.85875 1.53991 12.8422
2.87968 1.51898 12.8422
2.72357 1.6751 13.0191
2.73392 1.66474 12.9937
2.74429 1.65437 13.0191
2.73392 1.66474 12.9937
2.75466 1.644 12.9938
2.74429 1.65437 13.0191
2.83789 1.56077 12.9432
2.82745 1.57121 12.9179
2.84833 1.55034 12.9179
2.83789 1.56077 12.9432
2.84833 1.55033 12.9684
2.82746 1.5712 12.9684
2.82746 1.5712 12.9684
2.80662 1.59204 12.9684
2.81703 1.58163 12.9432
2.81703 1.58163 12.9432
2.83789 1.56077 12.9432
2.82746 1.5712 12.9684
2.82745 1.57121 12.9179
2.83789 1.56077 12.9432
2.81703 1.58163 12.9432
2.81702 1.58164 12.8926
2.7962 1.60246 12.8926
2.8066 1.59206 12.8674
2.79618 1.60248 12.8422
2.81701 1.58166 12.8422
2.8066 1.59206 12.8674
2.42419 1.97447 12.9937
2.41386 1.9848 13.019
2.40353 1.99513 12.9937
2.40353 1.99513 12.9937
2.41385 1.98481 12.9684
2.42419 1.97447 12.9937
2.20539 2.19327 12.6149
2.19928 2.19938 12.6401
2.19928 2.19938 12.5894
2.19928 2.19938 12.54
2.20626 2.1924 12.5647
2.19928 2.19938 12.5894
2.21797 2.1807 12.6907
2.19928 2.19938 12.6907
2.20528 2.19338 12.6654
2.19928 2.19938 12.6907
2.19928 2.19938 12.6401
2.20528 2.19338 12.6654
3.11025 1.28841 12.54
3.10314 1.29552 12.5657
3.0911 1.30756 12.54
2.19928 2.19938 12.7916
2.19928 2.19938 12.7411
2.20536 2.19331 12.7664
2.20536 2.19331 12.7664
2.21801 2.18065 12.7916
2.19928 2.19938 12.7916
2.21799 2.18067 12.7411
2.20536 2.19331 12.7664
2.19928 2.19938 12.7411
2.21799 2.18067 12.7411
2.22698 2.17168 12.7159
2.23811 2.16055 12.7412
2.22702 2.17165 12.7664
2.24806 2.1506 12.7664
2.23814 2.16052 12.7916
2.23814 2.16052 12.7916
2.21801 2.18065 12.7916
2.22702 2.17165 12.7664
2.23811 2.16055 12.7412
2.24806 2.1506 12.7664
2.22702 2.17165 12.7664
2.22702 2.17165 12.7664
2.21799 2.18067 12.7411
2.23811 2.16055 12.7412
2.21801 2.18065 12.7916
2.20536 2.19331 12.7664
2.22702 2.17165 12.7664
2.20536 2.19331 12.7664
2.21799 2.18067 12.7411
2.22702 2.17165 12.7664
2.20532 2.19334 12.7159
2.19928 2.19938 12.7411
2.19928 2.19938 12.6907
2.20532 2.19334 12.7159
2.19928 2.19938 12.6907
2.21797 2.1807 12.6907
2.21797 2.1807 12.6907
2.22698 2.17168 12.7159
2.20532 2.19334 12.7159
2.20532 2.19334 12.7159
2.21799 2.18067 12.7411
2.19928 2.19938 12.7411
2.22698 2.17168 12.7159
2.21799 2.18067 12.7411
2.20532 2.19334 12.7159
2.24814 2.15052 12.9683
2.2382 2.16046 12.9936
2.2271 2.17156 12.9683
2.2382 2.16046 12.9936
2.21805 2.18061 12.9936
2.2271 2.17156 12.9683
2.2271 2.17156 12.9683
2.23819 2.16048 12.943
2.24814 2.15052 12.9683
2.24809 2.15058 12.8168
2.23814 2.16052 12.7916
2.25868 2.13998 12.7916
2.22704 2.17162 12.8168
2.23814 2.16052 12.7916
2.24809 2.15058 12.8168
2.26891 2.12975 12.8168
2.24809 2.15058 12.8168
2.25868 2.13998 12.7916
2.2587 2.13996 12.842
2.24809 2.15058 12.8168
2.26891 2.12975 12.8168
2.2587 2.13996 12.842
2.26891 2.12975 12.8168
2.27936 2.1193 12.842
2.41384 1.98482 12.9178
2.42418 1.97448 12.9431
2.40352 1.99515 12.9431
2.40352 1.99515 12.9431
2.42418 1.97448 12.9431
2.41385 1.98481 12.9684
2.33114 2.06753 12.9683
2.35183 2.04683 12.9683
2.34149 2.05717 12.9936
2.34148 2.05718 12.943
2.35183 2.04683 12.9683
2.33114 2.06753 12.9683
2.35182 2.04684 12.9178
2.34147 2.05719 12.8925
2.36216 2.03651 12.8925
2.34148 2.05718 12.943
2.33112 2.06754 12.9178
2.35182 2.04684 12.9178
2.35182 2.04684 12.9178
2.33112 2.06754 12.9178
2.34147 2.05719 12.8925
2.35184 2.04682 13.019
2.37253 2.02613 13.019
2.3622 2.03646 13.0443
2.31047 2.08819 13.0697
2.32082 2.07785 13.0443
2.33117 2.06749 13.0697
2.3208 2.07786 12.9936
2.33114 2.06753 12.9683
2.34149 2.05717 12.9936
2.31043 2.08823 12.9683
2.33114 2.06753 12.9683
2.3208 2.07786 12.9936
2.23821 2.16045 13.0443
2.24816 2.15051 13.0189
2.25876 2.1399 13.0443
2.24814 2.15052 12.9683
2.23819 2.16048 12.943
2.25873 2.13993 12.943
2.25873 2.13993 12.943
2.26896 2.1297 12.9683
2.24814 2.15052 12.9683
2.30008 2.09858 12.943
2.31043 2.08823 12.9683
2.28971 2.10895 12.9683
2.25874 2.13992 12.9936
2.24816 2.15051 13.0189
2.2382 2.16046 12.9936
[...]
<PointData Scalars="View Factor" >
<DataArray type="Float64" Name="View Factor" NumberOfComponents="1" format="ascii">
0.000135627
0.000135627
0.000135627
0.000115891
0.000115891
0.000115891
0.000115751
0.000115751
0.000115751
1.21219e-05
1.21219e-05
1.21219e-05
8.81626e-06
8.81626e-06
8.81626e-06
0.000116306
0.000116306
0.000116306
6.38195e-06
6.38195e-06
6.38195e-06
0.000124863
0.000124863
0.000124863
0.000129852
0.000129852
0.000129852
0.000124264
0.000124264
0.000124264
0.000124409
0.000124409
0.000124409
0.000123093
0.000123093
0.000123093
0.000116092
0.000116092
0.000116092
0.000115549
0.000115549
0.000115549
0.000115222
0.000115222
0.000115222
0.000114144
0.000114144
0.000114144
0.00012092
0.00012092
0.00012092
0.000118869
0.000118869
0.000118869
0.000119644
0.000119644
0.000119644
0.000117399
0.000117399
0.000117399
0.000117542
0.000117542
0.000117542
0.000129698
0.000129698
0.000129698
0.000114669
0.000114669
0.000114669
1.30827e-05
1.30827e-05
1.30827e-05
1.07465e-05
1.07465e-05
1.07465e-05
3.88009e-05
3.88009e-05
3.88009e-05
4.15055e-05
4.15055e-05
4.15055e-05
8.30693e-06
8.30693e-06
8.30693e-06
1.64926e-05
1.64926e-05
1.64926e-05
2.70103e-05
2.70103e-05
2.70103e-05
4.72637e-05
4.72637e-05
4.72637e-05
3.08808e-05
3.08808e-05
3.08808e-05
3.77162e-05
3.77162e-05
3.77162e-05
4.54776e-05
4.54776e-05
4.54776e-05
2.65016e-05
2.65016e-05
2.65016e-05
3.54555e-05
3.54555e-05
3.54555e-05
8.14851e-06
8.14851e-06
8.14851e-06
1.6397e-05
1.6397e-05
1.6397e-05
4.58629e-05
4.58629e-05
4.58629e-05
4.49331e-05
4.49331e-05
4.49331e-05
1.94858e-05
1.94858e-05
1.94858e-05
2.18434e-05
2.18434e-05
2.18434e-05
2.27801e-05
2.27801e-05
2.27801e-05
1.33458e-05
1.33458e-05
1.33458e-05
0.000128011
0.000128011
0.000128011
0.000126196
0.000126196
0.000126196
0.000111433
0.000111433
0.000111433
0.000119429
0.000119429
0.000119429
0.000120777
0.000120777
0.000120777
0.000117423
0.000117423
0.000117423
0.000119076
0.000119076
0.000119076
0.000119218
0.000119218
0.000119218
0.000117959
0.000117959
0.000117959
0.000128243
0.000128243
0.000128243
0.000126652
0.000126652
0.000126652
0.000126047
0.000126047
0.000126047
0.000117443
0.000117443
0.000117443
0.000122677
0.000122677
0.000122677
0.000120967
0.000120967
0.000120967
0.000124051
0.000124051
0.000124051
0.000124642
0.000124642
0.000124642
0.000114461
0.000114461
0.000114461
0.000113923
0.000113923
0.000113923
0.000113604
0.000113604
0.000113604
0.000107608
0.000107608
0.000107608
0.000108627
0.000108627
0.000108627
0.000114123
0.000114123
0.000114123
0.000112853
0.000112853
0.000112853
6.05727e-05
6.05727e-05
6.05727e-05
9.74918e-05
9.74918e-05
9.74918e-05
9.90307e-05
9.90307e-05
9.90307e-05
0.000110171
0.000110171
0.000110171
0.000109142
0.000109142
0.000109142
9.61212e-05
9.61212e-05
9.61212e-05
8.94396e-05
8.94396e-05
8.94396e-05
3.79956e-05
3.79956e-05
3.79956e-05
5.99567e-05
5.99567e-05
5.99567e-05
6.17394e-05
6.17394e-05
6.17394e-05
3.9e-05
3.9e-05
3.9e-05
2.75296e-06
2.75296e-06
2.75296e-06
7.38254e-05
7.38254e-05
7.38254e-05
8.915e-05
8.915e-05
8.915e-05
8.36876e-05
8.36876e-05
8.36876e-05
2.30765e-05
2.30765e-05
2.30765e-05
2.173e-05
2.173e-05
2.173e-05
3.87519e-05
3.87519e-05
3.87519e-05
3.82563e-05
3.82563e-05
3.82563e-05
1.29268e-05
1.29268e-05
1.29268e-05
1.09688e-05
1.09688e-05
1.09688e-05
7.01188e-06
7.01188e-06
7.01188e-06
2.67077e-06
2.67077e-06
2.67077e-06
2.85044e-06
2.85044e-06
2.85044e-06
1.81141e-05
1.81141e-05
1.81141e-05
1.53299e-05
1.53299e-05
1.53299e-05
8.76234e-06
8.76234e-06
8.76234e-06
9.59932e-06
9.59932e-06
9.59932e-06
8.91785e-06
8.91785e-06
8.91785e-06
8.15377e-06
8.15377e-06
8.15377e-06
0.000135527
0.000135527
0.000135527
6.90852e-06
6.90852e-06
6.90852e-06
8.37196e-06
8.37196e-06
8.37196e-06
8.53928e-06
8.53928e-06
8.53928e-06
4.24517e-05
4.24517e-05
4.24517e-05
4.05043e-05
4.05043e-05
4.05043e-05
4.17277e-05
4.17277e-05
4.17277e-05
4.07346e-05
4.07346e-05
4.07346e-05
4.22153e-05
4.22153e-05
4.22153e-05
1.67326e-05
1.67326e-05
1.67326e-05
1.68467e-05
1.68467e-05
1.68467e-05
7.52507e-06
7.52507e-06
7.52507e-06
8.79889e-06
8.79889e-06
8.79889e-06
1.68732e-05
1.68732e-05
1.68732e-05
8.62011e-06
8.62011e-06
8.62011e-06
1.67552e-05
1.67552e-05
1.67552e-05
4.27334e-05
4.27334e-05
4.27334e-05
4.44244e-05
4.44244e-05
4.44244e-05
4.14583e-05
4.14583e-05
4.14583e-05
3.85911e-05
3.85911e-05
3.85911e-05
4.00301e-05
4.00301e-05
4.00301e-05
3.70202e-05
3.70202e-05
3.70202e-05
3.68204e-05
3.68204e-05
3.68204e-05
3.46034e-05
3.46034e-05
3.46034e-05
6.17228e-06
6.17228e-06
6.17228e-06
9.11842e-06
9.11842e-06
9.11842e-06
1.46411e-05
1.46411e-05
1.46411e-05
1.14527e-05
1.14527e-05
1.14527e-05
2.70572e-06
2.70572e-06
2.70572e-06
5.54499e-06
5.54499e-06
5.54499e-06
3.43361e-06
3.43361e-06
3.43361e-06
2.22764e-05
2.22764e-05
2.22764e-05
2.50006e-05
2.50006e-05
2.50006e-05
1.62382e-05
1.62382e-05
1.62382e-05
1.48787e-05
1.48787e-05
1.48787e-05
4.52502e-05
4.52502e-05
4.52502e-05
3.9523e-05
3.9523e-05
3.9523e-05
3.87928e-05
3.87928e-05
3.87928e-05
1.19342e-05
1.19342e-05
1.19342e-05
4.32703e-05
4.32703e-05
4.32703e-05
4.21089e-05
4.21089e-05
4.21089e-05
4.0191e-05
4.0191e-05
4.0191e-05
2.00932e-05
2.00932e-05
2.00932e-05
1.01169e-05
1.01169e-05
1.01169e-05
1.00646e-05
1.00646e-05
1.00646e-05
1.83373e-05
1.83373e-05
1.83373e-05
1.97081e-05
1.97081e-05
1.97081e-05
2.45193e-05
2.45193e-05
2.45193e-05
2.297e-05
2.297e-05
2.297e-05
2.3164e-05
2.3164e-05
2.3164e-05
2.20572e-05
2.20572e-05
2.20572e-05
2.43844e-05
2.43844e-05
2.43844e-05
2.46856e-05
2.46856e-05
2.46856e-05
2.39644e-05
2.39644e-05
2.39644e-05
2.44126e-05
2.44126e-05
2.44126e-05
2.45187e-05
2.45187e-05
2.45187e-05
2.47887e-05
2.47887e-05
2.47887e-05
2.01459e-05
2.01459e-05
2.01459e-05
1.79008e-05
1.79008e-05
1.79008e-05
1.72225e-05
1.72225e-05
1.72225e-05
1.53639e-05
1.53639e-05
1.53639e-05
1.59631e-05
1.59631e-05
1.59631e-05
2.43928e-05
2.43928e-05
2.43928e-05
2.42467e-05
2.42467e-05
2.42467e-05
2.45843e-05
2.45843e-05
2.45843e-05
1.20358e-05
1.20358e-05
1.20358e-05
1.18184e-05
1.18184e-05
1.18184e-05
1.27749e-05
1.27749e-05
1.27749e-05
1.30133e-05
1.30133e-05
1.30133e-05
1.28974e-05
1.28974e-05
1.28974e-05
1.34298e-05
1.34298e-05
1.34298e-05
1.69855e-05
1.69855e-05
1.69855e-05
1.39587e-05
1.39587e-05
1.39587e-05
5.01152e-06
5.01152e-06
5.01152e-06
5.07712e-06
5.07712e-06
5.07712e-06
4.77106e-06
4.77106e-06
4.77106e-06
4.61457e-06
4.61457e-06
4.61457e-06
5.36009e-06
5.36009e-06
5.36009e-06
5.57531e-06
5.57531e-06
5.57531e-06
5.52153e-06
5.52153e-06
5.52153e-06
5.22977e-06
5.22977e-06
5.22977e-06
5.68288e-06
5.68288e-06
5.68288e-06
5.74095e-06
5.74095e-06
5.74095e-06
6.0287e-06
6.0287e-06
6.0287e-06
4.75329e-06
4.75329e-06
4.75329e-06
5.38271e-06
5.38271e-06
5.38271e-06
5.15986e-06
5.15986e-06
5.15986e-06
4.91222e-06
4.91222e-06
4.91222e-06
4.89168e-06
4.89168e-06
4.89168e-06
5.44697e-06
5.44697e-06
5.44697e-06
8.9957e-05
8.9957e-05
8.9957e-05
7.10801e-05
7.10801e-05
7.10801e-05
8.17793e-05
8.17793e-05
8.17793e-05
8.61735e-05
8.61735e-05
8.61735e-05
8.40606e-05
8.40606e-05
8.40606e-05
0.000113018
0.000113018
0.000113018
0.000113335
0.000113335
0.000113335
0.000113865
0.000113865
0.000113865
0.000111573
0.000111573
0.000111573
9.27306e-05
9.27306e-05
9.27306e-05
9.24669e-05
9.24669e-05
9.24669e-05
9.47942e-05
9.47942e-05
9.47942e-05
0.000107242
0.000107242
0.000107242
0.000106191
0.000106191
0.000106191
0.000121355
0.000121355
0.000121355
0.000120569
0.000120569
0.000120569
0.00012265
0.00012265
0.00012265
0.000122506
0.000122506
0.000122506
0.000121138
0.000121138
0.000121138
0.00011263
0.00011263
0.00011263
0.000113556
0.000113556
0.000113556
0.00011577
0.00011577
0.00011577
0.000116865
0.000116865
0.000116865
0.000114951
0.000114951
0.000114951
0.000115492
0.000115492
0.000115492
0.000117192
0.000117192
0.000117192
0.000117747
0.000117747
0.000117747
0.000127861
0.000127861
0.000127861
0.000128473
0.000128473
0.000128473
0.000127633
0.000127633
0.000127633
0.000130311
0.000130311
0.000130311
0.000118009
0.000118009
0.000118009
0.000119795
0.000119795
0.000119795
0.000123709
0.000123709
0.000123709
0.000121914
0.000121914
0.000121914
0.000122249
0.000122249
0.000122249
0.00012134
0.00012134
0.00012134
0.00011254
0.00011254
0.00011254
0.000112008
0.000112008
0.000112008
0.000110688
0.000110688
0.000110688
0.000107102
0.000107102
0.000107102
9.91721e-05
9.91721e-05
9.91721e-05
8.15667e-05
8.15667e-05
8.15667e-05
1.23599e-05
1.23599e-05
1.23599e-05
1.46528e-05
1.46528e-05
1.46528e-05
1.36784e-05
1.36784e-05
1.36784e-05
9.70309e-05
9.70309e-05
9.70309e-05
9.61124e-05
9.61124e-05
9.61124e-05
0.000102466
0.000102466
0.000102466
0.000102942
0.000102942
0.000102942
9.72261e-05
9.72261e-05
9.72261e-05
0.000104651
0.000104651
0.000104651
0.000101334
0.000101334
0.000101334
0.000103258
0.000103258
0.000103258
0.000100803
0.000100803
0.000100803
9.93942e-05
9.93942e-05
9.93942e-05
9.74418e-05
9.74418e-05
9.74418e-05
0.000110958
0.000110958
0.000110958
0.000110442
0.000110442
0.000110442
0.000112325
0.000112325
0.000112325
0.000106807
0.000106807
0.000106807
0.000105438
0.000105438
0.000105438
0.000107314
0.000107314
0.000107314
0.00010644
0.00010644
0.00010644
0.000104433
0.000104433
0.000104433
0.000104928
0.000104928
0.000104928
9.77065e-05
9.77065e-05
9.77065e-05
0.000100311
0.000100311
0.000100311
9.98242e-05
9.98242e-05
9.98242e-05
9.03154e-05
9.03154e-05
9.03154e-05
2.00064e-05
2.00064e-05
2.00064e-05
1.75823e-05
1.75823e-05
1.75823e-05
5.96102e-05
5.96102e-05
5.96102e-05
3.14698e-05
3.14698e-05
3.14698e-05
3.26082e-05
3.26082e-05
3.26082e-05
2.49988e-05
2.49988e-05
2.49988e-05
2.35183e-05
2.35183e-05
2.35183e-05
1.95098e-05
1.95098e-05
1.95098e-05
1.71409e-05
1.71409e-05
1.71409e-05
2.29208e-05
2.29208e-05
2.29208e-05
1.90141e-05
1.90141e-05
1.90141e-05
2.83966e-05
2.83966e-05
2.83966e-05
3.04493e-05
3.04493e-05
3.04493e-05
3.31411e-05
3.31411e-05
3.31411e-05
3.34675e-05
3.34675e-05
3.34675e-05
3.23013e-05
3.23013e-05
3.23013e-05
2.96763e-05
2.96763e-05
2.96763e-05
7.21573e-05
7.21573e-05
7.21573e-05
7.99473e-05
7.99473e-05
7.99473e-05
8.56831e-05
8.56831e-05
8.56831e-05
8.61706e-05
8.61706e-05
8.61706e-05
2.29172e-05
2.29172e-05
2.29172e-05
3.37757e-05
3.37757e-05
3.37757e-05
2.41443e-05
2.41443e-05
2.41443e-05
2.73603e-06
2.73603e-06
2.73603e-06
2.92021e-06
2.92021e-06
2.92021e-06
2.74466e-06
2.74466e-06
2.74466e-06
2.82992e-06
2.82992e-06
2.82992e-06
6.29009e-05
6.29009e-05
6.29009e-05
3.98185e-05
3.98185e-05
3.98185e-05
3.95595e-05
3.95595e-05
3.95595e-05
6.21515e-05
6.21515e-05
6.21515e-05
7.47184e-05
7.47184e-05
7.47184e-05
7.51508e-05
7.51508e-05
7.51508e-05
8.71317e-05
8.71317e-05
8.71317e-05
9.06882e-05
9.06882e-05
9.06882e-05
1.32119e-05
1.32119e-05
1.32119e-05
9.70009e-06
9.70009e-06
9.70009e-06
2.66485e-05
2.66485e-05
2.66485e-05
2.56389e-05
2.56389e-05
2.56389e-05
1.36447e-05
1.36447e-05
1.36447e-05
1.50902e-05
1.50902e-05
1.50902e-05
2.7031e-05
2.7031e-05
2.7031e-05
2.69011e-05
2.69011e-05
2.69011e-05
2.6188e-05
2.6188e-05
2.6188e-05
2.58454e-05
2.58454e-05
2.58454e-05
2.45578e-05
2.45578e-05
2.45578e-05
2.50409e-05
2.50409e-05
2.50409e-05
1.80263e-05
1.80263e-05
1.80263e-05
9.85693e-06
9.85693e-06
9.85693e-06
1.16346e-05
1.16346e-05
1.16346e-05
1.58221e-05
1.58221e-05
1.58221e-05
2.81355e-05
2.81355e-05
2.81355e-05
2.62131e-05
2.62131e-05
2.62131e-05
9.58881e-06
9.58881e-06
9.58881e-06
2.11372e-05
2.11372e-05
2.11372e-05
1.75335e-05
1.75335e-05
1.75335e-05
6.32283e-06
6.32283e-06
6.32283e-06
2.78073e-06
2.78073e-06
2.78073e-06
2.76131e-06
2.76131e-06
2.76131e-06
2.67827e-06
2.67827e-06
2.67827e-06
1.06967e-05
1.06967e-05
1.06967e-05
1.26024e-05
1.26024e-05
1.26024e-05
6.66664e-06
6.66664e-06
6.66664e-06
1.04256e-05
1.04256e-05
1.04256e-05
2.03749e-06
2.03749e-06
2.03749e-06
2.06402e-06
2.06402e-06
2.06402e-06
2.62793e-06
2.62793e-06
2.62793e-06
3.3225e-06
3.3225e-06
3.3225e-06
2.03787e-06
2.03787e-06
2.03787e-06
1.96018e-06
1.96018e-06
1.96018e-06
1.99729e-06
1.99729e-06
1.99729e-06
3.50199e-05
3.50199e-05
3.50199e-05
3.7477e-05
3.7477e-05
3.7477e-05
3.52237e-05
3.52237e-05
3.52237e-05
2.99247e-06
2.99247e-06
2.99247e-06
4.88637e-06
4.88637e-06
4.88637e-06
1.27794e-05
1.27794e-05
1.27794e-05
1.46039e-05
1.46039e-05
1.46039e-05
1.76036e-05
1.76036e-05
1.76036e-05
1.86386e-05
1.86386e-05
1.86386e-05
2.27957e-05
2.27957e-05
2.27957e-05
2.11733e-05
2.11733e-05
2.11733e-05
0.000125493
0.000125493
0.000125493
0.000134036
0.000134036
0.000134036
0.000133097
0.000133097
0.000133097
0.00011757
0.00011757
0.00011757
0.000122657
0.000122657
0.000122657
0.000123236
0.000123236
0.000123236
0.000108907
0.000108907
0.000108907
0.000109942
0.000109942
0.000109942
2.94763e-05
2.94763e-05
2.94763e-05
3.17665e-05
3.17665e-05
3.17665e-05
1.86864e-05
1.86864e-05
1.86864e-05
2.37465e-05
2.37465e-05
2.37465e-05
3.00136e-05
3.00136e-05
3.00136e-05
9.30128e-06
9.30128e-06
9.30128e-06
9.3289e-06
9.3289e-06
9.3289e-06
4.02087e-05
4.02087e-05
4.02087e-05
1.82006e-05
1.82006e-05
1.82006e-05
8.08242e-06
8.08242e-06
8.08242e-06
5.98441e-06
5.98441e-06
5.98441e-06
8.25931e-06
8.25931e-06
8.25931e-06
1.61747e-05
1.61747e-05
1.61747e-05
1.61306e-05
1.61306e-05
1.61306e-05
4.03901e-05
4.03901e-05
4.03901e-05
3.91695e-05
3.91695e-05
3.91695e-05
3.64027e-05
3.64027e-05
3.64027e-05
3.4415e-05
3.4415e-05
3.4415e-05
4.10387e-05
4.10387e-05
4.10387e-05
3.98225e-05
3.98225e-05
3.98225e-05
4.08203e-05
4.08203e-05
4.08203e-05
3.93769e-05
3.93769e-05
3.93769e-05
3.81596e-05
3.81596e-05
3.81596e-05
3.79665e-05
3.79665e-05
3.79665e-05
3.89558e-05
3.89558e-05
3.89558e-05
3.94585e-05
3.94585e-05
3.94585e-05
3.84179e-05
3.84179e-05
3.84179e-05
3.65872e-05
3.65872e-05
3.65872e-05
6.36086e-06
6.36086e-06
6.36086e-06
5.21795e-06
5.21795e-06
5.21795e-06
3.21203e-06
3.21203e-06
3.21203e-06
5.05146e-06
5.05146e-06
5.05146e-06
1.3945e-05
1.3945e-05
1.3945e-05
1.07479e-05
1.07479e-05
1.07479e-05
1.55569e-05
1.55569e-05
1.55569e-05
9.34231e-06
9.34231e-06
9.34231e-06
1.09802e-05
1.09802e-05
1.09802e-05
1.41746e-05
1.41746e-05
1.41746e-05
1.16925e-05
1.16925e-05
1.16925e-05
5.71335e-06
5.71335e-06
5.71335e-06
1.00118e-05
1.00118e-05
1.00118e-05
6.93447e-06
6.93447e-06
6.93447e-06
1.0252e-05
1.0252e-05
1.0252e-05
7.12574e-06
7.12574e-06
7.12574e-06
2.01635e-05
2.01635e-05
2.01635e-05
1.90113e-05
1.90113e-05
1.90113e-05
2.3365e-05
2.3365e-05
2.3365e-05
2.48124e-05
2.48124e-05
2.48124e-05
2.35597e-05
2.35597e-05
2.35597e-05
2.2499e-05
2.2499e-05
2.2499e-05
2.48968e-05
2.48968e-05
2.48968e-05
2.46552e-05
2.46552e-05
2.46552e-05
2.17879e-05
2.17879e-05
2.17879e-05
2.26199e-05
2.26199e-05
2.26199e-05
2.40401e-05
2.40401e-05
2.40401e-05
2.45823e-05
2.45823e-05
2.45823e-05
2.40713e-05
2.40713e-05
2.40713e-05
2.1783e-05
2.1783e-05
2.1783e-05
2.26292e-05
2.26292e-05
2.26292e-05
2.49584e-05
2.49584e-05
2.49584e-05
3.50154e-05
3.50154e-05
3.50154e-05
2.71955e-05
2.71955e-05
2.71955e-05
3.62181e-05
3.62181e-05
3.62181e-05
3.47568e-05
3.47568e-05
3.47568e-05
4.36098e-05
4.36098e-05
4.36098e-05
4.25973e-05
4.25973e-05
4.25973e-05
3.88896e-05
3.88896e-05
3.88896e-05
4.03114e-05
4.03114e-05
4.03114e-05
3.62678e-05
3.62678e-05
3.62678e-05
3.90354e-05
3.90354e-05
3.90354e-05
2.00878e-05
2.00878e-05
2.00878e-05
3.2121e-05
3.2121e-05
3.2121e-05
1.92923e-05
1.92923e-05
1.92923e-05
3.90119e-05
3.90119e-05
3.90119e-05
4.06899e-05
4.06899e-05
4.06899e-05
3.11936e-05
3.11936e-05
3.11936e-05
1.93126e-05
1.93126e-05
1.93126e-05
1.92991e-05
1.92991e-05
1.92991e-05
1.78165e-05
1.78165e-05
1.78165e-05
1.71469e-05
1.71469e-05
1.71469e-05
1.78275e-05
1.78275e-05
1.78275e-05
9.19002e-06
9.19002e-06
9.19002e-06
3.4617e-05
3.4617e-05
3.4617e-05
3.0236e-05
3.0236e-05
3.0236e-05
1.28167e-05
1.28167e-05
1.28167e-05
1.41341e-05
1.41341e-05
1.41341e-05
1.81003e-05
1.81003e-05
1.81003e-05
1.23127e-05
1.23127e-05
1.23127e-05
1.13053e-05
1.13053e-05
1.13053e-05
1.27311e-05
1.27311e-05
1.27311e-05
1.63796e-05
1.63796e-05
1.63796e-05
1.35969e-05
1.35969e-05
1.35969e-05
1.68352e-05
1.68352e-05
1.68352e-05
3.85328e-05
3.85328e-05
3.85328e-05
3.81444e-05
3.81444e-05
3.81444e-05
1.99342e-05
1.99342e-05
1.99342e-05
1.85502e-05
1.85502e-05
1.85502e-05
1.57875e-05
1.57875e-05
1.57875e-05
1.44066e-05
1.44066e-05
1.44066e-05
1.60024e-05
1.60024e-05
1.60024e-05
1.87794e-05
1.87794e-05
1.87794e-05
2.39802e-05
2.39802e-05
2.39802e-05
2.4012e-05
2.4012e-05
2.4012e-05
2.44673e-05
2.44673e-05
2.44673e-05
2.26347e-05
2.26347e-05
2.26347e-05
1.94358e-05
1.94358e-05
1.94358e-05
2.2829e-05
2.2829e-05
2.2829e-05
2.20504e-05
2.20504e-05
2.20504e-05
2.18825e-05
2.18825e-05
2.18825e-05
1.78787e-05
1.78787e-05
1.78787e-05
1.93848e-05
1.93848e-05
1.93848e-05
1.93636e-05
1.93636e-05
1.93636e-05
2.01706e-05
2.01706e-05
2.01706e-05
2.39319e-05
2.39319e-05
2.39319e-05
2.26576e-05
2.26576e-05
2.26576e-05
2.26898e-05
2.26898e-05
2.26898e-05
2.18582e-05
2.18582e-05
2.18582e-05
2.44879e-05
2.44879e-05
2.44879e-05
2.4351e-05
2.4351e-05
2.4351e-05
2.43162e-05
2.43162e-05
2.43162e-05
2.39131e-05
2.39131e-05
2.39131e-05
1.05338e-05
1.05338e-05
1.05338e-05
9.92484e-06
9.92484e-06
9.92484e-06
1.08239e-05
1.08239e-05
1.08239e-05
1.11288e-05
1.11288e-05
1.11288e-05
1.23664e-05
1.23664e-05
1.23664e-05
1.32527e-05
1.32527e-05
1.32527e-05
1.14502e-05
1.14502e-05
1.14502e-05
1.21385e-05
1.21385e-05
1.21385e-05
1.24607e-05
1.24607e-05
1.24607e-05
1.26982e-05
1.26982e-05
1.26982e-05
1.7719e-05
1.7719e-05
1.7719e-05
1.62137e-05
1.62137e-05
1.62137e-05
1.51316e-05
1.51316e-05
1.51316e-05
1.57773e-05
1.57773e-05
1.57773e-05
1.65341e-05
1.65341e-05
1.65341e-05
1.47244e-05
1.47244e-05
1.47244e-05
1.44186e-05
1.44186e-05
1.44186e-05
1.87407e-05
1.87407e-05
1.87407e-05
1.82028e-05
1.82028e-05
1.82028e-05
2.01652e-05
2.01652e-05
2.01652e-05
2.12457e-05
2.12457e-05
2.12457e-05
1.48118e-05
1.48118e-05
1.48118e-05
1.41835e-05
1.41835e-05
1.41835e-05
1.36091e-05
1.36091e-05
1.36091e-05
1.37961e-05
1.37961e-05
1.37961e-05
1.66729e-05
1.66729e-05
1.66729e-05
1.55385e-05
1.55385e-05
1.55385e-05
1.52052e-05
1.52052e-05
1.52052e-05
1.42961e-05
1.42961e-05
1.42961e-05
1.45509e-05
1.45509e-05
1.45509e-05
1.49192e-05
1.49192e-05
1.49192e-05
1.59929e-05
1.59929e-05
1.59929e-05
2.76734e-05
2.76734e-05
2.76734e-05
2.54629e-05
2.54629e-05
2.54629e-05
2.06791e-05
2.06791e-05
2.06791e-05
2.35068e-05
2.35068e-05
2.35068e-05
2.55094e-05
2.55094e-05
2.55094e-05
2.28704e-05
2.28704e-05
2.28704e-05
2.23047e-05
2.23047e-05
2.23047e-05
2.61815e-05
2.61815e-05
2.61815e-05
2.4819e-05
2.4819e-05
2.4819e-05
1.31731e-05
1.31731e-05
1.31731e-05
1.33918e-05
1.33918e-05
1.33918e-05
7.23051e-06
7.23051e-06
7.23051e-06
4.56647e-06
4.56647e-06
4.56647e-06
5.41017e-06
5.41017e-06
5.41017e-06
5.73895e-06
5.73895e-06
5.73895e-06
5.68136e-06
5.68136e-06
5.68136e-06
1.01972e-05
1.01972e-05
1.01972e-05
9.77843e-06
9.77843e-06
9.77843e-06
1.52966e-05
1.52966e-05
1.52966e-05
1.58804e-05
1.58804e-05
1.58804e-05
4.61961e-06
4.61961e-06
4.61961e-06
7.00142e-06
7.00142e-06
7.00142e-06
1.42774e-05
1.42774e-05
1.42774e-05
7.82657e-06
7.82657e-06
7.82657e-06
6.41004e-06
6.41004e-06
6.41004e-06
1.98675e-05
1.98675e-05
1.98675e-05
1.51842e-05
1.51842e-05
1.51842e-05
1.02186e-05
1.02186e-05
1.02186e-05
1.07139e-05
1.07139e-05
1.07139e-05
1.16099e-05
1.16099e-05
1.16099e-05
1.14807e-05
1.14807e-05
1.14807e-05
7.4211e-06
7.4211e-06
7.4211e-06
6.24676e-06
6.24676e-06
6.24676e-06
6.09536e-06
6.09536e-06
6.09536e-06
5.91727e-06
5.91727e-06
5.91727e-06
5.8553e-06
5.8553e-06
5.8553e-06
8.83794e-06
8.83794e-06
8.83794e-06
9.6235e-06
9.6235e-06
9.6235e-06
9.37885e-06
9.37885e-06
9.37885e-06
8.00298e-06
8.00298e-06
8.00298e-06
7.66323e-06
7.66323e-06
7.66323e-06
7.75376e-06
7.75376e-06
7.75376e-06
8.45828e-06
8.45828e-06
8.45828e-06
1.14978e-05
1.14978e-05
1.14978e-05
1.08265e-05
1.08265e-05
1.08265e-05
5.58611e-06
5.58611e-06
5.58611e-06
5.61939e-06
5.61939e-06
5.61939e-06
5.30869e-06
5.30869e-06
5.30869e-06
5.03042e-06
5.03042e-06
5.03042e-06
5.05326e-06
5.05326e-06
5.05326e-06
5.30811e-06
5.30811e-06
5.30811e-06
5.47776e-06
5.47776e-06
5.47776e-06
5.75488e-06
5.75488e-06
5.75488e-06
5.84144e-06
5.84144e-06
5.84144e-06