<VTKFile type="UnstructuredGrid" version="1.0">
<UnstructuredGrid>
<Piece NumberOfPoints="10830" NumberOfCells="3610">
<Points>
<DataArray type="Float64" NumberOfComponents="3" format="ascii">
3.11035 1.27826 9.43075
3.11035 1.28831 9.45646
3.11035 1.28831 9.405
3.11035 1.28831 9.96008
3.11035 1.27701 9.98553
3.11035 1.28831 10.011
3.11035 1.28831 9.96008
3.11035 1.26002 9.9601
3.11035 1.27701 9.98553
3.11035 0.0244388 10.4326
3.11035 4.44089e-16 10.45
3.11035 0.0422213 10.45
3.11035 4.44089e-16 10.45
3.11035 0.0244388 10.4326
3.11035 -7.90479e-14 10.4198
3.11035 1.28831 9.96008
3.11035 1.27702 9.93468
3.11035 1.26002 9.9601
3.11035 0.00863377 9.68179
3.11035 1.50546e-13 9.65657
3.11035 1.49658e-13 9.70701
3.11035 1.27705 9.6819
3.11035 1.26004 9.70711
3.11035 1.28831 9.70709
3.11035 1.27684 9.58134
3.11035 1.28831 9.60639
3.11035 1.28831 9.55628
3.11035 1.26004 9.70711
3.11035 1.27707 9.73232
3.11035 1.28831 9.70709
3.11035 1.28831 9.70709
3.11035 1.27707 9.73232
3.11035 1.28831 9.75754
3.11035 1.26005 9.75755
3.11035 1.28831 9.75754
3.11035 1.27707 9.73232
3.11035 1.26003 9.90931
3.11035 1.24613 9.9347
3.11035 1.27702 9.93468
3.11035 1.24613 9.9347
3.11035 1.26002 9.9601
3.11035 1.27702 9.93468
3.11035 1.24613 9.9347
3.11035 1.26003 9.90931
3.11035 1.23052 9.90932
3.11035 1.24613 9.9347
3.11035 1.23052 9.96012
3.11035 1.26002 9.9601
3.11035 1.28831 9.80804
3.11035 1.27705 9.83333
3.11035 1.28831 9.85862
3.11035 1.27705 9.83333
3.11035 1.24616 9.83334
3.11035 1.26004 9.85863
3.11035 1.28831 9.85862
3.11035 1.27705 9.83333
3.11035 1.26004 9.85863
3.11035 1.28831 9.90929
3.11035 1.26003 9.90931
3.11035 1.27702 9.93468
3.11035 1.28831 9.96008
3.11035 1.28831 9.90929
3.11035 1.27702 9.93468
3.11035 1.25981 9.55632
3.11035 1.27684 9.58134
3.11035 1.28831 9.55628
3.11035 1.26002 10.011
3.11035 1.28831 10.011
3.11035 1.27701 9.98553
3.11035 0.85884 10.1907
3.11035 0.888295 10.1907
3.11035 0.873578 10.165
3.11035 4.44089e-16 9.405
3.11035 0.00987207 9.4297
3.11035 0.0277369 9.405
3.11035 0.0840033 9.65659
3.11035 0.0689903 9.63137
3.11035 0.0549577 9.65657
3.11035 0.0264927 9.65656
3.11035 0.0392653 9.68178
3.11035 0.0549577 9.65657
3.11035 0.0264927 9.65656
3.11035 1.50546e-13 9.65657
3.11035 0.00863377 9.68179
3.11035 0.0392653 9.68178
3.11035 0.0264927 9.65656
3.11035 0.00863377 9.68179
3.11035 0.0087521 9.88394
3.11035 1.48326e-13 9.85861
3.11035 -9.59233e-14 9.9093
3.11035 0.0265703 9.9093
3.11035 0.0550657 9.90929
3.11035 0.0393699 9.88393
3.11035 -9.59233e-14 9.9093
3.11035 0.0265703 9.9093
3.11035 0.0087521 9.88394
3.11035 0.0265703 9.9093
3.11035 0.0393699 9.88393
3.11035 0.0087521 9.88394
3.11035 0.0265544 9.8586
3.11035 0.0393699 9.88393
3.11035 0.0550443 9.8586
3.11035 0.0265544 9.8586
3.11035 1.48326e-13 9.85861
3.11035 0.0087521 9.88394
3.11035 0.0393699 9.88393
3.11035 0.0265544 9.8586
3.11035 0.0087521 9.88394
3.11035 1.49658e-13 9.70701
3.11035 0.0265126 9.707
3.11035 0.00863377 9.68179
3.11035 0.0265126 9.707
3.11035 0.0392653 9.68178
3.11035 0.00863377 9.68179
3.11035 0.0550657 9.90929
3.11035 0.0691236 9.88393
3.11035 0.0393699 9.88393
3.11035 0.0393699 9.88393
3.11035 0.0691236 9.88393
3.11035 0.0550443 9.8586
3.11035 0.288852 9.85867
3.11035 0.274248 9.884
3.11035 0.303471 9.88401
3.11035 0.274248 9.884
3.11035 0.288872 9.90937
3.11035 0.303471 9.88401
3.11035 0.288872 9.90937
3.11035 0.318088 9.90938
3.11035 0.303471 9.88401
3.11035 0.844143 10.165
3.11035 0.85884 10.1907
3.11035 0.873578 10.165
3.11035 1.27699 9.63156
3.11035 1.28831 9.6567
3.11035 1.28831 9.60639
3.11035 1.28831 9.70709
3.11035 1.28831 9.6567
3.11035 1.27705 9.6819
3.11035 1.17079 9.8081
3.11035 1.15586 9.78285
3.11035 1.14088 9.80811
3.11035 1.26004 9.80805
3.11035 1.24616 9.83334
3.11035 1.27705 9.83333
3.11035 1.28831 9.80804
3.11035 1.26004 9.80805
3.11035 1.27705 9.83333
3.11035 1.24616 9.83334
3.11035 1.23053 9.85865
3.11035 1.26004 9.85863
3.11035 1.27704 9.88395
3.11035 1.28831 9.85862
3.11035 1.26004 9.85863
3.11035 1.28831 9.85862
3.11035 1.27704 9.88395
3.11035 1.28831 9.90929
3.11035 1.27704 9.88395
3.11035 1.26003 9.90931
3.11035 1.28831 9.90929
3.11035 1.24591 9.58137
3.11035 1.27684 9.58134
3.11035 1.25981 9.55632
3.11035 1.27699 9.63156
3.11035 1.26001 9.65674
3.11035 1.28831 9.6567
3.11035 1.26001 9.65674
3.11035 1.27705 9.6819
3.11035 1.28831 9.6567
3.11035 1.15573 9.63161
3.11035 1.1706 9.60643
3.11035 1.1407 9.60643
3.11035 1.20051 9.60645
3.11035 1.21561 9.58132
3.11035 1.18556 9.58126
3.11035 1.20051 9.60645
3.11035 1.18556 9.58126
3.11035 1.1706 9.60643
3.11035 1.24614 9.68193
3.11035 1.26004 9.70711
3.11035 1.27705 9.6819
3.11035 1.24614 9.68193
3.11035 1.27705 9.6819
3.11035 1.26001 9.65674
3.11035 1.24612 9.98555
3.11035 1.27701 9.98553
3.11035 1.26002 9.9601
3.11035 1.27701 9.98553
3.11035 1.24612 9.98555
3.11035 1.26002 10.011
3.11035 1.23052 9.96012
3.11035 1.24612 9.98555
3.11035 1.26002 9.9601
3.11035 1.24611 10.1391
3.11035 1.23051 10.1134
3.11035 1.21584 10.1391
3.11035 1.21584 10.0877
3.11035 1.23051 10.1134
3.11035 1.24611 10.0877
3.11035 1.27699 10.0365
3.11035 1.28831 10.011
3.11035 1.26002 10.011
3.11035 1.24611 10.0366
3.11035 1.27699 10.0365
3.11035 1.26002 10.011
3.11035 0.917741 10.2423
3.11035 0.902954 10.2682
3.11035 0.932465 10.2682
3.11035 1.08109 10.1134
3.11035 1.11094 10.1134
3.11035 1.09602 10.0878
3.11035 1.11094 10.1134
3.11035 1.12589 10.0878
3.11035 1.09602 10.0878
3.11035 1.2305 10.0621
3.11035 1.24611 10.0366
3.11035 1.21584 10.0366
3.11035 1.2305 10.0621
3.11035 1.21584 10.0877
3.11035 1.24611 10.0877
3.11035 1.0662 10.0878
3.11035 1.08109 10.1134
3.11035 1.09602 10.0878
3.11035 0.991917 9.85874
3.11035 0.977089 9.83344
3.11035 0.962274 9.85874
3.11035 0.917902 9.83344
3.11035 0.888384 9.83344
3.11035 0.903138 9.85875
3.11035 0.932681 9.85875
3.11035 0.917902 9.83344
3.11035 0.903138 9.85875
3.11035 0.903119 9.75765
3.11035 0.917893 9.78289
3.11035 0.932664 9.75766
3.11035 0.917893 9.78289
3.11035 0.903119 9.75765
3.11035 0.888374 9.78289
3.11035 0.903119 9.75765
3.11035 0.873625 9.75764
3.11035 0.888374 9.78289
3.11035 0.917893 9.78289
3.11035 0.947463 9.7829
3.11035 0.932664 9.75766
3.11035 0.962233 9.70723
3.11035 0.947444 9.73244
3.11035 0.977066 9.73244
3.11035 0.947444 9.73244
3.11035 0.962233 9.70723
3.11035 0.932637 9.70723
3.11035 0.741456 9.88409
3.11035 0.770765 9.88409
3.11035 0.756104 9.85875
3.11035 0.756104 9.85875
3.11035 0.770765 9.88409
3.11035 0.785431 9.85875
3.11035 0.903133 9.80816
3.11035 0.917893 9.78289
3.11035 0.888374 9.78289
3.11035 0.903133 9.80816
3.11035 0.888384 9.83344
3.11035 0.917902 9.83344
3.11035 0.888384 9.83344
3.11035 0.873639 9.80815
3.11035 0.858913 9.83344
3.11035 0.873639 9.80815
3.11035 0.888384 9.83344
3.11035 0.903133 9.80816
3.11035 0.888374 9.78289
3.11035 0.873639 9.80815
3.11035 0.903133 9.80816
3.11035 0.873625 9.75764
3.11035 0.858884 9.73241
3.11035 0.844177 9.75764
3.11035 0.844153 9.70719
3.11035 0.858884 9.73241
3.11035 0.873599 9.70721
3.11035 0.318069 9.85868
3.11035 0.288852 9.85867
3.11035 0.303471 9.88401
3.11035 0.288852 9.85867
3.11035 0.318069 9.85868
3.11035 0.303454 9.83336
3.11035 0.00864568 9.47987
3.11035 -9.63674e-14 9.45442
3.11035 1.49658e-13 9.50508
3.11035 4.44089e-16 9.405
3.11035 -9.63674e-14 9.45442
3.11035 0.00987207 9.4297
3.11035 0.0264295 9.5557
3.11035 0.00849117 9.53042
3.11035 1.50546e-13 9.55567
3.11035 1.50546e-13 9.55567
3.11035 0.00849117 9.53042
3.11035 1.49658e-13 9.50508
3.11035 1.28831 9.405
3.11035 1.26122 9.405
3.11035 1.27826 9.43075
3.11035 1.50546e-13 9.65657
3.11035 0.00859461 9.63136
3.11035 1.50546e-13 9.60614
3.11035 0.00859461 9.63136
3.11035 1.50546e-13 9.65657
3.11035 0.0264927 9.65656
3.11035 0.0264637 9.60613
3.11035 1.50546e-13 9.60614
3.11035 0.00859461 9.63136
3.11035 0.0264637 9.60613
3.11035 0.0549232 9.60616
3.11035 0.0391815 9.58094
3.11035 0.0392276 9.63135
3.11035 0.0549577 9.65657
3.11035 0.0689903 9.63137
3.11035 0.0549577 9.65657
3.11035 0.0392276 9.63135
3.11035 0.0264927 9.65656
3.11035 0.0549232 9.60616
3.11035 0.0392276 9.63135
3.11035 0.0689903 9.63137
3.11035 0.0392276 9.63135
3.11035 0.0549232 9.60616
3.11035 0.0264637 9.60613
3.11035 0.0264927 9.65656
3.11035 0.0392276 9.63135
3.11035 0.00859461 9.63136
3.11035 0.00859461 9.63136
3.11035 0.0392276 9.63135
3.11035 0.0264637 9.60613
3.11035 0.00854014 9.58091
3.11035 1.50546e-13 9.55567
3.11035 1.50546e-13 9.60614
3.11035 0.00854014 9.58091
3.11035 0.0264295 9.5557
3.11035 1.50546e-13 9.55567
3.11035 0.0264295 9.5557
3.11035 0.00854014 9.58091
3.11035 0.0391815 9.58094
3.11035 0.00854014 9.58091
3.11035 1.50546e-13 9.60614
3.11035 0.0264637 9.60613
3.11035 0.0391815 9.58094
3.11035 0.00854014 9.58091
3.11035 0.0264637 9.60613
3.11035 0.0690987 9.83329
3.11035 0.0393425 9.83329
3.11035 0.0550443 9.8586
3.11035 0.0550443 9.8586
3.11035 0.0393425 9.83329
3.11035 0.0265544 9.8586
3.11035 0.0393425 9.83329
3.11035 0.0690987 9.83329
3.11035 0.0550252 9.808
3.11035 0.0690242 9.68179
3.11035 0.0840033 9.65659
3.11035 0.0549577 9.65657
3.11035 0.0392653 9.68178
3.11035 0.0690242 9.68179
3.11035 0.0549577 9.65657
3.11035 0.0984777 9.6818
3.11035 0.0840033 9.65659
3.11035 0.0690242 9.68179
3.11035 0.0840313 9.70701
3.11035 0.0984777 9.6818
3.11035 0.0690242 9.68179
3.11035 0.0840313 9.70701
3.11035 0.113251 9.70702
3.11035 0.0984777 9.6818
3.11035 0.303441 9.7828
3.11035 0.288836 9.80807
3.11035 0.318055 9.80807
3.11035 0.288836 9.80807
3.11035 0.303454 9.83336
3.11035 0.318055 9.80807
3.11035 0.186476 9.83332
3.11035 0.201123 9.85863
3.11035 0.215741 9.83333
3.11035 0.201103 9.80803
3.11035 0.186476 9.83332
3.11035 0.215741 9.83333
3.11035 0.215723 9.78277
3.11035 0.230345 9.75753
3.11035 0.201085 9.75752
3.11035 0.201103 9.80803
3.11035 0.215723 9.78277
3.11035 0.186456 9.78276
3.11035 0.215723 9.78277
3.11035 0.201085 9.75752
3.11035 0.186456 9.78276
3.11035 0.215762 9.88398
3.11035 0.230402 9.90934
3.11035 0.245012 9.88399
3.11035 0.157245 9.9347
3.11035 0.186525 9.93471
3.11035 0.171881 9.90932
[...]
<PointData Scalars="View Factor" >
<DataArray type="Float64" Name="View Factor" NumberOfComponents="1" format="ascii">
0.000628322
0.000628322
0.000628322
0.000820332
0.000820332
0.000820332
0.000814036
0.000814036
0.000814036
0.000652289
0.000652289
0.000652289
0.000693974
0.000693974
0.000693974
0.000807232
0.000807232
0.000807232
0.000594118
0.000594118
0.000594118
0.000713638
0.000713638
0.000713638
0.000674366
0.000674366
0.000674366
0.000719424
0.000719424
0.000719424
0.000724782
0.000724782
0.000724782
0.000731178
0.000731178
0.000731178
0.000798001
0.000798001
0.000798001
0.000804701
0.000804701
0.000804701
0.000795581
0.000795581
0.000795581
0.000809004
0.000809004
0.000809004
0.000761147
0.000761147
0.000761147
0.000765592
0.000765592
0.000765592
0.000767967
0.000767967
0.000767967
0.000793853
0.000793853
0.000793853
0.000799942
0.000799942
0.000799942
0.000669501
0.000669501
0.000669501
0.000827876
0.000827876
0.000827876
2.47617e-05
2.47617e-05
2.47617e-05
0.000408496
0.000408496
0.000408496
0.000439422
0.000439422
0.000439422
0.000516911
0.000516911
0.000516911
0.000556575
0.000556575
0.000556575
0.00055295
0.00055295
0.00055295
0.000627687
0.000627687
0.000627687
0.000531899
0.000531899
0.000531899
0.000585236
0.000585236
0.000585236
0.000578279
0.000578279
0.000578279
0.00060151
0.00060151
0.00060151
0.000639601
0.000639601
0.000639601
0.000608957
0.000608957
0.000608957
0.000612971
0.000612971
0.000612971
0.000579895
0.000579895
0.000579895
0.000524642
0.000524642
0.000524642
0.000563549
0.000563549
0.000563549
0.000315361
0.000315361
0.000315361
0.000231542
0.000231542
0.000231542
0.000179066
0.000179066
0.000179066
0
0
0
0.000690634
0.000690634
0.000690634
0.000707439
0.000707439
0.000707439
0.000727638
0.000727638
0.000727638
0.00075932
0.00075932
0.00075932
0.000755442
0.000755442
0.000755442
0.000769613
0.000769613
0.000769613
0.000774333
0.000774333
0.000774333
0.000780225
0.000780225
0.000780225
0.000787274
0.000787274
0.000787274
0.000672802
0.000672802
0.000672802
0.000696641
0.000696641
0.000696641
0.000702247
0.000702247
0.000702247
0.00060374
0.00060374
0.00060374
0.000657907
0.000657907
0.000657907
0.00063991
0.00063991
0.00063991
0.000711473
0.000711473
0.000711473
0.00070577
0.00070577
0.00070577
0.00081833
0.00081833
0.00081833
0.000825262
0.000825262
0.000825262
0.00081583
0.00081583
0.00081583
0.000885751
0.000885751
0.000885751
0.000870571
0.000870571
0.000870571
0.000834917
0.000834917
0.000834917
0.000839365
0.000839365
0.000839365
0.000148096
0.000148096
0.000148096
0.000613879
0.000613879
0.000613879
0.000644617
0.000644617
0.000644617
0.000848462
0.000848462
0.000848462
0.000863115
0.000863115
0.000863115
0.000570124
0.000570124
0.000570124
0.000534694
0.000534694
0.000534694
0.000476593
0.000476593
0.000476593
0.000466922
0.000466922
0.000466922
0.000657509
0.000657509
0.000657509
0.000658261
0.000658261
0.000658261
0.000649069
0.000649069
0.000649069
0.000667404
0.000667404
0.000667404
0.00055855
0.00055855
0.00055855
0.000521668
0.000521668
0.000521668
0.000307582
0.000307582
0.000307582
0.000342685
0.000342685
0.000342685
0.000625918
0.000625918
0.000625918
0.000536444
0.000536444
0.000536444
0.000514672
0.000514672
0.000514672
0.000547177
0.000547177
0.000547177
0.000594618
0.000594618
0.000594618
0.0005799
0.0005799
0.0005799
0.00045381
0.00045381
0.00045381
0.000348361
0.000348361
0.000348361
0.00041984
0.00041984
0.00041984
0.000438215
0.000438215
0.000438215
0.000427846
0.000427846
0.000427846
0.000435598
0.000435598
0.000435598
0.000449005
0.000449005
0.000449005
0.000623706
0.000623706
0.000623706
0.00052276
0.00052276
0.00052276
0.000531648
0.000531648
0.000531648
0.000487078
0.000487078
0.000487078
0.000413148
0.000413148
0.000413148
0.00044837
0.00044837
0.00044837
0.000487811
0.000487811
0.000487811
0.000420273
0.000420273
0.000420273
0.000436073
0.000436073
0.000436073
0.000498481
0.000498481
0.000498481
0.000474405
0.000474405
0.000474405
0.000467591
0.000467591
0.000467591
0.000439156
0.000439156
0.000439156
0.000412063
0.000412063
0.000412063
0.000467221
0.000467221
0.000467221
0.000431294
0.000431294
0.000431294
0.000628903
0.000628903
0.000628903
0.000630408
0.000630408
0.000630408
0.000656175
0.000656175
0.000656175
0.000473178
0.000473178
0.000473178
0.00051211
0.00051211
0.00051211
0.000474969
0.000474969
0.000474969
0.000510616
0.000510616
0.000510616
0.000520256
0.000520256
0.000520256
0.000594442
0.000594442
0.000594442
0.000542104
0.000542104
0.000542104
0.000485238
0.000485238
0.000485238
0.0005407
0.0005407
0.0005407
0.000659725
0.000659725
0.000659725
0.000635612
0.000635612
0.000635612
0.000669882
0.000669882
0.000669882
0.000231778
0.000231778
0.000231778
0.000156414
0.000156414
0.000156414
0.000465282
0.000465282
0.000465282
0.000511986
0.000511986
0.000511986
0.0004731
0.0004731
0.0004731
0.000656336
0.000656336
0.000656336
0.0006335
0.0006335
0.0006335
0.000586397
0.000586397
0.000586397
0.000559513
0.000559513
0.000559513
0.000595497
0.000595497
0.000595497
0.000600654
0.000600654
0.000600654
0.000133356
0.000133356
0.000133356
0.000661065
0.000661065
0.000661065
0.00066143
0.00066143
0.00066143
0.000348553
0.000348553
0.000348553
0.000315527
0.000315527
0.000315527
7.90689e-05
7.90689e-05
7.90689e-05
0.000179169
0.000179169
0.000179169
0.000179262
0.000179262
0.000179262
0.000231667
0.000231667
0.000231667
7.90269e-05
7.90269e-05
7.90269e-05
3.23686e-05
3.23686e-05
3.23686e-05
0
0
0
0
0
0
6.50413e-05
6.50413e-05
6.50413e-05
3.23853e-05
3.23853e-05
3.23853e-05
0
0
0
0
0
0
0
0
0
0
0
0
0
0
0
0
0
0
7.89802e-05
7.89802e-05
7.89802e-05
3.23499e-05
3.23499e-05
3.23499e-05
0
0
0
0
0
0
0
0
0
0
0
0
0
0
0
0
0
0
0
0
0
0
0
0
0
0
0
0
0
0
0
0
0
0
0
0
0
0
0
0
0
0
0
0
0
0
0
0
0
0
0
0
0
0
0
0
0
0
0
0
0
0
0
0
0
0
0
0
0
0
0
0
0
0
0
0.000765716
0.000765716
0.000765716
0.000308495
0.000308495
0.000308495
0.000367864
0.000367864
0.000367864
0.000456102
0.000456102
0.000456102
0.000410066
0.000410066
0.000410066
0.000797292
0.000797292
0.000797292
0.000806484
0.000806484
0.000806484
0.000799762
0.000799762
0.000799762
0.00077413
0.00077413
0.00077413
0.000496739
0.000496739
0.000496739
0.000547512
0.000547512
0.000547512
0.000486206
0.000486206
0.000486206
0.000689281
0.000689281
0.000689281
0.000683215
0.000683215
0.000683215
0.000749279
0.000749279
0.000749279
0.000746976
0.000746976
0.000746976
0.000742676
0.000742676
0.000742676
0.000737148
0.000737148
0.000737148
0.000740902
0.000740902
0.000740902
0.000767855
0.000767855
0.000767855
0.000790671
0.000790671
0.000790671
0.000788981
0.000788981
0.000788981
0.000775998
0.000775998
0.000775998
0.000786541
0.000786541
0.000786541
0.000780039
0.000780039
0.000780039
0.000784823
0.000784823
0.000784823
0.000778343
0.000778343
0.000778343
0.000685605
0.000685605
0.000685605
0.000680179
0.000680179
0.000680179
0.000678149
0.000678149
0.000678149
0.000664255
0.000664255
0.000664255
0.000591587
0.000591587
0.000591587
0.000609368
0.000609368
0.000609368
0.000703699
0.000703699
0.000703699
0.000699493
0.000699493
0.000699493
0.000707247
0.000707247
0.000707247
0.000705132
0.000705132
0.000705132
0.000829717
0.000829717
0.000829717
0.000836781
0.000836781
0.000836781
0.000841263
0.000841263
0.000841263
0.000893478
0.000893478
0.000893478
0.000798367
0.000798367
0.000798367
0.000433609
0.000433609
0.000433609
2.49856e-05
2.49856e-05
2.49856e-05
6.30245e-05
6.30245e-05
6.30245e-05
6.35925e-05
6.35925e-05
6.35925e-05
0.000619357
0.000619357
0.000619357
0.000630514
0.000630514
0.000630514
0.0007982
0.0007982
0.0007982
0.000791213
0.000791213
0.000791213
0.000567939
0.000567939
0.000567939
0.000661796
0.000661796
0.000661796
0.000630497
0.000630497
0.000630497
0.000655709
0.000655709
0.000655709
0.000533228
0.000533228
0.000533228
0.000517876
0.000517876
0.000517876
0.000465018
0.000465018
0.000465018
0.000851156
0.000851156
0.000851156
0.000858471
0.000858471
0.000858471
0.000846541
0.000846541
0.000846541
0.000882923
0.000882923
0.000882923
0.000856709
0.000856709
0.000856709
0.000875321
0.000875321
0.000875321
0.00084196
0.00084196
0.00084196
0.000823783
0.000823783
0.000823783
0.000816635
0.000816635
0.000816635
0.000598106
0.000598106
0.000598106
0.000650084
0.000650084
0.000650084
0.000627463
0.000627463
0.000627463
0.000609289
0.000609289
0.000609289
0.000436305
0.000436305
0.000436305
0.000449094
0.000449094
0.000449094
0.000408568
0.000408568
0.000408568
7.74728e-05
7.74728e-05
7.74728e-05
3.16833e-05
3.16833e-05
3.16833e-05
0.000306175
0.000306175
0.000306175
0.00034108
0.00034108
0.00034108
0.000411247
0.000411247
0.000411247
0.000441201
0.000441201
0.000441201
0.000341634
0.000341634
0.000341634
0.000411901
0.000411901
0.000411901
0.000226671
0.000226671
0.000226671
0.00017515
0.00017515
0.00017515
7.7208e-05
7.7208e-05
7.7208e-05
3.16281e-05
3.16281e-05
3.16281e-05
7.73427e-05
7.73427e-05
7.73427e-05
0.000175448
0.000175448
0.000175448
0.000507075
0.000507075
0.000507075
0.000500758
0.000500758
0.000500758
0.000535465
0.000535465
0.000535465
0.000581982
0.000581982
0.000581982
0
0
0
0
0
0
0
0
0
0.00059067
0.00059067
0.00059067
0.000472698
0.000472698
0.000472698
0.000557859
0.000557859
0.000557859
0.000494581
0.000494581
0.000494581
0.000495945
0.000495945
0.000495945
0.000515031
0.000515031
0.000515031
0.000573929
0.000573929
0.000573929
0.000604046
0.000604046
0.000604046
0.000591536
0.000591536
0.000591536
0.000537832
0.000537832
0.000537832
0.000650957
0.000650957
0.000650957
0.000641058
0.000641058
0.000641058
0.000454184
0.000454184
0.000454184
0.00051442
0.00051442
0.00051442
3.20161e-05
3.20161e-05
3.20161e-05
7.8255e-05
7.8255e-05
7.8255e-05
0.000453684
0.000453684
0.000453684
0.000416325
0.000416325
0.000416325
0
0
0
0
0
0
0
0
0
0
0
0
0
0
0
0
0
0
0.000413141
0.000413141
0.000413141
0.000533789
0.000533789
0.000533789
0.000510688
0.000510688
0.000510688
0.000443921
0.000443921
0.000443921
0.000176013
0.000176013
0.000176013
0.000227752
0.000227752
0.000227752
0.000534516
0.000534516
0.000534516
0.000343182
0.000343182
0.000343182
0.000413727
0.000413727
0.000413727
0.000585491
0.000585491
0.000585491
0.000454389
0.000454389
0.000454389
0.000488439
0.000488439
0.000488439
0.000552576
0.000552576
0.000552576
0.000531438
0.000531438
0.000531438
0.000508462
0.000508462
0.000508462
0.000583835
0.000583835
0.000583835
0.00053225
0.00053225
0.00053225
0.0004612
0.0004612
0.0004612
0.0005909
0.0005909
0.0005909
0.000654848
0.000654848
0.000654848
0.000660683
0.000660683
0.000660683
0.000461421
0.000461421
0.000461421
0.000560565
0.000560565
0.000560565
0.000496293
0.000496293
0.000496293
0.000433546
0.000433546
0.000433546
0.000402807
0.000402807
0.000402807
0.000395626
0.000395626
0.000395626
0.00065975
0.00065975
0.00065975
0.000622038
0.000622038
0.000622038
0.000454661
0.000454661
0.000454661
0.000416778
0.000416778
0.000416778
0.000345768
0.000345768
0.000345768
0.00031307
0.00031307
0.00031307
0.000177671
0.000177671
0.000177671
0.000229822
0.000229822
0.000229822
0.000547606
0.000547606
0.000547606
0.000626763
0.000626763
0.000626763
0.000624875
0.000624875
0.000624875
0.000425496
0.000425496
0.000425496
0.000546964
0.000546964
0.000546964
0.000542719
0.000542719
0.000542719
0.000440003
0.000440003
0.000440003
0.000409541
0.000409541
0.000409541
0.000548295
0.000548295
0.000548295
0.000552472
0.000552472
0.000552472
0.000689386
0.000689386
0.000689386
0.000661993
0.000661993
0.000661993
0.000659864
0.000659864
0.000659864
0.000731266
0.000731266
0.000731266
0.000728733
0.000728733
0.000728733
0.000719197
0.000719197
0.000719197
0.000728183
0.000728183
0.000728183
0.000645115
0.000645115
0.000645115
0.000683449
0.000683449
0.000683449
0.00070094
0.00070094
0.00070094
0.000649362
0.000649362
0.000649362
0.000679754
0.000679754
0.000679754
0.000686532
0.000686532
0.000686532
0.000661298
0.000661298
0.000661298
0.000604084
0.000604084
0.000604084
0.000570103
0.000570103
0.000570103
0.000583087
0.000583087
0.000583087
0.000543614
0.000543614
0.000543614
0.000620972
0.000620972
0.000620972
0.000625657
0.000625657
0.000625657
0.000550129
0.000550129
0.000550129
0.000594249
0.000594249
0.000594249
0.000717913
0.000717913
0.000717913
0.000702091
0.000702091
0.000702091
0.000681895
0.000681895
0.000681895
0.000689085
0.000689085
0.000689085
0.000594745
0.000594745
0.000594745
0.000622665
0.000622665
0.000622665
0.000660405
0.000660405
0.000660405
0.000622367
0.000622367
0.000622367
0.000457851
0.000457851
0.000457851
0.000518491
0.000518491
0.000518491
0.000420066
0.000420066
0.000420066
0.000542385
0.000542385
0.000542385
0.000518749
0.000518749
0.000518749
0.000458082
0.000458082
0.000458082
0.000562241
0.000562241
0.000562241
0.000648074
0.000648074
0.000648074
0.000572084
0.000572084
0.000572084
0.000617569
0.000617569
0.000617569
0.000593335
0.000593335
0.000593335
0.000633804
0.000633804
0.000633804
0.000354504
0.000354504
0.000354504
0.000402709
0.000402709
0.000402709
0.00020478
0.00020478
0.00020478
0.000166072
0.000166072
0.000166072
0.000254174
0.000254174
0.000254174
0.000277561
0.000277561
0.000277561
9.43711e-05
9.43711e-05
9.43711e-05
0.000108627
0.000108627
0.000108627
0.000132247
0.000132247
0.000132247
9.85191e-05
9.85191e-05
9.85191e-05
9.77073e-05
9.77073e-05
9.77073e-05
0.000130066
0.000130066
0.000130066
0.000165558
0.000165558
0.000165558
0.000207029
0.000207029
0.000207029
0.000165329
0.000165329
0.000165329
0.000228845
0.000228845
0.000228845
0.00066634
0.00066634
0.00066634
0.00061362
0.00061362
0.00061362
0.000635935
0.000635935
0.000635935
0.00060872
0.00060872
0.00060872
0.000475862
0.000475862
0.000475862
0.000522333
0.000522333
0.000522333
0.000477443
0.000477443
0.000477443
0.00052142
0.00052142
0.00052142
0.000569715
0.000569715
0.000569715
0.000563896
0.000563896
0.000563896
0.000208782
0.000208782
0.000208782
0.000244725
0.000244725
0.000244725
0.000168127
0.000168127
0.000168127
0.00027891
0.00027891
0.00027891
0.000315735
0.000315735
0.000315735
0.000246816
0.000246816
0.000246816
0
0
0
0.00010017
0.00010017
0.00010017
0.000101009
0.000101009
0.000101009
6.77856e-05
6.77856e-05
6.77856e-05
3.42222e-05
3.42222e-05
3.42222e-05
0.000683009
0.000683009
0.000683009
0.000594581
0.000594581
0.000594581
0.00060779
0.00060779
0.00060779
0.000625519
0.000625519
0.000625519
0.000607255
0.000607255
0.000607255
0.00056469
0.00056469
0.00056469
0.000629906
0.000629906
0.000629906
0.000642829
0.000642829
0.000642829
0.000624103
0.000624103
0.000624103
0.00058025
0.00058025
0.00058025
0.000612795
0.000612795
0.000612795
0.000575
0.000575
0.000575
0.000519053
0.000519053
0.000519053
0.000523749
0.000523749
0.000523749
0.000315675
0.000315675
0.000315675
0.000348725
0.000348725
0.000348725
0.000420269
0.000420269
0.000420269
0.000458289
0.000458289
0.000458289
0.000435641
0.000435641
0.000435641
0.000367125
0.000367125
0.000367125
0
0
0
3.31156e-05
3.31156e-05
3.31156e-05
0
0
0
0
0
0
0
0
0
0
0
0
0
0
0
0
0
0
0
0
0
0
0
0
0
0
0
0
0
0
0
0
0
0
0
0
0
0
0
0
0
0
3.23293e-05
3.23293e-05
3.23293e-05
0
0
0
0
0
0
0
0
0
0
0
0
0
0
0
0
0
0
0
0
0
0
0
0
0
0
0
0
0
0
0
0
0
0
0
0
0
0
0
0
0
0
0
0
0
0
0
0
0
0
0
0
0
0
0
0
0
0
0
0
0
0
0
0
0
0
0
0
0
0
0
0
0
0
0
0
0
0
0
0
0
0
0
0
0
0
0
0
0
0
0
0
0
0
0
0
0
0
0
2.43219e-05
2.43219e-05
2.43219e-05
2.41059e-05
2.41059e-05
2.41059e-05
0
0
0
0
0
0
0
0
0
0
0
0
0
0
0
0
0
0
0
0
0
0
0
0
0
0
0
0
0
0
0
0
0
0
0
0
0
0
0
0
0
0
0
0
0
0
0
0
0
0
0
0
0
0
0.000102716
0.000102716
0.000102716
6.8353e-05
6.8353e-05
6.8353e-05
0
0
0
0
0
0
0
0
0
0
0
0
0
0
0
0
0
0
0
0
0
0
0
0
0
0
0
0
0
0
0
0
0
0
0
0
0
0
0
0
0
0
0
0
0
0
0
0
0
0
0
0
0
0
0
0
0
0
0
0
0
0
0
0
0
0
0
0
0
0
0
0
0
0
0
0
0
0
0
0
0
0
0
0
0
0
0
0
0
0
0
0
0
0
0
0
0
0
0
0
0
0
0.000261862
0.000261862
0.000261862
0.000217692
0.000217692
0.000217692
0.000614197
0.000614197
0.000614197
0.000684918
0.000684918
0.000684918
0.000722303
0.000722303
0.000722303
0.000374719
0.000374719
0.000374719
0.000378211
0.000378211
0.000378211
0.000464592
0.000464592
0.000464592
0.000413868
0.000413868
0.000413868
0.000331829
0.000331829
0.000331829
0.000328781
0.000328781
0.000328781
0.000718146
0.000718146
0.000718146
0.00079126
0.00079126
0.00079126
0.00103782
0.00103782
0.00103782
0.00103519
0.00103519
0.00103519
0.00103118
0.00103118
0.00103118
0.001034
0.001034
0.001034
0.00101847
0.00101847
0.00101847
0.000810758
0.000810758
0.000810758
0.000779701
0.000779701
0.000779701
0.000662155
0.000662155
0.000662155
0.000662203
0.000662203
0.000662203
0.000678543
0.000678543
0.000678543
0.000742961
0.000742961
0.000742961
0.000713911
0.000713911
0.000713911
0.000694919
0.000694919
0.000694919
0.000685578
0.000685578
0.000685578
0.000728773
0.000728773
0.000728773
0.000718553
0.000718553
0.000718553
0.000715333
0.000715333
0.000715333
0.000709576
0.000709576
0.000709576
0.000725264
0.000725264
0.000725264
0.000733535
0.000733535
0.000733535
0.000732526
0.000732526
0.000732526
0.000706877
0.000706877
0.000706877
0.000694344
0.000694344
0.000694344
0.000724033
0.000724033
0.000724033
0.000713884
0.000713884
0.000713884
0.000712556
0.000712556
0.000712556
0.000669699
0.000669699
0.000669699
0.000672564
0.000672564
0.000672564
0.00068957
0.00068957
0.00068957
0.000701005
0.000701005
0.000701005
0.000750866
0.000750866
0.000750866
0.000757048
0.000757048
0.000757048
0.000699959
0.000699959
0.000699959
0.000726002
0.000726002
0.000726002
0.000738698
0.000738698
0.000738698
0.00074078
0.00074078
0.00074078
0.000733914
0.000733914
0.000733914
0.00064686
0.00064686
0.00064686
0.000662277
0.000662277
0.000662277
0.000657089
0.000657089
0.000657089
0.000648826
0.000648826
0.000648826
0.000653922
0.000653922
0.000653922
0.000658647
0.000658647
0.000658647
0.000643388
0.000643388
0.000643388
0.000651223
0.000651223
0.000651223
0.000640931
0.000640931
0.000640931
0.000607325
0.000607325
0.000607325
0.000635862
0.000635862
0.000635862
0.00068292
0.00068292
0.00068292
0.000688388
0.000688388
0.000688388
0.000679531
0.000679531
0.000679531
0.000681567
0.000681567
0.000681567
0.000698078
0.000698078
0.000698078
0.000694544
0.000694544
0.000694544
0.00068902
0.00068902
0.00068902
0.000687012
0.000687012
0.000687012
0.000695987
0.000695987
0.000695987
0.000690445
0.000690445
0.000690445
0.000674639
0.000674639
0.000674639
0.000693706
0.000693706
0.000693706
0.000629117
0.000629117
0.000629117
0.000639619
0.000639619
0.000639619
0.000648558
0.000648558
0.000648558
0.00066542
0.00066542
0.00066542
0.000671611
0.000671611
0.000671611
0.000678748
0.000678748
0.000678748
0.000838336
0.000838336
0.000838336
0.000864215
0.000864215
0.000864215
0.000898398
0.000898398
0.000898398
0.000834408
0.000834408
0.000834408
0.000880939
0.000880939
0.000880939
0.00087336
0.00087336
0.00087336
0.000396344
0.000396344
0.000396344
0.000437709
0.000437709
0.000437709
0.000482225
0.000482225
0.000482225
0.000526389
0.000526389
0.000526389
0
0
0
0
0
0
0
0
0
0
0
0
0
0
0
0
0
0
0
0
0
0
0
0
2.53201e-05
2.53201e-05
2.53201e-05
0.000106705
0.000106705
0.000106705
0.000388953
0.000388953
0.000388953
0.000385328
0.000385328
0.000385328
0.000102899
0.000102899
0.000102899
0.000141509
0.000141509
0.000141509
0.000194663
0.000194663
0.000194663
0.000278327
0.000278327
0.000278327
0.000275783
0.000275783
0.000275783
0.000234163
0.000234163
0.000234163
0.000196454
0.000196454
0.000196454
0.000238498
0.000238498
0.000238498
0.000145413
0.000145413
0.000145413
0.000105736
0.000105736
0.000105736
6.53388e-05
6.53388e-05
6.53388e-05
6.47496e-05
6.47496e-05
6.47496e-05
0.000103833
0.000103833
0.000103833
0.000144095
0.000144095
0.000144095
0.000438943
0.000438943
0.000438943
0.000367913
0.000367913
0.000367913
0.00040572
0.00040572
0.00040572
0.00040932
0.00040932
0.00040932
0.000204814
0.000204814
0.000204814
0.000241138
0.000241138
0.000241138
0.000243258
0.000243258
0.000243258
0.000208428
0.000208428
0.000208428
0.000377879
0.000377879
0.000377879
0.000371195
0.000371195
0.000371195
0.000420382
0.000420382
0.000420382
0.00041665
0.00041665
0.00041665
0.000297611
0.000297611
0.000297611
0.000336015
0.000336015
0.000336015