<VTKFile type="UnstructuredGrid" version="1.0">
<UnstructuredGrid>
<Piece NumberOfPoints="10830" NumberOfCells="3610">
<Points>
<DataArray type="Float64" NumberOfComponents="3" format="ascii">
1.27826 3.11035 1.07075
1.28831 3.11035 1.045
1.28831 3.11035 1.09646
1.28831 3.11035 1.60008
1.28831 3.11035 1.651
1.27701 3.11035 1.62553
1.28831 3.11035 1.60008
1.27701 3.11035 1.62553
1.26002 3.11035 1.6001
0.0244388 3.11035 2.07259
0.0422213 3.11035 2.09
0 3.11035 2.09
0 3.11035 2.09
-7.89601e-14 3.11035 2.05984
0.0244388 3.11035 2.07259
1.28831 3.11035 1.60008
1.26002 3.11035 1.6001
1.27702 3.11035 1.57468
0.00863377 3.11035 1.32179
1.49469e-13 3.11035 1.34701
1.49791e-13 3.11035 1.29657
1.27705 3.11035 1.3219
1.28831 3.11035 1.34709
1.26004 3.11035 1.34711
1.27684 3.11035 1.22134
1.28831 3.11035 1.19628
1.28831 3.11035 1.24639
1.26004 3.11035 1.34711
1.28831 3.11035 1.34709
1.27707 3.11035 1.37231
1.28831 3.11035 1.34709
1.28831 3.11035 1.39754
1.27707 3.11035 1.37231
1.26005 3.11035 1.39755
1.27707 3.11035 1.37231
1.28831 3.11035 1.39754
1.26003 3.11035 1.54931
1.27702 3.11035 1.57468
1.24613 3.11035 1.5747
1.24613 3.11035 1.5747
1.27702 3.11035 1.57468
1.26002 3.11035 1.6001
1.24613 3.11035 1.5747
1.23052 3.11035 1.54932
1.26003 3.11035 1.54931
1.24613 3.11035 1.5747
1.26002 3.11035 1.6001
1.23052 3.11035 1.60012
1.28831 3.11035 1.44804
1.28831 3.11035 1.49862
1.27705 3.11035 1.47333
1.27705 3.11035 1.47333
1.26004 3.11035 1.49863
1.24616 3.11035 1.47334
1.28831 3.11035 1.49862
1.26004 3.11035 1.49863
1.27705 3.11035 1.47333
1.28831 3.11035 1.54929
1.27702 3.11035 1.57468
1.26003 3.11035 1.54931
1.28831 3.11035 1.60008
1.27702 3.11035 1.57468
1.28831 3.11035 1.54929
1.25981 3.11035 1.19632
1.28831 3.11035 1.19628
1.27684 3.11035 1.22134
1.26002 3.11035 1.65102
1.27701 3.11035 1.62553
1.28831 3.11035 1.651
0.85884 3.11035 1.83075
0.873578 3.11035 1.80498
0.888295 3.11035 1.83072
0 3.11035 1.045
0.0277369 3.11035 1.045
0.00987207 3.11035 1.06971
0.0840033 3.11035 1.29659
0.0549577 3.11035 1.29657
0.0689903 3.11035 1.27137
0.0264927 3.11035 1.29656
0.0549577 3.11035 1.29657
0.0392653 3.11035 1.32178
0.0264927 3.11035 1.29656
0.00863377 3.11035 1.32179
1.49791e-13 3.11035 1.29657
0.0392653 3.11035 1.32178
0.00863377 3.11035 1.32179
0.0264927 3.11035 1.29656
0.0087521 3.11035 1.52394
-9.63464e-14 3.11035 1.5493
1.47962e-13 3.11035 1.49861
0.0265703 3.11035 1.5493
0.0393699 3.11035 1.52393
0.0550657 3.11035 1.54929
-9.63464e-14 3.11035 1.5493
0.0087521 3.11035 1.52394
0.0265703 3.11035 1.5493
0.0265703 3.11035 1.5493
0.0087521 3.11035 1.52394
0.0393699 3.11035 1.52393
0.0265544 3.11035 1.4986
0.0550443 3.11035 1.4986
0.0393699 3.11035 1.52393
0.0265544 3.11035 1.4986
0.0087521 3.11035 1.52394
1.47962e-13 3.11035 1.49861
0.0393699 3.11035 1.52393
0.0087521 3.11035 1.52394
0.0265544 3.11035 1.4986
1.49469e-13 3.11035 1.34701
0.00863377 3.11035 1.32179
0.0265126 3.11035 1.347
0.0265126 3.11035 1.347
0.00863377 3.11035 1.32179
0.0392653 3.11035 1.32178
0.0550657 3.11035 1.54929
0.0393699 3.11035 1.52393
0.0691236 3.11035 1.52393
0.0393699 3.11035 1.52393
0.0550443 3.11035 1.4986
0.0691236 3.11035 1.52393
0.288852 3.11035 1.49867
0.303471 3.11035 1.52401
0.274248 3.11035 1.524
0.274248 3.11035 1.524
0.303471 3.11035 1.52401
0.288872 3.11035 1.54937
0.288872 3.11035 1.54937
0.303471 3.11035 1.52401
0.318088 3.11035 1.54938
0.844143 3.11035 1.805
0.873578 3.11035 1.80498
0.85884 3.11035 1.83075
1.27699 3.11035 1.27156
1.28831 3.11035 1.24639
1.28831 3.11035 1.2967
1.28831 3.11035 1.34709
1.27705 3.11035 1.3219
1.28831 3.11035 1.2967
1.17079 3.11035 1.4481
1.14088 3.11035 1.44811
1.15586 3.11035 1.42285
1.26004 3.11035 1.44805
1.27705 3.11035 1.47333
1.24616 3.11035 1.47334
1.28831 3.11035 1.44804
1.27705 3.11035 1.47333
1.26004 3.11035 1.44805
1.24616 3.11035 1.47334
1.26004 3.11035 1.49863
1.23053 3.11035 1.49865
1.27704 3.11035 1.52395
1.26004 3.11035 1.49863
1.28831 3.11035 1.49862
1.28831 3.11035 1.49862
1.28831 3.11035 1.54929
1.27704 3.11035 1.52395
1.27704 3.11035 1.52395
1.28831 3.11035 1.54929
1.26003 3.11035 1.54931
1.24591 3.11035 1.22137
1.25981 3.11035 1.19632
1.27684 3.11035 1.22134
1.27699 3.11035 1.27156
1.28831 3.11035 1.2967
1.26001 3.11035 1.29674
1.26001 3.11035 1.29674
1.28831 3.11035 1.2967
1.27705 3.11035 1.3219
1.15573 3.11035 1.27161
1.1407 3.11035 1.24643
1.1706 3.11035 1.24643
1.20051 3.11035 1.24645
1.18556 3.11035 1.22126
1.21561 3.11035 1.22131
1.20051 3.11035 1.24645
1.1706 3.11035 1.24643
1.18556 3.11035 1.22126
1.24614 3.11035 1.32193
1.27705 3.11035 1.3219
1.26004 3.11035 1.34711
1.24614 3.11035 1.32193
1.26001 3.11035 1.29674
1.27705 3.11035 1.3219
1.24612 3.11035 1.62555
1.26002 3.11035 1.6001
1.27701 3.11035 1.62553
1.27701 3.11035 1.62553
1.26002 3.11035 1.65102
1.24612 3.11035 1.62555
1.23052 3.11035 1.60012
1.26002 3.11035 1.6001
1.24612 3.11035 1.62555
1.24611 3.11035 1.77905
1.21584 3.11035 1.77906
1.23051 3.11035 1.75337
1.21584 3.11035 1.72774
1.24611 3.11035 1.72772
1.23051 3.11035 1.75337
1.27699 3.11035 1.67653
1.26002 3.11035 1.65102
1.28831 3.11035 1.651
1.24611 3.11035 1.67656
1.26002 3.11035 1.65102
1.27699 3.11035 1.67653
0.917741 3.11035 1.88232
0.932465 3.11035 1.90816
0.902954 3.11035 1.9082
1.08109 3.11035 1.75343
1.09602 3.11035 1.72779
1.11094 3.11035 1.75341
1.11094 3.11035 1.75341
1.09602 3.11035 1.72779
1.12589 3.11035 1.72778
1.2305 3.11035 1.70213
1.21584 3.11035 1.67658
1.24611 3.11035 1.67656
1.2305 3.11035 1.70213
1.24611 3.11035 1.72772
1.21584 3.11035 1.72774
1.0662 3.11035 1.72781
1.09602 3.11035 1.72779
1.08109 3.11035 1.75343
0.991917 3.11035 1.49874
0.962274 3.11035 1.49874
0.977089 3.11035 1.47344
0.917902 3.11035 1.47344
0.903138 3.11035 1.49875
0.888384 3.11035 1.47344
0.932681 3.11035 1.49875
0.903138 3.11035 1.49875
0.917902 3.11035 1.47344
0.903119 3.11035 1.39765
0.932664 3.11035 1.39765
0.917893 3.11035 1.42289
0.917893 3.11035 1.42289
0.888374 3.11035 1.42289
0.903119 3.11035 1.39765
0.903119 3.11035 1.39765
0.888374 3.11035 1.42289
0.873625 3.11035 1.39764
0.917893 3.11035 1.42289
0.932664 3.11035 1.39765
0.947463 3.11035 1.4229
0.962233 3.11035 1.34723
0.977066 3.11035 1.37244
0.947444 3.11035 1.37243
0.947444 3.11035 1.37243
0.932637 3.11035 1.34723
0.962233 3.11035 1.34723
0.741456 3.11035 1.52409
0.756104 3.11035 1.49875
0.770765 3.11035 1.52409
0.756104 3.11035 1.49875
0.785431 3.11035 1.49875
0.770765 3.11035 1.52409
0.903133 3.11035 1.44816
0.888374 3.11035 1.42289
0.917893 3.11035 1.42289
0.903133 3.11035 1.44816
0.917902 3.11035 1.47344
0.888384 3.11035 1.47344
0.888384 3.11035 1.47344
0.858913 3.11035 1.47344
0.873639 3.11035 1.44815
0.873639 3.11035 1.44815
0.903133 3.11035 1.44816
0.888384 3.11035 1.47344
0.888374 3.11035 1.42289
0.903133 3.11035 1.44816
0.873639 3.11035 1.44815
0.873625 3.11035 1.39764
0.844177 3.11035 1.39764
0.858884 3.11035 1.37241
0.844153 3.11035 1.34719
0.873599 3.11035 1.34721
0.858884 3.11035 1.37241
0.318069 3.11035 1.49868
0.303471 3.11035 1.52401
0.288852 3.11035 1.49867
0.288852 3.11035 1.49867
0.303454 3.11035 1.47336
0.318069 3.11035 1.49868
0.00864568 3.11035 1.11987
1.4958e-13 3.11035 1.14509
-9.64495e-14 3.11035 1.09442
0 3.11035 1.045
0.00987207 3.11035 1.06971
-9.64495e-14 3.11035 1.09442
0.0264295 3.11035 1.1957
1.50097e-13 3.11035 1.19567
0.00849117 3.11035 1.17042
1.50097e-13 3.11035 1.19567
1.4958e-13 3.11035 1.14509
0.00849117 3.11035 1.17042
1.28831 3.11035 1.045
1.27826 3.11035 1.07075
1.26122 3.11035 1.045
1.49791e-13 3.11035 1.29657
1.50032e-13 3.11035 1.24614
0.00859461 3.11035 1.27136
0.00859461 3.11035 1.27136
0.0264927 3.11035 1.29656
1.49791e-13 3.11035 1.29657
0.0264637 3.11035 1.24613
0.00859461 3.11035 1.27136
1.50032e-13 3.11035 1.24614
0.0264637 3.11035 1.24613
0.0391815 3.11035 1.22094
0.0549232 3.11035 1.24616
0.0392276 3.11035 1.27135
0.0689903 3.11035 1.27137
0.0549577 3.11035 1.29657
0.0549577 3.11035 1.29657
0.0264927 3.11035 1.29656
0.0392276 3.11035 1.27135
0.0549232 3.11035 1.24616
0.0689903 3.11035 1.27137
0.0392276 3.11035 1.27135
0.0392276 3.11035 1.27135
0.0264637 3.11035 1.24613
0.0549232 3.11035 1.24616
0.0264927 3.11035 1.29656
0.00859461 3.11035 1.27136
0.0392276 3.11035 1.27135
0.00859461 3.11035 1.27136
0.0264637 3.11035 1.24613
0.0392276 3.11035 1.27135
0.00854014 3.11035 1.22091
1.50032e-13 3.11035 1.24614
1.50097e-13 3.11035 1.19567
0.00854014 3.11035 1.22091
1.50097e-13 3.11035 1.19567
0.0264295 3.11035 1.1957
0.0264295 3.11035 1.1957
0.0391815 3.11035 1.22094
0.00854014 3.11035 1.22091
0.00854014 3.11035 1.22091
0.0264637 3.11035 1.24613
1.50032e-13 3.11035 1.24614
0.0391815 3.11035 1.22094
0.0264637 3.11035 1.24613
0.00854014 3.11035 1.22091
0.0690987 3.11035 1.47329
0.0550443 3.11035 1.4986
0.0393425 3.11035 1.47329
0.0550443 3.11035 1.4986
0.0265544 3.11035 1.4986
0.0393425 3.11035 1.47329
0.0393425 3.11035 1.47329
0.0550252 3.11035 1.448
0.0690987 3.11035 1.47329
0.0690242 3.11035 1.32179
0.0549577 3.11035 1.29657
0.0840033 3.11035 1.29659
0.0392653 3.11035 1.32178
0.0549577 3.11035 1.29657
0.0690242 3.11035 1.32179
0.0984777 3.11035 1.3218
0.0690242 3.11035 1.32179
0.0840033 3.11035 1.29659
0.0840313 3.11035 1.34701
0.0690242 3.11035 1.32179
0.0984777 3.11035 1.3218
0.0840313 3.11035 1.34701
0.0984777 3.11035 1.3218
0.113251 3.11035 1.34702
0.303441 3.11035 1.4228
0.318055 3.11035 1.44807
0.288836 3.11035 1.44807
0.288836 3.11035 1.44807
0.318055 3.11035 1.44807
0.303454 3.11035 1.47336
0.186476 3.11035 1.47332
0.215741 3.11035 1.47333
0.201123 3.11035 1.49863
0.201103 3.11035 1.44804
0.215741 3.11035 1.47333
0.186476 3.11035 1.47332
0.215723 3.11035 1.42277
0.201085 3.11035 1.39752
0.230345 3.11035 1.39753
0.201103 3.11035 1.44804
0.186456 3.11035 1.42276
0.215723 3.11035 1.42277
0.215723 3.11035 1.42277
0.186456 3.11035 1.42276
0.201085 3.11035 1.39752
0.215762 3.11035 1.52398
0.245012 3.11035 1.52399
0.230402 3.11035 1.54934
0.157245 3.11035 1.5747
0.171881 3.11035 1.54932
0.186525 3.11035 1.57471
0.171857 3.11035 1.49862
[...]
<PointData Scalars="View Factor" >
<DataArray type="Float64" Name="View Factor" NumberOfComponents="1" format="ascii">
0.0108704
0.0108704
0.0108704
0.0178865
0.0178865
0.0178865
0.0176388
0.0176388
0.0176388
0.0204583
0.0204583
0.0204583
0.0220623
0.0220623
0.0220623
0.0173588
0.0173588
0.0173588
0.0104847
0.0104847
0.0104847
0.0137596
0.0137596
0.0137596
0.0123784
0.0123784
0.0123784
0.0139686
0.0139686
0.0139686
0.0141536
0.0141536
0.0141536
0.0143986
0.0143986
0.0143986
0.0170017
0.0170017
0.0170017
0.0172745
0.0172745
0.0172745
0.0169242
0.0169242
0.0169242
0.0174722
0.0174722
0.0174722
0.0155167
0.0155167
0.0155167
0.0157167
0.0157167
0.0157167
0.0157918
0.0157918
0.0157918
0.0168154
0.0168154
0.0168154
0.0170486
0.0170486
0.0170486
0.0122224
0.0122224
0.0122224
0.0182163
0.0182163
0.0182163
0.0199553
0.0199553
0.0199553
0.00777919
0.00777919
0.00777919
0.00658444
0.00658444
0.00658444
0.00831918
0.00831918
0.00831918
0.00979917
0.00979917
0.00979917
0.00920447
0.00920447
0.00920447
0.0127452
0.0127452
0.0127452
0.0104112
0.0104112
0.0104112
0.0122988
0.0122988
0.0122988
0.0113547
0.0113547
0.0113547
0.0100753
0.0100753
0.0100753
0.0118967
0.0118967
0.0118967
0.0111684
0.0111684
0.0111684
0.010115
0.010115
0.010115
0.00935093
0.00935093
0.00935093
0.00929107
0.00929107
0.00929107
0.00914156
0.00914156
0.00914156
0
0
0
0
0
0
0
0
0
0.017786
0.017786
0.017786
0.0129368
0.0129368
0.0129368
0.0135281
0.0135281
0.0135281
0.0144398
0.0144398
0.0144398
0.0154745
0.0154745
0.0154745
0.0153093
0.0153093
0.0153093
0.0158918
0.0158918
0.0158918
0.0160401
0.0160401
0.0160401
0.0162599
0.0162599
0.0162599
0.0165518
0.0165518
0.0165518
0.0123464
0.0123464
0.0123464
0.0131557
0.0131557
0.0131557
0.0133532
0.0133532
0.0133532
0.0121727
0.0121727
0.0121727
0.0126744
0.0126744
0.0126744
0.0125688
0.0125688
0.0125688
0.013696
0.013696
0.013696
0.0134921
0.0134921
0.0134921
0.0178369
0.0178369
0.0178369
0.0181269
0.0181269
0.0181269
0.0177547
0.0177547
0.0177547
0.0208218
0.0208218
0.0208218
0.020137
0.020137
0.020137
0.0185141
0.0185141
0.0185141
0.0187251
0.0187251
0.0187251
0.0198707
0.0198707
0.0198707
0.018378
0.018378
0.018378
0.0185318
0.0185318
0.0185318
0.0191629
0.0191629
0.0191629
0.0198054
0.0198054
0.0198054
0.0175287
0.0175287
0.0175287
0.00698958
0.00698958
0.00698958
0.00218713
0.00218713
0.00218713
0.00313609
0.00313609
0.00313609
0.00288571
0.00288571
0.00288571
0.00204788
0.00204788
0.00204788
0.00129797
0.00129797
0.00129797
0.00379297
0.00379297
0.00379297
0.00531063
0.00531063
0.00531063
0.00442247
0.00442247
0.00442247
0
0
0
0
0
0
0.00208164
0.00208164
0.00208164
0.00215125
0.00215125
0.00215125
0.000553033
0.000553033
0.000553033
0.00136402
0.00136402
0.00136402
0.00134208
0.00134208
0.00134208
0
0
0
0
0
0
0
0
0
0
0
0
0.00869524
0.00869524
0.00869524
0.00831028
0.00831028
0.00831028
0.00878429
0.00878429
0.00878429
0.00910611
0.00910611
0.00910611
0.0107318
0.0107318
0.0107318
0.00999891
0.00999891
0.00999891
0.00964581
0.00964581
0.00964581
0.00934775
0.00934775
0.00934775
0.00781894
0.00781894
0.00781894
0.00733041
0.00733041
0.00733041
0.00819055
0.00819055
0.00819055
0.00721872
0.00721872
0.00721872
0.00794047
0.00794047
0.00794047
0.00891992
0.00891992
0.00891992
0.00878165
0.00878165
0.00878165
0.00954009
0.00954009
0.00954009
0.00892127
0.00892127
0.00892127
0.00838224
0.00838224
0.00838224
0.00920292
0.00920292
0.00920292
0.00851289
0.00851289
0.00851289
0.00885141
0.00885141
0.00885141
0.00991239
0.00991239
0.00991239
0.00871062
0.00871062
0.00871062
0.00668561
0.00668561
0.00668561
0.0075602
0.0075602
0.0075602
0.00592524
0.00592524
0.00592524
0.00601544
0.00601544
0.00601544
0.00524786
0.00524786
0.00524786
0
0
0
0
0
0
0.000733448
0.000733448
0.000733448
0.000723947
0.000723947
0.000723947
0.000167967
0.000167967
0.000167967
0.000705372
0.000705372
0.000705372
0.000696293
0.000696293
0.000696293
0
0
0
0.00215591
0.00215591
0.00215591
0.00135431
0.00135431
0.00135431
0.00201188
0.00201188
0.00201188
0.00832427
0.00832427
0.00832427
0.00768749
0.00768749
0.00768749
0.0068009
0.0068009
0.0068009
0.00333046
0.00333046
0.00333046
0.00806199
0.00806199
0.00806199
0.0079347
0.0079347
0.0079347
0.00690771
0.00690771
0.00690771
0.00228002
0.00228002
0.00228002
0.0242715
0.0242715
0.0242715
0.0205112
0.0205112
0.0205112
0
0
0
0
0
0
0
0
0
0
0
0
0
0
0
0
0
0
0
0
0
0
0
0
0
0
0
0
0
0
0.000793607
0.000793607
0.000793607
0
0
0
0
0
0
0.000185089
0.000185089
0.000185089
0.000578538
0.000578538
0.000578538
0.00200642
0.00200642
0.00200642
0.00148641
0.00148641
0.00148641
0
0
0
0
0
0
0
0
0
0.0180796
0.0180796
0.0180796
0.0201926
0.0201926
0.0201926
0.0199381
0.0199381
0.0199381
0.0178621
0.0178621
0.0178621
0.014051
0.014051
0.014051
0.012303
0.012303
0.012303
0.00516295
0.00516295
0.00516295
0.0138896
0.0138896
0.0138896
0
0
0
0
0
0
0
0
0
0
0
0
0
0
0
0
0
0
0
0
0
0
0
0
0
0
0
0
0
0
0
0
0
0
0
0
0
0
0
0
0
0
0
0
0
0
0
0
0
0
0
0.0254018
0.0254018
0.0254018
0.0114896
0.0114896
0.0114896
0.0216956
0.0216956
0.0216956
0.0221511
0.0221511
0.0221511
0.0216889
0.0216889
0.0216889
0.0170321
0.0170321
0.0170321
0.0173883
0.0173883
0.0173883
0.0171131
0.0171131
0.0171131
0.0172219
0.0172219
0.0172219
0.00600167
0.00600167
0.00600167
0.00610241
0.00610241
0.00610241
0.00675015
0.00675015
0.00675015
0.0143045
0.0143045
0.0143045
0.0136964
0.0136964
0.0136964
0.0150751
0.0150751
0.0150751
0.0150041
0.0150041
0.0150041
0.0148156
0.0148156
0.0148156
0.0146198
0.0146198
0.0146198
0.0147756
0.0147756
0.0147756
0.0166835
0.0166835
0.0166835
0.016764
0.016764
0.016764
0.0166583
0.0166583
0.0166583
0.0161423
0.0161423
0.0161423
0.0165792
0.0165792
0.0165792
0.0163201
0.0163201
0.0163201
0.0164724
0.0164724
0.0164724
0.0162155
0.0162155
0.0162155
0.0127716
0.0127716
0.0127716
0.0125851
0.0125851
0.0125851
0.0125284
0.0125284
0.0125284
0.0120464
0.0120464
0.0120464
0.0119891
0.0119891
0.0119891
0.0122027
0.0122027
0.0122027
0.0134336
0.0134336
0.0134336
0.0133126
0.0133126
0.0133126
0.0135744
0.0135744
0.0135744
0.0135132
0.0135132
0.0135132
0.0183372
0.0183372
0.0183372
0.0186377
0.0186377
0.0186377
0.0188516
0.0188516
0.0188516
0.0211754
0.0211754
0.0211754
0.0230207
0.0230207
0.0230207
0.0154108
0.0154108
0.0154108
0.022584
0.022584
0.022584
0.0145215
0.0145215
0.0145215
0.0181437
0.0181437
0.0181437
0.0190606
0.0190606
0.0190606
0.0206558
0.0206558
0.0206558
0.0211658
0.0211658
0.0211658
0.0207214
0.0207214
0.0207214
0.0107034
0.0107034
0.0107034
0.0132624
0.0132624
0.0132624
0.012003
0.012003
0.012003
0.012555
0.012555
0.012555
0.0136634
0.0136634
0.0136634
0.0128504
0.0128504
0.0128504
0.0121978
0.0121978
0.0121978
0.0192576
0.0192576
0.0192576
0.0195775
0.0195775
0.0195775
0.0190336
0.0190336
0.0190336
0.0207181
0.0207181
0.0207181
0.020962
0.020962
0.020962
0.0203743
0.0203743
0.0203743
0.0202714
0.0202714
0.0202714
0.0206784
0.0206784
0.0206784
0.0203026
0.0203026
0.0203026
0.0105212
0.0105212
0.0105212
0.0110056
0.0110056
0.0110056
0.0111938
0.0111938
0.0111938
0.0067534
0.0067534
0.0067534
0.00141057
0.00141057
0.00141057
0.000561988
0.000561988
0.000561988
0.00318938
0.00318938
0.00318938
0
0
0
0
0
0
0
0
0
0
0
0
0
0
0
0
0
0
0
0
0
0
0
0
0
0
0
0
0
0
0
0
0
0
0
0
0
0
0
0
0
0
0.00405669
0.00405669
0.00405669
0.00505974
0.00505974
0.00505974
0.00597818
0.00597818
0.00597818
0.00587663
0.00587663
0.00587663
0.000561756
0.000561756
0.000561756
0
0
0
0.000179531
0.000179531
0.000179531
0.00127732
0.00127732
0.00127732
0.00123572
0.00123572
0.00123572
0.000510808
0.000510808
0.000510808
0.000502844
0.000502844
0.000502844
0.00274737
0.00274737
0.00274737
0.00195061
0.00195061
0.00195061
0.00198239
0.00198239
0.00198239
0.00283865
0.00283865
0.00283865
0.00366913
0.00366913
0.00366913
0.0036091
0.0036091
0.0036091
0.00567992
0.00567992
0.00567992
0.00663906
0.00663906
0.00663906
0
0
0
0
0
0
0
0
0
0
0
0
0
0
0
0
0
0
0
0
0
0
0
0
0
0
0
0
0
0
0
0
0
0
0
0
0
0
0
0
0
0
0
0
0
0
0
0
0
0
0
0
0
0
0
0
0
0
0
0
0
0
0
0
0
0
0
0
0
0
0
0
0
0
0
0
0
0
0
0
0
0
0
0
0
0
0
0
0
0
0
0
0
0
0
0
0
0
0
0
0
0
0
0
0
0
0
0
0.00509416
0.00509416
0.00509416
0.00574974
0.00574974
0.00574974
0.00501937
0.00501937
0.00501937
0
0
0
0
0
0
0
0
0
0
0
0
0
0
0
0
0
0
0
0
0
0
0
0
0.0103196
0.0103196
0.0103196
0.0108381
0.0108381
0.0108381
0.0107894
0.0107894
0.0107894
0.00866044
0.00866044
0.00866044
0.0106372
0.0106372
0.0106372
0.0104847
0.0104847
0.0104847
0.00938541
0.00938541
0.00938541
0.00909234
0.00909234
0.00909234
0.0134028
0.0134028
0.0134028
0.0125062
0.0125062
0.0125062
0.0121274
0.0121274
0.0121274
0.0117018
0.0117018
0.0117018
0.0108073
0.0108073
0.0108073
0.0115465
0.0115465
0.0115465
0.010785
0.010785
0.010785
0.00914533
0.00914533
0.00914533
0.0101277
0.0101277
0.0101277
0.0102775
0.0102775
0.0102775
0.0109998
0.0109998
0.0109998
0.0106125
0.0106125
0.0106125
0.0096525
0.0096525
0.0096525
0.00980779
0.00980779
0.00980779
0.00900085
0.00900085
0.00900085
0.00804684
0.00804684
0.00804684
0.00620092
0.00620092
0.00620092
0.00532682
0.00532682
0.00532682
0.00858397
0.00858397
0.00858397
0.0076784
0.0076784
0.0076784
0.00872023
0.00872023
0.00872023
0.00792166
0.00792166
0.00792166
0.00689371
0.00689371
0.00689371
0.00700073
0.00700073
0.00700073
0.00830459
0.00830459
0.00830459
0.00843728
0.00843728
0.00843728
0.00756745
0.00756745
0.00756745
0.0065933
0.0065933
0.0065933
0
0
0
0
0
0
0
0
0
0
0
0
0
0
0
0
0
0
0
0
0
0
0
0
0
0
0
0
0
0
0.00198446
0.00198446
0.00198446
0.00193094
0.00193094
0.00193094
0.00131855
0.00131855
0.00131855
0.00130109
0.00130109
0.00130109
0.00267617
0.00267617
0.00267617
0.00263894
0.00263894
0.00263894
0.000752889
0.000752889
0.000752889
0.00137261
0.00137261
0.00137261
0.000185945
0.000185945
0.000185945
0.0014293
0.0014293
0.0014293
0.0014101
0.0014101
0.0014101
0.000762835
0.000762835
0.000762835
0.000783191
0.000783191
0.000783191
0.000188345
0.000188345
0.000188345
0.00224822
0.00224822
0.00224822
0.00148877
0.00148877
0.00148877
0.00146863
0.00146863
0.00146863
0.00218617
0.00218617
0.00218617
0.00299778
0.00299778
0.00299778
0.00379579
0.00379579
0.00379579
0.00304116
0.00304116
0.00304116
0.00291323
0.00291323
0.00291323
0.00574401
0.00574401
0.00574401
0.00410504
0.00410504
0.00410504
0.00583218
0.00583218
0.00583218
0.00498601
0.00498601
0.00498601
0.0072408
0.0072408
0.0072408
0.00712761
0.00712761
0.00712761
0.00521647
0.00521647
0.00521647
0.00610679
0.00610679
0.00610679
0.00506142
0.00506142
0.00506142
0.00601353
0.00601353
0.00601353
0.00385221
0.00385221
0.00385221
0.00483641
0.00483641
0.00483641
0.0031302
0.0031302
0.0031302
0.00580695
0.00580695
0.00580695
0.00692085
0.00692085
0.00692085
0.00504914
0.00504914
0.00504914
0
0
0
0.00153004
0.00153004
0.00153004
0.00172012
0.00172012
0.00172012
0.00140185
0.00140185
0.00140185
0.00038704
0.00038704
0.00038704
0.0213557
0.0213557
0.0213557
0.0180417
0.0180417
0.0180417
0.0183784
0.0183784
0.0183784
0.0248622
0.0248622
0.0248622
0.0251218
0.0251218
0.0251218
0.0250381
0.0250381
0.0250381
0.0244011
0.0244011
0.0244011
0.0251742
0.0251742
0.0251742
0.0247789
0.0247789
0.0247789
0.0246481
0.0246481
0.0246481
0.0251097
0.0251097
0.0251097
0.0248914
0.0248914
0.0248914
0.0249294
0.0249294
0.0249294
0.0247882
0.0247882
0.0247882
0
0
0
0
0
0
0
0
0
0
0
0
0.000178954
0.000178954
0.000178954
0.00018125
0.00018125
0.00018125
0
0
0
0.000193254
0.000193254
0.000193254
0
0
0
0
0
0
0
0
0
0
0
0
0
0
0
0
0
0
0.000185347
0.000185347
0.000185347
0
0
0
0
0
0
0
0
0
0
0
0
0
0
0
0
0
0
0
0
0
0
0
0
0
0
0
0
0
0
0
0
0
0.0226603
0.0226603
0.0226603
0.0218148
0.0218148
0.0218148
0.0225661
0.0225661
0.0225661
0.0229514
0.0229514
0.0229514
0.0180097
0.0180097
0.0180097
0.0139991
0.0139991
0.0139991
0.0228548
0.0228548
0.0228548
0.0201108
0.0201108
0.0201108
0.020026
0.020026
0.020026
0.0179372
0.0179372
0.0179372
0.00380215
0.00380215
0.00380215
0.00605957
0.00605957
0.00605957
0.00815199
0.00815199
0.00815199
0.00607928
0.00607928
0.00607928
0.00517979
0.00517979
0.00517979
0.00817966
0.00817966
0.00817966
0.00939499
0.00939499
0.00939499
0.00312007
0.00312007
0.00312007
0.00379027
0.00379027
0.00379027
0.00194956
0.00194956
0.00194956
0.00144179
0.00144179
0.00144179
0.00936186
0.00936186
0.00936186
0.0122107
0.0122107
0.0122107
0.0139453
0.0139453
0.0139453
0.0122577
0.0122577
0.0122577
0.00603913
0.00603913
0.00603913
0.00812329
0.00812329
0.00812329
0.00932752
0.00932752
0.00932752
0.0138319
0.0138319
0.0138319
0.012162
0.012162
0.012162
0.0124601
0.0124601
0.0124601
0.00968925
0.00968925
0.00968925
0
0
0
0
0
0
0.00144598
0.00144598
0.00144598
0.000180046
0.000180046
0.000180046
0
0
0
0.000180543
0.000180543
0.000180543
0.000563333
0.000563333
0.000563333
0
0
0
0
0
0
0.00618213
0.00618213
0.00618213
0.00528256
0.00528256
0.00528256
0.0176569
0.0176569
0.0176569
0
0
0
0
0
0
0
0
0
0
0
0
0.0217226
0.0217226
0.0217226
0.0212485
0.0212485
0.0212485
0.00344619
0.00344619
0.00344619
0.00228434
0.00228434
0.00228434
0
0
0
0.0198407
0.0198407
0.0198407
0.00321464
0.00321464
0.00321464
0.0224869
0.0224869
0.0224869
0.0168562
0.0168562
0.0168562
0.000569066
0.000569066
0.000569066
0.00522859
0.00522859
0.00522859
0.0205564
0.0205564
0.0205564
0.0183331
0.0183331
0.0183331
0.0125048
0.0125048
0.0125048
0.0142392
0.0142392
0.0142392
0.0196653
0.0196653
0.0196653
0.00474785
0.00474785
0.00474785
0
0
0
0
0
0
0
0
0
0.0221487
0.0221487
0.0221487
0.0233809
0.0233809
0.0233809
0.0230015
0.0230015
0.0230015
0.0203603
0.0203603
0.0203603
0.0196003
0.0196003
0.0196003
0.0204289
0.0204289
0.0204289
0.0216593
0.0216593
0.0216593
0.0202714
0.0202714
0.0202714
0.0230445
0.0230445
0.0230445
0
0
0
0
0
0
0
0
0
0
0
0
0
0
0
0
0
0
0
0
0
0
0
0
0
0
0
0.00950458
0.00950458
0.00950458
0.00771633
0.00771633
0.00771633
0.0210788
0.0210788
0.0210788
0.0235107
0.0235107
0.0235107
0.0242761
0.0242761
0.0242761
0.0201902
0.0201902
0.0201902
0.0190368
0.0190368
0.0190368
0.0211602
0.0211602
0.0211602
0.0210742
0.0210742
0.0210742
0.0202225
0.0202225
0.0202225
0.0211028
0.0211028
0.0211028
0.0233982
0.0233982
0.0233982
0.0227107
0.0227107
0.0227107
0.028363
0.028363
0.028363
0.028152
0.028152
0.028152
0.0279614
0.0279614
0.0279614
0.0281853
0.0281853
0.0281853
0.02787
0.02787
0.02787
0.0175848
0.0175848
0.0175848
0.0174993
0.0174993
0.0174993
0.015875
0.015875
0.015875
0.0161397
0.0161397
0.0161397
0.0145406
0.0145406
0.0145406
0.0153265
0.0153265
0.0153265
0.0153929
0.0153929
0.0153929
0.0151131
0.0151131
0.0151131
0.0153619
0.0153619
0.0153619
0.015877
0.015877
0.015877
0.0151474
0.0151474
0.0151474
0.0143966
0.0143966
0.0143966
0.0146306
0.0146306
0.0146306
0.014671
0.014671
0.014671
0.0151373
0.0151373
0.0151373
0.0153789
0.0153789
0.0153789
0.0138464
0.0138464
0.0138464
0.0134734
0.0134734
0.0134734
0.0139424
0.0139424
0.0139424
0.0136243
0.0136243
0.0136243
0.0130407
0.0130407
0.0130407
0.0116055
0.0116055
0.0116055
0.012347
0.012347
0.012347
0.0128302
0.0128302
0.0128302
0.0126207
0.0126207
0.0126207
0.0151691
0.0151691
0.0151691
0.0154054
0.0154054
0.0154054
0.0132941
0.0132941
0.0132941
0.013722
0.013722
0.013722
0.0147101
0.0147101
0.0147101
0.0150891
0.0150891
0.0150891
0.0146681
0.0146681
0.0146681
0.0114838
0.0114838
0.0114838
0.0119924
0.0119924
0.0119924
0.0118199
0.0118199
0.0118199
0.0115366
0.0115366
0.0115366
0.0117037
0.0117037
0.0117037
0.0118517
0.0118517
0.0118517
0.0113522
0.0113522
0.0113522
0.0124889
0.0124889
0.0124889
0.0121277
0.0121277
0.0121277
0.011673
0.011673
0.011673
0.0119519
0.0119519
0.0119519
0.0127326
0.0127326
0.0127326
0.0129224
0.0129224
0.0129224
0.0126026
0.0126026
0.0126026
0.0126595
0.0126595
0.0126595
0.0132346
0.0132346
0.0132346
0.0130956
0.0130956
0.0130956
0.012903
0.012903
0.012903
0.0128475
0.0128475
0.0128475
0.0131747
0.0131747
0.0131747
0.0129804
0.0129804
0.0129804
0.0133464
0.0133464
0.0133464
0.0136545
0.0136545
0.0136545
0.0125759
0.0125759
0.0125759
0.0127677
0.0127677
0.0127677
0.0127579
0.0127579
0.0127579
0.0131466
0.0131466
0.0131466
0.0130557
0.0130557
0.0130557
0.0132516
0.0132516
0.0132516
0.0214669
0.0214669
0.0214669
0.0213185
0.0213185
0.0213185
0.0214283
0.0214283
0.0214283
0.0232035
0.0232035
0.0232035
0.0205789
0.0205789
0.0205789
0.0202379
0.0202379
0.0202379
0.0142615
0.0142615
0.0142615
0.0157217
0.0157217
0.0157217
0.0167234
0.0167234
0.0167234
0.0182643
0.0182643
0.0182643
0.0224683
0.0224683
0.0224683
0.0227545
0.0227545
0.0227545
0.0226508
0.0226508
0.0226508
0.0222622
0.0222622
0.0222622
0.022367
0.022367
0.022367
0.0214252
0.0214252
0.0214252
0.0209608
0.0209608
0.0209608
0.0215278
0.0215278
0.0215278
0.0209858
0.0209858
0.0209858
0.0202066
0.0202066
0.0202066
0.0137022
0.0137022
0.0137022
0.0155222
0.0155222
0.0155222
0.0202453
0.0202453
0.0202453
0.0186974
0.0186974
0.0186974
0.0215495
0.0215495
0.0215495
0.0212058
0.0212058
0.0212058
0.0218569
0.0218569
0.0218569
0.0220009
0.0220009
0.0220009
0.0207007
0.0207007
0.0207007
0.0204876
0.0204876
0.0204876
0.0217759
0.0217759
0.0217759
0.0212466
0.0212466
0.0212466
0.0215647
0.0215647
0.0215647
0.0222982
0.0222982
0.0222982
0.022604
0.022604
0.022604
0.0223808
0.0223808
0.0223808
0.0126081
0.0126081
0.0126081
0.0118826
0.0118826
0.0118826
0.0119233
0.0119233
0.0119233
0.0125219
0.0125219
0.0125219
0.00571459
0.00571459
0.00571459
0.00687577
0.00687577
0.00687577
0.00699962
0.00699962
0.00699962
0.00592108
0.00592108
0.00592108
0.0144255
0.0144255
0.0144255
0.0126427
0.0126427
0.0126427
0.0147567
0.0147567
0.0147567
0.0139631
0.0139631
0.0139631
0.0106484
0.0106484
0.0106484
0.0121133
0.0121133
0.0121133
0.0130113
0.0130113
0.0130113
0.0126659
0.0126659
0.0126659
0.00980489
0.00980489
0.00980489
0.0105052
0.0105052
0.0105052
0.00615508
0.00615508
0.00615508
0.00761511
0.00761511
0.00761511
0.00762187
0.00762187
0.00762187
0.00832442
0.00832442
0.00832442
0.0203015
0.0203015
0.0203015
0.0192115
0.0192115
0.0192115
0.0227358
0.0227358
0.0227358
0.0225852
0.0225852
0.0225852
0.0215926
0.0215926
0.0215926
0.0220591
0.0220591
0.0220591
0.0226347
0.0226347
0.0226347
0.019033
0.019033
0.019033
0.019923
0.019923
0.019923
0.0155867
0.0155867
0.0155867
0.0169061
0.0169061
0.0169061
0.0130838
0.0130838
0.0130838
0.0112616
0.0112616
0.0112616
0.0123139
0.0123139
0.0123139
0.0134853
0.0134853
0.0134853
0.0141566
0.0141566
0.0141566
0.0122081
0.0122081
0.0122081
0.0126317
0.0126317
0.0126317
0.0132058
0.0132058
0.0132058
0.0129843
0.0129843
0.0129843
0.0115824
0.0115824
0.0115824
0.0117831
0.0117831
0.0117831
0.0151366
0.0151366
0.0151366
0.0157976
0.0157976
0.0157976
0.0160652
0.0160652
0.0160652
0.0156587
0.0156587
0.0156587
0.0155776
0.0155776
0.0155776
0.0137532
0.0137532
0.0137532
0.0144316
0.0144316
0.0144316
0.0169258
0.0169258
0.0169258
0.0159618
0.0159618
0.0159618
0.0191287
0.0191287
0.0191287
0.0187776
0.0187776
0.0187776
0.0198895
0.0198895
0.0198895
0.0193075
0.0193075
0.0193075
0.0198415
0.0198415
0.0198415
0.00514728
0.00514728
0.00514728
0.00419716
0.00419716
0.00419716
0.00561475
0.00561475
0.00561475
0.00449691
0.00449691
0.00449691
0.0101684
0.0101684
0.0101684
0.00785978
0.00785978
0.00785978
0.00772572
0.00772572
0.00772572
0.00883467
0.00883467
0.00883467
0.00853621
0.00853621
0.00853621
0.00961833
0.00961833
0.00961833
0.00945495
0.00945495
0.00945495
0.00143391
0.00143391
0.00143391
0.00229937
0.00229937
0.00229937
0.00226118
0.00226118
0.00226118
0.00148203
0.00148203
0.00148203
0.00058995
0.00058995
0.00058995
0.000580442
0.000580442
0.000580442
0
0
0
0
0
0
0
0
0
0
0
0
0
0
0
0
0
0
0
0
0
0
0
0
0
0
0
0
0
0
0
0
0
0
0
0
0
0
0
0
0
0
0
0
0
0
0
0
0.00398866
0.00398866
0.00398866
0.00385684
0.00385684
0.00385684
0.00480809
0.00480809
0.00480809
0.00489019
0.00489019
0.00489019
0.00298276
0.00298276
0.00298276
0.00303281
0.00303281
0.00303281
0
0
0
0
0
0
0
0
0
0
0
0
0
0
0
0
0
0
0
0
0
0
0
0
0
0
0
0
0
0
0
0
0
0
0
0
0
0
0
0
0
0
0.00365934
0.00365934
0.00365934
0.00473959
0.00473959
0.00473959
0.0046569
0.0046569
0.0046569
0.00558467
0.00558467
0.00558467
0.00540007
0.00540007
0.00540007
0.00631032
0.00631032
0.00631032
0.00641759
0.00641759
0.00641759
0.00457191
0.00457191
0.00457191
0.00464899
0.00464899
0.00464899
0
0
0