<VTKFile type="UnstructuredGrid" version="1.0">
<UnstructuredGrid>
<Piece NumberOfPoints="10830" NumberOfCells="3610">
<Points>
<DataArray type="Float64" NumberOfComponents="3" format="ascii">
3.10314 1.29552 9.43075
3.11025 1.28841 9.405
3.11025 1.28841 9.45646
3.11025 1.28841 9.96008
3.11025 1.28841 10.011
3.10226 1.2964 9.98553
3.11025 1.28841 9.96008
3.10226 1.2964 9.98553
3.09025 1.30841 9.9601
2.21656 2.1821 10.4326
2.22913 2.16953 10.45
2.19928 2.19938 10.45
2.19928 2.19938 10.45
2.19928 2.19938 10.4198
2.21656 2.1821 10.4326
3.11025 1.28841 9.96008
3.09025 1.30841 9.9601
3.10227 1.29639 9.93468
2.20538 2.19328 9.68179
2.19928 2.19938 9.70701
2.19928 2.19938 9.65657
3.10229 1.29637 9.6819
3.11025 1.28841 9.70709
3.09026 1.3084 9.70711
3.10214 1.29652 9.58134
3.11025 1.28841 9.55628
3.11025 1.28841 9.60639
3.09026 1.3084 9.70711
3.11025 1.28841 9.70709
3.1023 1.29636 9.73232
3.11025 1.28841 9.70709
3.11025 1.28841 9.75754
3.1023 1.29636 9.73232
3.09026 1.3084 9.75755
3.1023 1.29636 9.73232
3.11025 1.28841 9.75754
3.09025 1.30841 9.90931
3.10227 1.29639 9.93468
3.08043 1.31823 9.9347
3.08043 1.31823 9.9347
3.10227 1.29639 9.93468
3.09025 1.30841 9.9601
3.08043 1.31823 9.9347
3.06939 1.32927 9.90932
3.09025 1.30841 9.90931
3.08043 1.31823 9.9347
3.09025 1.30841 9.9601
3.06938 1.32928 9.96012
3.11025 1.28841 9.80804
3.11025 1.28841 9.85862
3.10229 1.29637 9.83333
3.10229 1.29637 9.83333
3.09026 1.3084 9.85863
3.08044 1.31822 9.83334
3.11025 1.28841 9.85862
3.09026 1.3084 9.85863
3.10229 1.29637 9.83333
3.11025 1.28841 9.90929
3.10227 1.29639 9.93468
3.09025 1.30841 9.90931
3.11025 1.28841 9.96008
3.10227 1.29639 9.93468
3.11025 1.28841 9.90929
3.0901 1.30856 9.55632
3.11025 1.28841 9.55628
3.10214 1.29652 9.58134
3.09024 1.30842 10.011
3.10226 1.2964 9.98553
3.11025 1.28841 10.011
2.80657 1.59209 10.1907
2.81699 1.58167 10.165
2.8274 1.57126 10.1907
2.19928 2.19938 9.405
2.21889 2.17977 9.405
2.20626 2.1924 9.4297
2.25868 2.13998 9.65659
2.23814 2.16052 9.65657
2.24806 2.1506 9.63137
2.21801 2.18065 9.65656
2.23814 2.16052 9.65657
2.22704 2.17162 9.68178
2.21801 2.18065 9.65656
2.20538 2.19328 9.68179
2.19928 2.19938 9.65657
2.22704 2.17162 9.68178
2.20538 2.19328 9.68179
2.21801 2.18065 9.65656
2.20547 2.19319 9.88394
2.19928 2.19938 9.9093
2.19928 2.19938 9.85861
2.21807 2.1806 9.9093
2.22712 2.17155 9.88393
2.23821 2.16045 9.90929
2.19928 2.19938 9.9093
2.20547 2.19319 9.88394
2.21807 2.1806 9.9093
2.21807 2.1806 9.9093
2.20547 2.19319 9.88394
2.22712 2.17155 9.88393
2.21805 2.18061 9.8586
2.2382 2.16046 9.8586
2.22712 2.17155 9.88393
2.21805 2.18061 9.8586
2.20547 2.19319 9.88394
2.19928 2.19938 9.85861
2.22712 2.17155 9.88393
2.20547 2.19319 9.88394
2.21805 2.18061 9.8586
2.19928 2.19938 9.70701
2.20538 2.19328 9.68179
2.21802 2.18064 9.707
2.21802 2.18064 9.707
2.20538 2.19328 9.68179
2.22704 2.17162 9.68178
2.23821 2.16045 9.90929
2.22712 2.17155 9.88393
2.24816 2.15051 9.88393
2.22712 2.17155 9.88393
2.2382 2.16046 9.8586
2.24816 2.15051 9.88393
2.40353 1.99513 9.85867
2.41386 1.9848 9.88401
2.3932 2.00546 9.884
2.3932 2.00546 9.884
2.41386 1.9848 9.88401
2.40354 1.99512 9.90937
2.40354 1.99512 9.90937
2.41386 1.9848 9.88401
2.4242 1.97446 9.90938
2.79618 1.60248 10.165
2.81699 1.58167 10.165
2.80657 1.59209 10.1907
3.10224 1.29642 9.63156
3.11025 1.28841 9.60639
3.11025 1.28841 9.6567
3.11025 1.28841 9.70709
3.10229 1.29637 9.6819
3.11025 1.28841 9.6567
3.02715 1.37151 9.8081
3.006 1.39266 9.80811
3.01659 1.38207 9.78285
3.09026 1.3084 9.80805
3.10229 1.29637 9.83333
3.08044 1.31822 9.83334
3.11025 1.28841 9.80804
3.10229 1.29637 9.83333
3.09026 1.3084 9.80805
3.08044 1.31822 9.83334
3.09026 1.3084 9.85863
3.0694 1.32926 9.85865
3.10228 1.29638 9.88395
3.09026 1.3084 9.85863
3.11025 1.28841 9.85862
3.11025 1.28841 9.85862
3.11025 1.28841 9.90929
3.10228 1.29638 9.88395
3.10228 1.29638 9.88395
3.11025 1.28841 9.90929
3.09025 1.30841 9.90931
3.08027 1.31839 9.58137
3.0901 1.30856 9.55632
3.10214 1.29652 9.58134
3.10224 1.29642 9.63156
3.11025 1.28841 9.6567
3.09024 1.30842 9.65674
3.09024 1.30842 9.65674
3.11025 1.28841 9.6567
3.10229 1.29637 9.6819
3.0165 1.38216 9.63161
3.00588 1.39278 9.60643
3.02702 1.37164 9.60643
3.04817 1.35049 9.60645
3.03759 1.36107 9.58126
3.05884 1.33982 9.58132
3.04817 1.35049 9.60645
3.02702 1.37164 9.60643
3.03759 1.36107 9.58126
3.08043 1.31823 9.68193
3.10229 1.29637 9.6819
3.09026 1.3084 9.70711
3.08043 1.31823 9.68193
3.09024 1.30842 9.65674
3.10229 1.29637 9.6819
3.08042 1.31824 9.98555
3.09025 1.30841 9.9601
3.10226 1.2964 9.98553
3.10226 1.2964 9.98553
3.09024 1.30842 10.011
3.08042 1.31824 9.98555
3.06938 1.32928 9.96012
3.09025 1.30841 9.9601
3.08042 1.31824 9.98555
3.08041 1.31825 10.1391
3.05901 1.33965 10.1391
3.06938 1.32928 10.1134
3.05901 1.33966 10.0877
3.08041 1.31825 10.0877
3.06938 1.32928 10.1134
3.10225 1.29641 10.0365
3.09024 1.30842 10.011
3.11025 1.28841 10.011
3.08041 1.31825 10.0366
3.09024 1.30842 10.011
3.10225 1.29641 10.0365
2.84822 1.55044 10.2423
2.85863 1.54003 10.2682
2.83776 1.5609 10.2682
2.96373 1.43493 10.1134
2.97428 1.42438 10.0878
2.98483 1.41383 10.1134
2.98483 1.41383 10.1134
2.97428 1.42438 10.0878
2.9954 1.40326 10.0878
3.06938 1.32929 10.0621
3.05901 1.33965 10.0366
3.08041 1.31825 10.0366
3.06938 1.32929 10.0621
3.08041 1.31825 10.0877
3.05901 1.33966 10.0877
2.95319 1.44547 10.0878
2.97428 1.42438 10.0878
2.96373 1.43493 10.1134
2.90067 1.49799 9.85874
2.87971 1.51895 9.85874
2.89018 1.50848 9.83344
2.84833 1.55033 9.83344
2.83789 1.56077 9.85875
2.82746 1.5712 9.83344
2.85878 1.53988 9.85875
2.83789 1.56077 9.85875
2.84833 1.55033 9.83344
2.83788 1.56078 9.75765
2.85877 1.53989 9.75766
2.84833 1.55034 9.78289
2.84833 1.55034 9.78289
2.82745 1.57121 9.78289
2.83788 1.56078 9.75765
2.83788 1.56078 9.75765
2.82745 1.57121 9.78289
2.81702 1.58164 9.75764
2.84833 1.55034 9.78289
2.85877 1.53989 9.75766
2.86924 1.52943 9.7829
2.87968 1.51898 9.70723
2.89017 1.50849 9.73244
2.86922 1.52944 9.73244
2.86922 1.52944 9.73244
2.85875 1.53991 9.70723
2.87968 1.51898 9.70723
2.72357 1.6751 9.88409
2.73392 1.66474 9.85875
2.74429 1.65437 9.88409
2.73392 1.66474 9.85875
2.75466 1.644 9.85875
2.74429 1.65437 9.88409
2.83789 1.56077 9.80816
2.82745 1.57121 9.78289
2.84833 1.55034 9.78289
2.83789 1.56077 9.80816
2.84833 1.55033 9.83344
2.82746 1.5712 9.83344
2.82746 1.5712 9.83344
2.80662 1.59204 9.83344
2.81703 1.58163 9.80815
2.81703 1.58163 9.80815
2.83789 1.56077 9.80816
2.82746 1.5712 9.83344
2.82745 1.57121 9.78289
2.83789 1.56077 9.80816
2.81703 1.58163 9.80815
2.81702 1.58164 9.75764
2.7962 1.60246 9.75764
2.8066 1.59206 9.73241
2.79618 1.60248 9.70719
2.81701 1.58166 9.70721
2.8066 1.59206 9.73241
2.42419 1.97447 9.85868
2.41386 1.9848 9.88401
2.40353 1.99513 9.85867
2.40353 1.99513 9.85867
2.41385 1.98481 9.83336
2.42419 1.97447 9.85868
2.20539 2.19327 9.47987
2.19928 2.19938 9.50508
2.19928 2.19938 9.45442
2.19928 2.19938 9.405
2.20626 2.1924 9.4297
2.19928 2.19938 9.45442
2.21797 2.1807 9.5557
2.19928 2.19938 9.55567
2.20528 2.19338 9.53042
2.19928 2.19938 9.55567
2.19928 2.19938 9.50508
2.20528 2.19338 9.53042
3.11025 1.28841 9.405
3.10314 1.29552 9.43075
3.0911 1.30756 9.405
2.19928 2.19938 9.65657
2.19928 2.19938 9.60614
2.20536 2.19331 9.63136
2.20536 2.19331 9.63136
2.21801 2.18065 9.65656
2.19928 2.19938 9.65657
2.21799 2.18067 9.60613
2.20536 2.19331 9.63136
2.19928 2.19938 9.60614
2.21799 2.18067 9.60613
2.22698 2.17168 9.58094
2.23811 2.16055 9.60616
2.22702 2.17165 9.63135
2.24806 2.1506 9.63137
2.23814 2.16052 9.65657
2.23814 2.16052 9.65657
2.21801 2.18065 9.65656
2.22702 2.17165 9.63135
2.23811 2.16055 9.60616
2.24806 2.1506 9.63137
2.22702 2.17165 9.63135
2.22702 2.17165 9.63135
2.21799 2.18067 9.60613
2.23811 2.16055 9.60616
2.21801 2.18065 9.65656
2.20536 2.19331 9.63136
2.22702 2.17165 9.63135
2.20536 2.19331 9.63136
2.21799 2.18067 9.60613
2.22702 2.17165 9.63135
2.20532 2.19334 9.58091
2.19928 2.19938 9.60614
2.19928 2.19938 9.55567
2.20532 2.19334 9.58091
2.19928 2.19938 9.55567
2.21797 2.1807 9.5557
2.21797 2.1807 9.5557
2.22698 2.17168 9.58094
2.20532 2.19334 9.58091
2.20532 2.19334 9.58091
2.21799 2.18067 9.60613
2.19928 2.19938 9.60614
2.22698 2.17168 9.58094
2.21799 2.18067 9.60613
2.20532 2.19334 9.58091
2.24814 2.15052 9.83329
2.2382 2.16046 9.8586
2.2271 2.17156 9.83329
2.2382 2.16046 9.8586
2.21805 2.18061 9.8586
2.2271 2.17156 9.83329
2.2271 2.17156 9.83329
2.23819 2.16048 9.808
2.24814 2.15052 9.83329
2.24809 2.15058 9.68179
2.23814 2.16052 9.65657
2.25868 2.13998 9.65659
2.22704 2.17162 9.68178
2.23814 2.16052 9.65657
2.24809 2.15058 9.68179
2.26891 2.12975 9.6818
2.24809 2.15058 9.68179
2.25868 2.13998 9.65659
2.2587 2.13996 9.70701
2.24809 2.15058 9.68179
2.26891 2.12975 9.6818
2.2587 2.13996 9.70701
2.26891 2.12975 9.6818
2.27936 2.1193 9.70702
2.41384 1.98482 9.7828
2.42418 1.97448 9.80807
2.40352 1.99515 9.80807
2.40352 1.99515 9.80807
2.42418 1.97448 9.80807
2.41385 1.98481 9.83336
2.33114 2.06753 9.83332
2.35183 2.04683 9.83333
2.34149 2.05717 9.85863
2.34148 2.05718 9.80803
2.35183 2.04683 9.83333
2.33114 2.06753 9.83332
2.35182 2.04684 9.78277
2.34147 2.05719 9.75752
2.36216 2.03651 9.75753
2.34148 2.05718 9.80803
2.33112 2.06754 9.78276
2.35182 2.04684 9.78277
2.35182 2.04684 9.78277
2.33112 2.06754 9.78276
2.34147 2.05719 9.75752
2.35184 2.04682 9.88398
2.37253 2.02613 9.88399
2.3622 2.03646 9.90934
2.31047 2.08819 9.9347
2.32082 2.07785 9.90932
2.33117 2.06749 9.93471
2.3208 2.07786 9.85862
2.33114 2.06753 9.83332
2.34149 2.05717 9.85863
2.31043 2.08823 9.83331
2.33114 2.06753 9.83332
2.3208 2.07786 9.85862
2.23821 2.16045 9.90929
2.24816 2.15051 9.88393
2.25876 2.1399 9.90929
2.24814 2.15052 9.83329
2.23819 2.16048 9.808
2.25873 2.13993 9.808
2.25873 2.13993 9.808
2.26896 2.1297 9.83329
2.24814 2.15052 9.83329
2.30008 2.09858 9.80801
2.31043 2.08823 9.83331
2.28971 2.10895 9.8333
2.25874 2.13992 9.8586
2.24816 2.15051 9.88393
2.2382 2.16046 9.8586
2.25874 2.13992 9.8586
[...]
<PointData Scalars="View Factor" >
<DataArray type="Float64" Name="View Factor" NumberOfComponents="1" format="ascii">
5.99337e-05
5.99337e-05
5.99337e-05
5.26751e-05
5.26751e-05
5.26751e-05
5.25689e-05
5.25689e-05
5.25689e-05
6.43936e-06
6.43936e-06
6.43936e-06
4.83601e-06
4.83601e-06
4.83601e-06
5.27773e-05
5.27773e-05
5.27773e-05
3.628e-06
3.628e-06
3.628e-06
5.59482e-05
5.59482e-05
5.59482e-05
5.78333e-05
5.78333e-05
5.78333e-05
5.57264e-05
5.57264e-05
5.57264e-05
5.58377e-05
5.58377e-05
5.58377e-05
5.52958e-05
5.52958e-05
5.52958e-05
5.26158e-05
5.26158e-05
5.26158e-05
5.24137e-05
5.24137e-05
5.24137e-05
5.22015e-05
5.22015e-05
5.22015e-05
5.18003e-05
5.18003e-05
5.18003e-05
5.45486e-05
5.45486e-05
5.45486e-05
5.3649e-05
5.3649e-05
5.3649e-05
5.40197e-05
5.40197e-05
5.40197e-05
5.31836e-05
5.31836e-05
5.31836e-05
5.3292e-05
5.3292e-05
5.3292e-05
5.77162e-05
5.77162e-05
5.77162e-05
5.21646e-05
5.21646e-05
5.21646e-05
8.8724e-06
8.8724e-06
8.8724e-06
6.18236e-06
6.18236e-06
6.18236e-06
1.78337e-05
1.78337e-05
1.78337e-05
1.90012e-05
1.90012e-05
1.90012e-05
4.29946e-06
4.29946e-06
4.29946e-06
7.53634e-06
7.53634e-06
7.53634e-06
4.22045e-06
4.22045e-06
4.22045e-06
1.81297e-05
1.81297e-05
1.81297e-05
5.72893e-06
5.72893e-06
5.72893e-06
8.62852e-06
8.62852e-06
8.62852e-06
1.79341e-05
1.79341e-05
1.79341e-05
4.035e-06
4.035e-06
4.035e-06
7.78328e-06
7.78328e-06
7.78328e-06
4.05448e-06
4.05448e-06
4.05448e-06
7.48684e-06
7.48684e-06
7.48684e-06
1.74668e-05
1.74668e-05
1.74668e-05
1.73488e-05
1.73488e-05
1.73488e-05
1.41414e-06
1.41414e-06
1.41414e-06
2.01794e-06
2.01794e-06
2.01794e-06
2.39951e-06
2.39951e-06
2.39951e-06
9.02755e-06
9.02755e-06
9.02755e-06
5.71607e-05
5.71607e-05
5.71607e-05
5.64951e-05
5.64951e-05
5.64951e-05
5.02815e-05
5.02815e-05
5.02815e-05
5.38561e-05
5.38561e-05
5.38561e-05
5.44392e-05
5.44392e-05
5.44392e-05
5.30209e-05
5.30209e-05
5.30209e-05
5.3808e-05
5.3808e-05
5.3808e-05
5.39164e-05
5.39164e-05
5.39164e-05
5.33931e-05
5.33931e-05
5.33931e-05
5.70963e-05
5.70963e-05
5.70963e-05
5.66039e-05
5.66039e-05
5.66039e-05
5.63813e-05
5.63813e-05
5.63813e-05
5.24536e-05
5.24536e-05
5.24536e-05
5.46666e-05
5.46666e-05
5.46666e-05
5.39184e-05
5.39184e-05
5.39184e-05
5.55624e-05
5.55624e-05
5.55624e-05
5.57796e-05
5.57796e-05
5.57796e-05
5.20066e-05
5.20066e-05
5.20066e-05
5.18051e-05
5.18051e-05
5.18051e-05
5.15979e-05
5.15979e-05
5.15979e-05
4.92625e-05
4.92625e-05
4.92625e-05
4.96472e-05
4.96472e-05
4.96472e-05
5.19587e-05
5.19587e-05
5.19587e-05
5.14037e-05
5.14037e-05
5.14037e-05
2.47265e-05
2.47265e-05
2.47265e-05
4.45393e-05
4.45393e-05
4.45393e-05
4.52274e-05
4.52274e-05
4.52274e-05
5.02278e-05
5.02278e-05
5.02278e-05
4.98418e-05
4.98418e-05
4.98418e-05
4.3995e-05
4.3995e-05
4.3995e-05
3.98316e-05
3.98316e-05
3.98316e-05
1.79649e-05
1.79649e-05
1.79649e-05
2.78883e-05
2.78883e-05
2.78883e-05
2.86746e-05
2.86746e-05
2.86746e-05
1.84322e-05
1.84322e-05
1.84322e-05
1.83418e-06
1.83418e-06
1.83418e-06
3.40772e-05
3.40772e-05
3.40772e-05
3.92624e-05
3.92624e-05
3.92624e-05
3.81583e-05
3.81583e-05
3.81583e-05
1.37423e-06
1.37423e-06
1.37423e-06
1.36371e-06
1.36371e-06
1.36371e-06
1.83083e-05
1.83083e-05
1.83083e-05
1.80589e-05
1.80589e-05
1.80589e-05
1.59877e-06
1.59877e-06
1.59877e-06
1.66069e-06
1.66069e-06
1.66069e-06
1.69817e-06
1.69817e-06
1.69817e-06
1.85308e-06
1.85308e-06
1.85308e-06
1.97558e-06
1.97558e-06
1.97558e-06
1.26019e-06
1.26019e-06
1.26019e-06
1.13333e-06
1.13333e-06
1.13333e-06
4.61169e-06
4.61169e-06
4.61169e-06
5.0639e-06
5.0639e-06
5.0639e-06
5.16345e-06
5.16345e-06
5.16345e-06
4.30891e-06
4.30891e-06
4.30891e-06
5.9836e-05
5.9836e-05
5.9836e-05
3.8311e-06
3.8311e-06
3.8311e-06
4.42053e-06
4.42053e-06
4.42053e-06
4.67131e-06
4.67131e-06
4.67131e-06
1.93997e-05
1.93997e-05
1.93997e-05
1.85451e-05
1.85451e-05
1.85451e-05
1.90962e-05
1.90962e-05
1.90962e-05
1.86511e-05
1.86511e-05
1.86511e-05
1.92991e-05
1.92991e-05
1.92991e-05
7.6512e-06
7.6512e-06
7.6512e-06
7.71099e-06
7.71099e-06
7.71099e-06
4.04247e-06
4.04247e-06
4.04247e-06
5.03905e-06
5.03905e-06
5.03905e-06
7.73503e-06
7.73503e-06
7.73503e-06
4.78968e-06
4.78968e-06
4.78968e-06
7.6717e-06
7.6717e-06
7.6717e-06
1.74927e-05
1.74927e-05
1.74927e-05
1.80194e-05
1.80194e-05
1.80194e-05
1.75701e-05
1.75701e-05
1.75701e-05
1.77408e-05
1.77408e-05
1.77408e-05
1.8347e-05
1.8347e-05
1.8347e-05
1.69744e-05
1.69744e-05
1.69744e-05
1.68887e-05
1.68887e-05
1.68887e-05
1.60174e-05
1.60174e-05
1.60174e-05
1.18353e-06
1.18353e-06
1.18353e-06
1.15573e-06
1.15573e-06
1.15573e-06
1.11214e-06
1.11214e-06
1.11214e-06
1.13105e-06
1.13105e-06
1.13105e-06
1.27522e-06
1.27522e-06
1.27522e-06
1.21171e-06
1.21171e-06
1.21171e-06
1.25665e-06
1.25665e-06
1.25665e-06
2.15954e-06
2.15954e-06
2.15954e-06
4.46094e-06
4.46094e-06
4.46094e-06
1.1572e-06
1.1572e-06
1.1572e-06
1.11279e-06
1.11279e-06
1.11279e-06
1.69416e-05
1.69416e-05
1.69416e-05
1.69511e-05
1.69511e-05
1.69511e-05
1.62274e-05
1.62274e-05
1.62274e-05
1.1321e-06
1.1321e-06
1.1321e-06
1.67085e-05
1.67085e-05
1.67085e-05
1.67927e-05
1.67927e-05
1.67927e-05
1.61554e-05
1.61554e-05
1.61554e-05
8.88104e-06
8.88104e-06
8.88104e-06
5.8425e-06
5.8425e-06
5.8425e-06
5.98253e-06
5.98253e-06
5.98253e-06
1.28912e-06
1.28912e-06
1.28912e-06
1.4584e-06
1.4584e-06
1.4584e-06
3.61643e-06
3.61643e-06
3.61643e-06
2.48178e-06
2.48178e-06
2.48178e-06
2.56439e-06
2.56439e-06
2.56439e-06
2.08846e-06
2.08846e-06
2.08846e-06
3.51481e-06
3.51481e-06
3.51481e-06
4.14673e-06
4.14673e-06
4.14673e-06
5.90777e-06
5.90777e-06
5.90777e-06
5.35942e-06
5.35942e-06
5.35942e-06
5.57527e-06
5.57527e-06
5.57527e-06
4.24642e-06
4.24642e-06
4.24642e-06
8.36897e-06
8.36897e-06
8.36897e-06
9.33248e-06
9.33248e-06
9.33248e-06
9.62484e-06
9.62484e-06
9.62484e-06
9.78384e-06
9.78384e-06
9.78384e-06
9.81976e-06
9.81976e-06
9.81976e-06
5.25101e-06
5.25101e-06
5.25101e-06
3.41348e-06
3.41348e-06
3.41348e-06
4.04092e-06
4.04092e-06
4.04092e-06
8.12965e-06
8.12965e-06
8.12965e-06
8.00043e-06
8.00043e-06
8.00043e-06
8.65393e-06
8.65393e-06
8.65393e-06
8.80235e-06
8.80235e-06
8.80235e-06
8.66232e-06
8.66232e-06
8.66232e-06
9.07805e-06
9.07805e-06
9.07805e-06
1.14426e-05
1.14426e-05
1.14426e-05
9.3797e-06
9.3797e-06
9.3797e-06
3.40435e-06
3.40435e-06
3.40435e-06
3.42938e-06
3.42938e-06
3.42938e-06
3.25163e-06
3.25163e-06
3.25163e-06
3.13881e-06
3.13881e-06
3.13881e-06
3.61296e-06
3.61296e-06
3.61296e-06
3.77653e-06
3.77653e-06
3.77653e-06
3.72194e-06
3.72194e-06
3.72194e-06
3.53264e-06
3.53264e-06
3.53264e-06
3.83088e-06
3.83088e-06
3.83088e-06
3.88889e-06
3.88889e-06
3.88889e-06
4.08107e-06
4.08107e-06
4.08107e-06
3.23331e-06
3.23331e-06
3.23331e-06
3.63613e-06
3.63613e-06
3.63613e-06
3.50529e-06
3.50529e-06
3.50529e-06
3.34799e-06
3.34799e-06
3.34799e-06
3.32762e-06
3.32762e-06
3.32762e-06
3.70629e-06
3.70629e-06
3.70629e-06
4.17977e-05
4.17977e-05
4.17977e-05
3.33436e-05
3.33436e-05
3.33436e-05
3.78326e-05
3.78326e-05
3.78326e-05
3.94646e-05
3.94646e-05
3.94646e-05
3.85032e-05
3.85032e-05
3.85032e-05
5.12074e-05
5.12074e-05
5.12074e-05
5.14139e-05
5.14139e-05
5.14139e-05
5.16104e-05
5.16104e-05
5.16104e-05
5.05835e-05
5.05835e-05
5.05835e-05
4.13034e-05
4.13034e-05
4.13034e-05
4.11275e-05
4.11275e-05
4.11275e-05
4.27234e-05
4.27234e-05
4.27234e-05
4.84837e-05
4.84837e-05
4.84837e-05
4.79525e-05
4.79525e-05
4.79525e-05
5.46537e-05
5.46537e-05
5.46537e-05
5.42788e-05
5.42788e-05
5.42788e-05
5.51889e-05
5.51889e-05
5.51889e-05
5.50786e-05
5.50786e-05
5.50786e-05
5.44885e-05
5.44885e-05
5.44885e-05
5.0974e-05
5.0974e-05
5.0974e-05
5.14084e-05
5.14084e-05
5.14084e-05
5.24063e-05
5.24063e-05
5.24063e-05
5.28133e-05
5.28133e-05
5.28133e-05
5.20164e-05
5.20164e-05
5.20164e-05
5.22171e-05
5.22171e-05
5.22171e-05
5.30254e-05
5.30254e-05
5.30254e-05
5.32316e-05
5.32316e-05
5.32316e-05
5.70458e-05
5.70458e-05
5.70458e-05
5.72698e-05
5.72698e-05
5.72698e-05
5.68731e-05
5.68731e-05
5.68731e-05
5.79388e-05
5.79388e-05
5.79388e-05
5.26583e-05
5.26583e-05
5.26583e-05
5.33749e-05
5.33749e-05
5.33749e-05
5.53408e-05
5.53408e-05
5.53408e-05
5.44954e-05
5.44954e-05
5.44954e-05
5.47134e-05
5.47134e-05
5.47134e-05
5.42858e-05
5.42858e-05
5.42858e-05
5.11997e-05
5.11997e-05
5.11997e-05
5.09998e-05
5.09998e-05
5.09998e-05
5.04214e-05
5.04214e-05
5.04214e-05
4.90716e-05
4.90716e-05
4.90716e-05
4.56231e-05
4.56231e-05
4.56231e-05
3.77201e-05
3.77201e-05
3.77201e-05
8.32544e-06
8.32544e-06
8.32544e-06
9.87308e-06
9.87308e-06
9.87308e-06
9.25292e-06
9.25292e-06
9.25292e-06
4.43596e-05
4.43596e-05
4.43596e-05
4.40241e-05
4.40241e-05
4.40241e-05
4.70175e-05
4.70175e-05
4.70175e-05
4.71989e-05
4.71989e-05
4.71989e-05
4.41888e-05
4.41888e-05
4.41888e-05
4.72271e-05
4.72271e-05
4.72271e-05
4.57711e-05
4.57711e-05
4.57711e-05
4.65514e-05
4.65514e-05
4.65514e-05
4.56754e-05
4.56754e-05
4.56754e-05
4.51253e-05
4.51253e-05
4.51253e-05
4.43897e-05
4.43897e-05
4.43897e-05
5.06055e-05
5.06055e-05
5.06055e-05
5.04127e-05
5.04127e-05
5.04127e-05
5.12061e-05
5.12061e-05
5.12061e-05
4.88779e-05
4.88779e-05
4.88779e-05
4.82824e-05
4.82824e-05
4.82824e-05
4.90696e-05
4.90696e-05
4.90696e-05
4.86621e-05
4.86621e-05
4.86621e-05
4.78346e-05
4.78346e-05
4.78346e-05
4.80236e-05
4.80236e-05
4.80236e-05
4.437e-05
4.437e-05
4.437e-05
4.53943e-05
4.53943e-05
4.53943e-05
4.52354e-05
4.52354e-05
4.52354e-05
4.01508e-05
4.01508e-05
4.01508e-05
1.56569e-06
1.56569e-06
1.56569e-06
1.5689e-06
1.5689e-06
1.5689e-06
2.77297e-05
2.77297e-05
2.77297e-05
3.59841e-06
3.59841e-06
3.59841e-06
4.3891e-06
4.3891e-06
4.3891e-06
1.4847e-06
1.4847e-06
1.4847e-06
1.47187e-06
1.47187e-06
1.47187e-06
1.52828e-06
1.52828e-06
1.52828e-06
1.53092e-06
1.53092e-06
1.53092e-06
1.43578e-06
1.43578e-06
1.43578e-06
1.49081e-06
1.49081e-06
1.49081e-06
2.04648e-06
2.04648e-06
2.04648e-06
2.55866e-06
2.55866e-06
2.55866e-06
3.78756e-06
3.78756e-06
3.78756e-06
4.50327e-06
4.50327e-06
4.50327e-06
3.69312e-06
3.69312e-06
3.69312e-06
2.49502e-06
2.49502e-06
2.49502e-06
3.33625e-05
3.33625e-05
3.33625e-05
3.68583e-05
3.68583e-05
3.68583e-05
3.87223e-05
3.87223e-05
3.87223e-05
3.87692e-05
3.87692e-05
3.87692e-05
1.24068e-05
1.24068e-05
1.24068e-05
6.17681e-06
6.17681e-06
6.17681e-06
1.21367e-05
1.21367e-05
1.21367e-05
1.89861e-06
1.89861e-06
1.89861e-06
2.0242e-06
2.0242e-06
2.0242e-06
1.90643e-06
1.90643e-06
1.90643e-06
1.96983e-06
1.96983e-06
1.96983e-06
2.91819e-05
2.91819e-05
2.91819e-05
1.88206e-05
1.88206e-05
1.88206e-05
1.86909e-05
1.86909e-05
1.86909e-05
2.88432e-05
2.88432e-05
2.88432e-05
3.4459e-05
3.4459e-05
3.4459e-05
3.46539e-05
3.46539e-05
3.46539e-05
3.89055e-05
3.89055e-05
3.89055e-05
4.03028e-05
4.03028e-05
4.03028e-05
1.18984e-06
1.18984e-06
1.18984e-06
1.21236e-06
1.21236e-06
1.21236e-06
3.59581e-06
3.59581e-06
3.59581e-06
2.94088e-06
2.94088e-06
2.94088e-06
1.22764e-06
1.22764e-06
1.22764e-06
1.19191e-06
1.19191e-06
1.19191e-06
5.70678e-06
5.70678e-06
5.70678e-06
4.9304e-06
4.9304e-06
4.9304e-06
5.53025e-06
5.53025e-06
5.53025e-06
6.99941e-06
6.99941e-06
6.99941e-06
7.46705e-06
7.46705e-06
7.46705e-06
6.783e-06
6.783e-06
6.783e-06
1.41596e-06
1.41596e-06
1.41596e-06
1.50164e-06
1.50164e-06
1.50164e-06
1.44403e-06
1.44403e-06
1.44403e-06
1.41692e-06
1.41692e-06
1.41692e-06
2.36803e-06
2.36803e-06
2.36803e-06
1.88939e-06
1.88939e-06
1.88939e-06
1.46211e-06
1.46211e-06
1.46211e-06
1.32779e-06
1.32779e-06
1.32779e-06
1.37841e-06
1.37841e-06
1.37841e-06
1.53568e-06
1.53568e-06
1.53568e-06
1.92701e-06
1.92701e-06
1.92701e-06
1.92182e-06
1.92182e-06
1.92182e-06
1.86007e-06
1.86007e-06
1.86007e-06
1.62076e-06
1.62076e-06
1.62076e-06
1.55997e-06
1.55997e-06
1.55997e-06
1.61686e-06
1.61686e-06
1.61686e-06
1.581e-06
1.581e-06
1.581e-06
1.41529e-06
1.41529e-06
1.41529e-06
1.31782e-06
1.31782e-06
1.31782e-06
1.27587e-06
1.27587e-06
1.27587e-06
1.25664e-06
1.25664e-06
1.25664e-06
1.41557e-06
1.41557e-06
1.41557e-06
1.34016e-06
1.34016e-06
1.34016e-06
1.38832e-06
1.38832e-06
1.38832e-06
1.62074e-05
1.62074e-05
1.62074e-05
1.71714e-05
1.71714e-05
1.71714e-05
1.62976e-05
1.62976e-05
1.62976e-05
1.2539e-06
1.2539e-06
1.2539e-06
1.20975e-06
1.20975e-06
1.20975e-06
1.15193e-06
1.15193e-06
1.15193e-06
1.15456e-06
1.15456e-06
1.15456e-06
1.11206e-06
1.11206e-06
1.11206e-06
1.11702e-06
1.11702e-06
1.11702e-06
1.92614e-06
1.92614e-06
1.92614e-06
1.53614e-06
1.53614e-06
1.53614e-06
5.53679e-05
5.53679e-05
5.53679e-05
5.92069e-05
5.92069e-05
5.92069e-05
5.87684e-05
5.87684e-05
5.87684e-05
5.20325e-05
5.20325e-05
5.20325e-05
5.42902e-05
5.42902e-05
5.42902e-05
5.44845e-05
5.44845e-05
5.44845e-05
4.84578e-05
4.84578e-05
4.84578e-05
4.8831e-05
4.8831e-05
4.8831e-05
7.57927e-06
7.57927e-06
7.57927e-06
6.93042e-06
6.93042e-06
6.93042e-06
3.15852e-06
3.15852e-06
3.15852e-06
3.65799e-06
3.65799e-06
3.65799e-06
7.09561e-06
7.09561e-06
7.09561e-06
3.31332e-06
3.31332e-06
3.31332e-06
3.74704e-06
3.74704e-06
3.74704e-06
1.84454e-05
1.84454e-05
1.84454e-05
7.25572e-06
7.25572e-06
7.25572e-06
3.96346e-06
3.96346e-06
3.96346e-06
3.46133e-06
3.46133e-06
3.46133e-06
3.8072e-06
3.8072e-06
3.8072e-06
7.39378e-06
7.39378e-06
7.39378e-06
7.3462e-06
7.3462e-06
7.3462e-06
1.85327e-05
1.85327e-05
1.85327e-05
1.79927e-05
1.79927e-05
1.79927e-05
1.67186e-05
1.67186e-05
1.67186e-05
1.59355e-05
1.59355e-05
1.59355e-05
1.88033e-05
1.88033e-05
1.88033e-05
1.82568e-05
1.82568e-05
1.82568e-05
1.87127e-05
1.87127e-05
1.87127e-05
1.8082e-05
1.8082e-05
1.8082e-05
1.75472e-05
1.75472e-05
1.75472e-05
1.74616e-05
1.74616e-05
1.74616e-05
1.78216e-05
1.78216e-05
1.78216e-05
1.77366e-05
1.77366e-05
1.77366e-05
1.70266e-05
1.70266e-05
1.70266e-05
1.63844e-05
1.63844e-05
1.63844e-05
1.18365e-06
1.18365e-06
1.18365e-06
1.20901e-06
1.20901e-06
1.20901e-06
1.25674e-06
1.25674e-06
1.25674e-06
1.20928e-06
1.20928e-06
1.20928e-06
1.11103e-06
1.11103e-06
1.11103e-06
1.12993e-06
1.12993e-06
1.12993e-06
1.13924e-06
1.13924e-06
1.13924e-06
1.15665e-06
1.15665e-06
1.15665e-06
1.13017e-06
1.13017e-06
1.13017e-06
1.11099e-06
1.11099e-06
1.11099e-06
1.13163e-06
1.13163e-06
1.13163e-06
1.21115e-06
1.21115e-06
1.21115e-06
1.15684e-06
1.15684e-06
1.15684e-06
1.18414e-06
1.18414e-06
1.18414e-06
1.15701e-06
1.15701e-06
1.15701e-06
1.18444e-06
1.18444e-06
1.18444e-06
1.54735e-06
1.54735e-06
1.54735e-06
1.37657e-06
1.37657e-06
1.37657e-06
2.64743e-06
2.64743e-06
2.64743e-06
3.81392e-06
3.81392e-06
3.81392e-06
2.7309e-06
2.7309e-06
2.7309e-06
2.23081e-06
2.23081e-06
2.23081e-06
4.3534e-06
4.3534e-06
4.3534e-06
3.71844e-06
3.71844e-06
3.71844e-06
7.91459e-06
7.91459e-06
7.91459e-06
7.35148e-06
7.35148e-06
7.35148e-06
6.22893e-06
6.22893e-06
6.22893e-06
5.68704e-06
5.68704e-06
5.68704e-06
6.33515e-06
6.33515e-06
6.33515e-06
8.02374e-06
8.02374e-06
8.02374e-06
7.46086e-06
7.46086e-06
7.46086e-06
3.91636e-06
3.91636e-06
3.91636e-06
1.55183e-05
1.55183e-05
1.55183e-05
1.14504e-05
1.14504e-05
1.14504e-05
1.54452e-05
1.54452e-05
1.54452e-05
1.41219e-05
1.41219e-05
1.41219e-05
1.61507e-05
1.61507e-05
1.61507e-05
1.60155e-05
1.60155e-05
1.60155e-05
1.39679e-05
1.39679e-05
1.39679e-05
1.52141e-05
1.52141e-05
1.52141e-05
1.4064e-05
1.4064e-05
1.4064e-05
1.5295e-05
1.5295e-05
1.5295e-05
8.98778e-06
8.98778e-06
8.98778e-06
1.45572e-05
1.45572e-05
1.45572e-05
9.32116e-06
9.32116e-06
9.32116e-06
1.71783e-05
1.71783e-05
1.71783e-05
1.83555e-05
1.83555e-05
1.83555e-05
1.49797e-05
1.49797e-05
1.49797e-05
9.02766e-06
9.02766e-06
9.02766e-06
9.22262e-06
9.22262e-06
9.22262e-06
9.80169e-06
9.80169e-06
9.80169e-06
9.94828e-06
9.94828e-06
9.94828e-06
9.7337e-06
9.7337e-06
9.7337e-06
5.07833e-06
5.07833e-06
5.07833e-06
1.66031e-05
1.66031e-05
1.66031e-05
1.44956e-05
1.44956e-05
1.44956e-05
7.6254e-06
7.6254e-06
7.6254e-06
8.13658e-06
8.13658e-06
8.13658e-06
1.15542e-05
1.15542e-05
1.15542e-05
6.95229e-06
6.95229e-06
6.95229e-06
6.61824e-06
6.61824e-06
6.61824e-06
7.21471e-06
7.21471e-06
7.21471e-06
1.03542e-05
1.03542e-05
1.03542e-05
7.81012e-06
7.81012e-06
7.81012e-06
1.07543e-05
1.07543e-05
1.07543e-05
1.86622e-05
1.86622e-05
1.86622e-05
1.84746e-05
1.84746e-05
1.84746e-05
1.50284e-06
1.50284e-06
1.50284e-06
1.31822e-06
1.31822e-06
1.31822e-06
1.14532e-06
1.14532e-06
1.14532e-06
1.11158e-06
1.11158e-06
1.11158e-06
1.15118e-06
1.15118e-06
1.15118e-06
1.34741e-06
1.34741e-06
1.34741e-06
6.01515e-06
6.01515e-06
6.01515e-06
6.12325e-06
6.12325e-06
6.12325e-06
5.46849e-06
5.46849e-06
5.46849e-06
7.13689e-06
7.13689e-06
7.13689e-06
8.4694e-06
8.4694e-06
8.4694e-06
6.32985e-06
6.32985e-06
6.32985e-06
6.79741e-06
6.79741e-06
6.79741e-06
7.2908e-06
7.2908e-06
7.2908e-06
9.39182e-06
9.39182e-06
9.39182e-06
8.65123e-06
8.65123e-06
8.65123e-06
8.74371e-06
8.74371e-06
8.74371e-06
8.2693e-06
8.2693e-06
8.2693e-06
5.80139e-06
5.80139e-06
5.80139e-06
6.92731e-06
6.92731e-06
6.92731e-06
6.82251e-06
6.82251e-06
6.82251e-06
7.39373e-06
7.39373e-06
7.39373e-06
3.93592e-06
3.93592e-06
3.93592e-06
5.14359e-06
5.14359e-06
5.14359e-06
5.03667e-06
5.03667e-06
5.03667e-06
5.69572e-06
5.69572e-06
5.69572e-06
7.15347e-06
7.15347e-06
7.15347e-06
6.79975e-06
6.79975e-06
6.79975e-06
7.35061e-06
7.35061e-06
7.35061e-06
7.49987e-06
7.49987e-06
7.49987e-06
8.3531e-06
8.3531e-06
8.3531e-06
8.90112e-06
8.90112e-06
8.90112e-06
7.70347e-06
7.70347e-06
7.70347e-06
8.2173e-06
8.2173e-06
8.2173e-06
8.43562e-06
8.43562e-06
8.43562e-06
8.57744e-06
8.57744e-06
8.57744e-06
1.18931e-05
1.18931e-05
1.18931e-05
1.09083e-05
1.09083e-05
1.09083e-05
1.01831e-05
1.01831e-05
1.01831e-05
1.06029e-05
1.06029e-05
1.06029e-05
1.11386e-05
1.11386e-05
1.11386e-05
9.90905e-06
9.90905e-06
9.90905e-06
9.71384e-06
9.71384e-06
9.71384e-06
1.23578e-05
1.23578e-05
1.23578e-05
1.22178e-05
1.22178e-05
1.22178e-05
1.27177e-05
1.27177e-05
1.27177e-05
1.28352e-05
1.28352e-05
1.28352e-05
9.97886e-06
9.97886e-06
9.97886e-06
9.57282e-06
9.57282e-06
9.57282e-06
9.14063e-06
9.14063e-06
9.14063e-06
9.32577e-06
9.32577e-06
9.32577e-06
1.12023e-05
1.12023e-05
1.12023e-05
1.04571e-05
1.04571e-05
1.04571e-05
1.0244e-05
1.0244e-05
1.0244e-05
9.6324e-06
9.6324e-06
9.6324e-06
9.82103e-06
9.82103e-06
9.82103e-06
1.00618e-05
1.00618e-05
1.00618e-05
1.07753e-05
1.07753e-05
1.07753e-05
8.40818e-06
8.40818e-06
8.40818e-06
9.64907e-06
9.64907e-06
9.64907e-06
1.24933e-05
1.24933e-05
1.24933e-05
1.1817e-05
1.1817e-05
1.1817e-05
1.06658e-05
1.06658e-05
1.06658e-05
1.14979e-05
1.14979e-05
1.14979e-05
1.20759e-05
1.20759e-05
1.20759e-05
9.92014e-06
9.92014e-06
9.92014e-06
1.03783e-05
1.03783e-05
1.03783e-05
8.8448e-06
8.8448e-06
8.8448e-06
9.02322e-06
9.02322e-06
9.02322e-06
4.8993e-06
4.8993e-06
4.8993e-06
3.10168e-06
3.10168e-06
3.10168e-06
3.66453e-06
3.66453e-06
3.66453e-06
3.88255e-06
3.88255e-06
3.88255e-06
3.8392e-06
3.8392e-06
3.8392e-06
6.98658e-06
6.98658e-06
6.98658e-06
6.65799e-06
6.65799e-06
6.65799e-06
9.88119e-06
9.88119e-06
9.88119e-06
9.9772e-06
9.9772e-06
9.9772e-06
3.12004e-06
3.12004e-06
3.12004e-06
4.7241e-06
4.7241e-06
4.7241e-06
9.45032e-06
9.45032e-06
9.45032e-06
5.35872e-06
5.35872e-06
5.35872e-06
4.33875e-06
4.33875e-06
4.33875e-06
1.07679e-05
1.07679e-05
1.07679e-05
1.02297e-05
1.02297e-05
1.02297e-05
6.90923e-06
6.90923e-06
6.90923e-06
7.23668e-06
7.23668e-06
7.23668e-06
7.84801e-06
7.84801e-06
7.84801e-06
7.71086e-06
7.71086e-06
7.71086e-06
5.00681e-06
5.00681e-06
5.00681e-06
4.23328e-06
4.23328e-06
4.23328e-06
4.13074e-06
4.13074e-06
4.13074e-06
4.00992e-06
4.00992e-06
4.00992e-06
3.96354e-06
3.96354e-06
3.96354e-06
6.05473e-06
6.05473e-06
6.05473e-06
6.49136e-06
6.49136e-06
6.49136e-06
6.37613e-06
6.37613e-06
6.37613e-06
5.40687e-06
5.40687e-06
5.40687e-06
5.17019e-06
5.17019e-06
5.17019e-06
5.23847e-06
5.23847e-06
5.23847e-06
5.75862e-06
5.75862e-06
5.75862e-06
7.78326e-06
7.78326e-06
7.78326e-06
7.29598e-06
7.29598e-06
7.29598e-06
3.80126e-06
3.80126e-06
3.80126e-06
3.83117e-06
3.83117e-06
3.83117e-06
3.60659e-06
3.60659e-06
3.60659e-06
3.42218e-06
3.42218e-06
3.42218e-06
3.44429e-06
3.44429e-06
3.44429e-06
3.61155e-06
3.61155e-06
3.61155e-06
3.73433e-06
3.73433e-06
3.73433e-06
3.91763e-06
3.91763e-06
3.91763e-06
3.94671e-06
3.94671e-06
3.94671e-06
3.12413e-05
3.12413e-05
3.12413e-05