<VTKFile type="UnstructuredGrid" version="1.0">
<UnstructuredGrid>
<Piece NumberOfPoints="10830" NumberOfCells="3610">
<Points>
<DataArray type="Float64" NumberOfComponents="3" format="ascii">
3.10314 1.29552 1.07075
3.11025 1.28841 1.045
3.11025 1.28841 1.09646
3.11025 1.28841 1.60008
3.11025 1.28841 1.651
3.10226 1.2964 1.62553
3.11025 1.28841 1.60008
3.10226 1.2964 1.62553
3.09025 1.30841 1.6001
2.21656 2.1821 2.07259
2.22913 2.16953 2.09
2.19928 2.19938 2.09
2.19928 2.19938 2.09
2.19928 2.19938 2.05984
2.21656 2.1821 2.07259
3.11025 1.28841 1.60008
3.09025 1.30841 1.6001
3.10227 1.29639 1.57468
2.20538 2.19328 1.32179
2.19928 2.19938 1.34701
2.19928 2.19938 1.29657
3.10229 1.29637 1.3219
3.11025 1.28841 1.34709
3.09026 1.3084 1.34711
3.10214 1.29652 1.22134
3.11025 1.28841 1.19628
3.11025 1.28841 1.24639
3.09026 1.3084 1.34711
3.11025 1.28841 1.34709
3.1023 1.29636 1.37231
3.11025 1.28841 1.34709
3.11025 1.28841 1.39754
3.1023 1.29636 1.37231
3.09026 1.3084 1.39755
3.1023 1.29636 1.37231
3.11025 1.28841 1.39754
3.09025 1.30841 1.54931
3.10227 1.29639 1.57468
3.08043 1.31823 1.5747
3.08043 1.31823 1.5747
3.10227 1.29639 1.57468
3.09025 1.30841 1.6001
3.08043 1.31823 1.5747
3.06939 1.32927 1.54932
3.09025 1.30841 1.54931
3.08043 1.31823 1.5747
3.09025 1.30841 1.6001
3.06938 1.32928 1.60012
3.11025 1.28841 1.44804
3.11025 1.28841 1.49862
3.10229 1.29637 1.47333
3.10229 1.29637 1.47333
3.09026 1.3084 1.49863
3.08044 1.31822 1.47334
3.11025 1.28841 1.49862
3.09026 1.3084 1.49863
3.10229 1.29637 1.47333
3.11025 1.28841 1.54929
3.10227 1.29639 1.57468
3.09025 1.30841 1.54931
3.11025 1.28841 1.60008
3.10227 1.29639 1.57468
3.11025 1.28841 1.54929
3.0901 1.30856 1.19632
3.11025 1.28841 1.19628
3.10214 1.29652 1.22134
3.09024 1.30842 1.65102
3.10226 1.2964 1.62553
3.11025 1.28841 1.651
2.80657 1.59209 1.83075
2.81699 1.58167 1.80498
2.8274 1.57126 1.83072
2.19928 2.19938 1.045
2.21889 2.17977 1.045
2.20626 2.1924 1.06971
2.25868 2.13998 1.29659
2.23814 2.16052 1.29657
2.24806 2.1506 1.27137
2.21801 2.18065 1.29656
2.23814 2.16052 1.29657
2.22704 2.17162 1.32178
2.21801 2.18065 1.29656
2.20538 2.19328 1.32179
2.19928 2.19938 1.29657
2.22704 2.17162 1.32178
2.20538 2.19328 1.32179
2.21801 2.18065 1.29656
2.20547 2.19319 1.52394
2.19928 2.19938 1.5493
2.19928 2.19938 1.49861
2.21807 2.1806 1.5493
2.22712 2.17155 1.52393
2.23821 2.16045 1.54929
2.19928 2.19938 1.5493
2.20547 2.19319 1.52394
2.21807 2.1806 1.5493
2.21807 2.1806 1.5493
2.20547 2.19319 1.52394
2.22712 2.17155 1.52393
2.21805 2.18061 1.4986
2.2382 2.16046 1.4986
2.22712 2.17155 1.52393
2.21805 2.18061 1.4986
2.20547 2.19319 1.52394
2.19928 2.19938 1.49861
2.22712 2.17155 1.52393
2.20547 2.19319 1.52394
2.21805 2.18061 1.4986
2.19928 2.19938 1.34701
2.20538 2.19328 1.32179
2.21802 2.18064 1.347
2.21802 2.18064 1.347
2.20538 2.19328 1.32179
2.22704 2.17162 1.32178
2.23821 2.16045 1.54929
2.22712 2.17155 1.52393
2.24816 2.15051 1.52393
2.22712 2.17155 1.52393
2.2382 2.16046 1.4986
2.24816 2.15051 1.52393
2.40353 1.99513 1.49867
2.41386 1.9848 1.52401
2.3932 2.00546 1.524
2.3932 2.00546 1.524
2.41386 1.9848 1.52401
2.40354 1.99512 1.54937
2.40354 1.99512 1.54937
2.41386 1.9848 1.52401
2.4242 1.97446 1.54938
2.79618 1.60248 1.805
2.81699 1.58167 1.80498
2.80657 1.59209 1.83075
3.10224 1.29642 1.27156
3.11025 1.28841 1.24639
3.11025 1.28841 1.2967
3.11025 1.28841 1.34709
3.10229 1.29637 1.3219
3.11025 1.28841 1.2967
3.02715 1.37151 1.4481
3.006 1.39266 1.44811
3.01659 1.38207 1.42285
3.09026 1.3084 1.44805
3.10229 1.29637 1.47333
3.08044 1.31822 1.47334
3.11025 1.28841 1.44804
3.10229 1.29637 1.47333
3.09026 1.3084 1.44805
3.08044 1.31822 1.47334
3.09026 1.3084 1.49863
3.0694 1.32926 1.49865
3.10228 1.29638 1.52395
3.09026 1.3084 1.49863
3.11025 1.28841 1.49862
3.11025 1.28841 1.49862
3.11025 1.28841 1.54929
3.10228 1.29638 1.52395
3.10228 1.29638 1.52395
3.11025 1.28841 1.54929
3.09025 1.30841 1.54931
3.08027 1.31839 1.22137
3.0901 1.30856 1.19632
3.10214 1.29652 1.22134
3.10224 1.29642 1.27156
3.11025 1.28841 1.2967
3.09024 1.30842 1.29674
3.09024 1.30842 1.29674
3.11025 1.28841 1.2967
3.10229 1.29637 1.3219
3.0165 1.38216 1.27161
3.00588 1.39278 1.24643
3.02702 1.37164 1.24643
3.04817 1.35049 1.24645
3.03759 1.36107 1.22126
3.05884 1.33982 1.22131
3.04817 1.35049 1.24645
3.02702 1.37164 1.24643
3.03759 1.36107 1.22126
3.08043 1.31823 1.32193
3.10229 1.29637 1.3219
3.09026 1.3084 1.34711
3.08043 1.31823 1.32193
3.09024 1.30842 1.29674
3.10229 1.29637 1.3219
3.08042 1.31824 1.62555
3.09025 1.30841 1.6001
3.10226 1.2964 1.62553
3.10226 1.2964 1.62553
3.09024 1.30842 1.65102
3.08042 1.31824 1.62555
3.06938 1.32928 1.60012
3.09025 1.30841 1.6001
3.08042 1.31824 1.62555
3.08041 1.31825 1.77905
3.05901 1.33965 1.77906
3.06938 1.32928 1.75337
3.05901 1.33966 1.72774
3.08041 1.31825 1.72772
3.06938 1.32928 1.75337
3.10225 1.29641 1.67653
3.09024 1.30842 1.65102
3.11025 1.28841 1.651
3.08041 1.31825 1.67656
3.09024 1.30842 1.65102
3.10225 1.29641 1.67653
2.84822 1.55044 1.88232
2.85863 1.54003 1.90816
2.83776 1.5609 1.9082
2.96373 1.43493 1.75343
2.97428 1.42438 1.72779
2.98483 1.41383 1.75341
2.98483 1.41383 1.75341
2.97428 1.42438 1.72779
2.9954 1.40326 1.72778
3.06938 1.32929 1.70213
3.05901 1.33965 1.67658
3.08041 1.31825 1.67656
3.06938 1.32929 1.70213
3.08041 1.31825 1.72772
3.05901 1.33966 1.72774
2.95319 1.44547 1.72781
2.97428 1.42438 1.72779
2.96373 1.43493 1.75343
2.90067 1.49799 1.49874
2.87971 1.51895 1.49874
2.89018 1.50848 1.47344
2.84833 1.55033 1.47344
2.83789 1.56077 1.49875
2.82746 1.5712 1.47344
2.85878 1.53988 1.49875
2.83789 1.56077 1.49875
2.84833 1.55033 1.47344
2.83788 1.56078 1.39765
2.85877 1.53989 1.39765
2.84833 1.55034 1.42289
2.84833 1.55034 1.42289
2.82745 1.57121 1.42289
2.83788 1.56078 1.39765
2.83788 1.56078 1.39765
2.82745 1.57121 1.42289
2.81702 1.58164 1.39764
2.84833 1.55034 1.42289
2.85877 1.53989 1.39765
2.86924 1.52943 1.4229
2.87968 1.51898 1.34723
2.89017 1.50849 1.37244
2.86922 1.52944 1.37243
2.86922 1.52944 1.37243
2.85875 1.53991 1.34723
2.87968 1.51898 1.34723
2.72357 1.6751 1.52409
2.73392 1.66474 1.49875
2.74429 1.65437 1.52409
2.73392 1.66474 1.49875
2.75466 1.644 1.49875
2.74429 1.65437 1.52409
2.83789 1.56077 1.44816
2.82745 1.57121 1.42289
2.84833 1.55034 1.42289
2.83789 1.56077 1.44816
2.84833 1.55033 1.47344
2.82746 1.5712 1.47344
2.82746 1.5712 1.47344
2.80662 1.59204 1.47344
2.81703 1.58163 1.44815
2.81703 1.58163 1.44815
2.83789 1.56077 1.44816
2.82746 1.5712 1.47344
2.82745 1.57121 1.42289
2.83789 1.56077 1.44816
2.81703 1.58163 1.44815
2.81702 1.58164 1.39764
2.7962 1.60246 1.39764
2.8066 1.59206 1.37241
2.79618 1.60248 1.34719
2.81701 1.58166 1.34721
2.8066 1.59206 1.37241
2.42419 1.97447 1.49868
2.41386 1.9848 1.52401
2.40353 1.99513 1.49867
2.40353 1.99513 1.49867
2.41385 1.98481 1.47336
2.42419 1.97447 1.49868
2.20539 2.19327 1.11987
2.19928 2.19938 1.14509
2.19928 2.19938 1.09442
2.19928 2.19938 1.045
2.20626 2.1924 1.06971
2.19928 2.19938 1.09442
2.21797 2.1807 1.1957
2.19928 2.19938 1.19567
2.20528 2.19338 1.17042
2.19928 2.19938 1.19567
2.19928 2.19938 1.14509
2.20528 2.19338 1.17042
3.11025 1.28841 1.045
3.10314 1.29552 1.07075
3.0911 1.30756 1.045
2.19928 2.19938 1.29657
2.19928 2.19938 1.24614
2.20536 2.19331 1.27136
2.20536 2.19331 1.27136
2.21801 2.18065 1.29656
2.19928 2.19938 1.29657
2.21799 2.18067 1.24613
2.20536 2.19331 1.27136
2.19928 2.19938 1.24614
2.21799 2.18067 1.24613
2.22698 2.17168 1.22094
2.23811 2.16055 1.24616
2.22702 2.17165 1.27135
2.24806 2.1506 1.27137
2.23814 2.16052 1.29657
2.23814 2.16052 1.29657
2.21801 2.18065 1.29656
2.22702 2.17165 1.27135
2.23811 2.16055 1.24616
2.24806 2.1506 1.27137
2.22702 2.17165 1.27135
2.22702 2.17165 1.27135
2.21799 2.18067 1.24613
2.23811 2.16055 1.24616
2.21801 2.18065 1.29656
2.20536 2.19331 1.27136
2.22702 2.17165 1.27135
2.20536 2.19331 1.27136
2.21799 2.18067 1.24613
2.22702 2.17165 1.27135
2.20532 2.19334 1.22091
2.19928 2.19938 1.24614
2.19928 2.19938 1.19567
2.20532 2.19334 1.22091
2.19928 2.19938 1.19567
2.21797 2.1807 1.1957
2.21797 2.1807 1.1957
2.22698 2.17168 1.22094
2.20532 2.19334 1.22091
2.20532 2.19334 1.22091
2.21799 2.18067 1.24613
2.19928 2.19938 1.24614
2.22698 2.17168 1.22094
2.21799 2.18067 1.24613
2.20532 2.19334 1.22091
2.24814 2.15052 1.47329
2.2382 2.16046 1.4986
2.2271 2.17156 1.47329
2.2382 2.16046 1.4986
2.21805 2.18061 1.4986
2.2271 2.17156 1.47329
2.2271 2.17156 1.47329
2.23819 2.16048 1.448
2.24814 2.15052 1.47329
2.24809 2.15058 1.32179
2.23814 2.16052 1.29657
2.25868 2.13998 1.29659
2.22704 2.17162 1.32178
2.23814 2.16052 1.29657
2.24809 2.15058 1.32179
2.26891 2.12975 1.3218
2.24809 2.15058 1.32179
2.25868 2.13998 1.29659
2.2587 2.13996 1.34701
2.24809 2.15058 1.32179
2.26891 2.12975 1.3218
2.2587 2.13996 1.34701
2.26891 2.12975 1.3218
2.27936 2.1193 1.34702
2.41384 1.98482 1.4228
2.42418 1.97448 1.44807
2.40352 1.99515 1.44807
2.40352 1.99515 1.44807
2.42418 1.97448 1.44807
2.41385 1.98481 1.47336
2.33114 2.06753 1.47332
2.35183 2.04683 1.47333
2.34149 2.05717 1.49863
2.34148 2.05718 1.44804
2.35183 2.04683 1.47333
2.33114 2.06753 1.47332
2.35182 2.04684 1.42277
2.34147 2.05719 1.39752
2.36216 2.03651 1.39753
2.34148 2.05718 1.44804
2.33112 2.06754 1.42276
2.35182 2.04684 1.42277
2.35182 2.04684 1.42277
2.33112 2.06754 1.42276
2.34147 2.05719 1.39752
2.35184 2.04682 1.52398
2.37253 2.02613 1.52399
2.3622 2.03646 1.54934
2.31047 2.08819 1.5747
2.32082 2.07785 1.54932
2.33117 2.06749 1.57471
2.3208 2.07786 1.49862
2.33114 2.06753 1.47332
2.34149 2.05717 1.49863
2.31043 2.08823 1.47331
2.33114 2.06753 1.47332
2.3208 2.07786 1.49862
2.23821 2.16045 1.54929
2.24816 2.15051 1.52393
2.25876 2.1399 1.54929
2.24814 2.15052 1.47329
2.23819 2.16048 1.448
2.25873 2.13993 1.448
2.25873 2.13993 1.448
2.26896 2.1297 1.47329
2.24814 2.15052 1.47329
2.30008 2.09858 1.44801
2.31043 2.08823 1.47331
2.28971 2.10895 1.4733
2.25874 2.13992 1.4986
2.24816 2.15051 1.52393
2.2382 2.16046 1.4986
2.25874 2.13992 1.4986
[...]
<PointData Scalars="View Factor" >
<DataArray type="Float64" Name="View Factor" NumberOfComponents="1" format="ascii">
0.000887798
0.000887798
0.000887798
0.000694613
0.000694613
0.000694613
0.000695505
0.000695505
0.000695505
6.47423e-05
6.47423e-05
6.47423e-05
3.39208e-05
3.39208e-05
3.39208e-05
0.000700624
0.000700624
0.000700624
0.000183294
0.000183294
0.000183294
0.00078237
0.00078237
0.00078237
0.000829207
0.000829207
0.000829207
0.000776557
0.000776557
0.000776557
0.000775468
0.000775468
0.000775468
0.000765155
0.000765155
0.000765155
0.000701965
0.000701965
0.000701965
0.000696869
0.000696869
0.000696869
0.000697492
0.000697492
0.000697492
0.000687396
0.000687396
0.000687396
0.000741885
0.000741885
0.000741885
0.000728163
0.000728163
0.000728163
0.000732062
0.000732062
0.000732062
0.000710898
0.000710898
0.000710898
0.00070998
0.00070998
0.00070998
0.000830389
0.000830389
0.000830389
0.000685461
0.000685461
0.000685461
3.46413e-05
3.46413e-05
3.46413e-05
6.71094e-05
6.71094e-05
6.71094e-05
0.000272686
0.000272686
0.000272686
0.000294782
0.000294782
0.000294782
0.000175725
0.000175725
0.000175725
0.000240925
0.000240925
0.000240925
0.000121061
0.000121061
0.000121061
0.000260016
0.000260016
0.000260016
0.000125674
0.000125674
0.000125674
0.000148172
0.000148172
0.000148172
0.000271437
0.000271437
0.000271437
0.000144761
0.000144761
0.000144761
0.000161123
0.000161123
0.000161123
0.000217922
0.000217922
0.000217922
0.00026155
0.00026155
0.00026155
0.000257418
0.000257418
0.000257418
0.000263178
0.000263178
0.000263178
0.000102653
0.000102653
0.000102653
9.31892e-05
9.31892e-05
9.31892e-05
8.89474e-05
8.89474e-05
8.89474e-05
3.55213e-05
3.55213e-05
3.55213e-05
0.000810849
0.000810849
0.000810849
0.00079293
0.00079293
0.00079293
0.00069127
0.00069127
0.00069127
0.000733521
0.000733521
0.000733521
0.000742887
0.000742887
0.000742887
0.000718244
0.000718244
0.000718244
0.000726694
0.000726694
0.000726694
0.000725732
0.000725732
0.000725732
0.000716136
0.000716136
0.000716136
0.000819825
0.000819825
0.000819825
0.000800001
0.000800001
0.000800001
0.000794053
0.000794053
0.000794053
0.000749927
0.000749927
0.000749927
0.000782027
0.000782027
0.000782027
0.000771254
0.000771254
0.000771254
0.000778212
0.000778212
0.000778212
0.000784016
0.000784016
0.000784016
0.000686764
0.000686764
0.000686764
0.000681779
0.000681779
0.000681779
0.000682388
0.000682388
0.000682388
0.000630783
0.000630783
0.000630783
0.000639993
0.000639993
0.000639993
0.000680464
0.000680464
0.000680464
0.000671924
0.000671924
0.000671924
0.000309246
0.000309246
0.000309246
0.000577454
0.000577454
0.000577454
0.000587333
0.000587333
0.000587333
0.000654071
0.000654071
0.000654071
0.00064466
0.00064466
0.00064466
0.000570098
0.000570098
0.000570098
0.000540931
0.000540931
0.000540931
0.000370128
0.000370128
0.000370128
0.000395519
0.000395519
0.000395519
0.000371269
0.000371269
0.000371269
0.000338985
0.000338985
0.000338985
0.000290726
0.000290726
0.000290726
0.000445305
0.000445305
0.000445305
0.000548759
0.000548759
0.000548759
0.000513418
0.000513418
0.000513418
0.000135202
0.000135202
0.000135202
0.000144042
0.000144042
0.000144042
0.000353192
0.000353192
0.000353192
0.000371678
0.000371678
0.000371678
0.000205944
0.000205944
0.000205944
0.0002204
0.0002204
0.0002204
0.000246963
0.000246963
0.000246963
0.000290937
0.000290937
0.000290937
0.000260541
0.000260541
0.000260541
0.000107946
0.000107946
0.000107946
0.000119456
0.000119456
0.000119456
4.40734e-05
4.40734e-05
4.40734e-05
4.80508e-05
4.80508e-05
4.80508e-05
5.80832e-05
5.80832e-05
5.80832e-05
4.19009e-05
4.19009e-05
4.19009e-05
0.000889605
0.000889605
0.000889605
0.000105701
0.000105701
0.000105701
0.000149786
0.000149786
0.000149786
9.48473e-05
9.48473e-05
9.48473e-05
0.000262427
0.000262427
0.000262427
0.000273779
0.000273779
0.000273779
0.000285105
0.000285105
0.000285105
0.000264711
0.000264711
0.000264711
0.000267694
0.000267694
0.000267694
0.000189897
0.000189897
0.000189897
0.000162537
0.000162537
0.000162537
4.35348e-05
4.35348e-05
4.35348e-05
5.73117e-05
5.73117e-05
5.73117e-05
0.000112201
0.000112201
0.000112201
7.30016e-05
7.30016e-05
7.30016e-05
0.000119079
0.000119079
0.000119079
0.000276773
0.000276773
0.000276773
0.000278065
0.000278065
0.000278065
0.000284649
0.000284649
0.000284649
0.000283441
0.000283441
0.000283441
0.000293733
0.000293733
0.000293733
0.000282631
0.000282631
0.000282631
0.000291457
0.000291457
0.000291457
0.000285607
0.000285607
0.000285607
0.000164884
0.000164884
0.000164884
0.00014762
0.00014762
0.00014762
0.000125167
0.000125167
0.000125167
0.000139031
0.000139031
0.000139031
0.000195653
0.000195653
0.000195653
0.000172694
0.000172694
0.000172694
0.000188981
0.000188981
0.000188981
9.30463e-05
9.30463e-05
9.30463e-05
7.71346e-05
7.71346e-05
7.71346e-05
0.000118851
0.000118851
0.000118851
0.000125032
0.000125032
0.000125032
0.000249053
0.000249053
0.000249053
0.000284255
0.000284255
0.000284255
0.000274048
0.000274048
0.000274048
0.000138814
0.000138814
0.000138814
0.000260975
0.000260975
0.000260975
0.000267956
0.000267956
0.000267956
0.000265698
0.000265698
0.000265698
5.46583e-05
5.46583e-05
5.46583e-05
3.50798e-05
3.50798e-05
3.50798e-05
4.67683e-05
4.67683e-05
4.67683e-05
0.000107791
0.000107791
0.000107791
0.000102522
0.000102522
0.000102522
8.07131e-05
8.07131e-05
8.07131e-05
8.88671e-05
8.88671e-05
8.88671e-05
8.87467e-05
8.87467e-05
8.87467e-05
9.31449e-05
9.31449e-05
9.31449e-05
8.0804e-05
8.0804e-05
8.0804e-05
7.73022e-05
7.73022e-05
7.73022e-05
6.76789e-05
6.76789e-05
6.76789e-05
7.04929e-05
7.04929e-05
7.04929e-05
7.04352e-05
7.04352e-05
7.04352e-05
7.72794e-05
7.72794e-05
7.72794e-05
5.47438e-05
5.47438e-05
5.47438e-05
4.87167e-05
4.87167e-05
4.87167e-05
4.67585e-05
4.67585e-05
4.67585e-05
4.16929e-05
4.16929e-05
4.16929e-05
4.33131e-05
4.33131e-05
4.33131e-05
7.05702e-05
7.05702e-05
7.05702e-05
8.08675e-05
8.08675e-05
8.08675e-05
7.73896e-05
7.73896e-05
7.73896e-05
3.20469e-05
3.20469e-05
3.20469e-05
3.13107e-05
3.13107e-05
3.13107e-05
3.37777e-05
3.37777e-05
3.37777e-05
3.46525e-05
3.46525e-05
3.46525e-05
3.42777e-05
3.42777e-05
3.42777e-05
3.58637e-05
3.58637e-05
3.58637e-05
4.57582e-05
4.57582e-05
4.57582e-05
3.70685e-05
3.70685e-05
3.70685e-05
1.21457e-05
1.21457e-05
1.21457e-05
1.23388e-05
1.23388e-05
1.23388e-05
1.14812e-05
1.14812e-05
1.14812e-05
1.08998e-05
1.08998e-05
1.08998e-05
1.30539e-05
1.30539e-05
1.30539e-05
1.3835e-05
1.3835e-05
1.3835e-05
1.34422e-05
1.34422e-05
1.34422e-05
1.27053e-05
1.27053e-05
1.27053e-05
1.38297e-05
1.38297e-05
1.38297e-05
1.42408e-05
1.42408e-05
1.42408e-05
1.49946e-05
1.49946e-05
1.49946e-05
1.12234e-05
1.12234e-05
1.12234e-05
1.30718e-05
1.30718e-05
1.30718e-05
1.25007e-05
1.25007e-05
1.25007e-05
1.18165e-05
1.18165e-05
1.18165e-05
1.15457e-05
1.15457e-05
1.15457e-05
1.28336e-05
1.28336e-05
1.28336e-05
0.000503759
0.000503759
0.000503759
0.000402815
0.000402815
0.000402815
0.000465757
0.000465757
0.000465757
0.000491506
0.000491506
0.000491506
0.000477481
0.000477481
0.000477481
0.000683919
0.000683919
0.000683919
0.000683295
0.000683295
0.000683295
0.000688279
0.000688279
0.000688279
0.000674685
0.000674685
0.000674685
0.000584009
0.000584009
0.000584009
0.000578838
0.000578838
0.000578838
0.000606702
0.000606702
0.000606702
0.000662179
0.000662179
0.000662179
0.000657576
0.000657576
0.000657576
0.000748394
0.000748394
0.000748394
0.000744418
0.000744418
0.000744418
0.000758457
0.000758457
0.000758457
0.000759503
0.000759503
0.000759503
0.000749916
0.000749916
0.000749916
0.000684617
0.000684617
0.000684617
0.000688951
0.000688951
0.000688951
0.000702624
0.000702624
0.000702624
0.00071298
0.00071298
0.00071298
0.000698445
0.000698445
0.000698445
0.000703567
0.000703567
0.000703567
0.000712305
0.000712305
0.000712305
0.00071754
0.00071754
0.00071754
0.000812009
0.000812009
0.000812009
0.000818091
0.000818091
0.000818091
0.000813722
0.000813722
0.000813722
0.000836586
0.000836586
0.000836586
0.000755567
0.000755567
0.000755567
0.000766285
0.000766285
0.000766285
0.000779054
0.000779054
0.000779054
0.000769543
0.000769543
0.000769543
0.000768702
0.000768702
0.000768702
0.00076386
0.00076386
0.00076386
0.000672526
0.000672526
0.000672526
0.000667639
0.000667639
0.000667639
0.000658828
0.000658828
0.000658828
0.000626235
0.000626235
0.000626235
0.000575588
0.000575588
0.000575588
0.000457356
0.000457356
0.000457356
3.25337e-05
3.25337e-05
3.25337e-05
3.89305e-05
3.89305e-05
3.89305e-05
3.63885e-05
3.63885e-05
3.63885e-05
0.000573006
0.000573006
0.000573006
0.000564198
0.000564198
0.000564198
0.000601526
0.000601526
0.000601526
0.000605891
0.000605891
0.000605891
0.000601293
0.000601293
0.000601293
0.000647736
0.000647736
0.000647736
0.000629407
0.000629407
0.000629407
0.000641442
0.000641442
0.000641442
0.000616826
0.000616826
0.000616826
0.000609359
0.000609359
0.000609359
0.00059619
0.00059619
0.00059619
0.000658006
0.000658006
0.000658006
0.000653269
0.000653269
0.000653269
0.000667069
0.000667069
0.000667069
0.000626775
0.000626775
0.000626775
0.000618324
0.000618324
0.000618324
0.000631341
0.000631341
0.000631341
0.000627359
0.000627359
0.000627359
0.000614308
0.000614308
0.000614308
0.000618782
0.000618782
0.000618782
0.000606329
0.000606329
0.000606329
0.000626126
0.000626126
0.000626126
0.000621091
0.000621091
0.000621091
0.000549985
0.000549985
0.000549985
0.000177606
0.000177606
0.000177606
0.00018453
0.00018453
0.00018453
0.000402499
0.000402499
0.000402499
0.000110282
0.000110282
0.000110282
0.000107187
0.000107187
0.000107187
0.000146499
0.000146499
0.000146499
0.000155948
0.000155948
0.000155948
0.000173168
0.000173168
0.000173168
0.000179854
0.000179854
0.000179854
0.000151973
0.000151973
0.000151973
0.000168736
0.000168736
0.000168736
0.000132434
0.000132434
0.000132434
0.000128154
0.000128154
0.000128154
0.000116135
0.000116135
0.000116135
0.000109991
0.000109991
0.000109991
0.000113211
0.000113211
0.000113211
0.000124911
0.000124911
0.000124911
0.000430519
0.000430519
0.000430519
0.000479499
0.000479499
0.000479499
0.000516998
0.000516998
0.000516998
0.000521191
0.000521191
0.000521191
6.2235e-05
6.2235e-05
6.2235e-05
9.98965e-05
9.98965e-05
9.98965e-05
6.56481e-05
6.56481e-05
6.56481e-05
0.000298619
0.000298619
0.000298619
0.00026745
0.00026745
0.00026745
0.000293433
0.000293433
0.000293433
0.000275761
0.000275761
0.000275761
0.000378855
0.000378855
0.000378855
0.000286773
0.000286773
0.000286773
0.000304702
0.000304702
0.000304702
0.000372051
0.000372051
0.000372051
0.000453216
0.000453216
0.000453216
0.000457254
0.000457254
0.000457254
0.000530169
0.000530169
0.000530169
0.000554675
0.000554675
0.000554675
0.000138173
0.000138173
0.000138173
0.000154103
0.000154103
0.000154103
8.76444e-05
8.76444e-05
8.76444e-05
8.98941e-05
8.98941e-05
8.98941e-05
0.000142766
0.000142766
0.000142766
0.000133516
0.000133516
0.000133516
7.76363e-05
7.76363e-05
7.76363e-05
7.96507e-05
7.96507e-05
7.96507e-05
7.52188e-05
7.52188e-05
7.52188e-05
7.10612e-05
7.10612e-05
7.10612e-05
6.69477e-05
6.69477e-05
6.69477e-05
6.8855e-05
6.8855e-05
6.8855e-05
0.000159896
0.000159896
0.000159896
0.000198226
0.000198226
0.000198226
0.000185036
0.000185036
0.000185036
0.000165872
0.000165872
0.000165872
0.000118438
0.000118438
0.000118438
0.000122148
0.000122148
0.000122148
0.000192721
0.000192721
0.000192721
0.000140089
0.000140089
0.000140089
0.000155484
0.000155484
0.000155484
0.000222004
0.000222004
0.000222004
0.000253654
0.000253654
0.000253654
0.000268555
0.000268555
0.000268555
0.000285782
0.000285782
0.000285782
0.000214832
0.000214832
0.000214832
0.000200696
0.000200696
0.000200696
0.00023445
0.00023445
0.00023445
0.000209283
0.000209283
0.000209283
0.000184817
0.000184817
0.000184817
0.000203141
0.000203141
0.000203141
0.000195579
0.000195579
0.000195579
0.000188983
0.000188983
0.000188983
0.000185629
0.000185629
0.000185629
0.000202495
0.000202495
0.000202495
0.000192728
0.000192728
0.000192728
0.000267518
0.000267518
0.000267518
0.000260819
0.000260819
0.000260819
0.000255967
0.000255967
0.000255967
0.00018934
0.00018934
0.00018934
0.000173825
0.000173825
0.000173825
0.000133585
0.000133585
0.000133585
0.000129159
0.000129159
0.000129159
0.000116495
0.000116495
0.000116495
0.000109046
0.000109046
0.000109046
9.59148e-05
9.59148e-05
9.59148e-05
9.86699e-05
9.86699e-05
9.86699e-05
0.00082576
0.00082576
0.00082576
0.000878418
0.000878418
0.000878418
0.000873364
0.000873364
0.000873364
0.000784658
0.000784658
0.000784658
0.000802316
0.000802316
0.000802316
0.000808255
0.000808255
0.000808255
0.00070829
0.00070829
0.00070829
0.000719103
0.000719103
0.000719103
9.7803e-05
9.7803e-05
9.7803e-05
0.000117779
0.000117779
0.000117779
0.000155374
0.000155374
0.000155374
0.000156064
0.000156064
0.000156064
0.000192986
0.000192986
0.000192986
0.000205124
0.000205124
0.000205124
0.000235571
0.000235571
0.000235571
0.000318122
0.000318122
0.000318122
0.000275342
0.000275342
0.000275342
0.000235059
0.000235059
0.000235059
0.000231516
0.000231516
0.000231516
0.000245406
0.000245406
0.000245406
0.000294135
0.000294135
0.000294135
0.000299092
0.000299092
0.000299092
0.000322012
0.000322012
0.000322012
0.000318243
0.000318243
0.000318243
0.000305191
0.000305191
0.000305191
0.000292706
0.000292706
0.000292706
0.000309934
0.000309934
0.000309934
0.000301762
0.000301762
0.000301762
0.000315824
0.000315824
0.000315824
0.000314224
0.000314224
0.000314224
0.000300262
0.000300262
0.000300262
0.00030687
0.00030687
0.00030687
0.000310929
0.000310929
0.000310929
0.000303037
0.000303037
0.000303037
0.000293822
0.000293822
0.000293822
0.000293624
0.000293624
0.000293624
0.000164553
0.000164553
0.000164553
0.000173144
0.000173144
0.000173144
0.000189051
0.000189051
0.000189051
0.000173466
0.000173466
0.000173466
0.000125632
0.000125632
0.000125632
0.000139651
0.000139651
0.000139651
0.000119253
0.000119253
0.000119253
0.000147344
0.000147344
0.000147344
0.000139403
0.000139403
0.000139403
0.000125431
0.000125431
0.000125431
0.000138906
0.000138906
0.000138906
0.000172575
0.000172575
0.000172575
0.000146838
0.000146838
0.000146838
0.000163849
0.000163849
0.000163849
0.000146782
0.000146782
0.000146782
0.000163716
0.000163716
0.000163716
0.000102251
0.000102251
0.000102251
0.000107402
0.000107402
0.000107402
8.86463e-05
8.86463e-05
8.86463e-05
8.06788e-05
8.06788e-05
8.06788e-05
8.85663e-05
8.85663e-05
8.85663e-05
9.29659e-05
9.29659e-05
9.29659e-05
7.71831e-05
7.71831e-05
7.71831e-05
8.07054e-05
8.07054e-05
8.07054e-05
5.93514e-05
5.93514e-05
5.93514e-05
6.17949e-05
6.17949e-05
6.17949e-05
6.75025e-05
6.75025e-05
6.75025e-05
7.03918e-05
7.03918e-05
7.03918e-05
6.74301e-05
6.74301e-05
6.74301e-05
5.93386e-05
5.93386e-05
5.93386e-05
6.18116e-05
6.18116e-05
6.18116e-05
8.065e-05
8.065e-05
8.065e-05
0.000278906
0.000278906
0.000278906
0.000212714
0.000212714
0.000212714
0.000268659
0.000268659
0.000268659
0.000247809
0.000247809
0.000247809
0.00024502
0.00024502
0.00024502
0.000251158
0.000251158
0.000251158
0.000224228
0.000224228
0.000224228
0.000243946
0.000243946
0.000243946
0.00023909
0.00023909
0.00023909
0.000251315
0.000251315
0.000251315
5.46374e-05
5.46374e-05
5.46374e-05
0.00016645
0.00016645
0.00016645
5.24081e-05
5.24081e-05
5.24081e-05
0.000189188
0.000189188
0.000189188
0.000204336
0.000204336
0.000204336
0.000162713
0.000162713
0.000162713
5.25049e-05
5.25049e-05
5.25049e-05
5.24347e-05
5.24347e-05
5.24347e-05
4.84685e-05
4.84685e-05
4.84685e-05
4.6506e-05
4.6506e-05
4.6506e-05
4.84921e-05
4.84921e-05
4.84921e-05
3.46158e-05
3.46158e-05
3.46158e-05
0.000181937
0.000181937
0.000181937
0.000160787
0.000160787
0.000160787
4.59321e-05
4.59321e-05
4.59321e-05
4.74905e-05
4.74905e-05
4.74905e-05
8.91221e-05
8.91221e-05
8.91221e-05
4.37811e-05
4.37811e-05
4.37811e-05
3.98853e-05
3.98853e-05
3.98853e-05
4.44845e-05
4.44845e-05
4.44845e-05
8.57849e-05
8.57849e-05
8.57849e-05
4.62826e-05
4.62826e-05
4.62826e-05
8.67925e-05
8.67925e-05
8.67925e-05
0.000204378
0.000204378
0.000204378
0.000202346
0.000202346
0.000202346
0.000102393
0.000102393
0.000102393
0.000107583
0.000107583
0.000107583
0.000119084
0.000119084
0.000119084
0.000125312
0.000125312
0.000125312
0.000118905
0.000118905
0.000118905
0.00010746
0.00010746
0.00010746
6.76087e-05
6.76087e-05
6.76087e-05
6.75497e-05
6.75497e-05
6.75497e-05
7.04275e-05
7.04275e-05
7.04275e-05
6.18768e-05
6.18768e-05
6.18768e-05
5.28515e-05
5.28515e-05
5.28515e-05
6.27921e-05
6.27921e-05
6.27921e-05
6.01097e-05
6.01097e-05
6.01097e-05
5.96143e-05
5.96143e-05
5.96143e-05
4.86539e-05
4.86539e-05
4.86539e-05
5.27481e-05
5.27481e-05
5.27481e-05
5.26789e-05
5.26789e-05
5.26789e-05
5.48118e-05
5.48118e-05
5.48118e-05
6.7763e-05
6.7763e-05
6.7763e-05
6.20274e-05
6.20274e-05
6.20274e-05
6.21317e-05
6.21317e-05
6.21317e-05
5.95436e-05
5.95436e-05
5.95436e-05
7.74949e-05
7.74949e-05
7.74949e-05
7.06632e-05
7.06632e-05
7.06632e-05
7.07666e-05
7.07666e-05
7.07666e-05
6.78582e-05
6.78582e-05
6.78582e-05
2.82126e-05
2.82126e-05
2.82126e-05
2.62263e-05
2.62263e-05
2.62263e-05
2.89774e-05
2.89774e-05
2.89774e-05
2.94532e-05
2.94532e-05
2.94532e-05
3.29142e-05
3.29142e-05
3.29142e-05
3.52087e-05
3.52087e-05
3.52087e-05
3.02394e-05
3.02394e-05
3.02394e-05
3.2104e-05
3.2104e-05
3.2104e-05
3.29417e-05
3.29417e-05
3.29417e-05
3.3783e-05
3.3783e-05
3.3783e-05
4.81337e-05
4.81337e-05
4.81337e-05
4.37662e-05
4.37662e-05
4.37662e-05
4.0622e-05
4.0622e-05
4.0622e-05
4.26036e-05
4.26036e-05
4.26036e-05
4.46088e-05
4.46088e-05
4.46088e-05
3.95434e-05
3.95434e-05
3.95434e-05
3.86502e-05
3.86502e-05
3.86502e-05
5.08589e-05
5.08589e-05
5.08589e-05
4.94307e-05
4.94307e-05
4.94307e-05
5.47197e-05
5.47197e-05
5.47197e-05
5.75999e-05
5.75999e-05
5.75999e-05
3.96324e-05
3.96324e-05
3.96324e-05
3.77863e-05
3.77863e-05
3.77863e-05
3.61403e-05
3.61403e-05
3.61403e-05
3.68273e-05
3.68273e-05
3.68273e-05
4.49286e-05
4.49286e-05
4.49286e-05
4.16982e-05
4.16982e-05
4.16982e-05
4.05993e-05
4.05993e-05
4.05993e-05
3.80014e-05
3.80014e-05
3.80014e-05
3.87476e-05
3.87476e-05
3.87476e-05
3.97099e-05
3.97099e-05
3.97099e-05
4.26643e-05
4.26643e-05
4.26643e-05
7.53955e-05
7.53955e-05
7.53955e-05
6.92908e-05
6.92908e-05
6.92908e-05
5.60817e-05
5.60817e-05
5.60817e-05
6.39341e-05
6.39341e-05
6.39341e-05
6.933e-05
6.933e-05
6.933e-05
6.22208e-05
6.22208e-05
6.22208e-05
6.059e-05
6.059e-05
6.059e-05
7.12295e-05
7.12295e-05
7.12295e-05
6.75343e-05
6.75343e-05
6.75343e-05
3.56288e-05
3.56288e-05
3.56288e-05
3.61977e-05
3.61977e-05
3.61977e-05
1.87147e-05
1.87147e-05
1.87147e-05
1.10778e-05
1.10778e-05
1.10778e-05
1.34299e-05
1.34299e-05
1.34299e-05
1.42621e-05
1.42621e-05
1.42621e-05
1.41407e-05
1.41407e-05
1.41407e-05
2.69348e-05
2.69348e-05
2.69348e-05
2.55806e-05
2.55806e-05
2.55806e-05
4.15134e-05
4.15134e-05
4.15134e-05
4.31358e-05
4.31358e-05
4.31358e-05
1.12375e-05
1.12375e-05
1.12375e-05
1.83154e-05
1.83154e-05
1.83154e-05
3.88044e-05
3.88044e-05
3.88044e-05
2.07291e-05
2.07291e-05
2.07291e-05
1.65687e-05
1.65687e-05
1.65687e-05
5.40209e-05
5.40209e-05
5.40209e-05
4.10056e-05
4.10056e-05
4.10056e-05
2.71178e-05
2.71178e-05
2.71178e-05
2.85653e-05
2.85653e-05
2.85653e-05
3.10536e-05
3.10536e-05
3.10536e-05
3.05522e-05
3.05522e-05
3.05522e-05
1.94086e-05
1.94086e-05
1.94086e-05
1.5707e-05
1.5707e-05
1.5707e-05
1.51375e-05
1.51375e-05
1.51375e-05
1.47003e-05
1.47003e-05
1.47003e-05
1.45687e-05
1.45687e-05
1.45687e-05
2.33873e-05
2.33873e-05
2.33873e-05
2.55133e-05
2.55133e-05
2.55133e-05
2.5154e-05
2.5154e-05
2.5154e-05
2.09943e-05
2.09943e-05
2.09943e-05
2.00362e-05
2.00362e-05
2.00362e-05
2.03465e-05
2.03465e-05
2.03465e-05
2.21667e-05
2.21667e-05
2.21667e-05
3.04731e-05
3.04731e-05
3.04731e-05
2.86645e-05
2.86645e-05
2.86645e-05
1.31549e-05
1.31549e-05
1.31549e-05
1.34877e-05
1.34877e-05
1.34877e-05
1.28562e-05
1.28562e-05
1.28562e-05
1.18684e-05
1.18684e-05
1.18684e-05
1.2151e-05
1.2151e-05
1.2151e-05
1.25125e-05
1.25125e-05
1.25125e-05
1.31543e-05
1.31543e-05
1.31543e-05
1.39184e-05
1.39184e-05
1.39184e-05
1.41676e-05
1.41676e-05