<VTKFile type="UnstructuredGrid" version="1.0">
<UnstructuredGrid>
<Piece NumberOfPoints="10830" NumberOfCells="3610">
<Points>
<DataArray type="Float64" NumberOfComponents="3" format="ascii">
3.10314 1.29552 0.0257489
3.11025 1.28841 0
3.11025 1.28841 0.0514594
3.11025 1.28841 0.555078
3.11025 1.28841 0.605999
3.10226 1.2964 0.580532
3.11025 1.28841 0.555078
3.10226 1.2964 0.580532
3.09025 1.30841 0.555099
2.21656 2.1821 1.02759
2.22913 2.16953 1.045
2.19928 2.19938 1.045
2.19928 2.19938 1.045
2.19928 2.19938 1.01484
2.21656 2.1821 1.02759
3.11025 1.28841 0.555078
3.09025 1.30841 0.555099
3.10227 1.29639 0.529679
2.20538 2.19328 0.276786
2.19928 2.19938 0.302009
2.19928 2.19938 0.251574
3.10229 1.29637 0.2769
3.11025 1.28841 0.302091
3.09026 1.3084 0.302114
3.10214 1.29652 0.17634
3.11025 1.28841 0.151284
3.11025 1.28841 0.201394
3.09026 1.3084 0.302114
3.11025 1.28841 0.302091
3.1023 1.29636 0.327315
3.11025 1.28841 0.302091
3.11025 1.28841 0.352537
3.1023 1.29636 0.327315
3.09026 1.3084 0.352551
3.1023 1.29636 0.327315
3.11025 1.28841 0.352537
3.09025 1.30841 0.504308
3.10227 1.29639 0.529679
3.08043 1.31823 0.529697
3.08043 1.31823 0.529697
3.10227 1.29639 0.529679
3.09025 1.30841 0.555099
3.08043 1.31823 0.529697
3.06939 1.32927 0.504324
3.09025 1.30841 0.504308
3.08043 1.31823 0.529697
3.09025 1.30841 0.555099
3.06938 1.32928 0.555118
3.11025 1.28841 0.403041
3.11025 1.28841 0.453619
3.10229 1.29637 0.428326
3.10229 1.29637 0.428326
3.09026 1.3084 0.453633
3.08044 1.31822 0.428339
3.11025 1.28841 0.453619
3.09026 1.3084 0.453633
3.10229 1.29637 0.428326
3.11025 1.28841 0.504291
3.10227 1.29639 0.529679
3.09025 1.30841 0.504308
3.11025 1.28841 0.555078
3.10227 1.29639 0.529679
3.11025 1.28841 0.504291
3.0901 1.30856 0.151322
3.11025 1.28841 0.151284
3.10214 1.29652 0.17634
3.09024 1.30842 0.606025
3.10226 1.2964 0.580532
3.11025 1.28841 0.605999
2.80657 1.59209 0.785748
2.81699 1.58167 0.759978
2.8274 1.57126 0.785725
2.19928 2.19938 0
2.21889 2.17977 -5.6077e-14
2.20626 2.1924 0.024705
2.25868 2.13998 0.251587
2.23814 2.16052 0.251567
2.24806 2.1506 0.226374
2.21801 2.18065 0.251562
2.23814 2.16052 0.251567
2.22704 2.17162 0.276779
2.21801 2.18065 0.251562
2.20538 2.19328 0.276786
2.19928 2.19938 0.251574
2.22704 2.17162 0.276779
2.20538 2.19328 0.276786
2.21801 2.18065 0.251562
2.20547 2.19319 0.478941
2.19928 2.19938 0.504301
2.19928 2.19938 0.453605
2.21807 2.1806 0.504296
2.22712 2.17155 0.478935
2.23821 2.16045 0.504293
2.19928 2.19938 0.504301
2.20547 2.19319 0.478941
2.21807 2.1806 0.504296
2.21807 2.1806 0.504296
2.20547 2.19319 0.478941
2.22712 2.17155 0.478935
2.21805 2.18061 0.453601
2.2382 2.16046 0.453599
2.22712 2.17155 0.478935
2.21805 2.18061 0.453601
2.20547 2.19319 0.478941
2.19928 2.19938 0.453605
2.22712 2.17155 0.478935
2.20547 2.19319 0.478941
2.21805 2.18061 0.453601
2.19928 2.19938 0.302009
2.20538 2.19328 0.276786
2.21802 2.18064 0.302001
2.21802 2.18064 0.302001
2.20538 2.19328 0.276786
2.22704 2.17162 0.276779
2.23821 2.16045 0.504293
2.22712 2.17155 0.478935
2.24816 2.15051 0.478933
2.22712 2.17155 0.478935
2.2382 2.16046 0.453599
2.24816 2.15051 0.478933
2.40353 1.99513 0.453669
2.41386 1.9848 0.479013
2.3932 2.00546 0.479001
2.3932 2.00546 0.479001
2.41386 1.9848 0.479013
2.40354 1.99512 0.504372
2.40354 1.99512 0.504372
2.41386 1.9848 0.479013
2.4242 1.97446 0.504385
2.79618 1.60248 0.759998
2.81699 1.58167 0.759978
2.80657 1.59209 0.785748
3.10224 1.29642 0.226555
3.11025 1.28841 0.201394
3.11025 1.28841 0.251699
3.11025 1.28841 0.302091
3.10229 1.29637 0.2769
3.11025 1.28841 0.251699
3.02715 1.37151 0.403096
3.006 1.39266 0.40311
3.01659 1.38207 0.377846
3.09026 1.3084 0.403053
3.10229 1.29637 0.428326
3.08044 1.31822 0.428339
3.11025 1.28841 0.403041
3.10229 1.29637 0.428326
3.09026 1.3084 0.403053
3.08044 1.31822 0.428339
3.09026 1.3084 0.453633
3.0694 1.32926 0.453647
3.10228 1.29638 0.47895
3.09026 1.3084 0.453633
3.11025 1.28841 0.453619
3.11025 1.28841 0.453619
3.11025 1.28841 0.504291
3.10228 1.29638 0.47895
3.10228 1.29638 0.47895
3.11025 1.28841 0.504291
3.09025 1.30841 0.504308
3.08027 1.31839 0.176367
3.0901 1.30856 0.151322
3.10214 1.29652 0.17634
3.10224 1.29642 0.226555
3.11025 1.28841 0.251699
3.09024 1.30842 0.251744
3.09024 1.30842 0.251744
3.11025 1.28841 0.251699
3.10229 1.29637 0.2769
3.0165 1.38216 0.226614
3.00588 1.39278 0.201434
3.02702 1.37164 0.201432
3.04817 1.35049 0.201451
3.03759 1.36107 0.176261
3.05884 1.33982 0.176315
3.04817 1.35049 0.201451
3.02702 1.37164 0.201432
3.03759 1.36107 0.176261
3.08043 1.31823 0.276933
3.10229 1.29637 0.2769
3.09026 1.3084 0.302114
3.08043 1.31823 0.276933
3.09024 1.30842 0.251744
3.10229 1.29637 0.2769
3.08042 1.31824 0.580555
3.09025 1.30841 0.555099
3.10226 1.2964 0.580532
3.10226 1.2964 0.580532
3.09024 1.30842 0.606025
3.08042 1.31824 0.580555
3.06938 1.32928 0.555118
3.09025 1.30841 0.555099
3.08042 1.31824 0.580555
3.08041 1.31825 0.734055
3.05901 1.33965 0.734064
3.06938 1.32928 0.708373
3.05901 1.33966 0.682738
3.08041 1.31825 0.682719
3.06938 1.32928 0.708373
3.10225 1.29641 0.63153
3.09024 1.30842 0.606025
3.11025 1.28841 0.605999
3.08041 1.31825 0.631556
3.09024 1.30842 0.606025
3.10225 1.29641 0.63153
2.84822 1.55044 0.837317
2.85863 1.54003 0.86316
2.83776 1.5609 0.863195
2.96373 1.43493 0.708429
2.97428 1.42438 0.682792
2.98483 1.41383 0.708414
2.98483 1.41383 0.708414
2.97428 1.42438 0.682792
2.9954 1.40326 0.682778
3.06938 1.32929 0.657127
3.05901 1.33965 0.631578
3.08041 1.31825 0.631556
3.06938 1.32929 0.657127
3.08041 1.31825 0.682719
3.05901 1.33966 0.682738
2.95319 1.44547 0.682809
2.97428 1.42438 0.682792
2.96373 1.43493 0.708429
2.90067 1.49799 0.453738
2.87971 1.51895 0.453743
2.89018 1.50848 0.428435
2.84833 1.55033 0.42844
2.83789 1.56077 0.45375
2.82746 1.5712 0.428441
2.85878 1.53988 0.453747
2.83789 1.56077 0.45375
2.84833 1.55033 0.42844
2.83788 1.56078 0.35265
2.85877 1.53989 0.352655
2.84833 1.55034 0.377895
2.84833 1.55034 0.377895
2.82745 1.57121 0.377891
2.83788 1.56078 0.35265
2.83788 1.56078 0.35265
2.82745 1.57121 0.377891
2.81702 1.58164 0.352644
2.84833 1.55034 0.377895
2.85877 1.53989 0.352655
2.86924 1.52943 0.377896
2.87968 1.51898 0.302232
2.89017 1.50849 0.327437
2.86922 1.52944 0.327435
2.86922 1.52944 0.327435
2.85875 1.53991 0.302227
2.87968 1.51898 0.302232
2.72357 1.6751 0.479091
2.73392 1.66474 0.453749
2.74429 1.65437 0.479092
2.73392 1.66474 0.453749
2.75466 1.644 0.453751
2.74429 1.65437 0.479092
2.83789 1.56077 0.403156
2.82745 1.57121 0.377891
2.84833 1.55034 0.377895
2.83789 1.56077 0.403156
2.84833 1.55033 0.42844
2.82746 1.5712 0.428441
2.82746 1.5712 0.428441
2.80662 1.59204 0.42844
2.81703 1.58163 0.403154
2.81703 1.58163 0.403154
2.83789 1.56077 0.403156
2.82746 1.5712 0.428441
2.82745 1.57121 0.377891
2.83789 1.56077 0.403156
2.81703 1.58163 0.403154
2.81702 1.58164 0.352644
2.7962 1.60246 0.352637
2.8066 1.59206 0.327412
2.79618 1.60248 0.302193
2.81701 1.58166 0.302206
2.8066 1.59206 0.327412
2.42419 1.97447 0.45368
2.41386 1.9848 0.479013
2.40353 1.99513 0.453669
2.40353 1.99513 0.453669
2.41385 1.98481 0.428361
2.42419 1.97447 0.45368
2.20539 2.19327 0.0748701
2.19928 2.19938 0.100085
2.19928 2.19938 0.0494157
2.19928 2.19938 0
2.20626 2.1924 0.024705
2.19928 2.19938 0.0494157
2.21797 2.1807 0.150698
2.19928 2.19938 0.150672
2.20528 2.19338 0.12542
2.19928 2.19938 0.150672
2.19928 2.19938 0.100085
2.20528 2.19338 0.12542
3.11025 1.28841 0
3.10314 1.29552 0.0257489
3.0911 1.30756 1.13803e-14
2.19928 2.19938 0.251574
2.19928 2.19938 0.201144
2.20536 2.19331 0.226356
2.20536 2.19331 0.226356
2.21801 2.18065 0.251562
2.19928 2.19938 0.251574
2.21799 2.18067 0.201134
2.20536 2.19331 0.226356
2.19928 2.19938 0.201144
2.21799 2.18067 0.201134
2.22698 2.17168 0.175937
2.23811 2.16055 0.20116
2.22702 2.17165 0.226352
2.24806 2.1506 0.226374
2.23814 2.16052 0.251567
2.23814 2.16052 0.251567
2.21801 2.18065 0.251562
2.22702 2.17165 0.226352
2.23811 2.16055 0.20116
2.24806 2.1506 0.226374
2.22702 2.17165 0.226352
2.22702 2.17165 0.226352
2.21799 2.18067 0.201134
2.23811 2.16055 0.20116
2.21801 2.18065 0.251562
2.20536 2.19331 0.226356
2.22702 2.17165 0.226352
2.20536 2.19331 0.226356
2.21799 2.18067 0.201134
2.22702 2.17165 0.226352
2.20532 2.19334 0.175915
2.19928 2.19938 0.201144
2.19928 2.19938 0.150672
2.20532 2.19334 0.175915
2.19928 2.19938 0.150672
2.21797 2.1807 0.150698
2.21797 2.1807 0.150698
2.22698 2.17168 0.175937
2.20532 2.19334 0.175915
2.20532 2.19334 0.175915
2.21799 2.18067 0.201134
2.19928 2.19938 0.201144
2.22698 2.17168 0.175937
2.21799 2.18067 0.201134
2.20532 2.19334 0.175915
2.24814 2.15052 0.428289
2.2382 2.16046 0.453599
2.2271 2.17156 0.428289
2.2382 2.16046 0.453599
2.21805 2.18061 0.453601
2.2271 2.17156 0.428289
2.2271 2.17156 0.428289
2.23819 2.16048 0.402998
2.24814 2.15052 0.428289
2.24809 2.15058 0.276785
2.23814 2.16052 0.251567
2.25868 2.13998 0.251587
2.22704 2.17162 0.276779
2.23814 2.16052 0.251567
2.24809 2.15058 0.276785
2.26891 2.12975 0.276801
2.24809 2.15058 0.276785
2.25868 2.13998 0.251587
2.2587 2.13996 0.302008
2.24809 2.15058 0.276785
2.26891 2.12975 0.276801
2.2587 2.13996 0.302008
2.26891 2.12975 0.276801
2.27936 2.1193 0.302022
2.41384 1.98482 0.3778
2.42418 1.97448 0.403074
2.40352 1.99515 0.403066
2.40352 1.99515 0.403066
2.42418 1.97448 0.403074
2.41385 1.98481 0.428361
2.33114 2.06753 0.428318
2.35183 2.04683 0.428329
2.34149 2.05717 0.453634
2.34148 2.05718 0.403035
2.35183 2.04683 0.428329
2.33114 2.06753 0.428318
2.35182 2.04684 0.377773
2.34147 2.05719 0.352518
2.36216 2.03651 0.352528
2.34148 2.05718 0.403035
2.33112 2.06754 0.377762
2.35182 2.04684 0.377773
2.35182 2.04684 0.377773
2.33112 2.06754 0.377762
2.34147 2.05719 0.352518
2.35184 2.04682 0.478975
2.37253 2.02613 0.478988
2.3622 2.03646 0.504344
2.31047 2.08819 0.529699
2.32082 2.07785 0.504317
2.33117 2.06749 0.529712
2.3208 2.07786 0.453623
2.33114 2.06753 0.428318
2.34149 2.05717 0.453634
2.31043 2.08823 0.428308
[...]
<PointData Scalars="View Factor" >
<DataArray type="Float64" Name="View Factor" NumberOfComponents="1" format="ascii">
0.000260436
0.000260436
0.000260436
0.000216698
0.000216698
0.000216698
0.000216601
0.000216601
0.000216601
2.63565e-05
2.63565e-05
2.63565e-05
1.75705e-05
1.75705e-05
1.75705e-05
0.000217807
0.000217807
0.000217807
0.00013017
0.00013017
0.00013017
0.000236634
0.000236634
0.000236634
0.000247498
0.000247498
0.000247498
0.00023531
0.00023531
0.00023531
0.000235401
0.000235401
0.000235401
0.000232719
0.000232719
0.000232719
0.000217656
0.000217656
0.000217656
0.000216466
0.000216466
0.000216466
0.000216099
0.000216099
0.000216099
0.000213741
0.000213741
0.000213741
0.000227709
0.000227709
0.000227709
0.000223741
0.000223741
0.000223741
0.000225121
0.000225121
0.000225121
0.000220202
0.000220202
0.000220202
0.000220301
0.000220301
0.000220301
0.0002474
0.0002474
0.0002474
0.00021424
0.00021424
0.00021424
4.99884e-05
4.99884e-05
4.99884e-05
0.000141997
0.000141997
0.000141997
0.00013044
0.00013044
0.00013044
0.000130221
0.000130221
0.000130221
0.000130728
0.000130728
0.000130728
0.000130134
0.000130134
0.000130134
0.000107087
0.000107087
0.000107087
0.000114409
0.000114409
0.000114409
9.96555e-05
9.96555e-05
9.96555e-05
0.000103329
0.000103329
0.000103329
0.000120351
0.000120351
0.000120351
0.000113961
0.000113961
0.000113961
0.000110585
0.000110585
0.000110585
0.000129299
0.000129299
0.000129299
0.000129425
0.000129425
0.000129425
0.000115645
0.000115645
0.000115645
0.000118744
0.000118744
0.000118744
0.000109905
0.000109905
0.000109905
0.000103319
0.000103319
0.000103319
9.98505e-05
9.98505e-05
9.98505e-05
5.07416e-05
5.07416e-05
5.07416e-05
0.000243395
0.000243395
0.000243395
0.000239361
0.000239361
0.000239361
0.000211634
0.000211634
0.000211634
0.000224974
0.000224974
0.000224974
0.000227615
0.000227615
0.000227615
0.000220921
0.000220921
0.000220921
0.000223875
0.000223875
0.000223875
0.000223971
0.000223971
0.000223971
0.000221426
0.000221426
0.000221426
0.000244514
0.000244514
0.000244514
0.000240609
0.000240609
0.000240609
0.000239266
0.000239266
0.000239266
0.000224944
0.000224944
0.000224944
0.000233804
0.000233804
0.000233804
0.000230837
0.000230837
0.000230837
0.000235181
0.000235181
0.000235181
0.000236493
0.000236493
0.000236493
0.000214094
0.000214094
0.000214094
0.000212921
0.000212921
0.000212921
0.000212564
0.000212564
0.000212564
0.000199856
0.000199856
0.000199856
0.000202061
0.000202061
0.000202061
0.000213056
0.000213056
0.000213056
0.000210593
0.000210593
0.000210593
0.000134231
0.000134231
0.000134231
0.000183862
0.000183862
0.000183862
0.000186328
0.000186328
0.000186328
0.00020541
0.00020541
0.00020541
0.000203176
0.000203176
0.000203176
0.000182407
0.000182407
0.000182407
0.000182715
0.000182715
0.000182715
0.000172656
0.000172656
0.000172656
0.000174281
0.000174281
0.000174281
0.000179151
0.000179151
0.000179151
0.000176503
0.000176503
0.000176503
0.000174832
0.000174832
0.000174832
0.000180818
0.000180818
0.000180818
0.000188239
0.000188239
0.000188239
0.000186556
0.000186556
0.000186556
0.000142168
0.000142168
0.000142168
0.00014749
0.00014749
0.00014749
0.000175532
0.000175532
0.000175532
0.000173613
0.000173613
0.000173613
0.000169375
0.000169375
0.000169375
0.000171967
0.000171967
0.000171967
0.000172914
0.000172914
0.000172914
0.000171469
0.000171469
0.000171469
0.000173373
0.000173373
0.000173373
0.000112764
0.000112764
0.000112764
0.000117181
0.000117181
0.000117181
0.000139082
0.000139082
0.000139082
0.0001414
0.0001414
0.0001414
0.000135852
0.000135852
0.000135852
0.000136781
0.000136781
0.000136781
0.00026046
0.00026046
0.00026046
0.000132327
0.000132327
0.000132327
0.000131445
0.000131445
0.000131445
0.000132892
0.000132892
0.000132892
0.000133112
0.000133112
0.000133112
0.000131051
0.000131051
0.000131051
0.000130936
0.000130936
0.000130936
0.000131772
0.000131772
0.000131772
0.000132382
0.000132382
0.000132382
0.000131571
0.000131571
0.000131571
0.00013229
0.00013229
0.00013229
0.00013453
0.00013453
0.00013453
0.000135115
0.000135115
0.000135115
0.000134502
0.000134502
0.000134502
0.000133623
0.000133623
0.000133623
0.000133756
0.000133756
0.000133756
0.000122734
0.000122734
0.000122734
0.000122355
0.000122355
0.000122355
0.000123427
0.000123427
0.000123427
0.000129727
0.000129727
0.000129727
0.000129623
0.000129623
0.000129623
0.000129135
0.000129135
0.000129135
0.00012843
0.00012843
0.00012843
0.000127845
0.000127845
0.000127845
0.000121084
0.000121084
0.000121084
0.000120429
0.000120429
0.000120429
0.000119397
0.000119397
0.000119397
0.000121178
0.000121178
0.000121178
0.000123434
0.000123434
0.000123434
0.000122626
0.000122626
0.000122626
0.000123289
0.000123289
0.000123289
0.000103216
0.000103216
0.000103216
8.90113e-05
8.90113e-05
8.90113e-05
0.000117874
0.000117874
0.000117874
0.000119666
0.000119666
0.000119666
0.000113462
0.000113462
0.000113462
0.000123521
0.000123521
0.000123521
0.000122957
0.000122957
0.000122957
0.000121951
0.000121951
0.000121951
0.000119753
0.000119753
0.000119753
0.000121866
0.000121866
0.000121866
0.00012227
0.00012227
0.00012227
6.72314e-05
6.72314e-05
6.72314e-05
2.51764e-05
2.51764e-05
2.51764e-05
2.05471e-05
2.05471e-05
2.05471e-05
0.000112807
0.000112807
0.000112807
0.000109914
0.000109914
0.000109914
9.24757e-05
9.24757e-05
9.24757e-05
9.97919e-05
9.97919e-05
9.97919e-05
9.97192e-05
9.97192e-05
9.97192e-05
0.000103256
0.000103256
0.000103256
9.25444e-05
9.25444e-05
9.25444e-05
8.91512e-05
8.91512e-05
8.91512e-05
7.99897e-05
7.99897e-05
7.99897e-05
8.28249e-05
8.28249e-05
8.28249e-05
8.2746e-05
8.2746e-05
8.2746e-05
8.90905e-05
8.90905e-05
8.90905e-05
6.73773e-05
6.73773e-05
6.73773e-05
6.11619e-05
6.11619e-05
6.11619e-05
5.92197e-05
5.92197e-05
5.92197e-05
5.38641e-05
5.38641e-05
5.38641e-05
5.56066e-05
5.56066e-05
5.56066e-05
8.28837e-05
8.28837e-05
8.28837e-05
9.26204e-05
9.26204e-05
9.26204e-05
8.92038e-05
8.92038e-05
8.92038e-05
4.57092e-05
4.57092e-05
4.57092e-05
4.51352e-05
4.51352e-05
4.51352e-05
4.87747e-05
4.87747e-05
4.87747e-05
4.94698e-05
4.94698e-05
4.94698e-05
4.83071e-05
4.83071e-05
4.83071e-05
5.03526e-05
5.03526e-05
5.03526e-05
6.13335e-05
6.13335e-05
6.13335e-05
5.22574e-05
5.22574e-05
5.22574e-05
2.14226e-05
2.14226e-05
2.14226e-05
2.15642e-05
2.15642e-05
2.15642e-05
2.05333e-05
2.05333e-05
2.05333e-05
1.97855e-05
1.97855e-05
1.97855e-05
2.2512e-05
2.2512e-05
2.2512e-05
2.34264e-05
2.34264e-05
2.34264e-05
2.3185e-05
2.3185e-05
2.3185e-05
2.22076e-05
2.22076e-05
2.22076e-05
2.38569e-05
2.38569e-05
2.38569e-05
2.41171e-05
2.41171e-05
2.41171e-05
2.51961e-05
2.51961e-05
2.51961e-05
2.03758e-05
2.03758e-05
2.03758e-05
2.2852e-05
2.2852e-05
2.2852e-05
2.20517e-05
2.20517e-05
2.20517e-05
2.11361e-05
2.11361e-05
2.11361e-05
2.09641e-05
2.09641e-05
2.09641e-05
2.33214e-05
2.33214e-05
2.33214e-05
0.000166819
0.000166819
0.000166819
0.000149485
0.000149485
0.000149485
0.000162471
0.000162471
0.000162471
0.000166183
0.000166183
0.000166183
0.000163878
0.000163878
0.000163878
0.000211946
0.000211946
0.000211946
0.0002123
0.0002123
0.0002123
0.000213462
0.000213462
0.000213462
0.000209301
0.000209301
0.000209301
0.000192024
0.000192024
0.000192024
0.000190959
0.000190959
0.000190959
0.000194788
0.000194788
0.000194788
0.000203904
0.000203904
0.000203904
0.000202335
0.000202335
0.000202335
0.000228883
0.000228883
0.000228883
0.000227483
0.000227483
0.000227483
0.000231518
0.000231518
0.000231518
0.000231425
0.000231425
0.000231425
0.00022874
0.00022874
0.00022874
0.000211616
0.000211616
0.000211616
0.000213121
0.000213121
0.000213121
0.000217297
0.000217297
0.000217297
0.0002197
0.0002197
0.0002197
0.000215836
0.000215836
0.000215836
0.000217023
0.000217023
0.000217023
0.000220064
0.000220064
0.000220064
0.00022128
0.00022128
0.00022128
0.000243301
0.000243301
0.000243301
0.000244662
0.000244662
0.000244662
0.000243152
0.000243152
0.000243152
0.000248772
0.000248772
0.000248772
0.000226211
0.000226211
0.000226211
0.000229168
0.000229168
0.000229168
0.000234806
0.000234806
0.000234806
0.000231564
0.000231564
0.000231564
0.000231931
0.000231931
0.000231931
0.000230286
0.000230286
0.000230286
0.000210244
0.000210244
0.000210244
0.000209088
0.000209088
0.000209088
0.000206535
0.000206535
0.000206535
0.000198764
0.000198764
0.000198764
0.000184475
0.000184475
0.000184475
0.000158558
0.000158558
0.000158558
4.75039e-05
4.75039e-05
4.75039e-05
5.49004e-05
5.49004e-05
5.49004e-05
5.19896e-05
5.19896e-05
5.19896e-05
0.000182854
0.000182854
0.000182854
0.000180862
0.000180862
0.000180862
0.000191018
0.000191018
0.000191018
0.000192067
0.000192067
0.000192067
0.000190117
0.000190117
0.000190117
0.000199648
0.000199648
0.000199648
0.000195402
0.000195402
0.000195402
0.000198067
0.000198067
0.000198067
0.000192693
0.000192693
0.000192693
0.000191144
0.000191144
0.000191144
0.000188547
0.000188547
0.000188547
0.000206806
0.000206806
0.000206806
0.000205684
0.000205684
0.000205684
0.000209445
0.000209445
0.000209445
0.000198436
0.000198436
0.000198436
0.000195956
0.000195956
0.000195956
0.000199531
0.000199531
0.000199531
0.000198122
0.000198122
0.000198122
0.000194538
0.000194538
0.000194538
0.000195611
0.000195611
0.000195611
0.000191168
0.000191168
0.000191168
0.000194892
0.000194892
0.000194892
0.00019382
0.00019382
0.00019382
0.000184731
0.000184731
0.000184731
0.000168935
0.000168935
0.000168935
0.000168382
0.000168382
0.000168382
0.000173333
0.000173333
0.000173333
0.000125311
0.000125311
0.000125311
0.000122236
0.000122236
0.000122236
0.000153908
0.000153908
0.000153908
0.000159527
0.000159527
0.000159527
0.000164775
0.000164775
0.000164775
0.000164185
0.000164185
0.000164185
0.000155508
0.000155508
0.000155508
0.00016062
0.00016062
0.00016062
0.000145335
0.000145335
0.000145335
0.00014236
0.00014236
0.00014236
0.000131918
0.000131918
0.000131918
0.000125417
0.000125417
0.000125417
0.000128618
0.000128618
0.000128618
0.000138784
0.000138784
0.000138784
0.000176871
0.000176871
0.000176871
0.000178496
0.000178496
0.000178496
0.000181106
0.000181106
0.000181106
0.000182098
0.000182098
0.000182098
7.85316e-05
7.85316e-05
7.85316e-05
0.000116459
0.000116459
0.000116459
8.21633e-05
8.21633e-05
8.21633e-05
0.000175804
0.000175804
0.000175804
0.000177758
0.000177758
0.000177758
0.000174117
0.000174117
0.000174117
0.000175082
0.000175082
0.000175082
0.000182153
0.000182153
0.000182153
0.000179456
0.000179456
0.000179456
0.000178463
0.000178463
0.000178463
0.000180139
0.000180139
0.000180139
0.000182817
0.000182817
0.000182817
0.000183843
0.000183843
0.000183843
0.000184115
0.000184115
0.000184115
0.000185757
0.000185757
0.000185757
0.000126725
0.000126725
0.000126725
0.000127466
0.000127466
0.000127466
0.000100105
0.000100105
0.000100105
0.000102324
0.000102324
0.000102324
0.000130859
0.000130859
0.000130859
0.000127632
0.000127632
0.000127632
9.10865e-05
9.10865e-05
9.10865e-05
9.29912e-05
9.29912e-05
9.29912e-05
8.82715e-05
8.82715e-05
8.82715e-05
8.48168e-05
8.48168e-05
8.48168e-05
8.0646e-05
8.0646e-05
8.0646e-05
8.2229e-05
8.2229e-05
8.2229e-05
0.000152331
0.000152331
0.000152331
0.000155053
0.000155053
0.000155053
0.000152531
0.000152531
0.000152531
0.000151631
0.000151631
0.000151631
0.00013165
0.00013165
0.00013165
0.000134262
0.000134262
0.000134262
0.00015085
0.00015085
0.00015085
0.000143496
0.000143496
0.000143496
0.000148192
0.000148192
0.000148192
0.000155912
0.000155912
0.000155912
0.000168995
0.000168995
0.000168995
0.000170707
0.000170707
0.000170707
0.00016977
0.00016977
0.00016977
0.000167722
0.000167722
0.000167722
0.00016515
0.00016515
0.00016515
0.000164397
0.000164397
0.000164397
0.00016349
0.00016349
0.00016349
0.000124131
0.000124131
0.000124131
0.000123751
0.000123751
0.000123751
0.000123078
0.000123078
0.000123078
0.000122918
0.000122918
0.000122918
0.000124439
0.000124439
0.000124439
0.000123267
0.000123267
0.000123267
0.000123943
0.000123943
0.000123943
0.000129251
0.000129251
0.000129251
0.000130557
0.000130557
0.000130557
0.000129961
0.000129961
0.000129961
0.000121926
0.000121926
0.000121926
0.000121265
0.000121265
0.000121265
0.000122591
0.000122591
0.000122591
0.000123534
0.000123534
0.000123534
0.000119632
0.000119632
0.000119632
0.00011498
0.00011498
0.00011498
0.000106844
0.000106844
0.000106844
0.000108617
0.000108617
0.000108617
0.000242029
0.000242029
0.000242029
0.000257472
0.000257472
0.000257472
0.000255767
0.000255767
0.000255767
0.000230172
0.000230172
0.000230172
0.000236556
0.000236556
0.000236556
0.000237853
0.000237853
0.000237853
0.000212332
0.000212332
0.000212332
0.000214704
0.000214704
0.000214704
8.58084e-05
8.58084e-05
8.58084e-05
9.2408e-05
9.2408e-05
9.2408e-05
0.000123042
0.000123042
0.000123042
0.00011946
0.00011946
0.00011946
0.0001213
0.0001213
0.0001213
0.000125982
0.000125982
0.000125982
0.000126518
0.000126518
0.000126518
0.000126026
0.000126026
0.000126026
0.000125945
0.000125945
0.000125945
0.000128602
0.000128602
0.000128602
0.000128056
0.000128056
0.000128056
0.0001272
0.0001272
0.0001272
0.000128019
0.000128019
0.000128019
0.000127323
0.000127323
0.000127323
0.000126714
0.000126714
0.000126714
0.000126822
0.000126822
0.000126822
0.000127036
0.000127036
0.000127036
0.000127149
0.000127149
0.000127149
0.000128804
0.000128804
0.000128804
0.000128916
0.000128916
0.000128916
0.000128103
0.000128103
0.000128103
0.000127516
0.000127516
0.000127516
0.000128316
0.000128316
0.000128316
0.000127617
0.000127617
0.000127617
0.000125449
0.000125449
0.000125449
0.000124763
0.000124763
0.000124763
0.000124188
0.000124188
0.000124188
0.000124299
0.000124299
0.000124299
0.000121404
0.000121404
0.000121404
0.000121904
0.000121904
0.000121904
0.00012257
0.00012257
0.00012257
0.000121571
0.000121571
0.000121571
0.0001187
0.0001187
0.0001187
0.000120174
0.000120174
0.000120174
0.000117327
0.000117327
0.000117327
0.000120748
0.000120748
0.000120748
0.000120485
0.000120485
0.000120485
0.000118916
0.000118916
0.000118916
0.000121558
0.000121558
0.000121558
0.00012301
0.00012301
0.00012301
0.000121821
0.000121821
0.000121821
0.000122479
0.000122479
0.000122479
0.00012222
0.00012222
0.00012222
0.00012288
0.00012288
0.00012288
0.000110005
0.000110005
0.000110005
0.000113037
0.000113037
0.000113037
9.96726e-05
9.96726e-05
9.96726e-05
9.2433e-05
9.2433e-05
9.2433e-05
9.96324e-05
9.96324e-05
9.96324e-05
0.000103218
0.000103218
0.000103218
8.90454e-05
8.90454e-05
8.90454e-05
9.245e-05
9.245e-05
9.245e-05
7.19068e-05
7.19068e-05
7.19068e-05
7.44264e-05
7.44264e-05
7.44264e-05
7.98607e-05
7.98607e-05
7.98607e-05
8.27163e-05
8.27163e-05
8.27163e-05
7.98528e-05
7.98528e-05
7.98528e-05
7.18911e-05
7.18911e-05
7.18911e-05
7.44099e-05
7.44099e-05
7.44099e-05
9.23992e-05
9.23992e-05
9.23992e-05
0.000123735
0.000123735
0.000123735
0.000122633
0.000122633
0.000122633
0.000123065
0.000123065
0.000123065
0.000122513
0.000122513
0.000122513
0.000114797
0.000114797
0.000114797
0.000118077
0.000118077
0.000118077
0.000117435
0.000117435
0.000117435
0.000119176
0.000119176
0.000119176
0.000121826
0.000121826
0.000121826
0.000121393
0.000121393
0.000121393
6.72171e-05
6.72171e-05
6.72171e-05
9.09057e-05
9.09057e-05
9.09057e-05
6.49964e-05
6.49964e-05
6.49964e-05
9.32368e-05
9.32368e-05
9.32368e-05
9.29022e-05
9.29022e-05
9.29022e-05
8.83686e-05
8.83686e-05
8.83686e-05
6.50714e-05
6.50714e-05
6.50714e-05
6.50182e-05
6.50182e-05
6.50182e-05
6.09105e-05
6.09105e-05
6.09105e-05
5.90136e-05
5.90136e-05
5.90136e-05
6.09309e-05
6.09309e-05
6.09309e-05
1.89024e-05
1.89024e-05
1.89024e-05
6.73398e-05
6.73398e-05
6.73398e-05
5.96304e-05
5.96304e-05
5.96304e-05
3.41148e-05
3.41148e-05
3.41148e-05
3.2392e-05
3.2392e-05
3.2392e-05
3.88289e-05
3.88289e-05
3.88289e-05
2.64563e-05
2.64563e-05
2.64563e-05
2.92041e-05
2.92041e-05
2.92041e-05
2.78096e-05
2.78096e-05
2.78096e-05
3.6404e-05
3.6404e-05
3.6404e-05
3.0738e-05
3.0738e-05
3.0738e-05
3.71555e-05
3.71555e-05
3.71555e-05
7.82342e-05
7.82342e-05
7.82342e-05
7.72189e-05
7.72189e-05
7.72189e-05
0.000109967
0.000109967
0.000109967
0.000112868
0.000112868
0.000112868
0.000117497
0.000117497
0.000117497
0.000119148
0.000119148
0.000119148
0.000117673
0.000117673
0.000117673
0.000112947
0.000112947
0.000112947
7.99383e-05
7.99383e-05
7.99383e-05
7.98949e-05
7.98949e-05
7.98949e-05
8.27854e-05
8.27854e-05
8.27854e-05
7.45003e-05
7.45003e-05
7.45003e-05
6.5366e-05
6.5366e-05
6.5366e-05
7.50654e-05
7.50654e-05
7.50654e-05
7.25014e-05
7.25014e-05
7.25014e-05
7.20788e-05
7.20788e-05
7.20788e-05
6.11096e-05
6.11096e-05
6.11096e-05
6.52372e-05
6.52372e-05
6.52372e-05
6.5202e-05
6.5202e-05
6.5202e-05
6.74361e-05
6.74361e-05
6.74361e-05
8.00013e-05
8.00013e-05
8.00013e-05
7.45951e-05
7.45951e-05
7.45951e-05
7.46562e-05
7.46562e-05
7.46562e-05
7.20176e-05
7.20176e-05
7.20176e-05
8.92443e-05
8.92443e-05
8.92443e-05
8.29566e-05
8.29566e-05
8.29566e-05
8.30358e-05
8.30358e-05
8.30358e-05
8.00708e-05
8.00708e-05
8.00708e-05
4.11106e-05
4.11106e-05
4.11106e-05
3.91071e-05
3.91071e-05
3.91071e-05
4.22309e-05
4.22309e-05
4.22309e-05
4.28969e-05
4.28969e-05
4.28969e-05
4.69506e-05
4.69506e-05
4.69506e-05
4.96237e-05
4.96237e-05
4.96237e-05
4.40476e-05
4.40476e-05
4.40476e-05
4.63434e-05
4.63434e-05
4.63434e-05
4.756e-05
4.756e-05
4.756e-05
4.81959e-05
4.81959e-05
4.81959e-05
6.3458e-05
6.3458e-05
6.3458e-05
5.88131e-05
5.88131e-05
5.88131e-05
5.54819e-05
5.54819e-05
5.54819e-05
5.72475e-05
5.72475e-05
5.72475e-05
5.9722e-05
5.9722e-05
5.9722e-05
5.40046e-05
5.40046e-05
5.40046e-05
5.32376e-05
5.32376e-05
5.32376e-05
6.62441e-05
6.62441e-05
6.62441e-05
6.51699e-05
6.51699e-05
6.51699e-05
7.03058e-05
7.03058e-05
7.03058e-05
7.36691e-05
7.36691e-05
7.36691e-05
5.46733e-05
5.46733e-05
5.46733e-05
5.30632e-05
5.30632e-05
5.30632e-05
5.09429e-05
5.09429e-05
5.09429e-05
5.17111e-05
5.17111e-05
5.17111e-05
6.03797e-05
6.03797e-05
6.03797e-05
5.69565e-05
5.69565e-05
5.69565e-05
5.61081e-05
5.61081e-05
5.61081e-05
5.35813e-05
5.35813e-05
5.35813e-05
5.44207e-05
5.44207e-05
5.44207e-05
5.57814e-05
5.57814e-05
5.57814e-05
5.9007e-05
5.9007e-05
5.9007e-05
9.0763e-05
9.0763e-05
9.0763e-05
8.47831e-05
8.47831e-05
8.47831e-05
7.17274e-05
7.17274e-05
7.17274e-05
8.00199e-05
8.00199e-05
8.00199e-05
8.5469e-05
8.5469e-05
8.5469e-05
7.78786e-05
7.78786e-05
7.78786e-05
7.6457e-05
7.6457e-05
7.6457e-05
8.71474e-05
8.71474e-05
8.71474e-05
8.3184e-05
8.3184e-05
8.3184e-05
4.78793e-05
4.78793e-05
4.78793e-05
4.84686e-05
4.84686e-05
4.84686e-05
2.90998e-05
2.90998e-05
2.90998e-05
1.95113e-05
1.95113e-05
1.95113e-05
2.27377e-05
2.27377e-05
2.27377e-05
2.39143e-05
2.39143e-05
2.39143e-05
2.37554e-05
2.37554e-05
2.37554e-05
4.01929e-05
4.01929e-05
4.01929e-05
3.86068e-05
3.86068e-05
3.86068e-05
5.37649e-05
5.37649e-05
5.37649e-05
5.54001e-05
5.54001e-05
5.54001e-05
1.96335e-05
1.96335e-05
1.96335e-05
2.79508e-05
2.79508e-05
2.79508e-05
5.07059e-05
5.07059e-05
5.07059e-05
3.09248e-05
3.09248e-05
3.09248e-05
2.59459e-05
2.59459e-05
2.59459e-05
6.81868e-05
6.81868e-05
6.81868e-05
5.48957e-05
5.48957e-05
5.48957e-05
3.90782e-05
3.90782e-05
3.90782e-05
4.07333e-05
4.07333e-05
4.07333e-05
4.35713e-05
4.35713e-05
4.35713e-05
4.30493e-05
4.30493e-05
4.30493e-05
2.96037e-05
2.96037e-05
2.96037e-05
2.58101e-05
2.58101e-05
2.58101e-05
2.53879e-05
2.53879e-05
2.53879e-05
2.46519e-05
2.46519e-05
2.46519e-05
2.44774e-05
2.44774e-05
2.44774e-05
3.48613e-05
3.48613e-05
3.48613e-05
3.71438e-05
3.71438e-05
3.71438e-05
3.66419e-05
3.66419e-05
3.66419e-05
3.181e-05
3.181e-05
3.181e-05
3.05625e-05
3.05625e-05
3.05625e-05
3.08266e-05
3.08266e-05
3.08266e-05
3.34388e-05
3.34388e-05
3.34388e-05
4.39233e-05
4.39233e-05
4.39233e-05
4.17428e-05
4.17428e-05
4.17428e-05
2.39111e-05
2.39111e-05
2.39111e-05
2.41495e-05
2.41495e-05
2.41495e-05
2.26828e-05
2.26828e-05
2.26828e-05
2.15537e-05
2.15537e-05
2.15537e-05
2.17376e-05
2.17376e-05
2.17376e-05
2.27327e-05
2.27327e-05
2.27327e-05
2.35468e-05
2.35468e-05
2.35468e-05
2.45715e-05
2.45715e-05
2.45715e-05
2.47815e-05
2.47815e-05
2.47815e-05
0.000145849
0.000145849
0.000145849
0.000133672
0.000133672