<VTKFile type="UnstructuredGrid" version="1.0">
<UnstructuredGrid>
<Piece NumberOfPoints="10830" NumberOfCells="3610">
<Points>
<DataArray type="Float64" NumberOfComponents="3" format="ascii">
2.19217 2.20649 5.25075
2.19928 2.19938 5.225
2.19928 2.19938 5.27646
2.19928 2.19938 5.78008
2.19928 2.19938 5.831
2.19129 2.20737 5.80553
2.19928 2.19938 5.78008
2.19129 2.20737 5.80553
2.17928 2.21938 5.7801
1.30559 3.09307 6.25259
1.31816 3.0805 6.27
1.28831 3.11035 6.27
1.28831 3.11035 6.27
1.28831 3.11035 6.23984
1.30559 3.09307 6.25259
2.19928 2.19938 5.78008
2.17928 2.21938 5.7801
2.1913 2.20736 5.75468
1.29441 3.10425 5.50179
1.28831 3.11035 5.52701
1.28831 3.11035 5.47657
2.19132 2.20734 5.5019
2.19928 2.19938 5.52709
2.17929 2.21937 5.52711
2.19117 2.20749 5.40134
2.19928 2.19938 5.37628
2.19928 2.19938 5.42639
2.17929 2.21937 5.52711
2.19928 2.19938 5.52709
2.19133 2.20733 5.55231
2.19928 2.19938 5.52709
2.19928 2.19938 5.57754
2.19133 2.20733 5.55231
2.17929 2.21937 5.57755
2.19133 2.20733 5.55231
2.19928 2.19938 5.57754
2.17928 2.21938 5.72931
2.1913 2.20736 5.75468
2.16946 2.22921 5.7547
2.16946 2.22921 5.7547
2.1913 2.20736 5.75468
2.17928 2.21938 5.7801
2.16946 2.22921 5.7547
2.15842 2.24024 5.72932
2.17928 2.21938 5.72931
2.16946 2.22921 5.7547
2.17928 2.21938 5.7801
2.15841 2.24025 5.78012
2.19928 2.19938 5.62804
2.19928 2.19938 5.67862
2.19132 2.20734 5.65333
2.19132 2.20734 5.65333
2.17929 2.21937 5.67863
2.16947 2.22919 5.65334
2.19928 2.19938 5.67862
2.17929 2.21937 5.67863
2.19132 2.20734 5.65333
2.19928 2.19938 5.72929
2.1913 2.20736 5.75468
2.17928 2.21938 5.72931
2.19928 2.19938 5.78008
2.1913 2.20736 5.75468
2.19928 2.19938 5.72929
2.17913 2.21954 5.37632
2.19928 2.19938 5.37628
2.19117 2.20749 5.40134
2.17927 2.21939 5.83103
2.19129 2.20737 5.80553
2.19928 2.19938 5.831
1.8956 2.50306 6.01075
1.90602 2.49264 5.98498
1.91643 2.48223 6.01072
1.28831 3.11035 5.225
1.30792 3.09074 5.225
1.29529 3.10337 5.2497
1.34771 3.05096 5.47659
1.32717 3.07149 5.47657
1.33709 3.06157 5.45137
1.30704 3.09162 5.47656
1.32717 3.07149 5.47657
1.31607 3.08259 5.50178
1.30704 3.09162 5.47656
1.29441 3.10425 5.50179
1.28831 3.11035 5.47657
1.31607 3.08259 5.50178
1.29441 3.10425 5.50179
1.30704 3.09162 5.47656
1.2945 3.10417 5.70394
1.28831 3.11035 5.7293
1.28831 3.11035 5.67861
1.3071 3.09157 5.7293
1.31615 3.08252 5.70393
1.32724 3.07142 5.72929
1.28831 3.11035 5.7293
1.2945 3.10417 5.70394
1.3071 3.09157 5.7293
1.3071 3.09157 5.7293
1.2945 3.10417 5.70394
1.31615 3.08252 5.70393
1.30708 3.09158 5.6786
1.32723 3.07143 5.6786
1.31615 3.08252 5.70393
1.30708 3.09158 5.6786
1.2945 3.10417 5.70394
1.28831 3.11035 5.67861
1.31615 3.08252 5.70393
1.2945 3.10417 5.70394
1.30708 3.09158 5.6786
1.28831 3.11035 5.52701
1.29441 3.10425 5.50179
1.30705 3.09161 5.527
1.30705 3.09161 5.527
1.29441 3.10425 5.50179
1.31607 3.08259 5.50178
1.32724 3.07142 5.72929
1.31615 3.08252 5.70393
1.33718 3.06148 5.70393
1.31615 3.08252 5.70393
1.32723 3.07143 5.6786
1.33718 3.06148 5.70393
1.49256 2.90611 5.67867
1.50289 2.89577 5.70401
1.48223 2.91643 5.704
1.48223 2.91643 5.704
1.50289 2.89577 5.70401
1.49257 2.90609 5.72937
1.49257 2.90609 5.72937
1.50289 2.89577 5.70401
1.51323 2.88543 5.72938
1.88521 2.51346 5.985
1.90602 2.49264 5.98498
1.8956 2.50306 6.01075
2.19127 2.20739 5.45156
2.19928 2.19938 5.42639
2.19928 2.19938 5.4767
2.19928 2.19938 5.52709
2.19132 2.20734 5.5019
2.19928 2.19938 5.4767
2.11618 2.28248 5.6281
2.09503 2.30363 5.62811
2.10562 2.29304 5.60285
2.17929 2.21937 5.62805
2.19132 2.20734 5.65333
2.16947 2.22919 5.65334
2.19928 2.19938 5.62804
2.19132 2.20734 5.65333
2.17929 2.21937 5.62805
2.16947 2.22919 5.65334
2.17929 2.21937 5.67863
2.15843 2.24024 5.67865
2.19131 2.20735 5.70395
2.17929 2.21937 5.67863
2.19928 2.19938 5.67862
2.19928 2.19938 5.67862
2.19928 2.19938 5.72929
2.19131 2.20735 5.70395
2.19131 2.20735 5.70395
2.19928 2.19938 5.72929
2.17928 2.21938 5.72931
2.1693 2.22936 5.40137
2.17913 2.21954 5.37632
2.19117 2.20749 5.40134
2.19127 2.20739 5.45156
2.19928 2.19938 5.4767
2.17927 2.21939 5.47674
2.17927 2.21939 5.47674
2.19928 2.19938 5.4767
2.19132 2.20734 5.5019
2.10553 2.29313 5.45161
2.09491 2.30375 5.42643
2.11605 2.28261 5.42643
2.1372 2.26147 5.42645
2.12662 2.27204 5.40126
2.14787 2.25079 5.40131
2.1372 2.26147 5.42645
2.11605 2.28261 5.42643
2.12662 2.27204 5.40126
2.16946 2.2292 5.50193
2.19132 2.20734 5.5019
2.17929 2.21937 5.52711
2.16946 2.2292 5.50193
2.17927 2.21939 5.47674
2.19132 2.20734 5.5019
2.16945 2.22921 5.80555
2.17928 2.21938 5.7801
2.19129 2.20737 5.80553
2.19129 2.20737 5.80553
2.17927 2.21939 5.83103
2.16945 2.22921 5.80555
2.15841 2.24025 5.78012
2.17928 2.21938 5.7801
2.16945 2.22921 5.80555
2.16944 2.22922 5.95905
2.14804 2.25062 5.95906
2.15841 2.24025 5.93337
2.14804 2.25063 5.90774
2.16944 2.22922 5.90772
2.15841 2.24025 5.93337
2.19128 2.20738 5.85653
2.17927 2.21939 5.83103
2.19928 2.19938 5.831
2.16944 2.22922 5.85656
2.17927 2.21939 5.83103
2.19128 2.20738 5.85653
1.93725 2.46141 6.06232
1.94766 2.451 6.08816
1.92679 2.47187 6.0882
2.05276 2.34591 5.93343
2.06331 2.33535 5.90779
2.07386 2.3248 5.93341
2.07386 2.3248 5.93341
2.06331 2.33535 5.90779
2.08443 2.31423 5.90778
2.15841 2.24026 5.88213
2.14804 2.25062 5.85658
2.16944 2.22922 5.85656
2.15841 2.24026 5.88213
2.16944 2.22922 5.90772
2.14804 2.25063 5.90774
2.04222 2.35644 5.90781
2.06331 2.33535 5.90779
2.05276 2.34591 5.93343
1.9897 2.40896 5.67874
1.96874 2.42992 5.67874
1.97921 2.41945 5.65344
1.93736 2.4613 5.65344
1.92692 2.47174 5.67875
1.91649 2.48217 5.65344
1.94781 2.45085 5.67875
1.92692 2.47174 5.67875
1.93736 2.4613 5.65344
1.92691 2.47175 5.57765
1.9478 2.45086 5.57765
1.93736 2.46131 5.60289
1.93736 2.46131 5.60289
1.91648 2.48218 5.60289
1.92691 2.47175 5.57765
1.92691 2.47175 5.57765
1.91648 2.48218 5.60289
1.90605 2.49261 5.57764
1.93736 2.46131 5.60289
1.9478 2.45086 5.57765
1.95826 2.4404 5.6029
1.96871 2.42995 5.52723
1.9792 2.41946 5.55244
1.95825 2.44041 5.55243
1.95825 2.44041 5.55243
1.94778 2.45088 5.52723
1.96871 2.42995 5.52723
1.8126 2.58607 5.70409
1.82295 2.57571 5.67875
1.83332 2.56534 5.70409
1.82295 2.57571 5.67875
1.84369 2.55497 5.67875
1.83332 2.56534 5.70409
1.92692 2.47174 5.62816
1.91648 2.48218 5.60289
1.93736 2.46131 5.60289
1.92692 2.47174 5.62816
1.93736 2.4613 5.65344
1.91649 2.48217 5.65344
1.91649 2.48217 5.65344
1.89565 2.50301 5.65344
1.90606 2.4926 5.62815
1.90606 2.4926 5.62815
1.92692 2.47174 5.62816
1.91649 2.48217 5.65344
1.91648 2.48218 5.60289
1.92692 2.47174 5.62816
1.90606 2.4926 5.62815
1.90605 2.49261 5.57764
1.88523 2.51343 5.57764
1.89563 2.50303 5.55241
1.88521 2.51345 5.52719
1.90603 2.49263 5.52721
1.89563 2.50303 5.55241
1.51322 2.88545 5.67868
1.50289 2.89577 5.70401
1.49256 2.90611 5.67867
1.49256 2.90611 5.67867
1.50288 2.89578 5.65336
1.51322 2.88545 5.67868
1.29442 3.10424 5.29987
1.28831 3.11035 5.32509
1.28831 3.11035 5.27442
1.28831 3.11035 5.225
1.29529 3.10337 5.2497
1.28831 3.11035 5.27442
1.307 3.09167 5.3757
1.28831 3.11035 5.37567
1.29431 3.10435 5.35042
1.28831 3.11035 5.37567
1.28831 3.11035 5.32509
1.29431 3.10435 5.35042
2.19928 2.19938 5.225
2.19217 2.20649 5.25075
2.18013 2.21854 5.225
1.28831 3.11035 5.47657
1.28831 3.11035 5.42614
1.29438 3.10428 5.45136
1.29438 3.10428 5.45136
1.30704 3.09162 5.47656
1.28831 3.11035 5.47657
1.30702 3.09164 5.42613
1.29438 3.10428 5.45136
1.28831 3.11035 5.42614
1.30702 3.09164 5.42613
1.31601 3.08265 5.40094
1.32714 3.07152 5.42616
1.31605 3.08262 5.45135
1.33709 3.06157 5.45137
1.32717 3.07149 5.47657
1.32717 3.07149 5.47657
1.30704 3.09162 5.47656
1.31605 3.08262 5.45135
1.32714 3.07152 5.42616
1.33709 3.06157 5.45137
1.31605 3.08262 5.45135
1.31605 3.08262 5.45135
1.30702 3.09164 5.42613
1.32714 3.07152 5.42616
1.30704 3.09162 5.47656
1.29438 3.10428 5.45136
1.31605 3.08262 5.45135
1.29438 3.10428 5.45136
1.30702 3.09164 5.42613
1.31605 3.08262 5.45135
1.29435 3.10432 5.40091
1.28831 3.11035 5.42614
1.28831 3.11035 5.37567
1.29435 3.10432 5.40091
1.28831 3.11035 5.37567
1.307 3.09167 5.3757
1.307 3.09167 5.3757
1.31601 3.08265 5.40094
1.29435 3.10432 5.40091
1.29435 3.10432 5.40091
1.30702 3.09164 5.42613
1.28831 3.11035 5.42614
1.31601 3.08265 5.40094
1.30702 3.09164 5.42613
1.29435 3.10432 5.40091
1.33717 3.06149 5.65329
1.32723 3.07143 5.6786
1.31613 3.08254 5.65329
1.32723 3.07143 5.6786
1.30708 3.09158 5.6786
1.31613 3.08254 5.65329
1.31613 3.08254 5.65329
1.32722 3.07145 5.628
1.33717 3.06149 5.65329
1.33711 3.06155 5.50179
1.32717 3.07149 5.47657
1.34771 3.05096 5.47659
1.31607 3.08259 5.50178
1.32717 3.07149 5.47657
1.33711 3.06155 5.50179
1.35794 3.04072 5.5018
1.33711 3.06155 5.50179
1.34771 3.05096 5.47659
1.34773 3.05094 5.52701
1.33711 3.06155 5.50179
1.35794 3.04072 5.5018
1.34773 3.05094 5.52701
1.35794 3.04072 5.5018
1.36839 3.03027 5.52702
1.50287 2.89579 5.6028
1.51321 2.88546 5.62807
1.49255 2.90612 5.62807
1.49255 2.90612 5.62807
1.51321 2.88546 5.62807
1.50288 2.89578 5.65336
1.42017 2.9785 5.65332
1.44086 2.9578 5.65333
1.43052 2.96814 5.67863
1.43051 2.96815 5.62804
1.44086 2.9578 5.65333
1.42017 2.9785 5.65332
1.44085 2.95782 5.60277
1.4305 2.96817 5.57752
1.45119 2.94748 5.57753
1.43051 2.96815 5.62804
1.42015 2.97851 5.60276
1.44085 2.95782 5.60277
1.44085 2.95782 5.60277
1.42015 2.97851 5.60276
1.4305 2.96817 5.57752
1.44087 2.95779 5.70398
1.46156 2.9371 5.70399
1.45123 2.94744 5.72934
1.3995 2.99917 5.7547
1.40985 2.98882 5.72932
1.4202 2.97846 5.75471
1.40983 2.98883 5.67862
1.42017 2.9785 5.65332
1.43052 2.96814 5.67863
1.39946 2.9992 5.65331
1.42017 2.9785 5.65332
1.40983 2.98883 5.67862
1.32724 3.07142 5.72929
1.33718 3.06148 5.70393
1.34779 3.05087 5.72929
1.33717 3.06149 5.65329
1.32722 3.07145 5.628
1.34776 3.0509 5.628
1.34776 3.0509 5.628
1.35799 3.04067 5.65329
1.33717 3.06149 5.65329
1.38911 3.00955 5.62801
1.39946 2.9992 5.65331
1.37874 3.01992 5.6533
1.34777 3.05089 5.6786
1.33718 3.06148 5.70393
1.32723 3.07143 5.6786
[...]
<PointData Scalars="View Factor" >
<DataArray type="Float64" Name="View Factor" NumberOfComponents="1" format="ascii">
1.11348e-05
1.11348e-05
1.11348e-05
2.90744e-05
2.90744e-05
2.90744e-05
3.07873e-05
3.07873e-05
3.07873e-05
0.000167909
0.000167909
0.000167909
0.00016975
0.00016975
0.00016975
3.31905e-05
3.31905e-05
3.31905e-05
0.000212794
0.000212794
0.000212794
7.75044e-06
7.75044e-06
7.75044e-06
8.99943e-06
8.99943e-06
8.99943e-06
8.10618e-06
8.10618e-06
8.10618e-06
9.49353e-06
9.49353e-06
9.49353e-06
1.28557e-05
1.28557e-05
1.28557e-05
4.02631e-05
4.02631e-05
4.02631e-05
3.76667e-05
3.76667e-05
3.76667e-05
5.19601e-05
5.19601e-05
5.19601e-05
4.79365e-05
4.79365e-05
4.79365e-05
3.42137e-05
3.42137e-05
3.42137e-05
3.90453e-05
3.90453e-05
3.90453e-05
3.77979e-05
3.77979e-05
3.77979e-05
3.84529e-05
3.84529e-05
3.84529e-05
3.61898e-05
3.61898e-05
3.61898e-05
8.94148e-06
8.94148e-06
8.94148e-06
2.66532e-05
2.66532e-05
2.66532e-05
1.17045e-05
1.17045e-05
1.17045e-05
0.00022987
0.00022987
0.00022987
0.000206043
0.000206043
0.000206043
0.000209217
0.000209217
0.000209217
0.000212829
0.000212829
0.000212829
0.000210706
0.000210706
0.000210706
0.000200171
0.000200171
0.000200171
0.000194807
0.000194807
0.000194807
0.000198157
0.000198157
0.000198157
0.000197191
0.000197191
0.000197191
0.00019679
0.00019679
0.00019679
0.000200195
0.000200195
0.000200195
0.000198198
0.000198198
0.000198198
0.000210652
0.000210652
0.000210652
0.000209634
0.000209634
0.000209634
0.00019338
0.00019338
0.00019338
0.000194369
0.000194369
0.000194369
0.000156384
0.000156384
0.000156384
0.00015556
0.00015556
0.00015556
0.000149741
0.000149741
0.000149741
1.23477e-05
1.23477e-05
1.23477e-05
8.39851e-06
8.39851e-06
8.39851e-06
7.79341e-06
7.79341e-06
7.79341e-06
3.68964e-05
3.68964e-05
3.68964e-05
3.54171e-05
3.54171e-05
3.54171e-05
3.05382e-05
3.05382e-05
3.05382e-05
5.38502e-05
5.38502e-05
5.38502e-05
4.02535e-05
4.02535e-05
4.02535e-05
4.11865e-05
4.11865e-05
4.11865e-05
4.04077e-05
4.04077e-05
4.04077e-05
1.11135e-05
1.11135e-05
1.11135e-05
8.20066e-06
8.20066e-06
8.20066e-06
8.03886e-06
8.03886e-06
8.03886e-06
2.11276e-05
2.11276e-05
2.11276e-05
2.86067e-05
2.86067e-05
2.86067e-05
2.67336e-05
2.67336e-05
2.67336e-05
1.00767e-05
1.00767e-05
1.00767e-05
1.02203e-05
1.02203e-05
1.02203e-05
3.28656e-05
3.28656e-05
3.28656e-05
3.07805e-05
3.07805e-05
3.07805e-05
4.62168e-05
4.62168e-05
4.62168e-05
3.43969e-05
3.43969e-05
3.43969e-05
3.59605e-05
3.59605e-05
3.59605e-05
2.48824e-05
2.48824e-05
2.48824e-05
2.72789e-05
2.72789e-05
2.72789e-05
8.45461e-06
8.45461e-06
8.45461e-06
1.44153e-05
1.44153e-05
1.44153e-05
1.49288e-05
1.49288e-05
1.49288e-05
3.88241e-05
3.88241e-05
3.88241e-05
3.68559e-05
3.68559e-05
3.68559e-05
1.49431e-05
1.49431e-05
1.49431e-05
3.70024e-05
3.70024e-05
3.70024e-05
3.76481e-05
3.76481e-05
3.76481e-05
3.88377e-05
3.88377e-05
3.88377e-05
1.58379e-05
1.58379e-05
1.58379e-05
1.9113e-05
1.9113e-05
1.9113e-05
1.63859e-05
1.63859e-05
1.63859e-05
1.8463e-05
1.8463e-05
1.8463e-05
4.35788e-06
4.35788e-06
4.35788e-06
3.16394e-06
3.16394e-06
3.16394e-06
4.91865e-05
4.91865e-05
4.91865e-05
4.81773e-05
4.81773e-05
4.81773e-05
2.45512e-05
2.45512e-05
2.45512e-05
3.37209e-05
3.37209e-05
3.37209e-05
3.48686e-05
3.48686e-05
3.48686e-05
3.21433e-05
3.21433e-05
3.21433e-05
2.75246e-05
2.75246e-05
2.75246e-05
1.12236e-05
1.12236e-05
1.12236e-05
3.49512e-06
3.49512e-06
3.49512e-06
0.000151484
0.000151484
0.000151484
0.000152289
0.000152289
0.000152289
0.000226407
0.000226407
0.000226407
0.000229896
0.000229896
0.000229896
0.000220644
0.000220644
0.000220644
0.000222904
0.000222904
0.000222904
1.08368e-05
1.08368e-05
1.08368e-05
0.000216097
0.000216097
0.000216097
0.000213923
0.000213923
0.000213923
0.000216132
0.000216132
0.000216132
0.00021357
0.00021357
0.00021357
0.000208769
0.000208769
0.000208769
0.0002103
0.0002103
0.0002103
0.000209841
0.000209841
0.000209841
0.000212467
0.000212467
0.000212467
0.00021289
0.00021289
0.00021289
0.000213978
0.000213978
0.000213978
0.000219466
0.000219466
0.000219466
0.000219513
0.000219513
0.000219513
0.000217328
0.000217328
0.000217328
0.000217249
0.000217249
0.000217249
0.000216203
0.000216203
0.000216203
0.000196356
0.000196356
0.000196356
0.000197802
0.000197802
0.000197802
0.000197357
0.000197357
0.000197357
0.000204981
0.000204981
0.000204981
0.000206638
0.000206638
0.000206638
0.000202397
0.000202397
0.000202397
0.000201353
0.000201353
0.000201353
0.000199
0.000199
0.000199
0.000154913
0.000154913
0.000154913
0.000154052
0.000154052
0.000154052
0.000175292
0.000175292
0.000175292
0.000176192
0.000176192
0.000176192
0.000176823
0.000176823
0.000176823
0.000178025
0.000178025
0.000178025
0.000178963
0.000178963
0.000178963
0.000167282
0.000167282
0.000167282
0.000175555
0.000175555
0.000175555
0.000177535
0.000177535
0.000177535
0.00018013
0.00018013
0.00018013
0.000190902
0.000190902
0.000190902
0.00019577
0.00019577
0.00019577
0.000193375
0.000193375
0.000193375
0.000185771
0.000185771
0.000185771
0.000192866
0.000192866
0.000192866
0.000193826
0.000193826
0.000193826
0.000192429
0.000192429
0.000192429
0.000172003
0.000172003
0.000172003
0.000177226
0.000177226
0.000177226
0.000169746
0.000169746
0.000169746
0.000161071
0.000161071
0.000161071
0.000163312
0.000163312
0.000163312
0.0001638
0.0001638
0.0001638
0.000159381
0.000159381
0.000159381
0.000164554
0.000164554
0.000164554
0.000162607
0.000162607
0.000162607
0.00015854
0.00015854
0.00015854
0.000161068
0.000161068
0.000161068
0.000156821
0.000156821
0.000156821
0.000160338
0.000160338
0.000160338
0.000169961
0.000169961
0.000169961
0.000165608
0.000165608
0.000165608
0.000138949
0.000138949
0.000138949
5.5024e-05
5.5024e-05
5.5024e-05
9.96977e-05
9.96977e-05
9.96977e-05
4.9822e-05
4.9822e-05
4.9822e-05
9.99707e-05
9.99707e-05
9.99707e-05
0.000152943
0.000152943
0.000152943
0.000148926
0.000148926
0.000148926
0.000153765
0.000153765
0.000153765
1.39035e-05
1.39035e-05
1.39035e-05
1.31582e-05
1.31582e-05
1.31582e-05
1.20791e-05
1.20791e-05
1.20791e-05
1.27372e-05
1.27372e-05
1.27372e-05
1.47753e-05
1.47753e-05
1.47753e-05
1.50614e-05
1.50614e-05
1.50614e-05
1.79798e-05
1.79798e-05
1.79798e-05
1.35359e-05
1.35359e-05
1.35359e-05
6.66942e-06
6.66942e-06
6.66942e-06
7.00035e-06
7.00035e-06
7.00035e-06
6.3652e-06
6.3652e-06
6.3652e-06
6.30177e-06
6.30177e-06
6.30177e-06
7.28023e-06
7.28023e-06
7.28023e-06
7.43575e-06
7.43575e-06
7.43575e-06
7.09708e-06
7.09708e-06
7.09708e-06
6.82459e-06
6.82459e-06
6.82459e-06
6.91374e-06
6.91374e-06
6.91374e-06
7.24602e-06
7.24602e-06
7.24602e-06
7.60473e-06
7.60473e-06
7.60473e-06
6.14385e-06
6.14385e-06
6.14385e-06
6.64862e-06
6.64862e-06
6.64862e-06
6.49991e-06
6.49991e-06
6.49991e-06
6.20351e-06
6.20351e-06
6.20351e-06
5.98584e-06
5.98584e-06
5.98584e-06
5.35067e-06
5.35067e-06
5.35067e-06
4.61117e-06
4.61117e-06
4.61117e-06
4.61337e-06
4.61337e-06
4.61337e-06
8.33491e-06
8.33491e-06
8.33491e-06
8.33059e-06
8.33059e-06
8.33059e-06
8.1183e-06
8.1183e-06
8.1183e-06
4.96126e-05
4.96126e-05
4.96126e-05
4.75534e-05
4.75534e-05
4.75534e-05
4.95857e-05
4.95857e-05
4.95857e-05
4.73915e-05
4.73915e-05
4.73915e-05
2.45536e-06
2.45536e-06
2.45536e-06
3.12926e-06
3.12926e-06
3.12926e-06
2.46931e-06
2.46931e-06
2.46931e-06
3.49935e-05
3.49935e-05
3.49935e-05
3.34501e-05
3.34501e-05
3.34501e-05
2.63646e-05
2.63646e-05
2.63646e-05
2.68085e-05
2.68085e-05
2.68085e-05
2.1441e-05
2.1441e-05
2.1441e-05
1.70382e-05
1.70382e-05
1.70382e-05
2.20679e-05
2.20679e-05
2.20679e-05
5.13484e-05
5.13484e-05
5.13484e-05
5.15909e-05
5.15909e-05
5.15909e-05
5.38375e-05
5.38375e-05
5.38375e-05
5.51305e-05
5.51305e-05
5.51305e-05
5.33817e-05
5.33817e-05
5.33817e-05
5.40801e-05
5.40801e-05
5.40801e-05
4.4047e-05
4.4047e-05
4.4047e-05
4.3988e-05
4.3988e-05
4.3988e-05
8.47276e-06
8.47276e-06
8.47276e-06
8.61491e-06
8.61491e-06
8.61491e-06
1.09749e-05
1.09749e-05
1.09749e-05
9.11459e-06
9.11459e-06
9.11459e-06
2.12261e-05
2.12261e-05
2.12261e-05
2.48152e-05
2.48152e-05
2.48152e-05
3.31309e-05
3.31309e-05
3.31309e-05
2.96424e-05
2.96424e-05
2.96424e-05
3.12187e-05
3.12187e-05
3.12187e-05
2.94459e-05
2.94459e-05
2.94459e-05
4.32759e-05
4.32759e-05
4.32759e-05
4.19872e-05
4.19872e-05
4.19872e-05
3.99473e-05
3.99473e-05
3.99473e-05
3.3741e-05
3.3741e-05
3.3741e-05
2.23506e-05
2.23506e-05
2.23506e-05
5.78783e-06
5.78783e-06
5.78783e-06
1.09896e-05
1.09896e-05
1.09896e-05
1.27063e-05
1.27063e-05
1.27063e-05
1.19582e-05
1.19582e-05
1.19582e-05
1.34757e-05
1.34757e-05
1.34757e-05
1.17928e-05
1.17928e-05
1.17928e-05
2.80947e-05
2.80947e-05
2.80947e-05
2.87739e-05
2.87739e-05
2.87739e-05
3.84671e-05
3.84671e-05
3.84671e-05
3.538e-05
3.538e-05
3.538e-05
3.57731e-05
3.57731e-05
3.57731e-05
3.38396e-05
3.38396e-05
3.38396e-05
3.32221e-05
3.32221e-05
3.32221e-05
3.4718e-05
3.4718e-05
3.4718e-05
3.33077e-05
3.33077e-05
3.33077e-05
3.98075e-05
3.98075e-05
3.98075e-05
3.87777e-05
3.87777e-05
3.87777e-05
2.57884e-05
2.57884e-05
2.57884e-05
3.33127e-05
3.33127e-05
3.33127e-05
3.16619e-05
3.16619e-05
3.16619e-05
3.41179e-05
3.41179e-05
3.41179e-05
3.32361e-05
3.32361e-05
3.32361e-05
3.07796e-05
3.07796e-05
3.07796e-05
3.15831e-05
3.15831e-05
3.15831e-05
3.61718e-05
3.61718e-05
3.61718e-05
3.05477e-05
3.05477e-05
3.05477e-05
3.42348e-05
3.42348e-05
3.42348e-05
2.95387e-05
2.95387e-05
2.95387e-05
4.02043e-05
4.02043e-05
4.02043e-05
3.89274e-05
3.89274e-05
3.89274e-05
4.11172e-05
4.11172e-05
4.11172e-05
4.15559e-05
4.15559e-05
4.15559e-05
3.91207e-05
3.91207e-05
3.91207e-05
4.49044e-05
4.49044e-05
4.49044e-05
4.3919e-05
4.3919e-05
4.3919e-05
4.15477e-05
4.15477e-05
4.15477e-05
4.02069e-05
4.02069e-05
4.02069e-05
4.53386e-05
4.53386e-05
4.53386e-05
4.28904e-05
4.28904e-05
4.28904e-05
4.39797e-05
4.39797e-05
4.39797e-05
4.21277e-05
4.21277e-05
4.21277e-05
3.9045e-05
3.9045e-05
3.9045e-05
3.79213e-05
3.79213e-05
3.79213e-05
4.03e-05
4.03e-05
4.03e-05
4.3485e-05
4.3485e-05
4.3485e-05
3.63695e-05
3.63695e-05
3.63695e-05
3.74946e-05
3.74946e-05
3.74946e-05
3.54499e-05
3.54499e-05
3.54499e-05
3.17392e-05
3.17392e-05
3.17392e-05
2.4298e-05
2.4298e-05
2.4298e-05
3.45899e-05
3.45899e-05
3.45899e-05
2.48637e-05
2.48637e-05
2.48637e-05
1.08612e-05
1.08612e-05
1.08612e-05
3.38484e-06
3.38484e-06
3.38484e-06
8.59357e-06
8.59357e-06
8.59357e-06
4.79037e-06
4.79037e-06
4.79037e-06
3.2744e-06
3.2744e-06
3.2744e-06
4.63502e-06
4.63502e-06
4.63502e-06
8.31229e-06
8.31229e-06
8.31229e-06
1.04987e-05
1.04987e-05
1.04987e-05
8.0306e-06
8.0306e-06
8.0306e-06
4.4797e-06
4.4797e-06
4.4797e-06
2.30682e-05
2.30682e-05
2.30682e-05
2.52469e-05
2.52469e-05
2.52469e-05
5.17532e-05
5.17532e-05
5.17532e-05
4.63665e-05
4.63665e-05
4.63665e-05
4.75186e-05
4.75186e-05
4.75186e-05
5.03523e-05
5.03523e-05
5.03523e-05
5.04667e-05
5.04667e-05
5.04667e-05
5.36292e-05
5.36292e-05
5.36292e-05
4.10003e-05
4.10003e-05
4.10003e-05
4.33238e-05
4.33238e-05
4.33238e-05
4.20461e-05
4.20461e-05
4.20461e-05
3.75926e-05
3.75926e-05
3.75926e-05
3.64889e-05
3.64889e-05
3.64889e-05
3.85497e-05
3.85497e-05
3.85497e-05
4.55505e-05
4.55505e-05
4.55505e-05
3.64473e-05
3.64473e-05
3.64473e-05
3.94597e-05
3.94597e-05
3.94597e-05
4.40506e-05
4.40506e-05
4.40506e-05
4.61996e-05
4.61996e-05
4.61996e-05
4.81667e-05
4.81667e-05
4.81667e-05
3.75234e-05
3.75234e-05
3.75234e-05
4.95978e-05
4.95978e-05
4.95978e-05
4.68975e-05
4.68975e-05
4.68975e-05
3.11777e-05
3.11777e-05
3.11777e-05
3.60517e-06
3.60517e-06
3.60517e-06
4.94546e-06
4.94546e-06
4.94546e-06
8.87506e-06
8.87506e-06
8.87506e-06
3.32191e-05
3.32191e-05
3.32191e-05
3.60165e-05
3.60165e-05
3.60165e-05
2.93354e-05
2.93354e-05
2.93354e-05
3.42952e-05
3.42952e-05
3.42952e-05
0.000144256
0.000144256
0.000144256
0.000171788
0.000171788
0.000171788
0.00017092
0.00017092
0.00017092
0.000173371
0.000173371
0.000173371
0.000159457
0.000159457
0.000159457
0.000151181
0.000151181
0.000151181
0.000152154
0.000152154
0.000152154
0.000201029
0.000201029
0.000201029
0.00020448
0.00020448
0.00020448
0.000202049
0.000202049
0.000202049
0.000149522
0.000149522
0.000149522
0.000148607
0.000148607
0.000148607
5.30418e-05
5.30418e-05
5.30418e-05
5.4952e-05
5.4952e-05
5.4952e-05
5.8189e-05
5.8189e-05
5.8189e-05
5.92029e-05
5.92029e-05
5.92029e-05
5.57165e-05
5.57165e-05
5.57165e-05
5.79583e-05
5.79583e-05
5.79583e-05
2.60384e-05
2.60384e-05
2.60384e-05
1.16878e-05
1.16878e-05
1.16878e-05
3.75034e-05
3.75034e-05
3.75034e-05
5.03508e-06
5.03508e-06
5.03508e-06
2.29741e-05
2.29741e-05
2.29741e-05
2.31859e-05
2.31859e-05
2.31859e-05
3.12663e-06
3.12663e-06
3.12663e-06
3.41946e-06
3.41946e-06
3.41946e-06
0.000197149
0.000197149
0.000197149
0.000197168
0.000197168
0.000197168
0.000203244
0.000203244
0.000203244
0.000201204
0.000201204
0.000201204
0.000200226
0.000200226
0.000200226
0.000206371
0.000206371
0.000206371
0.000206397
0.000206397
0.000206397
0.000202897
0.000202897
0.000202897
0.000204342
0.000204342
0.000204342
0.000209583
0.000209583
0.000209583
0.000209553
0.000209553
0.000209553
0.000207446
0.000207446
0.000207446
0.000207496
0.000207496
0.000207496
0.000206439
0.000206439
0.000206439
0.000203931
0.000203931
0.000203931
0.000202443
0.000202443
0.000202443
0.000199326
0.000199326
0.000199326
0.00019802
0.00019802
0.00019802
0.000207088
0.000207088
0.000207088
0.000205576
0.000205576
0.000205576
0.00020603
0.00020603
0.00020603
0.00020349
0.00020349
0.00020349
0.000202881
0.000202881
0.000202881
0.000201855
0.000201855
0.000201855
0.000200395
0.000200395
0.000200395
0.000199372
0.000199372
0.000199372
0.000196768
0.000196768
0.000196768
0.000195324
0.000195324
0.000195324
0.000164118
0.000164118
0.000164118
0.000166827
0.000166827
0.000166827
0.000167582
0.000167582
0.000167582
0.000160834
0.000160834
0.000160834
0.000158128
0.000158128
0.000158128
0.000159041
0.000159041
0.000159041
0.000161814
0.000161814
0.000161814
0.000163371
0.000163371
0.000163371
0.000165448
0.000165448
0.000165448
0.000164724
0.000164724
0.000164724
0.00018106
0.00018106
0.00018106
0.000182934
0.000182934
0.000182934
0.000179361
0.000179361
0.000179361
0.000180291
0.000180291
0.000180291
0.000184151
0.000184151
0.000184151
0.000185107
0.000185107
0.000185107
0.000173533
0.000173533
0.000173533
0.000176644
0.000176644
0.000176644
0.000169693
0.000169693
0.000169693
0.000173921
0.000173921
0.000173921
0.000174827
0.000174827
0.000174827
0.000172632
0.000172632
0.000172632
0.000170849
0.000170849
0.000170849
0.000168805
0.000168805
0.000168805
0.000172896
0.000172896
0.000172896
0.000171259
0.000171259
0.000171259
0.00017213
0.00017213
0.00017213
0.000174651
0.000174651
0.000174651
0.000176722
0.000176722
0.000176722
0.000177413
0.000177413
0.000177413
0.000175828
0.000175828
0.000175828
0.000178561
0.000178561
0.000178561
0.000193103
0.000193103
0.000193103
0.000188232
0.000188232
0.000188232
0.000192141
0.000192141
0.000192141
0.00018972
0.00018972
0.00018972
0.000189587
0.000189587
0.000189587
0.00019054
0.00019054
0.00019054
0.000186902
0.000186902
0.000186902
0.000189321
0.000189321
0.000189321
0.000188793
0.000188793
0.000188793
0.000190251
0.000190251
0.000190251
0.0001765
0.0001765
0.0001765
0.000178092
0.000178092
0.000178092
0.000174074
0.000174074
0.000174074
0.000180431
0.000180431
0.000180431
0.000181879
0.000181879
0.000181879
0.000177203
0.000177203
0.000177203
0.0001602
0.0001602
0.0001602
0.000169544
0.000169544
0.000169544
0.00016871
0.00016871
0.00016871
0.000165738
0.000165738
0.000165738
0.00016374
0.00016374
0.00016374
0.000171232
0.000171232
0.000171232
0.000166506
0.000166506
0.000166506
0.000167888
0.000167888
0.000167888
0.000182745
0.000182745
0.000182745
0.000180915
0.000180915
0.000180915
0.000180029
0.000180029
0.000180029
0.000177278
0.000177278
0.000177278
0.000179987
0.000179987
0.000179987
0.000178188
0.000178188
0.000178188
0.000177324
0.000177324
0.000177324
0.00018001
0.00018001
0.00018001
0.000178221
0.000178221
0.000178221
0.000177916
0.000177916
0.000177916
0.000177003
0.000177003
0.000177003
0.000168109
0.000168109
0.000168109
0.000166074
0.000166074
0.000166074
0.000166826
0.000166826
0.000166826
0.000169821
0.000169821
0.000169821
0.000172329
0.000172329
0.000172329
0.000171464
0.000171464
0.000171464
0.000162394
0.000162394
0.000162394
0.000167059
0.000167059
0.000167059
0.00016482
0.00016482
0.00016482
0.000161632
0.000161632
0.000161632
3.74285e-05
3.74285e-05
3.74285e-05
4.23811e-05
4.23811e-05
4.23811e-05
4.01903e-05
4.01903e-05
4.01903e-05
0.000120701
0.000120701
0.000120701
0.000103586
0.000103586
0.000103586
0.000103296
0.000103296
0.000103296
0.000130984
0.000130984
0.000130984
0.000120071
0.000120071
0.000120071
0.000147263
0.000147263
0.000147263
0.000146433
0.000146433
0.000146433
0.000132395
0.000132395
0.000132395
0.000139677
0.000139677
0.000139677
0.000142031
0.000142031
0.000142031
0.000141263
0.000141263
0.000141263
0.000122086
0.000122086
0.000122086
0.000133142
0.000133142
0.000133142
1.20927e-05
1.20927e-05
1.20927e-05
1.13501e-05
1.13501e-05
1.13501e-05
1.17714e-05
1.17714e-05
1.17714e-05
1.23951e-05
1.23951e-05
1.23951e-05
1.35159e-05
1.35159e-05
1.35159e-05
1.43626e-05
1.43626e-05
1.43626e-05
1.20447e-05
1.20447e-05
1.20447e-05
1.28135e-05
1.28135e-05
1.28135e-05
1.24391e-05
1.24391e-05
1.24391e-05
1.31266e-05
1.31266e-05
1.31266e-05
1.99408e-05
1.99408e-05
1.99408e-05
1.76287e-05
1.76287e-05
1.76287e-05
1.64342e-05
1.64342e-05
1.64342e-05
1.81375e-05
1.81375e-05
1.81375e-05
1.84873e-05
1.84873e-05
1.84873e-05
1.68835e-05
1.68835e-05
1.68835e-05
1.61275e-05
1.61275e-05
1.61275e-05
2.03107e-05
2.03107e-05
2.03107e-05
1.93725e-05
1.93725e-05
1.93725e-05
2.19922e-05
2.19922e-05
2.19922e-05
2.24609e-05
2.24609e-05
2.24609e-05
1.56692e-05
1.56692e-05
1.56692e-05
1.42068e-05
1.42068e-05
1.42068e-05
1.39494e-05
1.39494e-05
1.39494e-05
1.46342e-05
1.46342e-05
1.46342e-05
1.71201e-05
1.71201e-05
1.71201e-05
1.59602e-05
1.59602e-05
1.59602e-05
1.52107e-05
1.52107e-05
1.52107e-05
1.31212e-05
1.31212e-05
1.31212e-05
1.37788e-05
1.37788e-05
1.37788e-05
1.33495e-05
1.33495e-05
1.33495e-05
1.42927e-05
1.42927e-05
1.42927e-05
3.28232e-05
3.28232e-05
3.28232e-05
3.01407e-05
3.01407e-05
3.01407e-05
2.31004e-05
2.31004e-05
2.31004e-05
2.56073e-05
2.56073e-05
2.56073e-05
2.77701e-05
2.77701e-05
2.77701e-05
2.63507e-05
2.63507e-05
2.63507e-05
2.50138e-05
2.50138e-05
2.50138e-05
2.92995e-05
2.92995e-05
2.92995e-05
2.85762e-05
2.85762e-05
2.85762e-05
2.11822e-05
2.11822e-05
2.11822e-05
2.21621e-05
2.21621e-05
2.21621e-05
1.09133e-05
1.09133e-05
1.09133e-05
7.17727e-06
7.17727e-06
7.17727e-06
7.62459e-06
7.62459e-06
7.62459e-06
8.37947e-06
8.37947e-06
8.37947e-06
8.00231e-06
8.00231e-06
8.00231e-06
1.10343e-05
1.10343e-05
1.10343e-05
1.10111e-05
1.10111e-05
1.10111e-05
0.000166971
0.000166971
0.000166971
0.000164878
0.000164878
0.000164878
7.52643e-06
7.52643e-06
7.52643e-06
1.2683e-05
1.2683e-05
1.2683e-05
4.73997e-05
4.73997e-05
4.73997e-05
1.41816e-05
1.41816e-05
1.41816e-05
0.000117252
0.000117252
0.000117252
2.78729e-05
2.78729e-05
2.78729e-05
2.00637e-05
2.00637e-05
2.00637e-05
1.50161e-05
1.50161e-05
1.50161e-05
1.54531e-05
1.54531e-05
1.54531e-05
1.7193e-05
1.7193e-05
1.7193e-05
1.64477e-05
1.64477e-05
1.64477e-05
1.1842e-05
1.1842e-05
1.1842e-05
8.60048e-06
8.60048e-06
8.60048e-06
7.96837e-06
7.96837e-06
7.96837e-06
8.17381e-06
8.17381e-06
8.17381e-06
7.8037e-06
7.8037e-06
7.8037e-06
1.26112e-05
1.26112e-05
1.26112e-05
1.41443e-05
1.41443e-05
1.41443e-05
1.3438e-05
1.3438e-05
1.3438e-05
1.17271e-05
1.17271e-05
1.17271e-05
1.15616e-05
1.15616e-05
1.15616e-05
1.20163e-05
1.20163e-05
1.20163e-05
1.25609e-05
1.25609e-05
1.25609e-05
1.35301e-05
1.35301e-05
1.35301e-05
1.27459e-05
1.27459e-05
1.27459e-05
5.19157e-06
5.19157e-06
5.19157e-06
5.3914e-06
5.3914e-06
5.3914e-06
6.3303e-06
6.3303e-06
6.3303e-06
5.82717e-06
5.82717e-06
5.82717e-06
6.0415e-06
6.0415e-06
6.0415e-06
5.50954e-06
5.50954e-06
5.50954e-06
5.55396e-06
5.55396e-06
5.55396e-06
5.83513e-06
5.83513e-06
5.83513e-06
6.1196e-06
6.1196e-06
6.1196e-06
4.73759e-06
4.73759e-06
4.73759e-06
4.7122e-06
4.7122e-06
4.7122e-06