<VTKFile type="UnstructuredGrid" version="1.0">
<UnstructuredGrid>
<Piece NumberOfPoints="10830" NumberOfCells="3610">
<Points>
<DataArray type="Float64" NumberOfComponents="3" format="ascii">
3.10314 1.29552 3.16075
3.11025 1.28841 3.135
3.11025 1.28841 3.18646
3.11025 1.28841 3.69008
3.11025 1.28841 3.741
3.10226 1.2964 3.71553
3.11025 1.28841 3.69008
3.10226 1.2964 3.71553
3.09025 1.30841 3.6901
2.21656 2.1821 4.16259
2.22913 2.16953 4.18
2.19928 2.19938 4.18
2.19928 2.19938 4.18
2.19928 2.19938 4.14984
2.21656 2.1821 4.16259
3.11025 1.28841 3.69008
3.09025 1.30841 3.6901
3.10227 1.29639 3.66468
2.20538 2.19328 3.41179
2.19928 2.19938 3.43701
2.19928 2.19938 3.38657
3.10229 1.29637 3.4119
3.11025 1.28841 3.43709
3.09026 1.3084 3.43711
3.10214 1.29652 3.31134
3.11025 1.28841 3.28628
3.11025 1.28841 3.33639
3.09026 1.3084 3.43711
3.11025 1.28841 3.43709
3.1023 1.29636 3.46231
3.11025 1.28841 3.43709
3.11025 1.28841 3.48754
3.1023 1.29636 3.46231
3.09026 1.3084 3.48755
3.1023 1.29636 3.46231
3.11025 1.28841 3.48754
3.09025 1.30841 3.63931
3.10227 1.29639 3.66468
3.08043 1.31823 3.6647
3.08043 1.31823 3.6647
3.10227 1.29639 3.66468
3.09025 1.30841 3.6901
3.08043 1.31823 3.6647
3.06939 1.32927 3.63932
3.09025 1.30841 3.63931
3.08043 1.31823 3.6647
3.09025 1.30841 3.6901
3.06938 1.32928 3.69012
3.11025 1.28841 3.53804
3.11025 1.28841 3.58862
3.10229 1.29637 3.56333
3.10229 1.29637 3.56333
3.09026 1.3084 3.58863
3.08044 1.31822 3.56334
3.11025 1.28841 3.58862
3.09026 1.3084 3.58863
3.10229 1.29637 3.56333
3.11025 1.28841 3.63929
3.10227 1.29639 3.66468
3.09025 1.30841 3.63931
3.11025 1.28841 3.69008
3.10227 1.29639 3.66468
3.11025 1.28841 3.63929
3.0901 1.30856 3.28632
3.11025 1.28841 3.28628
3.10214 1.29652 3.31134
3.09024 1.30842 3.74102
3.10226 1.2964 3.71553
3.11025 1.28841 3.741
2.80657 1.59209 3.92075
2.81699 1.58167 3.89498
2.8274 1.57126 3.92072
2.19928 2.19938 3.135
2.21889 2.17977 3.135
2.20626 2.1924 3.1597
2.25868 2.13998 3.38659
2.23814 2.16052 3.38657
2.24806 2.1506 3.36137
2.21801 2.18065 3.38656
2.23814 2.16052 3.38657
2.22704 2.17162 3.41178
2.21801 2.18065 3.38656
2.20538 2.19328 3.41179
2.19928 2.19938 3.38657
2.22704 2.17162 3.41178
2.20538 2.19328 3.41179
2.21801 2.18065 3.38656
2.20547 2.19319 3.61394
2.19928 2.19938 3.6393
2.19928 2.19938 3.58861
2.21807 2.1806 3.6393
2.22712 2.17155 3.61393
2.23821 2.16045 3.63929
2.19928 2.19938 3.6393
2.20547 2.19319 3.61394
2.21807 2.1806 3.6393
2.21807 2.1806 3.6393
2.20547 2.19319 3.61394
2.22712 2.17155 3.61393
2.21805 2.18061 3.5886
2.2382 2.16046 3.5886
2.22712 2.17155 3.61393
2.21805 2.18061 3.5886
2.20547 2.19319 3.61394
2.19928 2.19938 3.58861
2.22712 2.17155 3.61393
2.20547 2.19319 3.61394
2.21805 2.18061 3.5886
2.19928 2.19938 3.43701
2.20538 2.19328 3.41179
2.21802 2.18064 3.437
2.21802 2.18064 3.437
2.20538 2.19328 3.41179
2.22704 2.17162 3.41178
2.23821 2.16045 3.63929
2.22712 2.17155 3.61393
2.24816 2.15051 3.61393
2.22712 2.17155 3.61393
2.2382 2.16046 3.5886
2.24816 2.15051 3.61393
2.40353 1.99513 3.58867
2.41386 1.9848 3.61401
2.3932 2.00546 3.614
2.3932 2.00546 3.614
2.41386 1.9848 3.61401
2.40354 1.99512 3.63937
2.40354 1.99512 3.63937
2.41386 1.9848 3.61401
2.4242 1.97446 3.63938
2.79618 1.60248 3.895
2.81699 1.58167 3.89498
2.80657 1.59209 3.92075
3.10224 1.29642 3.36156
3.11025 1.28841 3.33639
3.11025 1.28841 3.3867
3.11025 1.28841 3.43709
3.10229 1.29637 3.4119
3.11025 1.28841 3.3867
3.02715 1.37151 3.5381
3.006 1.39266 3.53811
3.01659 1.38207 3.51285
3.09026 1.3084 3.53805
3.10229 1.29637 3.56333
3.08044 1.31822 3.56334
3.11025 1.28841 3.53804
3.10229 1.29637 3.56333
3.09026 1.3084 3.53805
3.08044 1.31822 3.56334
3.09026 1.3084 3.58863
3.0694 1.32926 3.58865
3.10228 1.29638 3.61395
3.09026 1.3084 3.58863
3.11025 1.28841 3.58862
3.11025 1.28841 3.58862
3.11025 1.28841 3.63929
3.10228 1.29638 3.61395
3.10228 1.29638 3.61395
3.11025 1.28841 3.63929
3.09025 1.30841 3.63931
3.08027 1.31839 3.31137
3.0901 1.30856 3.28632
3.10214 1.29652 3.31134
3.10224 1.29642 3.36156
3.11025 1.28841 3.3867
3.09024 1.30842 3.38674
3.09024 1.30842 3.38674
3.11025 1.28841 3.3867
3.10229 1.29637 3.4119
3.0165 1.38216 3.36161
3.00588 1.39278 3.33643
3.02702 1.37164 3.33643
3.04817 1.35049 3.33645
3.03759 1.36107 3.31126
3.05884 1.33982 3.31131
3.04817 1.35049 3.33645
3.02702 1.37164 3.33643
3.03759 1.36107 3.31126
3.08043 1.31823 3.41193
3.10229 1.29637 3.4119
3.09026 1.3084 3.43711
3.08043 1.31823 3.41193
3.09024 1.30842 3.38674
3.10229 1.29637 3.4119
3.08042 1.31824 3.71555
3.09025 1.30841 3.6901
3.10226 1.2964 3.71553
3.10226 1.2964 3.71553
3.09024 1.30842 3.74102
3.08042 1.31824 3.71555
3.06938 1.32928 3.69012
3.09025 1.30841 3.6901
3.08042 1.31824 3.71555
3.08041 1.31825 3.86905
3.05901 1.33965 3.86906
3.06938 1.32928 3.84337
3.05901 1.33966 3.81774
3.08041 1.31825 3.81772
3.06938 1.32928 3.84337
3.10225 1.29641 3.76653
3.09024 1.30842 3.74102
3.11025 1.28841 3.741
3.08041 1.31825 3.76656
3.09024 1.30842 3.74102
3.10225 1.29641 3.76653
2.84822 1.55044 3.97232
2.85863 1.54003 3.99816
2.83776 1.5609 3.9982
2.96373 1.43493 3.84343
2.97428 1.42438 3.81779
2.98483 1.41383 3.84341
2.98483 1.41383 3.84341
2.97428 1.42438 3.81779
2.9954 1.40326 3.81778
3.06938 1.32929 3.79213
3.05901 1.33965 3.76658
3.08041 1.31825 3.76656
3.06938 1.32929 3.79213
3.08041 1.31825 3.81772
3.05901 1.33966 3.81774
2.95319 1.44547 3.81781
2.97428 1.42438 3.81779
2.96373 1.43493 3.84343
2.90067 1.49799 3.58874
2.87971 1.51895 3.58874
2.89018 1.50848 3.56344
2.84833 1.55033 3.56344
2.83789 1.56077 3.58875
2.82746 1.5712 3.56344
2.85878 1.53988 3.58875
2.83789 1.56077 3.58875
2.84833 1.55033 3.56344
2.83788 1.56078 3.48765
2.85877 1.53989 3.48765
2.84833 1.55034 3.51289
2.84833 1.55034 3.51289
2.82745 1.57121 3.51289
2.83788 1.56078 3.48765
2.83788 1.56078 3.48765
2.82745 1.57121 3.51289
2.81702 1.58164 3.48764
2.84833 1.55034 3.51289
2.85877 1.53989 3.48765
2.86924 1.52943 3.5129
2.87968 1.51898 3.43723
2.89017 1.50849 3.46244
2.86922 1.52944 3.46243
2.86922 1.52944 3.46243
2.85875 1.53991 3.43723
2.87968 1.51898 3.43723
2.72357 1.6751 3.61409
2.73392 1.66474 3.58875
2.74429 1.65437 3.61409
2.73392 1.66474 3.58875
2.75466 1.644 3.58875
2.74429 1.65437 3.61409
2.83789 1.56077 3.53816
2.82745 1.57121 3.51289
2.84833 1.55034 3.51289
2.83789 1.56077 3.53816
2.84833 1.55033 3.56344
2.82746 1.5712 3.56344
2.82746 1.5712 3.56344
2.80662 1.59204 3.56344
2.81703 1.58163 3.53815
2.81703 1.58163 3.53815
2.83789 1.56077 3.53816
2.82746 1.5712 3.56344
2.82745 1.57121 3.51289
2.83789 1.56077 3.53816
2.81703 1.58163 3.53815
2.81702 1.58164 3.48764
2.7962 1.60246 3.48764
2.8066 1.59206 3.46241
2.79618 1.60248 3.43719
2.81701 1.58166 3.43721
2.8066 1.59206 3.46241
2.42419 1.97447 3.58868
2.41386 1.9848 3.61401
2.40353 1.99513 3.58867
2.40353 1.99513 3.58867
2.41385 1.98481 3.56336
2.42419 1.97447 3.58868
2.20539 2.19327 3.20987
2.19928 2.19938 3.23509
2.19928 2.19938 3.18442
2.19928 2.19938 3.135
2.20626 2.1924 3.1597
2.19928 2.19938 3.18442
2.21797 2.1807 3.2857
2.19928 2.19938 3.28567
2.20528 2.19338 3.26042
2.19928 2.19938 3.28567
2.19928 2.19938 3.23509
2.20528 2.19338 3.26042
3.11025 1.28841 3.135
3.10314 1.29552 3.16075
3.0911 1.30756 3.135
2.19928 2.19938 3.38657
2.19928 2.19938 3.33614
2.20536 2.19331 3.36136
2.20536 2.19331 3.36136
2.21801 2.18065 3.38656
2.19928 2.19938 3.38657
2.21799 2.18067 3.33613
2.20536 2.19331 3.36136
2.19928 2.19938 3.33614
2.21799 2.18067 3.33613
2.22698 2.17168 3.31094
2.23811 2.16055 3.33616
2.22702 2.17165 3.36135
2.24806 2.1506 3.36137
2.23814 2.16052 3.38657
2.23814 2.16052 3.38657
2.21801 2.18065 3.38656
2.22702 2.17165 3.36135
2.23811 2.16055 3.33616
2.24806 2.1506 3.36137
2.22702 2.17165 3.36135
2.22702 2.17165 3.36135
2.21799 2.18067 3.33613
2.23811 2.16055 3.33616
2.21801 2.18065 3.38656
2.20536 2.19331 3.36136
2.22702 2.17165 3.36135
2.20536 2.19331 3.36136
2.21799 2.18067 3.33613
2.22702 2.17165 3.36135
2.20532 2.19334 3.31091
2.19928 2.19938 3.33614
2.19928 2.19938 3.28567
2.20532 2.19334 3.31091
2.19928 2.19938 3.28567
2.21797 2.1807 3.2857
2.21797 2.1807 3.2857
2.22698 2.17168 3.31094
2.20532 2.19334 3.31091
2.20532 2.19334 3.31091
2.21799 2.18067 3.33613
2.19928 2.19938 3.33614
2.22698 2.17168 3.31094
2.21799 2.18067 3.33613
2.20532 2.19334 3.31091
2.24814 2.15052 3.56329
2.2382 2.16046 3.5886
2.2271 2.17156 3.56329
2.2382 2.16046 3.5886
2.21805 2.18061 3.5886
2.2271 2.17156 3.56329
2.2271 2.17156 3.56329
2.23819 2.16048 3.538
2.24814 2.15052 3.56329
2.24809 2.15058 3.41179
2.23814 2.16052 3.38657
2.25868 2.13998 3.38659
2.22704 2.17162 3.41178
2.23814 2.16052 3.38657
2.24809 2.15058 3.41179
2.26891 2.12975 3.4118
2.24809 2.15058 3.41179
2.25868 2.13998 3.38659
2.2587 2.13996 3.43701
2.24809 2.15058 3.41179
2.26891 2.12975 3.4118
2.2587 2.13996 3.43701
2.26891 2.12975 3.4118
2.27936 2.1193 3.43702
2.41384 1.98482 3.5128
2.42418 1.97448 3.53807
2.40352 1.99515 3.53807
2.40352 1.99515 3.53807
2.42418 1.97448 3.53807
2.41385 1.98481 3.56336
2.33114 2.06753 3.56332
2.35183 2.04683 3.56333
2.34149 2.05717 3.58863
2.34148 2.05718 3.53804
2.35183 2.04683 3.56333
2.33114 2.06753 3.56332
2.35182 2.04684 3.51277
2.34147 2.05719 3.48752
2.36216 2.03651 3.48753
2.34148 2.05718 3.53804
2.33112 2.06754 3.51276
2.35182 2.04684 3.51277
2.35182 2.04684 3.51277
2.33112 2.06754 3.51276
2.34147 2.05719 3.48752
2.35184 2.04682 3.61398
2.37253 2.02613 3.61399
2.3622 2.03646 3.63934
2.31047 2.08819 3.6647
2.32082 2.07785 3.63932
2.33117 2.06749 3.66471
2.3208 2.07786 3.58862
2.33114 2.06753 3.56332
2.34149 2.05717 3.58863
2.31043 2.08823 3.56331
2.33114 2.06753 3.56332
2.3208 2.07786 3.58862
2.23821 2.16045 3.63929
2.24816 2.15051 3.61393
2.25876 2.1399 3.63929
2.24814 2.15052 3.56329
2.23819 2.16048 3.538
2.25873 2.13993 3.538
2.25873 2.13993 3.538
2.26896 2.1297 3.56329
2.24814 2.15052 3.56329
2.30008 2.09858 3.53801
2.31043 2.08823 3.56331
2.28971 2.10895 3.5633
2.25874 2.13992 3.5886
2.24816 2.15051 3.61393
2.2382 2.16046 3.5886
2.25874 2.13992 3.5886
[...]
<PointData Scalars="View Factor" >
<DataArray type="Float64" Name="View Factor" NumberOfComponents="1" format="ascii">
5.99337e-05
5.99337e-05
5.99337e-05
5.26751e-05
5.26751e-05
5.26751e-05
5.25689e-05
5.25689e-05
5.25689e-05
6.43937e-06
6.43937e-06
6.43937e-06
4.83602e-06
4.83602e-06
4.83602e-06
5.27773e-05
5.27773e-05
5.27773e-05
3.628e-06
3.628e-06
3.628e-06
5.59482e-05
5.59482e-05
5.59482e-05
5.78333e-05
5.78333e-05
5.78333e-05
5.57264e-05
5.57264e-05
5.57264e-05
5.58378e-05
5.58378e-05
5.58378e-05
5.52958e-05
5.52958e-05
5.52958e-05
5.26159e-05
5.26159e-05
5.26159e-05
5.24137e-05
5.24137e-05
5.24137e-05
5.22016e-05
5.22016e-05
5.22016e-05
5.18003e-05
5.18003e-05
5.18003e-05
5.45486e-05
5.45486e-05
5.45486e-05
5.3649e-05
5.3649e-05
5.3649e-05
5.40198e-05
5.40198e-05
5.40198e-05
5.31836e-05
5.31836e-05
5.31836e-05
5.3292e-05
5.3292e-05
5.3292e-05
5.77162e-05
5.77162e-05
5.77162e-05
5.21646e-05
5.21646e-05
5.21646e-05
8.91559e-06
8.91559e-06
8.91559e-06
6.18236e-06
6.18236e-06
6.18236e-06
1.80327e-05
1.80327e-05
1.80327e-05
1.9096e-05
1.9096e-05
1.9096e-05
4.29946e-06
4.29946e-06
4.29946e-06
7.5425e-06
7.5425e-06
7.5425e-06
4.22046e-06
4.22046e-06
4.22046e-06
1.81847e-05
1.81847e-05
1.81847e-05
5.72893e-06
5.72893e-06
5.72893e-06
8.62852e-06
8.62852e-06
8.62852e-06
1.79944e-05
1.79944e-05
1.79944e-05
4.035e-06
4.035e-06
4.035e-06
7.78328e-06
7.78328e-06
7.78328e-06
4.05448e-06
4.05448e-06
4.05448e-06
7.49234e-06
7.49234e-06
7.49234e-06
1.7572e-05
1.7572e-05
1.7572e-05
1.7458e-05
1.7458e-05
1.7458e-05
1.52944e-06
1.52944e-06
1.52944e-06
2.12754e-06
2.12754e-06
2.12754e-06
2.50531e-06
2.50531e-06
2.50531e-06
9.07326e-06
9.07326e-06
9.07326e-06
5.71607e-05
5.71607e-05
5.71607e-05
5.64951e-05
5.64951e-05
5.64951e-05
5.05222e-05
5.05222e-05
5.05222e-05
5.38561e-05
5.38561e-05
5.38561e-05
5.44392e-05
5.44392e-05
5.44392e-05
5.30209e-05
5.30209e-05
5.30209e-05
5.3808e-05
5.3808e-05
5.3808e-05
5.39164e-05
5.39164e-05
5.39164e-05
5.33931e-05
5.33931e-05
5.33931e-05
5.70963e-05
5.70963e-05
5.70963e-05
5.6604e-05
5.6604e-05
5.6604e-05
5.63813e-05
5.63813e-05
5.63813e-05
5.27828e-05
5.27828e-05
5.27828e-05
5.4707e-05
5.4707e-05
5.4707e-05
5.4064e-05
5.4064e-05
5.4064e-05
5.55624e-05
5.55624e-05
5.55624e-05
5.57796e-05
5.57796e-05
5.57796e-05
5.20066e-05
5.20066e-05
5.20066e-05
5.18051e-05
5.18051e-05
5.18051e-05
5.15979e-05
5.15979e-05
5.15979e-05
4.92625e-05
4.92625e-05
4.92625e-05
4.96472e-05
4.96472e-05
4.96472e-05
5.19587e-05
5.19587e-05
5.19587e-05
5.14037e-05
5.14037e-05
5.14037e-05
2.47563e-05
2.47563e-05
2.47563e-05
4.46188e-05
4.46188e-05
4.46188e-05
4.53101e-05
4.53101e-05
4.53101e-05
5.02278e-05
5.02278e-05
5.02278e-05
4.98418e-05
4.98418e-05
4.98418e-05
4.40761e-05
4.40761e-05
4.40761e-05
4.00193e-05
4.00193e-05
4.00193e-05
1.8145e-05
1.8145e-05
1.8145e-05
2.80676e-05
2.80676e-05
2.80676e-05
2.89006e-05
2.89006e-05
2.89006e-05
1.86483e-05
1.86483e-05
1.86483e-05
2.05489e-06
2.05489e-06
2.05489e-06
3.42983e-05
3.42983e-05
3.42983e-05
3.95202e-05
3.95202e-05
3.95202e-05
3.84213e-05
3.84213e-05
3.84213e-05
1.52207e-06
1.52207e-06
1.52207e-06
1.51594e-06
1.51594e-06
1.51594e-06
1.85113e-05
1.85113e-05
1.85113e-05
1.82511e-05
1.82511e-05
1.82511e-05
1.78643e-06
1.78643e-06
1.78643e-06
1.851e-06
1.851e-06
1.851e-06
1.89639e-06
1.89639e-06
1.89639e-06
2.07813e-06
2.07813e-06
2.07813e-06
2.22058e-06
2.22058e-06
2.22058e-06
1.37824e-06
1.37824e-06
1.37824e-06
1.2563e-06
1.2563e-06
1.2563e-06
4.61169e-06
4.61169e-06
4.61169e-06
5.0639e-06
5.0639e-06
5.0639e-06
5.16345e-06
5.16345e-06
5.16345e-06
4.30891e-06
4.30891e-06
4.30891e-06
5.9836e-05
5.9836e-05
5.9836e-05
3.8311e-06
3.8311e-06
3.8311e-06
4.42053e-06
4.42053e-06
4.42053e-06
4.67131e-06
4.67131e-06
4.67131e-06
1.95051e-05
1.95051e-05
1.95051e-05
1.87192e-05
1.87192e-05
1.87192e-05
1.91919e-05
1.91919e-05
1.91919e-05
1.88274e-05
1.88274e-05
1.88274e-05
1.94019e-05
1.94019e-05
1.94019e-05
7.65942e-06
7.65942e-06
7.65942e-06
7.71993e-06
7.71993e-06
7.71993e-06
4.04247e-06
4.04247e-06
4.04247e-06
5.03906e-06
5.03906e-06
5.03906e-06
7.74942e-06
7.74942e-06
7.74942e-06
4.78968e-06
4.78968e-06
4.78968e-06
7.68468e-06
7.68468e-06
7.68468e-06
1.7611e-05
1.7611e-05
1.7611e-05
1.80819e-05
1.80819e-05
1.80819e-05
1.76935e-05
1.76935e-05
1.76935e-05
1.79356e-05
1.79356e-05
1.79356e-05
1.85122e-05
1.85122e-05
1.85122e-05
1.71665e-05
1.71665e-05
1.71665e-05
1.70735e-05
1.70735e-05
1.70735e-05
1.61984e-05
1.61984e-05
1.61984e-05
1.32259e-06
1.32259e-06
1.32259e-06
1.28922e-06
1.28922e-06
1.28922e-06
1.23773e-06
1.23773e-06
1.23773e-06
1.26329e-06
1.26329e-06
1.26329e-06
1.42915e-06
1.42915e-06
1.42915e-06
1.35403e-06
1.35403e-06
1.35403e-06
1.40605e-06
1.40605e-06
1.40605e-06
2.26925e-06
2.26925e-06
2.26925e-06
4.55519e-06
4.55519e-06
4.55519e-06
1.28042e-06
1.28042e-06
1.28042e-06
1.23849e-06
1.23849e-06
1.23849e-06
1.70475e-05
1.70475e-05
1.70475e-05
1.7085e-05
1.7085e-05
1.7085e-05
1.63594e-05
1.63594e-05
1.63594e-05
1.26426e-06
1.26426e-06
1.26426e-06
1.68269e-05
1.68269e-05
1.68269e-05
1.69161e-05
1.69161e-05
1.69161e-05
1.62814e-05
1.62814e-05
1.62814e-05
8.95384e-06
8.95384e-06
8.95384e-06
5.8425e-06
5.8425e-06
5.8425e-06
5.98254e-06
5.98254e-06
5.98254e-06
1.4072e-06
1.4072e-06
1.4072e-06
1.57364e-06
1.57364e-06
1.57364e-06
3.71425e-06
3.71425e-06
3.71425e-06
2.5876e-06
2.5876e-06
2.5876e-06
2.67023e-06
2.67023e-06
2.67023e-06
2.1981e-06
2.1981e-06
2.1981e-06
3.61261e-06
3.61261e-06
3.61261e-06
4.24101e-06
4.24101e-06
4.24101e-06
5.99474e-06
5.99474e-06
5.99474e-06
5.44804e-06
5.44804e-06
5.44804e-06
5.66361e-06
5.66361e-06
5.66361e-06
4.34068e-06
4.34068e-06
4.34068e-06
8.44134e-06
8.44134e-06
8.44134e-06
9.39971e-06
9.39971e-06
9.39971e-06
9.69031e-06
9.69031e-06
9.69031e-06
9.84366e-06
9.84366e-06
9.84366e-06
9.88108e-06
9.88108e-06
9.88108e-06
5.33976e-06
5.33976e-06
5.33976e-06
3.51123e-06
3.51123e-06
3.51123e-06
4.13517e-06
4.13517e-06
4.13517e-06
8.17092e-06
8.17092e-06
8.17092e-06
8.03948e-06
8.03948e-06
8.03948e-06
8.69609e-06
8.69609e-06
8.69609e-06
8.84695e-06
8.84695e-06
8.84695e-06
8.7083e-06
8.7083e-06
8.7083e-06
9.12753e-06
9.12753e-06
9.12753e-06
1.1507e-05
1.1507e-05
1.1507e-05
9.42938e-06
9.42938e-06
9.42938e-06
3.41012e-06
3.41012e-06
3.41012e-06
3.43507e-06
3.43507e-06
3.43507e-06
3.25547e-06
3.25547e-06
3.25547e-06
3.14259e-06
3.14259e-06
3.14259e-06
3.62169e-06
3.62169e-06
3.62169e-06
3.7854e-06
3.7854e-06
3.7854e-06
3.73092e-06
3.73092e-06
3.73092e-06
3.5385e-06
3.5385e-06
3.5385e-06
3.84012e-06
3.84012e-06
3.84012e-06
3.89803e-06
3.89803e-06
3.89803e-06
4.09346e-06
4.09346e-06
4.09346e-06
3.2372e-06
3.2372e-06
3.2372e-06
3.64216e-06
3.64216e-06
3.64216e-06
3.51122e-06
3.51122e-06
3.51122e-06
3.35194e-06
3.35194e-06
3.35194e-06
3.33161e-06
3.33161e-06
3.33161e-06
3.71073e-06
3.71073e-06
3.71073e-06
4.18033e-05
4.18033e-05
4.18033e-05
3.33486e-05
3.33486e-05
3.33486e-05
3.78659e-05
3.78659e-05
3.78659e-05
3.94987e-05
3.94987e-05
3.94987e-05
3.85352e-05
3.85352e-05
3.85352e-05
5.12074e-05
5.12074e-05
5.12074e-05
5.14139e-05
5.14139e-05
5.14139e-05
5.16105e-05
5.16105e-05
5.16105e-05
5.06146e-05
5.06146e-05
5.06146e-05
4.15812e-05
4.15812e-05
4.15812e-05
4.13963e-05
4.13963e-05
4.13963e-05
4.30097e-05
4.30097e-05
4.30097e-05
4.86922e-05
4.86922e-05
4.86922e-05
4.81621e-05
4.81621e-05
4.81621e-05
5.46537e-05
5.46537e-05
5.46537e-05
5.42788e-05
5.42788e-05
5.42788e-05
5.51889e-05
5.51889e-05
5.51889e-05
5.50786e-05
5.50786e-05
5.50786e-05
5.44885e-05
5.44885e-05
5.44885e-05
5.10084e-05
5.10084e-05
5.10084e-05
5.14084e-05
5.14084e-05
5.14084e-05
5.24064e-05
5.24064e-05
5.24064e-05
5.28133e-05
5.28133e-05
5.28133e-05
5.20164e-05
5.20164e-05
5.20164e-05
5.22171e-05
5.22171e-05
5.22171e-05
5.30254e-05
5.30254e-05
5.30254e-05
5.32316e-05
5.32316e-05
5.32316e-05
5.70459e-05
5.70459e-05
5.70459e-05
5.72698e-05
5.72698e-05
5.72698e-05
5.68731e-05
5.68731e-05
5.68731e-05
5.79388e-05
5.79388e-05
5.79388e-05
5.29921e-05
5.29921e-05
5.29921e-05
5.36342e-05
5.36342e-05
5.36342e-05
5.53408e-05
5.53408e-05
5.53408e-05
5.44955e-05
5.44955e-05
5.44955e-05
5.47134e-05
5.47134e-05
5.47134e-05
5.42858e-05
5.42858e-05
5.42858e-05
5.11998e-05
5.11998e-05
5.11998e-05
5.09998e-05
5.09998e-05
5.09998e-05
5.04214e-05
5.04214e-05
5.04214e-05
4.90716e-05
4.90716e-05
4.90716e-05
4.56642e-05
4.56642e-05
4.56642e-05
3.77364e-05
3.77364e-05
3.77364e-05
8.36355e-06
8.36355e-06
8.36355e-06
9.92525e-06
9.92525e-06
9.92525e-06
9.29974e-06
9.29974e-06
9.29974e-06
4.4433e-05
4.4433e-05
4.4433e-05
4.4085e-05
4.4085e-05
4.4085e-05
4.70854e-05
4.70854e-05
4.70854e-05
4.72737e-05
4.72737e-05
4.72737e-05
4.4377e-05
4.4377e-05
4.4377e-05
4.74314e-05
4.74314e-05
4.74314e-05
4.59712e-05
4.59712e-05
4.59712e-05
4.67568e-05
4.67568e-05
4.67568e-05
4.5831e-05
4.5831e-05
4.5831e-05
4.52848e-05
4.52848e-05
4.52848e-05
4.45421e-05
4.45421e-05
4.45421e-05
5.06055e-05
5.06055e-05
5.06055e-05
5.04127e-05
5.04127e-05
5.04127e-05
5.12061e-05
5.12061e-05
5.12061e-05
4.88779e-05
4.88779e-05
4.88779e-05
4.83038e-05
4.83038e-05
4.83038e-05
4.90697e-05
4.90697e-05
4.90697e-05
4.86856e-05
4.86856e-05
4.86856e-05
4.78974e-05
4.78974e-05
4.78974e-05
4.80906e-05
4.80906e-05
4.80906e-05
4.4566e-05
4.4566e-05
4.4566e-05
4.5609e-05
4.5609e-05
4.5609e-05
4.54366e-05
4.54366e-05
4.54366e-05
4.03546e-05
4.03546e-05
4.03546e-05
1.74086e-06
1.74086e-06
1.74086e-06
1.74469e-06
1.74469e-06
1.74469e-06
2.79019e-05
2.79019e-05
2.79019e-05
3.72808e-06
3.72808e-06
3.72808e-06
4.51593e-06
4.51593e-06
4.51593e-06
1.6443e-06
1.6443e-06
1.6443e-06
1.63606e-06
1.63606e-06
1.63606e-06
1.69931e-06
1.69931e-06
1.69931e-06
1.7025e-06
1.7025e-06
1.7025e-06
1.59599e-06
1.59599e-06
1.59599e-06
1.65769e-06
1.65769e-06
1.65769e-06
2.19711e-06
2.19711e-06
2.19711e-06
2.70618e-06
2.70618e-06
2.70618e-06
3.92385e-06
3.92385e-06
3.92385e-06
4.6333e-06
4.6333e-06
4.6333e-06
3.82613e-06
3.82613e-06
3.82613e-06
2.63896e-06
2.63896e-06
2.63896e-06
3.35467e-05
3.35467e-05
3.35467e-05
3.70419e-05
3.70419e-05
3.70419e-05
3.89109e-05
3.89109e-05
3.89109e-05
3.89704e-05
3.89704e-05
3.89704e-05
1.24928e-05
1.24928e-05
1.24928e-05
6.3007e-06
6.3007e-06
6.3007e-06
1.22259e-05
1.22259e-05
1.22259e-05
2.12913e-06
2.12913e-06
2.12913e-06
2.27518e-06
2.27518e-06
2.27518e-06
2.14162e-06
2.14162e-06
2.14162e-06
2.2102e-06
2.2102e-06
2.2102e-06
2.94388e-05
2.94388e-05
2.94388e-05
1.90668e-05
1.90668e-05
1.90668e-05
1.89317e-05
1.89317e-05
1.89317e-05
2.90792e-05
2.90792e-05
2.90792e-05
3.47054e-05
3.47054e-05
3.47054e-05
3.49059e-05
3.49059e-05
3.49059e-05
3.91181e-05
3.91181e-05
3.91181e-05
4.05152e-05
4.05152e-05
4.05152e-05
1.32347e-06
1.32347e-06
1.32347e-06
1.355e-06
1.355e-06
1.355e-06
3.70025e-06
3.70025e-06
3.70025e-06
3.04739e-06
3.04739e-06
3.04739e-06
1.36549e-06
1.36549e-06
1.36549e-06
1.32557e-06
1.32557e-06
1.32557e-06
5.80593e-06
5.80593e-06
5.80593e-06
5.02993e-06
5.02993e-06
5.02993e-06
5.6264e-06
5.6264e-06
5.6264e-06
7.09032e-06
7.09032e-06
7.09032e-06
7.55347e-06
7.55347e-06
7.55347e-06
6.87117e-06
6.87117e-06
6.87117e-06
1.57453e-06
1.57453e-06
1.57453e-06
1.67388e-06
1.67388e-06
1.67388e-06
1.6137e-06
1.6137e-06
1.6137e-06
1.57582e-06
1.57582e-06
1.57582e-06
2.50481e-06
2.50481e-06
2.50481e-06
2.02891e-06
2.02891e-06
2.02891e-06
1.62987e-06
1.62987e-06
1.62987e-06
1.47605e-06
1.47605e-06
1.47605e-06
1.53279e-06
1.53279e-06
1.53279e-06
1.71512e-06
1.71512e-06
1.71512e-06
2.16606e-06
2.16606e-06
2.16606e-06
2.15636e-06
2.15636e-06
2.15636e-06
2.08959e-06
2.08959e-06
2.08959e-06
1.80652e-06
1.80652e-06
1.80652e-06
1.74312e-06
1.74312e-06
1.74312e-06
1.80568e-06
1.80568e-06
1.80568e-06
1.76225e-06
1.76225e-06
1.76225e-06
1.59049e-06
1.59049e-06
1.59049e-06
1.47778e-06
1.47778e-06
1.47778e-06
1.42988e-06
1.42988e-06
1.42988e-06
1.40604e-06
1.40604e-06
1.40604e-06
1.59075e-06
1.59075e-06
1.59075e-06
1.50454e-06
1.50454e-06
1.50454e-06
1.5585e-06
1.5585e-06
1.5585e-06
1.64022e-05
1.64022e-05
1.64022e-05
1.7377e-05
1.7377e-05
1.7377e-05
1.64965e-05
1.64965e-05
1.64965e-05
1.40328e-06
1.40328e-06
1.40328e-06
1.35134e-06
1.35134e-06
1.35134e-06
1.28133e-06
1.28133e-06
1.28133e-06
1.28407e-06
1.28407e-06
1.28407e-06
1.2364e-06
1.2364e-06
1.2364e-06
1.23742e-06
1.23742e-06
1.23742e-06
2.03785e-06
2.03785e-06
2.03785e-06
1.64976e-06
1.64976e-06
1.64976e-06
5.5645e-05
5.5645e-05
5.5645e-05
5.92069e-05
5.92069e-05
5.92069e-05
5.87684e-05
5.87684e-05
5.87684e-05
5.25605e-05
5.25605e-05
5.25605e-05
5.46706e-05
5.46706e-05
5.46706e-05
5.48777e-05
5.48777e-05
5.48777e-05
4.88143e-05
4.88143e-05
4.88143e-05
4.92209e-05
4.92209e-05
4.92209e-05
7.57927e-06
7.57927e-06
7.57927e-06
6.93042e-06
6.93042e-06
6.93042e-06
3.15852e-06
3.15852e-06
3.15852e-06
3.65799e-06
3.65799e-06
3.65799e-06
7.09561e-06
7.09561e-06
7.09561e-06
3.31332e-06
3.31332e-06
3.31332e-06
3.74704e-06
3.74704e-06
3.74704e-06
1.85221e-05
1.85221e-05
1.85221e-05
7.2563e-06
7.2563e-06
7.2563e-06
3.96346e-06
3.96346e-06
3.96346e-06
3.46133e-06
3.46133e-06
3.46133e-06
3.8072e-06
3.8072e-06
3.8072e-06
7.39735e-06
7.39735e-06
7.39735e-06
7.34916e-06
7.34916e-06
7.34916e-06
1.86125e-05
1.86125e-05
1.86125e-05
1.81407e-05
1.81407e-05
1.81407e-05
1.68888e-05
1.68888e-05
1.68888e-05
1.61103e-05
1.61103e-05
1.61103e-05
1.88921e-05
1.88921e-05
1.88921e-05
1.84173e-05
1.84173e-05
1.84173e-05
1.8799e-05
1.8799e-05
1.8799e-05
1.8233e-05
1.8233e-05
1.8233e-05
1.77282e-05
1.77282e-05
1.77282e-05
1.76364e-05
1.76364e-05
1.76364e-05
1.79592e-05
1.79592e-05
1.79592e-05
1.78687e-05
1.78687e-05
1.78687e-05
1.71661e-05
1.71661e-05
1.71661e-05
1.65274e-05
1.65274e-05
1.65274e-05
1.32276e-06
1.32276e-06
1.32276e-06
1.35096e-06
1.35096e-06
1.35096e-06
1.40615e-06
1.40615e-06
1.40615e-06
1.35103e-06
1.35103e-06
1.35103e-06
1.23629e-06
1.23629e-06
1.23629e-06
1.26236e-06
1.26236e-06
1.26236e-06
1.26227e-06
1.26227e-06
1.26227e-06
1.2902e-06
1.2902e-06
1.2902e-06
1.26251e-06
1.26251e-06
1.26251e-06
1.23638e-06
1.23638e-06
1.23638e-06
1.26384e-06
1.26384e-06
1.26384e-06
1.35361e-06
1.35361e-06
1.35361e-06
1.29055e-06
1.29055e-06
1.29055e-06
1.32342e-06
1.32342e-06
1.32342e-06
1.29079e-06
1.29079e-06
1.29079e-06
1.32379e-06
1.32379e-06
1.32379e-06
1.66246e-06
1.66246e-06
1.66246e-06
1.49478e-06
1.49478e-06
1.49478e-06
2.7533e-06
2.7533e-06
2.7533e-06
3.91176e-06
3.91176e-06
3.91176e-06
2.83682e-06
2.83682e-06
2.83682e-06
2.34058e-06
2.34058e-06
2.34058e-06
4.44765e-06
4.44765e-06
4.44765e-06
3.81626e-06
3.81626e-06
3.81626e-06
7.99239e-06
7.99239e-06
7.99239e-06
7.43166e-06
7.43166e-06
7.43166e-06
6.31549e-06
6.31549e-06
6.31549e-06
5.77523e-06
5.77523e-06
5.77523e-06
6.42156e-06
6.42156e-06
6.42156e-06
8.10157e-06
8.10157e-06
8.10157e-06
7.54101e-06
7.54101e-06
7.54101e-06
4.01422e-06
4.01422e-06
4.01422e-06
1.56577e-05
1.56577e-05
1.56577e-05
1.15843e-05
1.15843e-05
1.15843e-05
1.5579e-05
1.5579e-05
1.5579e-05
1.4254e-05
1.4254e-05
1.4254e-05
1.62606e-05
1.62606e-05
1.62606e-05
1.61303e-05
1.61303e-05
1.61303e-05
1.40828e-05
1.40828e-05
1.40828e-05
1.53324e-05
1.53324e-05
1.53324e-05
1.41899e-05
1.41899e-05
1.41899e-05
1.54184e-05
1.54184e-05
1.54184e-05
9.06068e-06
9.06068e-06
9.06068e-06
1.46279e-05
1.46279e-05
1.46279e-05
9.39177e-06
9.39177e-06
9.39177e-06
1.72513e-05
1.72513e-05
1.72513e-05
1.84262e-05
1.84262e-05
1.84262e-05
1.50473e-05
1.50473e-05
1.50473e-05
9.09819e-06
9.09819e-06
9.09819e-06
9.29322e-06
9.29322e-06
9.29322e-06
9.86918e-06
9.86918e-06
9.86918e-06
1.00137e-05
1.00137e-05
1.00137e-05
9.80114e-06
9.80114e-06
9.80114e-06
5.07833e-06
5.07833e-06
5.07833e-06
1.66061e-05
1.66061e-05
1.66061e-05
1.44956e-05
1.44956e-05
1.44956e-05
7.6254e-06
7.6254e-06
7.6254e-06
8.13658e-06
8.13658e-06
8.13658e-06
1.15542e-05
1.15542e-05
1.15542e-05
6.95229e-06
6.95229e-06
6.95229e-06
6.61824e-06
6.61824e-06
6.61824e-06
7.21472e-06
7.21472e-06
7.21472e-06
1.03542e-05
1.03542e-05
1.03542e-05
7.81012e-06
7.81012e-06
7.81012e-06
1.07543e-05
1.07543e-05
1.07543e-05
1.86785e-05
1.86785e-05
1.86785e-05
1.84894e-05
1.84894e-05
1.84894e-05
1.61802e-06
1.61802e-06
1.61802e-06
1.43635e-06
1.43635e-06
1.43635e-06
1.26844e-06
1.26844e-06
1.26844e-06
1.23708e-06
1.23708e-06
1.23708e-06
1.27433e-06
1.27433e-06
1.27433e-06
1.4656e-06
1.4656e-06
1.4656e-06
6.102e-06
6.102e-06
6.102e-06
6.20995e-06
6.20995e-06
6.20995e-06
5.55697e-06
5.55697e-06
5.55697e-06
7.2172e-06
7.2172e-06
7.2172e-06
8.5397e-06
8.5397e-06
8.5397e-06
6.41057e-06
6.41057e-06
6.41057e-06
6.87536e-06
6.87536e-06
6.87536e-06
7.3687e-06
7.3687e-06
7.3687e-06
9.45908e-06
9.45908e-06
9.45908e-06
8.72161e-06
8.72161e-06
8.72161e-06
8.81413e-06
8.81413e-06
8.81413e-06
8.34158e-06
8.34158e-06
8.34158e-06
5.88852e-06
5.88852e-06
5.88852e-06
7.00773e-06
7.00773e-06
7.00773e-06
6.90297e-06
6.90297e-06
6.90297e-06
7.47162e-06
7.47162e-06
7.47162e-06
4.03017e-06
4.03017e-06
4.03017e-06
5.23249e-06
5.23249e-06
5.23249e-06
5.12571e-06
5.12571e-06
5.12571e-06
5.78299e-06
5.78299e-06
5.78299e-06
7.18593e-06
7.18593e-06
7.18593e-06
6.82954e-06
6.82954e-06
6.82954e-06
7.38396e-06
7.38396e-06
7.38396e-06
7.53432e-06
7.53432e-06
7.53432e-06
8.39547e-06
8.39547e-06
8.39547e-06
8.94833e-06
8.94833e-06
8.94833e-06
7.73883e-06
7.73883e-06
7.73883e-06
8.25737e-06
8.25737e-06
8.25737e-06
8.47673e-06
8.47673e-06
8.47673e-06
8.62092e-06
8.62092e-06
8.62092e-06
1.19624e-05
1.19624e-05
1.19624e-05
1.097e-05
1.097e-05
1.097e-05
1.024e-05
1.024e-05
1.024e-05
1.0663e-05
1.0663e-05
1.0663e-05
1.12012e-05
1.12012e-05
1.12012e-05
9.96446e-06
9.96446e-06
9.96446e-06
9.76828e-06
9.76828e-06
9.76828e-06
1.24298e-05
1.24298e-05
1.24298e-05
1.22889e-05
1.22889e-05
1.22889e-05
1.27949e-05
1.27949e-05
1.27949e-05
1.29154e-05
1.29154e-05
1.29154e-05
1.00348e-05
1.00348e-05
1.00348e-05
9.62493e-06
9.62493e-06
9.62493e-06
9.18908e-06
9.18908e-06
9.18908e-06
9.37658e-06
9.37658e-06
9.37658e-06
1.12657e-05
1.12657e-05
1.12657e-05
1.05155e-05
1.05155e-05
1.05155e-05
1.03014e-05
1.03014e-05
1.03014e-05
9.68333e-06
9.68333e-06
9.68333e-06
9.87446e-06
9.87446e-06
9.87446e-06
1.01166e-05
1.01166e-05
1.01166e-05
1.08355e-05
1.08355e-05
1.08355e-05
8.50516e-06
8.50516e-06
8.50516e-06
9.73833e-06
9.73833e-06
9.73833e-06
1.25714e-05
1.25714e-05
1.25714e-05
1.19039e-05
1.19039e-05
1.19039e-05
1.07567e-05
1.07567e-05
1.07567e-05
1.15825e-05
1.15825e-05
1.15825e-05
1.21596e-05
1.21596e-05
1.21596e-05
1.00118e-05
1.00118e-05
1.00118e-05
1.04668e-05
1.04668e-05
1.04668e-05
8.89521e-06
8.89521e-06
8.89521e-06
9.07426e-06
9.07426e-06
9.07426e-06
4.91939e-06
4.91939e-06
4.91939e-06
3.10694e-06
3.10694e-06
3.10694e-06
3.67315e-06
3.67315e-06
3.67315e-06
3.89408e-06
3.89408e-06
3.89408e-06
3.85088e-06
3.85088e-06
3.85088e-06
7.01717e-06
7.01717e-06
7.01717e-06
6.68669e-06
6.68669e-06
6.68669e-06
9.94124e-06
9.94124e-06
9.94124e-06
1.00387e-05
1.00387e-05
1.00387e-05
3.12523e-06
3.12523e-06
3.12523e-06
4.74452e-06
4.74452e-06
4.74452e-06
9.50578e-06
9.50578e-06
9.50578e-06
5.3824e-06
5.3824e-06
5.3824e-06
4.35641e-06
4.35641e-06
4.35641e-06
1.08428e-05
1.08428e-05
1.08428e-05
1.02873e-05
1.02873e-05
1.02873e-05
6.94309e-06
6.94309e-06
6.94309e-06
7.27351e-06
7.27351e-06
7.27351e-06
7.89093e-06
7.89093e-06
7.89093e-06
7.75191e-06
7.75191e-06
7.75191e-06
5.02838e-06
5.02838e-06
5.02838e-06
4.24751e-06
4.24751e-06
4.24751e-06
4.14298e-06
4.14298e-06
4.14298e-06
4.02181e-06
4.02181e-06
4.02181e-06
3.97558e-06
3.97558e-06
3.97558e-06
6.08133e-06
6.08133e-06
6.08133e-06
6.52124e-06
6.52124e-06
6.52124e-06
6.4051e-06
6.4051e-06
6.4051e-06
5.43073e-06
5.43073e-06
5.43073e-06
5.19245e-06
5.19245e-06
5.19245e-06
5.2616e-06
5.2616e-06
5.2616e-06
5.78352e-06
5.78352e-06
5.78352e-06
7.82127e-06
7.82127e-06
7.82127e-06
7.32951e-06
7.32951e-06
7.32951e-06
3.80582e-06
3.80582e-06
3.80582e-06
3.83568e-06
3.83568e-06
3.83568e-06
3.61269e-06
3.61269e-06
3.61269e-06
3.42629e-06
3.42629e-06
3.42629e-06
3.44835e-06
3.44835e-06
3.44835e-06
3.61588e-06
3.61588e-06
3.61588e-06
3.73873e-06
3.73873e-06
3.73873e-06
3.92424e-06
3.92424e-06
3.92424e-06
3.95324e-06
3.95324e-06
3.95324e-06
3.12463e-05
3.12463e-05
3.12463e-05
2.83522e-05
2.83522e-05
2.83522e-05
4.0578e-05