<VTKFile type="UnstructuredGrid" version="1.0">
<UnstructuredGrid>
<Piece NumberOfPoints="10830" NumberOfCells="3610">
<Points>
<DataArray type="Float64" NumberOfComponents="3" format="ascii">
2.19217 2.20649 4.20575
2.19928 2.19938 4.18
2.19928 2.19938 4.23146
2.19928 2.19938 4.73508
2.19928 2.19938 4.786
2.19129 2.20737 4.76053
2.19928 2.19938 4.73508
2.19129 2.20737 4.76053
2.17928 2.21938 4.7351
1.30559 3.09307 5.20759
1.31816 3.0805 5.225
1.28831 3.11035 5.225
1.28831 3.11035 5.225
1.28831 3.11035 5.19484
1.30559 3.09307 5.20759
2.19928 2.19938 4.73508
2.17928 2.21938 4.7351
2.1913 2.20736 4.70968
1.29441 3.10425 4.45679
1.28831 3.11035 4.48201
1.28831 3.11035 4.43157
2.19132 2.20734 4.4569
2.19928 2.19938 4.48209
2.17929 2.21937 4.48211
2.19117 2.20749 4.35634
2.19928 2.19938 4.33128
2.19928 2.19938 4.38139
2.17929 2.21937 4.48211
2.19928 2.19938 4.48209
2.19133 2.20733 4.50731
2.19928 2.19938 4.48209
2.19928 2.19938 4.53254
2.19133 2.20733 4.50731
2.17929 2.21937 4.53255
2.19133 2.20733 4.50731
2.19928 2.19938 4.53254
2.17928 2.21938 4.68431
2.1913 2.20736 4.70968
2.16946 2.22921 4.7097
2.16946 2.22921 4.7097
2.1913 2.20736 4.70968
2.17928 2.21938 4.7351
2.16946 2.22921 4.7097
2.15842 2.24024 4.68432
2.17928 2.21938 4.68431
2.16946 2.22921 4.7097
2.17928 2.21938 4.7351
2.15841 2.24025 4.73512
2.19928 2.19938 4.58304
2.19928 2.19938 4.63362
2.19132 2.20734 4.60833
2.19132 2.20734 4.60833
2.17929 2.21937 4.63363
2.16947 2.22919 4.60834
2.19928 2.19938 4.63362
2.17929 2.21937 4.63363
2.19132 2.20734 4.60833
2.19928 2.19938 4.68429
2.1913 2.20736 4.70968
2.17928 2.21938 4.68431
2.19928 2.19938 4.73508
2.1913 2.20736 4.70968
2.19928 2.19938 4.68429
2.17913 2.21954 4.33132
2.19928 2.19938 4.33128
2.19117 2.20749 4.35634
2.17927 2.21939 4.78603
2.19129 2.20737 4.76053
2.19928 2.19938 4.786
1.8956 2.50306 4.96575
1.90602 2.49264 4.93998
1.91643 2.48223 4.96572
1.28831 3.11035 4.18
1.30792 3.09074 4.18
1.29529 3.10337 4.20471
1.34771 3.05096 4.43159
1.32717 3.07149 4.43157
1.33709 3.06157 4.40637
1.30704 3.09162 4.43156
1.32717 3.07149 4.43157
1.31607 3.08259 4.45678
1.30704 3.09162 4.43156
1.29441 3.10425 4.45679
1.28831 3.11035 4.43157
1.31607 3.08259 4.45678
1.29441 3.10425 4.45679
1.30704 3.09162 4.43156
1.2945 3.10417 4.65894
1.28831 3.11035 4.6843
1.28831 3.11035 4.63361
1.3071 3.09157 4.6843
1.31615 3.08252 4.65894
1.32724 3.07142 4.68429
1.28831 3.11035 4.6843
1.2945 3.10417 4.65894
1.3071 3.09157 4.6843
1.3071 3.09157 4.6843
1.2945 3.10417 4.65894
1.31615 3.08252 4.65894
1.30708 3.09158 4.6336
1.32723 3.07143 4.6336
1.31615 3.08252 4.65894
1.30708 3.09158 4.6336
1.2945 3.10417 4.65894
1.28831 3.11035 4.63361
1.31615 3.08252 4.65894
1.2945 3.10417 4.65894
1.30708 3.09158 4.6336
1.28831 3.11035 4.48201
1.29441 3.10425 4.45679
1.30705 3.09161 4.482
1.30705 3.09161 4.482
1.29441 3.10425 4.45679
1.31607 3.08259 4.45678
1.32724 3.07142 4.68429
1.31615 3.08252 4.65894
1.33718 3.06148 4.65893
1.31615 3.08252 4.65894
1.32723 3.07143 4.6336
1.33718 3.06148 4.65893
1.49256 2.90611 4.63367
1.50289 2.89577 4.65901
1.48223 2.91643 4.659
1.48223 2.91643 4.659
1.50289 2.89577 4.65901
1.49257 2.90609 4.68437
1.49257 2.90609 4.68437
1.50289 2.89577 4.65901
1.51323 2.88543 4.68438
1.88521 2.51346 4.94
1.90602 2.49264 4.93998
1.8956 2.50306 4.96575
2.19127 2.20739 4.40656
2.19928 2.19938 4.38139
2.19928 2.19938 4.4317
2.19928 2.19938 4.48209
2.19132 2.20734 4.4569
2.19928 2.19938 4.4317
2.11618 2.28248 4.5831
2.09503 2.30363 4.58311
2.10562 2.29304 4.55785
2.17929 2.21937 4.58305
2.19132 2.20734 4.60833
2.16947 2.22919 4.60834
2.19928 2.19938 4.58304
2.19132 2.20734 4.60833
2.17929 2.21937 4.58305
2.16947 2.22919 4.60834
2.17929 2.21937 4.63363
2.15843 2.24024 4.63365
2.19131 2.20735 4.65895
2.17929 2.21937 4.63363
2.19928 2.19938 4.63362
2.19928 2.19938 4.63362
2.19928 2.19938 4.68429
2.19131 2.20735 4.65895
2.19131 2.20735 4.65895
2.19928 2.19938 4.68429
2.17928 2.21938 4.68431
2.1693 2.22936 4.35637
2.17913 2.21954 4.33132
2.19117 2.20749 4.35634
2.19127 2.20739 4.40656
2.19928 2.19938 4.4317
2.17927 2.21939 4.43174
2.17927 2.21939 4.43174
2.19928 2.19938 4.4317
2.19132 2.20734 4.4569
2.10553 2.29313 4.40661
2.09491 2.30375 4.38143
2.11605 2.28261 4.38143
2.1372 2.26147 4.38145
2.12662 2.27204 4.35626
2.14787 2.25079 4.35631
2.1372 2.26147 4.38145
2.11605 2.28261 4.38143
2.12662 2.27204 4.35626
2.16946 2.2292 4.45693
2.19132 2.20734 4.4569
2.17929 2.21937 4.48211
2.16946 2.2292 4.45693
2.17927 2.21939 4.43174
2.19132 2.20734 4.4569
2.16945 2.22921 4.76055
2.17928 2.21938 4.7351
2.19129 2.20737 4.76053
2.19129 2.20737 4.76053
2.17927 2.21939 4.78603
2.16945 2.22921 4.76055
2.15841 2.24025 4.73512
2.17928 2.21938 4.7351
2.16945 2.22921 4.76055
2.16944 2.22922 4.91405
2.14804 2.25062 4.91406
2.15841 2.24025 4.88837
2.14804 2.25063 4.86274
2.16944 2.22922 4.86272
2.15841 2.24025 4.88837
2.19128 2.20738 4.81153
2.17927 2.21939 4.78603
2.19928 2.19938 4.786
2.16944 2.22922 4.81156
2.17927 2.21939 4.78603
2.19128 2.20738 4.81153
1.93725 2.46141 5.01732
1.94766 2.451 5.04316
1.92679 2.47187 5.0432
2.05276 2.34591 4.88843
2.06331 2.33535 4.86279
2.07386 2.3248 4.88841
2.07386 2.3248 4.88841
2.06331 2.33535 4.86279
2.08443 2.31423 4.86278
2.15841 2.24026 4.83713
2.14804 2.25062 4.81158
2.16944 2.22922 4.81156
2.15841 2.24026 4.83713
2.16944 2.22922 4.86272
2.14804 2.25063 4.86274
2.04222 2.35644 4.86281
2.06331 2.33535 4.86279
2.05276 2.34591 4.88843
1.9897 2.40896 4.63374
1.96874 2.42992 4.63374
1.97921 2.41945 4.60844
1.93736 2.4613 4.60844
1.92692 2.47174 4.63375
1.91649 2.48217 4.60844
1.94781 2.45085 4.63375
1.92692 2.47174 4.63375
1.93736 2.4613 4.60844
1.92691 2.47175 4.53265
1.9478 2.45086 4.53265
1.93736 2.46131 4.55789
1.93736 2.46131 4.55789
1.91648 2.48218 4.55789
1.92691 2.47175 4.53265
1.92691 2.47175 4.53265
1.91648 2.48218 4.55789
1.90605 2.49261 4.53264
1.93736 2.46131 4.55789
1.9478 2.45086 4.53265
1.95826 2.4404 4.5579
1.96871 2.42995 4.48223
1.9792 2.41946 4.50744
1.95825 2.44041 4.50743
1.95825 2.44041 4.50743
1.94778 2.45088 4.48223
1.96871 2.42995 4.48223
1.8126 2.58607 4.65909
1.82295 2.57571 4.63375
1.83332 2.56534 4.65909
1.82295 2.57571 4.63375
1.84369 2.55497 4.63375
1.83332 2.56534 4.65909
1.92692 2.47174 4.58316
1.91648 2.48218 4.55789
1.93736 2.46131 4.55789
1.92692 2.47174 4.58316
1.93736 2.4613 4.60844
1.91649 2.48217 4.60844
1.91649 2.48217 4.60844
1.89565 2.50301 4.60844
1.90606 2.4926 4.58315
1.90606 2.4926 4.58315
1.92692 2.47174 4.58316
1.91649 2.48217 4.60844
1.91648 2.48218 4.55789
1.92692 2.47174 4.58316
1.90606 2.4926 4.58315
1.90605 2.49261 4.53264
1.88523 2.51343 4.53264
1.89563 2.50303 4.50741
1.88521 2.51345 4.48219
1.90603 2.49263 4.48221
1.89563 2.50303 4.50741
1.51322 2.88545 4.63368
1.50289 2.89577 4.65901
1.49256 2.90611 4.63367
1.49256 2.90611 4.63367
1.50288 2.89578 4.60836
1.51322 2.88545 4.63368
1.29442 3.10424 4.25487
1.28831 3.11035 4.28009
1.28831 3.11035 4.22942
1.28831 3.11035 4.18
1.29529 3.10337 4.20471
1.28831 3.11035 4.22942
1.307 3.09167 4.3307
1.28831 3.11035 4.33067
1.29431 3.10435 4.30542
1.28831 3.11035 4.33067
1.28831 3.11035 4.28009
1.29431 3.10435 4.30542
2.19928 2.19938 4.18
2.19217 2.20649 4.20575
2.18013 2.21854 4.18
1.28831 3.11035 4.43157
1.28831 3.11035 4.38114
1.29438 3.10428 4.40636
1.29438 3.10428 4.40636
1.30704 3.09162 4.43156
1.28831 3.11035 4.43157
1.30702 3.09164 4.38113
1.29438 3.10428 4.40636
1.28831 3.11035 4.38114
1.30702 3.09164 4.38113
1.31601 3.08265 4.35594
1.32714 3.07152 4.38116
1.31605 3.08262 4.40635
1.33709 3.06157 4.40637
1.32717 3.07149 4.43157
1.32717 3.07149 4.43157
1.30704 3.09162 4.43156
1.31605 3.08262 4.40635
1.32714 3.07152 4.38116
1.33709 3.06157 4.40637
1.31605 3.08262 4.40635
1.31605 3.08262 4.40635
1.30702 3.09164 4.38113
1.32714 3.07152 4.38116
1.30704 3.09162 4.43156
1.29438 3.10428 4.40636
1.31605 3.08262 4.40635
1.29438 3.10428 4.40636
1.30702 3.09164 4.38113
1.31605 3.08262 4.40635
1.29435 3.10432 4.35591
1.28831 3.11035 4.38114
1.28831 3.11035 4.33067
1.29435 3.10432 4.35591
1.28831 3.11035 4.33067
1.307 3.09167 4.3307
1.307 3.09167 4.3307
1.31601 3.08265 4.35594
1.29435 3.10432 4.35591
1.29435 3.10432 4.35591
1.30702 3.09164 4.38113
1.28831 3.11035 4.38114
1.31601 3.08265 4.35594
1.30702 3.09164 4.38113
1.29435 3.10432 4.35591
1.33717 3.06149 4.60829
1.32723 3.07143 4.6336
1.31613 3.08254 4.60829
1.32723 3.07143 4.6336
1.30708 3.09158 4.6336
1.31613 3.08254 4.60829
1.31613 3.08254 4.60829
1.32722 3.07145 4.583
1.33717 3.06149 4.60829
1.33711 3.06155 4.45679
1.32717 3.07149 4.43157
1.34771 3.05096 4.43159
1.31607 3.08259 4.45678
1.32717 3.07149 4.43157
1.33711 3.06155 4.45679
1.35794 3.04072 4.4568
1.33711 3.06155 4.45679
1.34771 3.05096 4.43159
1.34773 3.05094 4.48201
1.33711 3.06155 4.45679
1.35794 3.04072 4.4568
1.34773 3.05094 4.48201
1.35794 3.04072 4.4568
1.36839 3.03027 4.48202
1.50287 2.89579 4.5578
1.51321 2.88546 4.58307
1.49255 2.90612 4.58307
1.49255 2.90612 4.58307
1.51321 2.88546 4.58307
1.50288 2.89578 4.60836
1.42017 2.9785 4.60832
1.44086 2.9578 4.60833
1.43052 2.96814 4.63363
1.43051 2.96815 4.58304
1.44086 2.9578 4.60833
1.42017 2.9785 4.60832
1.44085 2.95782 4.55777
1.4305 2.96817 4.53252
1.45119 2.94748 4.53253
1.43051 2.96815 4.58304
1.42015 2.97851 4.55776
1.44085 2.95782 4.55777
1.44085 2.95782 4.55777
1.42015 2.97851 4.55776
1.4305 2.96817 4.53252
1.44087 2.95779 4.65898
1.46156 2.9371 4.65899
1.45123 2.94744 4.68434
1.3995 2.99917 4.7097
1.40985 2.98882 4.68432
1.4202 2.97846 4.70971
1.40983 2.98883 4.63362
1.42017 2.9785 4.60832
1.43052 2.96814 4.63363
1.39946 2.9992 4.60831
1.42017 2.9785 4.60832
1.40983 2.98883 4.63362
1.32724 3.07142 4.68429
1.33718 3.06148 4.65893
1.34779 3.05087 4.68429
1.33717 3.06149 4.60829
1.32722 3.07145 4.583
1.34776 3.0509 4.583
1.34776 3.0509 4.583
1.35799 3.04067 4.60829
1.33717 3.06149 4.60829
1.38911 3.00955 4.58301
1.39946 2.9992 4.60831
1.37874 3.01992 4.6083
1.34777 3.05089 4.6336
1.33718 3.06148 4.65893
1.32723 3.07143 4.6336
1.34777 3.05089 4.6336
[...]
<PointData Scalars="View Factor" >
<DataArray type="Float64" Name="View Factor" NumberOfComponents="1" format="ascii">
8.60937e-06
8.60937e-06
8.60937e-06
2.42332e-05
2.42332e-05
2.42332e-05
2.60459e-05
2.60459e-05
2.60459e-05
0.000125556
0.000125556
0.000125556
0.000126906
0.000126906
0.000126906
2.77654e-05
2.77654e-05
2.77654e-05
0.000156604
0.000156604
0.000156604
5.97338e-06
5.97338e-06
5.97338e-06
6.96991e-06
6.96991e-06
6.96991e-06
5.89401e-06
5.89401e-06
5.89401e-06
5.91317e-06
5.91317e-06
5.91317e-06
6.05449e-06
6.05449e-06
6.05449e-06
3.12199e-05
3.12199e-05
3.12199e-05
3.04082e-05
3.04082e-05
3.04082e-05
3.97536e-05
3.97536e-05
3.97536e-05
3.77143e-05
3.77143e-05
3.77143e-05
1.83759e-05
1.83759e-05
1.83759e-05
2.19405e-05
2.19405e-05
2.19405e-05
2.16096e-05
2.16096e-05
2.16096e-05
2.94192e-05
2.94192e-05
2.94192e-05
2.88485e-05
2.88485e-05
2.88485e-05
6.86178e-06
6.86178e-06
6.86178e-06
2.25786e-05
2.25786e-05
2.25786e-05
1.00307e-05
1.00307e-05
1.00307e-05
0.000168156
0.000168156
0.000168156
0.000151576
0.000151576
0.000151576
0.000153944
0.000153944
0.000153944
0.000156573
0.000156573
0.000156573
0.000155041
0.000155041
0.000155041
0.000147961
0.000147961
0.000147961
0.000144055
0.000144055
0.000144055
0.000146526
0.000146526
0.000146526
0.000145788
0.000145788
0.000145788
0.000145416
0.000145416
0.000145416
0.000147928
0.000147928
0.000147928
0.000146479
0.000146479
0.000146479
0.000155085
0.000155085
0.000155085
0.00015431
0.00015431
0.00015431
0.000142977
0.000142977
0.000142977
0.000143657
0.000143657
0.000143657
0.000116004
0.000116004
0.000116004
0.000115423
0.000115423
0.000115423
0.00011121
0.00011121
0.00011121
1.05463e-05
1.05463e-05
1.05463e-05
6.63304e-06
6.63304e-06
6.63304e-06
6.28428e-06
6.28428e-06
6.28428e-06
2.11465e-05
2.11465e-05
2.11465e-05
1.87529e-05
1.87529e-05
1.87529e-05
1.53794e-05
1.53794e-05
1.53794e-05
3.55471e-05
3.55471e-05
3.55471e-05
2.43372e-05
2.43372e-05
2.43372e-05
2.65266e-05
2.65266e-05
2.65266e-05
2.86217e-05
2.86217e-05
2.86217e-05
8.32257e-06
8.32257e-06
8.32257e-06
6.25747e-06
6.25747e-06
6.25747e-06
6.19877e-06
6.19877e-06
6.19877e-06
1.59687e-05
1.59687e-05
1.59687e-05
2.13687e-05
2.13687e-05
2.13687e-05
2.00149e-05
2.00149e-05
2.00149e-05
7.55381e-06
7.55381e-06
7.55381e-06
7.62325e-06
7.62325e-06
7.62325e-06
2.71107e-05
2.71107e-05
2.71107e-05
2.53835e-05
2.53835e-05
2.53835e-05
3.62631e-05
3.62631e-05
3.62631e-05
2.66466e-05
2.66466e-05
2.66466e-05
2.79405e-05
2.79405e-05
2.79405e-05
2.10524e-05
2.10524e-05
2.10524e-05
2.24357e-05
2.24357e-05
2.24357e-05
7.27134e-06
7.27134e-06
7.27134e-06
1.23732e-05
1.23732e-05
1.23732e-05
1.2841e-05
1.2841e-05
1.2841e-05
3.03056e-05
3.03056e-05
3.03056e-05
2.86983e-05
2.86983e-05
2.86983e-05
1.28555e-05
1.28555e-05
1.28555e-05
2.0697e-05
2.0697e-05
2.0697e-05
2.05288e-05
2.05288e-05
2.05288e-05
2.1774e-05
2.1774e-05
2.1774e-05
4.42738e-06
4.42738e-06
4.42738e-06
5.93753e-06
5.93753e-06
5.93753e-06
4.57839e-06
4.57839e-06
4.57839e-06
5.73769e-06
5.73769e-06
5.73769e-06
2.01159e-06
2.01159e-06
2.01159e-06
2.06676e-06
2.06676e-06
2.06676e-06
3.09193e-05
3.09193e-05
3.09193e-05
2.89047e-05
2.89047e-05
2.89047e-05
9.32308e-06
9.32308e-06
9.32308e-06
1.70974e-05
1.70974e-05
1.70974e-05
1.76765e-05
1.76765e-05
1.76765e-05
1.55345e-05
1.55345e-05
1.55345e-05
1.14198e-05
1.14198e-05
1.14198e-05
2.69285e-06
2.69285e-06
2.69285e-06
2.28046e-06
2.28046e-06
2.28046e-06
0.000112437
0.000112437
0.000112437
0.000113038
0.000113038
0.000113038
0.000165872
0.000165872
0.000165872
0.000168237
0.000168237
0.000168237
0.000161897
0.000161897
0.000161897
0.000163493
0.000163493
0.000163493
8.43246e-06
8.43246e-06
8.43246e-06
0.000158857
0.000158857
0.000158857
0.000157319
0.000157319
0.000157319
0.000158825
0.000158825
0.000158825
0.000156922
0.000156922
0.000156922
0.000153553
0.000153553
0.000153553
0.000154688
0.000154688
0.000154688
0.000154294
0.000154294
0.000154294
0.00015617
0.00015617
0.00015617
0.000156533
0.000156533
0.000156533
0.000157274
0.000157274
0.000157274
0.000161153
0.000161153
0.000161153
0.000161129
0.000161129
0.000161129
0.000159557
0.000159557
0.000159557
0.000159586
0.000159586
0.000159586
0.00015879
0.00015879
0.00015879
0.00014502
0.00014502
0.00014502
0.000146111
0.000146111
0.000146111
0.000145707
0.000145707
0.000145707
0.000150837
0.000150837
0.000150837
0.000152079
0.000152079
0.000152079
0.000148967
0.000148967
0.000148967
0.000148249
0.000148249
0.000148249
0.000146518
0.000146518
0.000146518
0.000114836
0.000114836
0.000114836
0.000114283
0.000114283
0.000114283
0.000129603
0.000129603
0.000129603
0.000130229
0.000130229
0.000130229
0.000130514
0.000130514
0.000130514
0.000131459
0.000131459
0.000131459
0.0001321
0.0001321
0.0001321
0.000123781
0.000123781
0.000123781
0.000129984
0.000129984
0.000129984
0.000131253
0.000131253
0.000131253
0.000133164
0.000133164
0.000133164
0.000141135
0.000141135
0.000141135
0.000144513
0.000144513
0.000144513
0.000142721
0.000142721
0.000142721
0.000137038
0.000137038
0.000137038
0.000142484
0.000142484
0.000142484
0.000143151
0.000143151
0.000143151
0.000142049
0.000142049
0.000142049
0.000127588
0.000127588
0.000127588
0.000132127
0.000132127
0.000132127
0.000126866
0.000126866
0.000126866
0.00011853
0.00011853
0.00011853
0.000120035
0.000120035
0.000120035
0.000120849
0.000120849
0.000120849
0.000117587
0.000117587
0.000117587
0.000121444
0.000121444
0.000121444
0.00011953
0.00011953
0.00011953
0.000117124
0.000117124
0.000117124
0.000118551
0.000118551
0.000118551
0.000116134
0.000116134
0.000116134
0.000118079
0.000118079
0.000118079
0.000125903
0.000125903
0.000125903
0.000122572
0.000122572
0.000122572
0.000103416
0.000103416
0.000103416
4.50337e-05
4.50337e-05
4.50337e-05
6.82986e-05
6.82986e-05
6.82986e-05
4.04673e-05
4.04673e-05
4.04673e-05
6.99792e-05
6.99792e-05
6.99792e-05
0.000113608
0.000113608
0.000113608
0.00011062
0.00011062
0.00011062
0.000114207
0.000114207
0.000114207
1.18607e-05
1.18607e-05
1.18607e-05
1.12994e-05
1.12994e-05
1.12994e-05
1.03519e-05
1.03519e-05
1.03519e-05
1.08792e-05
1.08792e-05
1.08792e-05
1.26545e-05
1.26545e-05
1.26545e-05
1.2914e-05
1.2914e-05
1.2914e-05
1.54387e-05
1.54387e-05
1.54387e-05
1.15925e-05
1.15925e-05
1.15925e-05
5.83565e-06
5.83565e-06
5.83565e-06
6.08982e-06
6.08982e-06
6.08982e-06
5.55602e-06
5.55602e-06
5.55602e-06
5.50281e-06
5.50281e-06
5.50281e-06
6.37296e-06
6.37296e-06
6.37296e-06
6.46996e-06
6.46996e-06
6.46996e-06
6.2124e-06
6.2124e-06
6.2124e-06
5.9367e-06
5.9367e-06
5.9367e-06
6.05169e-06
6.05169e-06
6.05169e-06
6.30463e-06
6.30463e-06
6.30463e-06
6.58625e-06
6.58625e-06
6.58625e-06
5.3647e-06
5.3647e-06
5.3647e-06
5.78343e-06
5.78343e-06
5.78343e-06
5.68713e-06
5.68713e-06
5.68713e-06
5.41469e-06
5.41469e-06
5.41469e-06
5.22653e-06
5.22653e-06
5.22653e-06
4.67134e-06
4.67134e-06
4.67134e-06
4.01677e-06
4.01677e-06
4.01677e-06
4.02783e-06
4.02783e-06
4.02783e-06
7.18712e-06
7.18712e-06
7.18712e-06
7.1936e-06
7.1936e-06
7.1936e-06
6.99109e-06
6.99109e-06
6.99109e-06
3.81352e-05
3.81352e-05
3.81352e-05
3.75622e-05
3.75622e-05
3.75622e-05
3.86085e-05
3.86085e-05
3.86085e-05
3.70285e-05
3.70285e-05
3.70285e-05
2.10761e-06
2.10761e-06
2.10761e-06
2.05938e-06
2.05938e-06
2.05938e-06
2.15817e-06
2.15817e-06
2.15817e-06
1.92902e-05
1.92902e-05
1.92902e-05
1.79107e-05
1.79107e-05
1.79107e-05
1.20665e-05
1.20665e-05
1.20665e-05
1.22994e-05
1.22994e-05
1.22994e-05
9.19014e-06
9.19014e-06
9.19014e-06
7.1559e-06
7.1559e-06
7.1559e-06
9.71808e-06
9.71808e-06
9.71808e-06
3.6962e-05
3.6962e-05
3.6962e-05
3.8099e-05
3.8099e-05
3.8099e-05
3.9728e-05
3.9728e-05
3.9728e-05
3.72478e-05
3.72478e-05
3.72478e-05
3.85851e-05
3.85851e-05
3.85851e-05
3.71746e-05
3.71746e-05
3.71746e-05
2.97261e-05
2.97261e-05
2.97261e-05
2.74336e-05
2.74336e-05
2.74336e-05
6.49337e-06
6.49337e-06
6.49337e-06
6.60722e-06
6.60722e-06
6.60722e-06
8.22257e-06
8.22257e-06
8.22257e-06
6.98066e-06
6.98066e-06
6.98066e-06
1.60461e-05
1.60461e-05
1.60461e-05
1.86279e-05
1.86279e-05
1.86279e-05
2.47215e-05
2.47215e-05
2.47215e-05
2.21001e-05
2.21001e-05
2.21001e-05
2.33148e-05
2.33148e-05
2.33148e-05
2.1972e-05
2.1972e-05
2.1972e-05
3.38139e-05
3.38139e-05
3.38139e-05
3.27557e-05
3.27557e-05
3.27557e-05
3.12676e-05
3.12676e-05
3.12676e-05
2.60479e-05
2.60479e-05
2.60479e-05
1.74707e-05
1.74707e-05
1.74707e-05
5.0086e-06
5.0086e-06
5.0086e-06
9.37482e-06
9.37482e-06
9.37482e-06
1.08818e-05
1.08818e-05
1.08818e-05
1.02136e-05
1.02136e-05
1.02136e-05
1.15682e-05
1.15682e-05
1.15682e-05
1.00979e-05
1.00979e-05
1.00979e-05
2.19498e-05
2.19498e-05
2.19498e-05
2.25885e-05
2.25885e-05
2.25885e-05
2.28978e-05
2.28978e-05
2.28978e-05
1.95664e-05
1.95664e-05
1.95664e-05
1.98457e-05
1.98457e-05
1.98457e-05
1.81886e-05
1.81886e-05
1.81886e-05
2.68121e-05
2.68121e-05
2.68121e-05
2.71881e-05
2.71881e-05
2.71881e-05
2.69557e-05
2.69557e-05
2.69557e-05
3.09083e-05
3.09083e-05
3.09083e-05
3.00369e-05
3.00369e-05
3.00369e-05
2.11426e-05
2.11426e-05
2.11426e-05
2.59537e-05
2.59537e-05
2.59537e-05
2.46785e-05
2.46785e-05
2.46785e-05
2.65846e-05
2.65846e-05
2.65846e-05
2.59967e-05
2.59967e-05
2.59967e-05
2.4046e-05
2.4046e-05
2.4046e-05
2.46896e-05
2.46896e-05
2.46896e-05
2.01274e-05
2.01274e-05
2.01274e-05
1.52492e-05
1.52492e-05
1.52492e-05
1.8466e-05
1.8466e-05
1.8466e-05
1.42167e-05
1.42167e-05
1.42167e-05
2.25226e-05
2.25226e-05
2.25226e-05
2.12232e-05
2.12232e-05
2.12232e-05
2.46622e-05
2.46622e-05
2.46622e-05
3.30849e-05
3.30849e-05
3.30849e-05
3.2075e-05
3.2075e-05
3.2075e-05
2.82367e-05
2.82367e-05
2.82367e-05
2.63595e-05
2.63595e-05
2.63595e-05
2.32718e-05
2.32718e-05
2.32718e-05
2.19175e-05
2.19175e-05
2.19175e-05
2.72081e-05
2.72081e-05
2.72081e-05
2.40204e-05
2.40204e-05
2.40204e-05
3.07802e-05
3.07802e-05
3.07802e-05
3.0906e-05
3.0906e-05
3.0906e-05
3.10886e-05
3.10886e-05
3.10886e-05
3.10927e-05
3.10927e-05
3.10927e-05
3.20864e-05
3.20864e-05
3.20864e-05
3.18997e-05
3.18997e-05
3.18997e-05
1.98348e-05
1.98348e-05
1.98348e-05
2.10242e-05
2.10242e-05
2.10242e-05
1.93101e-05
1.93101e-05
1.93101e-05
1.60669e-05
1.60669e-05
1.60669e-05
2.07846e-05
2.07846e-05
2.07846e-05
2.94488e-05
2.94488e-05
2.94488e-05
2.12929e-05
2.12929e-05
2.12929e-05
2.60822e-06
2.60822e-06
2.60822e-06
2.20934e-06
2.20934e-06
2.20934e-06
2.21637e-06
2.21637e-06
2.21637e-06
2.19185e-06
2.19185e-06
2.19185e-06
2.13807e-06
2.13807e-06
2.13807e-06
2.12229e-06
2.12229e-06
2.12229e-06
2.14611e-06
2.14611e-06
2.14611e-06
2.52339e-06
2.52339e-06
2.52339e-06
2.07549e-06
2.07549e-06
2.07549e-06
2.05269e-06
2.05269e-06
2.05269e-06
8.74617e-06
8.74617e-06
8.74617e-06
1.04296e-05
1.04296e-05
1.04296e-05
2.81773e-05
2.81773e-05
2.81773e-05
2.34805e-05
2.34805e-05
2.34805e-05
3.89531e-05
3.89531e-05
3.89531e-05
4.00789e-05
4.00789e-05
4.00789e-05
2.74803e-05
2.74803e-05
2.74803e-05
3.00224e-05
3.00224e-05
3.00224e-05
3.50197e-05
3.50197e-05
3.50197e-05
3.68795e-05
3.68795e-05
3.68795e-05
3.59129e-05
3.59129e-05
3.59129e-05
3.20866e-05
3.20866e-05
3.20866e-05
3.11576e-05
3.11576e-05
3.11576e-05
3.29035e-05
3.29035e-05
3.29035e-05
2.55193e-05
2.55193e-05
2.55193e-05
1.76028e-05
1.76028e-05
1.76028e-05
2e-05
2e-05
2e-05
2.40025e-05
2.40025e-05
2.40025e-05
3.38868e-05
3.38868e-05
3.38868e-05
3.3703e-05
3.3703e-05
3.3703e-05
1.81195e-05
1.81195e-05
1.81195e-05
2.97536e-05
2.97536e-05
2.97536e-05
2.62705e-05
2.62705e-05
2.62705e-05
1.29391e-05
1.29391e-05
1.29391e-05
2.34709e-06
2.34709e-06
2.34709e-06
2.26115e-06
2.26115e-06
2.26115e-06
2.28659e-06
2.28659e-06
2.28659e-06
1.60517e-05
1.60517e-05
1.60517e-05
1.82555e-05
1.82555e-05
1.82555e-05
1.21793e-05
1.21793e-05
1.21793e-05
1.65689e-05
1.65689e-05
1.65689e-05
0.000107034
0.000107034
0.000107034
0.000126799
0.000126799
0.000126799
0.000126182
0.000126182
0.000126182
0.000127993
0.000127993
0.000127993
0.000117982
0.000117982
0.000117982
0.000112176
0.000112176
0.000112176
0.000112793
0.000112793
0.000112793
0.000147927
0.000147927
0.000147927
0.000150407
0.000150407
0.000150407
0.000148647
0.000148647
0.000148647
0.000110863
0.000110863
0.000110863
0.000110242
0.000110242
0.000110242
2.88755e-05
2.88755e-05
2.88755e-05
3.07747e-05
3.07747e-05
3.07747e-05
3.48539e-05
3.48539e-05
3.48539e-05
3.71912e-05
3.71912e-05
3.71912e-05
4.08529e-05
4.08529e-05
4.08529e-05
4.05287e-05
4.05287e-05
4.05287e-05
1.97034e-05
1.97034e-05
1.97034e-05
9.22963e-06
9.22963e-06
9.22963e-06
2.80851e-05
2.80851e-05
2.80851e-05
4.39037e-06
4.39037e-06
4.39037e-06
1.71768e-05
1.71768e-05
1.71768e-05
1.73144e-05
1.73144e-05
1.73144e-05
2.69844e-06
2.69844e-06
2.69844e-06
2.91795e-06
2.91795e-06
2.91795e-06
0.000145885
0.000145885
0.000145885
0.000145848
0.000145848
0.000145848
0.000150069
0.000150069
0.000150069
0.000148618
0.000148618
0.000148618
0.000147871
0.000147871
0.000147871
0.000152212
0.000152212
0.000152212
0.000152177
0.000152177
0.000152177
0.00014961
0.00014961
0.00014961
0.000150691
0.000150691
0.000150691
0.000154356
0.000154356
0.000154356
0.000154389
0.000154389
0.000154389
0.000152894
0.000152894
0.000152894
0.000152849
0.000152849
0.000152849
0.000152126
0.000152126
0.000152126
0.000150322
0.000150322
0.000150322
0.000149205
0.000149205
0.000149205
0.000146852
0.000146852
0.000146852
0.000145828
0.000145828
0.000145828
0.000152488
0.000152488
0.000152488
0.00015135
0.00015135
0.00015135
0.000151761
0.000151761
0.000151761
0.000149922
0.000149922
0.000149922
0.000149398
0.000149398
0.000149398
0.000148694
0.000148694
0.000148694
0.000147792
0.000147792
0.000147792
0.000147087
0.000147087
0.000147087
0.000145197
0.000145197
0.000145197
0.000144079
0.000144079
0.000144079
0.00012023
0.00012023
0.00012023
0.000122668
0.000122668
0.000122668
0.000123269
0.000123269
0.000123269
0.000118571
0.000118571
0.000118571
0.000117072
0.000117072
0.000117072
0.000117608
0.000117608
0.000117608
0.00011897
0.00011897
0.00011897
0.000119844
0.000119844
0.000119844
0.000121579
0.000121579
0.000121579
0.00012104
0.00012104
0.00012104
0.000133798
0.000133798
0.000133798
0.000135054
0.000135054
0.000135054
0.000132522
0.000132522
0.000132522
0.000133128
0.000133128
0.000133128
0.00013591
0.00013591
0.00013591
0.000136502
0.000136502
0.000136502
0.000128391
0.000128391
0.000128391
0.000130641
0.000130641
0.000130641
0.000125594
0.000125594
0.000125594
0.000128743
0.000128743
0.000128743
0.000129376
0.000129376
0.000129376
0.000127748
0.000127748
0.000127748
0.000126514
0.000126514
0.000126514
0.000124973
0.000124973
0.000124973
0.000128183
0.000128183
0.000128183
0.000126943
0.000126943
0.000126943
0.000127514
0.000127514
0.000127514
0.000129363
0.000129363
0.000129363
0.000130902
0.000130902
0.000130902
0.000131456
0.000131456
0.000131456
0.000130315
0.000130315
0.000130315
0.000132132
0.000132132
0.000132132
0.000142398
0.000142398
0.000142398
0.000138778
0.000138778
0.000138778
0.000141723
0.000141723
0.000141723
0.000139891
0.000139891
0.000139891
0.000140051
0.000140051
0.000140051
0.00014072
0.00014072
0.00014072
0.000137946
0.000137946
0.000137946
0.000139734
0.000139734
0.000139734
0.000139245
0.000139245
0.000139245
0.000140395
0.000140395
0.000140395
0.000130855
0.000130855
0.000130855
0.000131884
0.000131884
0.000131884
0.000129086
0.000129086
0.000129086
0.000133582
0.000133582
0.000133582
0.000134621
0.000134621
0.000134621
0.000131279
0.000131279
0.000131279
0.000118206
0.000118206
0.000118206
0.00012574
0.00012574
0.00012574
0.000125147
0.000125147
0.000125147
0.000122982
0.000122982
0.000122982
0.000121463
0.000121463
0.000121463
0.000127939
0.000127939
0.000127939
0.000124501
0.000124501
0.000124501
0.000125466
0.000125466
0.000125466
0.000135951
0.000135951
0.000135951
0.000134638
0.000134638
0.000134638
0.000133957
0.000133957
0.000133957
0.000132119
0.000132119
0.000132119
0.000134042
0.000134042
0.000134042
0.000132749
0.000132749
0.000132749
0.000132084
0.000132084
0.000132084
0.000134013
0.000134013
0.000134013
0.000132705
0.000132705
0.000132705
0.000132371
0.000132371
0.000132371
0.000131746
0.000131746
0.000131746
0.000124398
0.000124398
0.000124398
0.000122631
0.000122631
0.000122631
0.000123208
0.000123208
0.000123208
0.000125579
0.000125579
0.000125579
0.000127422
0.000127422
0.000127422
0.000126828
0.000126828
0.000126828
0.000119738
0.000119738
0.000119738
0.000123774
0.000123774
0.000123774
0.000121983
0.000121983
0.000121983
0.000119226
0.000119226
0.000119226
3.20805e-05
3.20805e-05
3.20805e-05
3.62001e-05
3.62001e-05
3.62001e-05
3.43128e-05
3.43128e-05
3.43128e-05
8.99847e-05
8.99847e-05
8.99847e-05
7.62789e-05
7.62789e-05
7.62789e-05
7.66913e-05
7.66913e-05
7.66913e-05
9.75467e-05
9.75467e-05
9.75467e-05
8.94991e-05
8.94991e-05
8.94991e-05
0.00010945
0.00010945
0.00010945
0.000108908
0.000108908
0.000108908
9.85665e-05
9.85665e-05
9.85665e-05
0.00010397
0.00010397
0.00010397
0.00010557
0.00010557
0.00010557
0.000105009
0.000105009
0.000105009
9.0887e-05
9.0887e-05
9.0887e-05
9.90518e-05
9.90518e-05
9.90518e-05
1.05003e-05
1.05003e-05
1.05003e-05
9.79774e-06
9.79774e-06
9.79774e-06
1.02071e-05
1.02071e-05
1.02071e-05
1.05744e-05
1.05744e-05
1.05744e-05
1.15298e-05
1.15298e-05
1.15298e-05
1.23008e-05
1.23008e-05
1.23008e-05
1.02752e-05
1.02752e-05
1.02752e-05
1.09792e-05
1.09792e-05
1.09792e-05
1.06735e-05
1.06735e-05
1.06735e-05
1.11976e-05
1.11976e-05
1.11976e-05
1.71448e-05
1.71448e-05
1.71448e-05
1.50965e-05
1.50965e-05
1.50965e-05
1.41182e-05
1.41182e-05
1.41182e-05
1.55324e-05
1.55324e-05
1.55324e-05
1.58912e-05
1.58912e-05
1.58912e-05
1.45258e-05
1.45258e-05
1.45258e-05
1.3865e-05
1.3865e-05
1.3865e-05
1.7295e-05
1.7295e-05
1.7295e-05
1.66561e-05
1.66561e-05
1.66561e-05
1.87301e-05
1.87301e-05
1.87301e-05
1.9231e-05
1.9231e-05
1.9231e-05
1.34708e-05
1.34708e-05
1.34708e-05
1.2181e-05
1.2181e-05
1.2181e-05
1.19467e-05
1.19467e-05
1.19467e-05
1.25476e-05
1.25476e-05
1.25476e-05
1.46609e-05
1.46609e-05
1.46609e-05
1.37109e-05
1.37109e-05
1.37109e-05
1.30765e-05
1.30765e-05
1.30765e-05
1.12372e-05
1.12372e-05
1.12372e-05
1.18281e-05
1.18281e-05
1.18281e-05
1.14595e-05
1.14595e-05
1.14595e-05
1.22872e-05
1.22872e-05
1.22872e-05
2.80281e-05
2.80281e-05
2.80281e-05
2.58127e-05
2.58127e-05
2.58127e-05
1.97968e-05
1.97968e-05
1.97968e-05
2.19296e-05
2.19296e-05
2.19296e-05
2.374e-05
2.374e-05
2.374e-05
2.25473e-05
2.25473e-05
2.25473e-05
2.13969e-05
2.13969e-05
2.13969e-05
2.50925e-05
2.50925e-05
2.50925e-05
2.4429e-05
2.4429e-05
2.4429e-05
1.81418e-05
1.81418e-05
1.81418e-05
1.90523e-05
1.90523e-05
1.90523e-05
9.39446e-06
9.39446e-06
9.39446e-06
6.28078e-06
6.28078e-06
6.28078e-06
6.63452e-06
6.63452e-06
6.63452e-06
7.24816e-06
7.24816e-06
7.24816e-06
6.93111e-06
6.93111e-06
6.93111e-06
9.52494e-06
9.52494e-06
9.52494e-06
9.38315e-06
9.38315e-06
9.38315e-06
0.000123949
0.000123949
0.000123949
0.000122383
0.000122383
0.000122383
6.54828e-06
6.54828e-06
6.54828e-06
1.09298e-05
1.09298e-05
1.09298e-05
3.84179e-05
3.84179e-05
3.84179e-05
1.22462e-05
1.22462e-05
1.22462e-05
8.46743e-05
8.46743e-05
8.46743e-05
2.38347e-05
2.38347e-05
2.38347e-05
1.72468e-05
1.72468e-05
1.72468e-05
1.28965e-05
1.28965e-05
1.28965e-05
1.3184e-05
1.3184e-05
1.3184e-05
1.47434e-05
1.47434e-05
1.47434e-05
1.40513e-05
1.40513e-05
1.40513e-05
1.02036e-05
1.02036e-05
1.02036e-05
7.45348e-06
7.45348e-06
7.45348e-06
6.89201e-06
6.89201e-06
6.89201e-06
7.06997e-06
7.06997e-06
7.06997e-06
6.75883e-06
6.75883e-06
6.75883e-06
1.08877e-05
1.08877e-05
1.08877e-05
1.20682e-05
1.20682e-05
1.20682e-05
1.1666e-05
1.1666e-05
1.1666e-05
1.0094e-05
1.0094e-05
1.0094e-05
9.96168e-06
9.96168e-06
9.96168e-06
1.03434e-05
1.03434e-05
1.03434e-05
1.07198e-05
1.07198e-05
1.07198e-05
1.1619e-05
1.1619e-05
1.1619e-05
1.08738e-05
1.08738e-05
1.08738e-05
4.53233e-06
4.53233e-06
4.53233e-06
4.70517e-06
4.70517e-06
4.70517e-06
5.53856e-06
5.53856e-06
5.53856e-06
5.0878e-06
5.0878e-06
5.0878e-06
5.2731e-06
5.2731e-06
5.2731e-06
4.81017e-06
4.81017e-06
4.81017e-06
4.84715e-06
4.84715e-06
4.84715e-06
5.09095e-06
5.09095e-06
5.09095e-06
5.3228e-06
5.3228e-06
5.3228e-06
4.1343e-06
4.1343e-06
4.1343e-06
4.11357e-06