<VTKFile type="UnstructuredGrid" version="1.0">
<UnstructuredGrid>
<Piece NumberOfPoints="10830" NumberOfCells="3610">
<Points>
<DataArray type="Float64" NumberOfComponents="3" format="ascii">
3.11035 1.27826 0.0257489
3.11035 1.28831 0.0514594
3.11035 1.28831 0
3.11035 1.28831 0.555078
3.11035 1.27701 0.580532
3.11035 1.28831 0.605999
3.11035 1.28831 0.555078
3.11035 1.26002 0.555099
3.11035 1.27701 0.580532
3.11035 0.0244388 1.02759
3.11035 4.44089e-16 1.045
3.11035 0.0422213 1.045
3.11035 4.44089e-16 1.045
3.11035 0.0244388 1.02759
3.11035 -7.90479e-14 1.01484
3.11035 1.28831 0.555078
3.11035 1.27702 0.529679
3.11035 1.26002 0.555099
3.11035 0.00863377 0.276786
3.11035 1.50546e-13 0.251574
3.11035 1.49658e-13 0.302009
3.11035 1.27705 0.2769
3.11035 1.26004 0.302114
3.11035 1.28831 0.302091
3.11035 1.27684 0.17634
3.11035 1.28831 0.201394
3.11035 1.28831 0.151284
3.11035 1.26004 0.302114
3.11035 1.27707 0.327315
3.11035 1.28831 0.302091
3.11035 1.28831 0.302091
3.11035 1.27707 0.327315
3.11035 1.28831 0.352537
3.11035 1.26005 0.352551
3.11035 1.28831 0.352537
3.11035 1.27707 0.327315
3.11035 1.26003 0.504308
3.11035 1.24613 0.529697
3.11035 1.27702 0.529679
3.11035 1.24613 0.529697
3.11035 1.26002 0.555099
3.11035 1.27702 0.529679
3.11035 1.24613 0.529697
3.11035 1.26003 0.504308
3.11035 1.23052 0.504324
3.11035 1.24613 0.529697
3.11035 1.23052 0.555118
3.11035 1.26002 0.555099
3.11035 1.28831 0.403041
3.11035 1.27705 0.428326
3.11035 1.28831 0.453619
3.11035 1.27705 0.428326
3.11035 1.24616 0.428339
3.11035 1.26004 0.453633
3.11035 1.28831 0.453619
3.11035 1.27705 0.428326
3.11035 1.26004 0.453633
3.11035 1.28831 0.504291
3.11035 1.26003 0.504308
3.11035 1.27702 0.529679
3.11035 1.28831 0.555078
3.11035 1.28831 0.504291
3.11035 1.27702 0.529679
3.11035 1.25981 0.151322
3.11035 1.27684 0.17634
3.11035 1.28831 0.151284
3.11035 1.26002 0.606025
3.11035 1.28831 0.605999
3.11035 1.27701 0.580532
3.11035 0.85884 0.785748
3.11035 0.888295 0.785725
3.11035 0.873578 0.759978
3.11035 4.44089e-16 0
3.11035 0.00987207 0.024705
3.11035 0.0277369 -5.6077e-14
3.11035 0.0840033 0.251587
3.11035 0.0689903 0.226374
3.11035 0.0549577 0.251567
3.11035 0.0264927 0.251562
3.11035 0.0392653 0.276779
3.11035 0.0549577 0.251567
3.11035 0.0264927 0.251562
3.11035 1.50546e-13 0.251574
3.11035 0.00863377 0.276786
3.11035 0.0392653 0.276779
3.11035 0.0264927 0.251562
3.11035 0.00863377 0.276786
3.11035 0.0087521 0.478941
3.11035 1.48326e-13 0.453605
3.11035 -9.59233e-14 0.504301
3.11035 0.0265703 0.504296
3.11035 0.0550657 0.504293
3.11035 0.0393699 0.478935
3.11035 -9.59233e-14 0.504301
3.11035 0.0265703 0.504296
3.11035 0.0087521 0.478941
3.11035 0.0265703 0.504296
3.11035 0.0393699 0.478935
3.11035 0.0087521 0.478941
3.11035 0.0265544 0.453601
3.11035 0.0393699 0.478935
3.11035 0.0550443 0.453599
3.11035 0.0265544 0.453601
3.11035 1.48326e-13 0.453605
3.11035 0.0087521 0.478941
3.11035 0.0393699 0.478935
3.11035 0.0265544 0.453601
3.11035 0.0087521 0.478941
3.11035 1.49658e-13 0.302009
3.11035 0.0265126 0.302001
3.11035 0.00863377 0.276786
3.11035 0.0265126 0.302001
3.11035 0.0392653 0.276779
3.11035 0.00863377 0.276786
3.11035 0.0550657 0.504293
3.11035 0.0691236 0.478933
3.11035 0.0393699 0.478935
3.11035 0.0393699 0.478935
3.11035 0.0691236 0.478933
3.11035 0.0550443 0.453599
3.11035 0.288852 0.453669
3.11035 0.274248 0.479001
3.11035 0.303471 0.479013
3.11035 0.274248 0.479001
3.11035 0.288872 0.504372
3.11035 0.303471 0.479013
3.11035 0.288872 0.504372
3.11035 0.318088 0.504385
3.11035 0.303471 0.479013
3.11035 0.844143 0.759998
3.11035 0.85884 0.785748
3.11035 0.873578 0.759978
3.11035 1.27699 0.226555
3.11035 1.28831 0.251699
3.11035 1.28831 0.201394
3.11035 1.28831 0.302091
3.11035 1.28831 0.251699
3.11035 1.27705 0.2769
3.11035 1.17079 0.403096
3.11035 1.15586 0.377846
3.11035 1.14088 0.40311
3.11035 1.26004 0.403053
3.11035 1.24616 0.428339
3.11035 1.27705 0.428326
3.11035 1.28831 0.403041
3.11035 1.26004 0.403053
3.11035 1.27705 0.428326
3.11035 1.24616 0.428339
3.11035 1.23053 0.453647
3.11035 1.26004 0.453633
3.11035 1.27704 0.47895
3.11035 1.28831 0.453619
3.11035 1.26004 0.453633
3.11035 1.28831 0.453619
3.11035 1.27704 0.47895
3.11035 1.28831 0.504291
3.11035 1.27704 0.47895
3.11035 1.26003 0.504308
3.11035 1.28831 0.504291
3.11035 1.24591 0.176367
3.11035 1.27684 0.17634
3.11035 1.25981 0.151322
3.11035 1.27699 0.226555
3.11035 1.26001 0.251744
3.11035 1.28831 0.251699
3.11035 1.26001 0.251744
3.11035 1.27705 0.2769
3.11035 1.28831 0.251699
3.11035 1.15573 0.226614
3.11035 1.1706 0.201432
3.11035 1.1407 0.201434
3.11035 1.20051 0.201451
3.11035 1.21561 0.176315
3.11035 1.18556 0.176261
3.11035 1.20051 0.201451
3.11035 1.18556 0.176261
3.11035 1.1706 0.201432
3.11035 1.24614 0.276933
3.11035 1.26004 0.302114
3.11035 1.27705 0.2769
3.11035 1.24614 0.276933
3.11035 1.27705 0.2769
3.11035 1.26001 0.251744
3.11035 1.24612 0.580555
3.11035 1.27701 0.580532
3.11035 1.26002 0.555099
3.11035 1.27701 0.580532
3.11035 1.24612 0.580555
3.11035 1.26002 0.606025
3.11035 1.23052 0.555118
3.11035 1.24612 0.580555
3.11035 1.26002 0.555099
3.11035 1.24611 0.734055
3.11035 1.23051 0.708373
3.11035 1.21584 0.734064
3.11035 1.21584 0.682738
3.11035 1.23051 0.708373
3.11035 1.24611 0.682719
3.11035 1.27699 0.63153
3.11035 1.28831 0.605999
3.11035 1.26002 0.606025
3.11035 1.24611 0.631556
3.11035 1.27699 0.63153
3.11035 1.26002 0.606025
3.11035 0.917741 0.837317
3.11035 0.902954 0.863195
3.11035 0.932465 0.86316
3.11035 1.08109 0.708429
3.11035 1.11094 0.708414
3.11035 1.09602 0.682792
3.11035 1.11094 0.708414
3.11035 1.12589 0.682778
3.11035 1.09602 0.682792
3.11035 1.2305 0.657127
3.11035 1.24611 0.631556
3.11035 1.21584 0.631578
3.11035 1.2305 0.657127
3.11035 1.21584 0.682738
3.11035 1.24611 0.682719
3.11035 1.0662 0.682809
3.11035 1.08109 0.708429
3.11035 1.09602 0.682792
3.11035 0.991917 0.453738
3.11035 0.977089 0.428435
3.11035 0.962274 0.453743
3.11035 0.917902 0.42844
3.11035 0.888384 0.428441
3.11035 0.903138 0.45375
3.11035 0.932681 0.453747
3.11035 0.917902 0.42844
3.11035 0.903138 0.45375
3.11035 0.903119 0.35265
3.11035 0.917893 0.377895
3.11035 0.932664 0.352655
3.11035 0.917893 0.377895
3.11035 0.903119 0.35265
3.11035 0.888374 0.377891
3.11035 0.903119 0.35265
3.11035 0.873625 0.352644
3.11035 0.888374 0.377891
3.11035 0.917893 0.377895
3.11035 0.947463 0.377896
3.11035 0.932664 0.352655
3.11035 0.962233 0.302232
3.11035 0.947444 0.327435
3.11035 0.977066 0.327437
3.11035 0.947444 0.327435
3.11035 0.962233 0.302232
3.11035 0.932637 0.302227
3.11035 0.741456 0.479091
3.11035 0.770765 0.479092
3.11035 0.756104 0.453749
3.11035 0.756104 0.453749
3.11035 0.770765 0.479092
3.11035 0.785431 0.453751
3.11035 0.903133 0.403156
3.11035 0.917893 0.377895
3.11035 0.888374 0.377891
3.11035 0.903133 0.403156
3.11035 0.888384 0.428441
3.11035 0.917902 0.42844
3.11035 0.888384 0.428441
3.11035 0.873639 0.403154
3.11035 0.858913 0.42844
3.11035 0.873639 0.403154
3.11035 0.888384 0.428441
3.11035 0.903133 0.403156
3.11035 0.888374 0.377891
3.11035 0.873639 0.403154
3.11035 0.903133 0.403156
3.11035 0.873625 0.352644
3.11035 0.858884 0.327412
3.11035 0.844177 0.352637
3.11035 0.844153 0.302193
3.11035 0.858884 0.327412
3.11035 0.873599 0.302206
3.11035 0.318069 0.45368
3.11035 0.288852 0.453669
3.11035 0.303471 0.479013
3.11035 0.288852 0.453669
3.11035 0.318069 0.45368
3.11035 0.303454 0.428361
3.11035 0.00864568 0.0748701
3.11035 -9.63674e-14 0.0494157
3.11035 1.49658e-13 0.100085
3.11035 4.44089e-16 0
3.11035 -9.63674e-14 0.0494157
3.11035 0.00987207 0.024705
3.11035 0.0264295 0.150698
3.11035 0.00849117 0.12542
3.11035 1.50546e-13 0.150672
3.11035 1.50546e-13 0.150672
3.11035 0.00849117 0.12542
3.11035 1.49658e-13 0.100085
3.11035 1.28831 0
3.11035 1.26122 1.13803e-14
3.11035 1.27826 0.0257489
3.11035 1.50546e-13 0.251574
3.11035 0.00859461 0.226356
3.11035 1.50546e-13 0.201144
3.11035 0.00859461 0.226356
3.11035 1.50546e-13 0.251574
3.11035 0.0264927 0.251562
3.11035 0.0264637 0.201134
3.11035 1.50546e-13 0.201144
3.11035 0.00859461 0.226356
3.11035 0.0264637 0.201134
3.11035 0.0549232 0.20116
3.11035 0.0391815 0.175937
3.11035 0.0392276 0.226352
3.11035 0.0549577 0.251567
3.11035 0.0689903 0.226374
3.11035 0.0549577 0.251567
3.11035 0.0392276 0.226352
3.11035 0.0264927 0.251562
3.11035 0.0549232 0.20116
3.11035 0.0392276 0.226352
3.11035 0.0689903 0.226374
3.11035 0.0392276 0.226352
3.11035 0.0549232 0.20116
3.11035 0.0264637 0.201134
3.11035 0.0264927 0.251562
3.11035 0.0392276 0.226352
3.11035 0.00859461 0.226356
3.11035 0.00859461 0.226356
3.11035 0.0392276 0.226352
3.11035 0.0264637 0.201134
3.11035 0.00854014 0.175915
3.11035 1.50546e-13 0.150672
3.11035 1.50546e-13 0.201144
3.11035 0.00854014 0.175915
3.11035 0.0264295 0.150698
3.11035 1.50546e-13 0.150672
3.11035 0.0264295 0.150698
3.11035 0.00854014 0.175915
3.11035 0.0391815 0.175937
3.11035 0.00854014 0.175915
3.11035 1.50546e-13 0.201144
3.11035 0.0264637 0.201134
3.11035 0.0391815 0.175937
3.11035 0.00854014 0.175915
3.11035 0.0264637 0.201134
3.11035 0.0690987 0.428289
3.11035 0.0393425 0.428289
3.11035 0.0550443 0.453599
3.11035 0.0550443 0.453599
3.11035 0.0393425 0.428289
3.11035 0.0265544 0.453601
3.11035 0.0393425 0.428289
3.11035 0.0690987 0.428289
3.11035 0.0550252 0.402998
3.11035 0.0690242 0.276785
3.11035 0.0840033 0.251587
3.11035 0.0549577 0.251567
3.11035 0.0392653 0.276779
3.11035 0.0690242 0.276785
3.11035 0.0549577 0.251567
3.11035 0.0984777 0.276801
3.11035 0.0840033 0.251587
3.11035 0.0690242 0.276785
3.11035 0.0840313 0.302008
3.11035 0.0984777 0.276801
3.11035 0.0690242 0.276785
3.11035 0.0840313 0.302008
3.11035 0.113251 0.302022
3.11035 0.0984777 0.276801
3.11035 0.303441 0.3778
3.11035 0.288836 0.403066
3.11035 0.318055 0.403074
3.11035 0.288836 0.403066
3.11035 0.303454 0.428361
3.11035 0.318055 0.403074
3.11035 0.186476 0.428318
3.11035 0.201123 0.453634
3.11035 0.215741 0.428329
3.11035 0.201103 0.403035
3.11035 0.186476 0.428318
[...]
<PointData Scalars="View Factor" >
<DataArray type="Float64" Name="View Factor" NumberOfComponents="1" format="ascii">
3.17772e-05
3.17772e-05
3.17772e-05
2.8128e-05
2.8128e-05
2.8128e-05
2.82355e-05
2.82355e-05
2.82355e-05
2.57337e-05
2.57337e-05
2.57337e-05
2.57888e-05
2.57888e-05
2.57888e-05
2.83395e-05
2.83395e-05
2.83395e-05
3.03576e-05
3.03576e-05
3.03576e-05
2.99496e-05
2.99496e-05
2.99496e-05
3.0731e-05
3.0731e-05
3.0731e-05
2.98392e-05
2.98392e-05
2.98392e-05
2.97249e-05
2.97249e-05
2.97249e-05
2.96196e-05
2.96196e-05
2.96196e-05
2.85022e-05
2.85022e-05
2.85022e-05
2.83976e-05
2.83976e-05
2.83976e-05
2.85611e-05
2.85611e-05
2.85611e-05
2.83518e-05
2.83518e-05
2.83518e-05
2.90746e-05
2.90746e-05
2.90746e-05
2.90314e-05
2.90314e-05
2.90314e-05
2.89719e-05
2.89719e-05
2.89719e-05
2.85487e-05
2.85487e-05
2.85487e-05
2.84399e-05
2.84399e-05
2.84399e-05
3.08494e-05
3.08494e-05
3.08494e-05
2.80287e-05
2.80287e-05
2.80287e-05
2.70982e-05
2.70982e-05
2.70982e-05
3.22304e-05
3.22304e-05
3.22304e-05
3.05835e-05
3.05835e-05
3.05835e-05
3.04705e-05
3.04705e-05
3.04705e-05
3.04708e-05
3.04708e-05
3.04708e-05
3.0414e-05
3.0414e-05
3.0414e-05
2.90368e-05
2.90368e-05
2.90368e-05
2.89294e-05
2.89294e-05
2.89294e-05
2.89296e-05
2.89296e-05
2.89296e-05
2.89831e-05
2.89831e-05
2.89831e-05
2.91441e-05
2.91441e-05
2.91441e-05
2.91444e-05
2.91444e-05
2.91444e-05
2.90905e-05
2.90905e-05
2.90905e-05
3.02449e-05
3.02449e-05
3.02449e-05
3.03011e-05
3.03011e-05
3.03011e-05
2.89827e-05
2.89827e-05
2.89827e-05
2.90901e-05
2.90901e-05
2.90901e-05
2.90758e-05
2.90758e-05
2.90758e-05
2.89685e-05
2.89685e-05
2.89685e-05
2.89134e-05
2.89134e-05
2.89134e-05
2.71522e-05
2.71522e-05
2.71522e-05
3.03918e-05
3.03918e-05
3.03918e-05
3.00562e-05
3.00562e-05
3.00562e-05
2.93439e-05
2.93439e-05
2.93439e-05
2.91385e-05
2.91385e-05
2.91385e-05
2.91861e-05
2.91861e-05
2.91861e-05
2.89846e-05
2.89846e-05
2.89846e-05
2.88655e-05
2.88655e-05
2.88655e-05
2.87554e-05
2.87554e-05
2.87554e-05
2.86539e-05
2.86539e-05
2.86539e-05
3.07991e-05
3.07991e-05
3.07991e-05
3.02838e-05
3.02838e-05
3.02838e-05
3.0172e-05
3.0172e-05
3.0172e-05
3.05624e-05
3.05624e-05
3.05624e-05
3.07133e-05
3.07133e-05
3.07133e-05
3.06631e-05
3.06631e-05
3.06631e-05
3.00114e-05
3.00114e-05
3.00114e-05
3.01226e-05
3.01226e-05
3.01226e-05
2.81895e-05
2.81895e-05
2.81895e-05
2.8086e-05
2.8086e-05
2.8086e-05
2.82477e-05
2.82477e-05
2.82477e-05
2.7283e-05
2.7283e-05
2.7283e-05
2.74847e-05
2.74847e-05
2.74847e-05
2.79258e-05
2.79258e-05
2.79258e-05
2.78802e-05
2.78802e-05
2.78802e-05
2.66403e-05
2.66403e-05
2.66403e-05
2.74834e-05
2.74834e-05
2.74834e-05
2.75288e-05
2.75288e-05
2.75288e-05
2.77898e-05
2.77898e-05
2.77898e-05
2.7586e-05
2.7586e-05
2.7586e-05
2.75391e-05
2.75391e-05
2.75391e-05
2.90864e-05
2.90864e-05
2.90864e-05
2.91641e-05
2.91641e-05
2.91641e-05
2.91057e-05
2.91057e-05
2.91057e-05
2.96482e-05
2.96482e-05
2.96482e-05
2.95982e-05
2.95982e-05
2.95982e-05
2.96577e-05
2.96577e-05
2.96577e-05
2.95886e-05
2.95886e-05
2.95886e-05
2.99086e-05
2.99086e-05
2.99086e-05
2.99691e-05
2.99691e-05
2.99691e-05
2.89914e-05
2.89914e-05
2.89914e-05
2.90411e-05
2.90411e-05
2.90411e-05
2.9489e-05
2.9489e-05
2.9489e-05
2.9272e-05
2.9272e-05
2.9272e-05
2.92811e-05
2.92811e-05
2.92811e-05
2.93307e-05
2.93307e-05
2.93307e-05
2.94392e-05
2.94392e-05
2.94392e-05
2.97768e-05
2.97768e-05
2.97768e-05
2.99981e-05
2.99981e-05
2.99981e-05
2.9128e-05
2.9128e-05
2.9128e-05
2.9236e-05
2.9236e-05
2.9236e-05
3.17531e-05
3.17531e-05
3.17531e-05
3.21115e-05
3.21115e-05
3.21115e-05
3.12782e-05
3.12782e-05
3.12782e-05
3.13961e-05
3.13961e-05
3.13961e-05
3.19037e-05
3.19037e-05
3.19037e-05
3.06987e-05
3.06987e-05
3.06987e-05
3.05845e-05
3.05845e-05
3.05845e-05
3.08135e-05
3.08135e-05
3.08135e-05
3.09284e-05
3.09284e-05
3.09284e-05
3.06409e-05
3.06409e-05
3.06409e-05
3.05842e-05
3.05842e-05
3.05842e-05
3.07554e-05
3.07554e-05
3.07554e-05
3.08132e-05
3.08132e-05
3.08132e-05
3.06414e-05
3.06414e-05
3.06414e-05
3.07559e-05
3.07559e-05
3.07559e-05
3.10447e-05
3.10447e-05
3.10447e-05
3.11611e-05
3.11611e-05
3.11611e-05
3.11027e-05
3.11027e-05
3.11027e-05
3.09288e-05
3.09288e-05
3.09288e-05
3.09865e-05
3.09865e-05
3.09865e-05
2.93061e-05
2.93061e-05
2.93061e-05
2.92522e-05
2.92522e-05
2.92522e-05
2.94148e-05
2.94148e-05
2.94148e-05
3.04699e-05
3.04699e-05
3.04699e-05
3.04136e-05
3.04136e-05
3.04136e-05
3.04128e-05
3.04128e-05
3.04128e-05
3.02999e-05
3.02999e-05
3.02999e-05
3.02431e-05
3.02431e-05
3.02431e-05
2.95624e-05
2.95624e-05
2.95624e-05
2.94532e-05
2.94532e-05
2.94532e-05
2.92993e-05
2.92993e-05
2.92993e-05
2.9408e-05
2.9408e-05
2.9408e-05
2.97905e-05
2.97905e-05
2.97905e-05
2.96265e-05
2.96265e-05
2.96265e-05
2.97365e-05
2.97365e-05
2.97365e-05
2.89738e-05
2.89738e-05
2.89738e-05
2.87646e-05
2.87646e-05
2.87646e-05
2.92462e-05
2.92462e-05
2.92462e-05
2.93013e-05
2.93013e-05
2.93013e-05
2.89289e-05
2.89289e-05
2.89289e-05
2.94689e-05
2.94689e-05
2.94689e-05
2.9414e-05
2.9414e-05
2.9414e-05
2.94116e-05
2.94116e-05
2.94116e-05
2.91436e-05
2.91436e-05
2.91436e-05
2.92516e-05
2.92516e-05
2.92516e-05
2.93054e-05
2.93054e-05
2.93054e-05
2.83426e-05
2.83426e-05
2.83426e-05
2.65622e-05
2.65622e-05
2.65622e-05
2.58725e-05
2.58725e-05
2.58725e-05
2.9131e-05
2.9131e-05
2.9131e-05
2.90786e-05
2.90786e-05
2.90786e-05
2.88124e-05
2.88124e-05
2.88124e-05
2.89164e-05
2.89164e-05
2.89164e-05
2.89191e-05
2.89191e-05
2.89191e-05
2.89713e-05
2.89713e-05
2.89713e-05
2.88097e-05
2.88097e-05
2.88097e-05
2.87579e-05
2.87579e-05
2.87579e-05
2.85976e-05
2.85976e-05
2.85976e-05
2.86518e-05
2.86518e-05
2.86518e-05
2.86566e-05
2.86566e-05
2.86566e-05
2.87604e-05
2.87604e-05
2.87604e-05
2.83302e-05
2.83302e-05
2.83302e-05
2.81648e-05
2.81648e-05
2.81648e-05
2.81147e-05
2.81147e-05
2.81147e-05
2.79574e-05
2.79574e-05
2.79574e-05
2.8011e-05
2.8011e-05
2.8011e-05
2.8649e-05
2.8649e-05
2.8649e-05
2.88068e-05
2.88068e-05
2.88068e-05
2.87551e-05
2.87551e-05
2.87551e-05
2.71811e-05
2.71811e-05
2.71811e-05
2.71275e-05
2.71275e-05
2.71275e-05
2.71059e-05
2.71059e-05
2.71059e-05
2.71598e-05
2.71598e-05
2.71598e-05
2.72816e-05
2.72816e-05
2.72816e-05
2.73286e-05
2.73286e-05
2.73286e-05
2.76259e-05
2.76259e-05
2.76259e-05
2.72602e-05
2.72602e-05
2.72602e-05
2.58303e-05
2.58303e-05
2.58303e-05
2.58806e-05
2.58806e-05
2.58806e-05
2.57355e-05
2.57355e-05
2.57355e-05
2.56909e-05
2.56909e-05
2.56909e-05
2.59761e-05
2.59761e-05
2.59761e-05
2.60213e-05
2.60213e-05
2.60213e-05
2.59706e-05
2.59706e-05
2.59706e-05
2.58751e-05
2.58751e-05
2.58751e-05
2.59648e-05
2.59648e-05
2.59648e-05
2.60156e-05
2.60156e-05
2.60156e-05
2.61117e-05
2.61117e-05
2.61117e-05
2.56855e-05
2.56855e-05
2.56855e-05
2.58694e-05
2.58694e-05
2.58694e-05
2.58247e-05
2.58247e-05
2.58247e-05
2.57299e-05
2.57299e-05
2.57299e-05
2.56798e-05
2.56798e-05
2.56798e-05
2.56545e-05
2.56545e-05
2.56545e-05
2.55743e-05
2.55743e-05
2.55743e-05
2.56174e-05
2.56174e-05
2.56174e-05
2.66686e-05
2.66686e-05
2.66686e-05
2.66599e-05
2.66599e-05
2.66599e-05
2.66152e-05
2.66152e-05
2.66152e-05
2.85733e-05
2.85733e-05
2.85733e-05
2.841e-05
2.841e-05
2.841e-05
2.85147e-05
2.85147e-05
2.85147e-05
2.85268e-05
2.85268e-05
2.85268e-05
3.00699e-05
3.00699e-05
3.00699e-05
2.99588e-05
2.99588e-05
2.99588e-05
3.01203e-05
3.01203e-05
3.01203e-05
2.90329e-05
2.90329e-05
2.90329e-05
2.90922e-05
2.90922e-05
2.90922e-05
2.92938e-05
2.92938e-05
2.92938e-05
2.9354e-05
2.9354e-05
2.9354e-05
2.93977e-05
2.93977e-05
2.93977e-05
2.95106e-05
2.95106e-05
2.95106e-05
2.94624e-05
2.94624e-05
2.94624e-05
2.87375e-05
2.87375e-05
2.87375e-05
2.86786e-05
2.86786e-05
2.86786e-05
2.86664e-05
2.86664e-05
2.86664e-05
2.88781e-05
2.88781e-05
2.88781e-05
2.87252e-05
2.87252e-05
2.87252e-05
2.88312e-05
2.88312e-05
2.88312e-05
2.87126e-05
2.87126e-05
2.87126e-05
2.88185e-05
2.88185e-05
2.88185e-05
3.05089e-05
3.05089e-05
3.05089e-05
3.0622e-05
3.0622e-05
3.0622e-05
3.06853e-05
3.06853e-05
3.06853e-05
3.09637e-05
3.09637e-05
3.09637e-05
3.06762e-05
3.06762e-05
3.06762e-05
3.07268e-05
3.07268e-05
3.07268e-05
3.01853e-05
3.01853e-05
3.01853e-05
3.03105e-05
3.03105e-05
3.03105e-05
3.0136e-05
3.0136e-05
3.0136e-05
3.01985e-05
3.01985e-05
3.01985e-05
2.80407e-05
2.80407e-05
2.80407e-05
2.79377e-05
2.79377e-05
2.79377e-05
2.78922e-05
2.78922e-05
2.78922e-05
2.71827e-05
2.71827e-05
2.71827e-05
2.67636e-05
2.67636e-05
2.67636e-05
2.60332e-05
2.60332e-05
2.60332e-05
2.69984e-05
2.69984e-05
2.69984e-05
2.72446e-05
2.72446e-05
2.72446e-05
2.71443e-05
2.71443e-05
2.71443e-05
2.73824e-05
2.73824e-05
2.73824e-05
2.71814e-05
2.71814e-05
2.71814e-05
2.72052e-05
2.72052e-05
2.72052e-05
2.73055e-05
2.73055e-05
2.73055e-05
2.8959e-05
2.8959e-05
2.8959e-05
2.90442e-05
2.90442e-05
2.90442e-05
2.90552e-05
2.90552e-05
2.90552e-05
2.91034e-05
2.91034e-05
2.91034e-05
2.85721e-05
2.85721e-05
2.85721e-05
2.86301e-05
2.86301e-05
2.86301e-05
2.85827e-05
2.85827e-05
2.85827e-05
2.77329e-05
2.77329e-05
2.77329e-05
2.76311e-05
2.76311e-05
2.76311e-05
2.77778e-05
2.77778e-05
2.77778e-05
2.73391e-05
2.73391e-05
2.73391e-05
2.72944e-05
2.72944e-05
2.72944e-05
2.74399e-05
2.74399e-05
2.74399e-05
2.74962e-05
2.74962e-05
2.74962e-05
2.73503e-05
2.73503e-05
2.73503e-05
2.74512e-05
2.74512e-05
2.74512e-05
2.9066e-05
2.9066e-05
2.9066e-05
2.92218e-05
2.92218e-05
2.92218e-05
2.91143e-05
2.91143e-05
2.91143e-05
2.93019e-05
2.93019e-05
2.93019e-05
2.91149e-05
2.91149e-05
2.91149e-05
2.91732e-05
2.91732e-05
2.91732e-05
2.89985e-05
2.89985e-05
2.89985e-05
2.87135e-05
2.87135e-05
2.87135e-05
2.86565e-05
2.86565e-05
2.86565e-05
2.89673e-05
2.89673e-05
2.89673e-05
2.90165e-05
2.90165e-05
2.90165e-05
2.91238e-05
2.91238e-05
2.91238e-05
2.91819e-05
2.91819e-05
2.91819e-05
2.9025e-05
2.9025e-05
2.9025e-05
2.91324e-05
2.91324e-05
2.91324e-05
2.88605e-05
2.88605e-05
2.88605e-05
2.88031e-05
2.88031e-05
2.88031e-05
2.8697e-05
2.8697e-05
2.8697e-05
2.86484e-05
2.86484e-05
2.86484e-05
2.87054e-05
2.87054e-05
2.87054e-05
2.88115e-05
2.88115e-05
2.88115e-05
2.91548e-05
2.91548e-05
2.91548e-05
2.90962e-05
2.90962e-05
2.90962e-05
2.91451e-05
2.91451e-05
2.91451e-05
2.92528e-05
2.92528e-05
2.92528e-05
2.80367e-05
2.80367e-05
2.80367e-05
2.85429e-05
2.85429e-05
2.85429e-05
2.80847e-05
2.80847e-05
2.80847e-05
2.97675e-05
2.97675e-05
2.97675e-05
2.99887e-05
2.99887e-05
2.99887e-05
2.98273e-05
2.98273e-05
2.98273e-05
2.99379e-05
2.99379e-05
2.99379e-05
2.9979e-05
2.9979e-05
2.9979e-05
2.99285e-05
2.99285e-05
2.99285e-05
2.98179e-05
2.98179e-05
2.98179e-05
2.9758e-05
2.9758e-05
2.9758e-05
2.98082e-05
2.98082e-05
2.98082e-05
2.99187e-05
2.99187e-05
2.99187e-05
2.94696e-05
2.94696e-05
2.94696e-05
2.94102e-05
2.94102e-05
2.94102e-05
2.92472e-05
2.92472e-05
2.92472e-05
2.93555e-05
2.93555e-05
2.93555e-05
2.87058e-05
2.87058e-05
2.87058e-05
2.87618e-05
2.87618e-05
2.87618e-05
2.92411e-05
2.92411e-05
2.92411e-05
2.91901e-05
2.91901e-05
2.91901e-05
2.85441e-05
2.85441e-05
2.85441e-05
2.85999e-05
2.85999e-05
2.85999e-05
2.85501e-05
2.85501e-05
2.85501e-05
2.84389e-05
2.84389e-05
2.84389e-05
2.83894e-05
2.83894e-05
2.83894e-05
2.84448e-05
2.84448e-05
2.84448e-05
2.91486e-05
2.91486e-05
2.91486e-05
2.93648e-05
2.93648e-05
2.93648e-05
2.93145e-05
2.93145e-05
2.93145e-05
2.92064e-05
2.92064e-05
2.92064e-05
2.88275e-05
2.88275e-05
2.88275e-05
2.88845e-05
2.88845e-05
2.88845e-05
2.93726e-05
2.93726e-05
2.93726e-05
2.90488e-05
2.90488e-05
2.90488e-05
2.91563e-05
2.91563e-05
2.91563e-05
2.94736e-05
2.94736e-05
2.94736e-05
3.00071e-05
3.00071e-05
3.00071e-05
2.99471e-05
2.99471e-05
2.99471e-05
2.98364e-05
2.98364e-05
2.98364e-05
2.93397e-05
2.93397e-05
2.93397e-05
2.92899e-05
2.92899e-05
2.92899e-05
2.9457e-05
2.9457e-05
2.9457e-05
2.93484e-05
2.93484e-05
2.93484e-05
3.01121e-05
3.01121e-05
3.01121e-05
2.98987e-05
2.98987e-05
2.98987e-05
2.97881e-05
2.97881e-05
2.97881e-05
2.97342e-05
2.97342e-05
2.97342e-05
3.01155e-05
3.01155e-05
3.01155e-05
2.99467e-05
2.99467e-05
2.99467e-05
3.0058e-05
3.0058e-05
3.0058e-05
3.04688e-05
3.04688e-05
3.04688e-05
3.064e-05
3.064e-05
3.064e-05
3.05824e-05
3.05824e-05
3.05824e-05
2.97255e-05
2.97255e-05
2.97255e-05
2.96156e-05
2.96156e-05
2.96156e-05
2.92529e-05
2.92529e-05
2.92529e-05
2.9196e-05
2.9196e-05
2.9196e-05
2.90883e-05
2.90883e-05
2.90883e-05
2.90374e-05
2.90374e-05
2.90374e-05
2.88741e-05
2.88741e-05
2.88741e-05
2.89303e-05
2.89303e-05
2.89303e-05
3.19567e-05
3.19567e-05
3.19567e-05
3.18494e-05
3.18494e-05
3.18494e-05
3.1918e-05
3.1918e-05
3.1918e-05
3.19902e-05
3.19902e-05
3.19902e-05
3.16047e-05
3.16047e-05
3.16047e-05
3.17209e-05
3.17209e-05
3.17209e-05
3.07127e-05
3.07127e-05
3.07127e-05
3.0942e-05
3.0942e-05
3.0942e-05
2.87165e-05
2.87165e-05
2.87165e-05
2.88229e-05
2.88229e-05
2.88229e-05
2.93608e-05
2.93608e-05
2.93608e-05
2.92524e-05
2.92524e-05
2.92524e-05
2.93065e-05
2.93065e-05
2.93065e-05
2.96888e-05
2.96888e-05
2.96888e-05
2.97991e-05
2.97991e-05
2.97991e-05
2.97989e-05
2.97989e-05
2.97989e-05
2.97439e-05
2.97439e-05
2.97439e-05
3.01327e-05
3.01327e-05
3.01327e-05
3.0021e-05
3.0021e-05
3.0021e-05
2.99098e-05
2.99098e-05
2.99098e-05
3.00768e-05
3.00768e-05
3.00768e-05
2.99653e-05
2.99653e-05
2.99653e-05
2.99096e-05
2.99096e-05
2.99096e-05
2.99649e-05
2.99649e-05
2.99649e-05
3.00756e-05
3.00756e-05
3.00756e-05
3.01309e-05
3.01309e-05
3.01309e-05
3.02447e-05
3.02447e-05
3.02447e-05
3.03007e-05
3.03007e-05
3.03007e-05
3.01325e-05
3.01325e-05
3.01325e-05
3.00763e-05
3.00763e-05
3.00763e-05
3.0244e-05
3.0244e-05
3.0244e-05
3.01319e-05
3.01319e-05
3.01319e-05
2.97435e-05
2.97435e-05
2.97435e-05
2.96334e-05
2.96334e-05
2.96334e-05
2.95783e-05
2.95783e-05
2.95783e-05
2.96327e-05
2.96327e-05
2.96327e-05
2.95654e-05
2.95654e-05
2.95654e-05
2.96216e-05
2.96216e-05
2.96216e-05
2.97316e-05
2.97316e-05
2.97316e-05
2.96188e-05
2.96188e-05
2.96188e-05
2.92917e-05
2.92917e-05
2.92917e-05
2.94002e-05
2.94002e-05
2.94002e-05
2.9239e-05
2.9239e-05
2.9239e-05
2.94562e-05
2.94562e-05
2.94562e-05
2.94031e-05
2.94031e-05
2.94031e-05
2.92945e-05
2.92945e-05
2.92945e-05
2.94099e-05
2.94099e-05
2.94099e-05
2.96285e-05
2.96285e-05
2.96285e-05
2.94635e-05
2.94635e-05
2.94635e-05
2.95728e-05
2.95728e-05
2.95728e-05
2.94653e-05
2.94653e-05
2.94653e-05
2.95746e-05
2.95746e-05
2.95746e-05
2.90834e-05
2.90834e-05
2.90834e-05
2.91382e-05
2.91382e-05
2.91382e-05
2.89215e-05
2.89215e-05
2.89215e-05
2.88169e-05
2.88169e-05
2.88169e-05
2.89236e-05
2.89236e-05
2.89236e-05
2.89761e-05
2.89761e-05
2.89761e-05
2.87627e-05
2.87627e-05
2.87627e-05
2.88148e-05
2.88148e-05
2.88148e-05
2.84475e-05
2.84475e-05
2.84475e-05
2.84992e-05
2.84992e-05
2.84992e-05
2.86047e-05
2.86047e-05
2.86047e-05
2.86585e-05
2.86585e-05
2.86585e-05
2.86064e-05
2.86064e-05
2.86064e-05
2.84491e-05
2.84491e-05
2.84491e-05
2.85009e-05
2.85009e-05
2.85009e-05
2.88186e-05
2.88186e-05
2.88186e-05
2.95774e-05
2.95774e-05
2.95774e-05
2.94668e-05
2.94668e-05
2.94668e-05
2.9468e-05
2.9468e-05
2.9468e-05
2.9413e-05
2.9413e-05
2.9413e-05
2.8982e-05
2.8982e-05
2.8982e-05
2.90894e-05
2.90894e-05
2.90894e-05
2.90883e-05
2.90883e-05
2.90883e-05
2.91427e-05
2.91427e-05
2.91427e-05
2.93043e-05
2.93043e-05
2.93043e-05
2.92507e-05
2.92507e-05
2.92507e-05
2.83442e-05
2.83442e-05
2.83442e-05
2.82926e-05
2.82926e-05
2.82926e-05
2.82911e-05
2.82911e-05
2.82911e-05
2.83455e-05
2.83455e-05
2.83455e-05
2.82937e-05
2.82937e-05
2.82937e-05
2.81883e-05
2.81883e-05
2.81883e-05
2.8285e-05
2.8285e-05
2.8285e-05
2.82894e-05
2.82894e-05
2.82894e-05
2.81851e-05
2.81851e-05
2.81851e-05
2.81321e-05
2.81321e-05
2.81321e-05
2.8183e-05
2.8183e-05
2.8183e-05
2.59515e-05
2.59515e-05
2.59515e-05
2.57823e-05
2.57823e-05
2.57823e-05
2.58661e-05
2.58661e-05
2.58661e-05
2.71671e-05
2.71671e-05
2.71671e-05
2.70665e-05
2.70665e-05
2.70665e-05
2.71168e-05
2.71168e-05
2.71168e-05
2.66655e-05
2.66655e-05
2.66655e-05
2.68652e-05
2.68652e-05
2.68652e-05
2.67658e-05
2.67658e-05
2.67658e-05
2.68167e-05
2.68167e-05
2.68167e-05
2.69661e-05
2.69661e-05
2.69661e-05
2.69164e-05
2.69164e-05
2.69164e-05
2.70669e-05
2.70669e-05
2.70669e-05
2.69669e-05
2.69669e-05
2.69669e-05
2.90811e-05
2.90811e-05
2.90811e-05
2.91337e-05
2.91337e-05
2.91337e-05
2.92417e-05
2.92417e-05
2.92417e-05
2.92971e-05
2.92971e-05
2.92971e-05
2.92441e-05
2.92441e-05
2.92441e-05
2.91361e-05
2.91361e-05
2.91361e-05
2.86002e-05
2.86002e-05
2.86002e-05
2.86026e-05
2.86026e-05
2.86026e-05
2.86543e-05
2.86543e-05
2.86543e-05
2.84948e-05
2.84948e-05
2.84948e-05
2.82651e-05
2.82651e-05
2.82651e-05
2.84659e-05
2.84659e-05
2.84659e-05
2.84109e-05
2.84109e-05
2.84109e-05
2.84317e-05
2.84317e-05
2.84317e-05
2.81685e-05
2.81685e-05
2.81685e-05
2.82728e-05
2.82728e-05
2.82728e-05
2.82762e-05
2.82762e-05
2.82762e-05
2.83268e-05
2.83268e-05
2.83268e-05
2.85946e-05
2.85946e-05
2.85946e-05
2.84892e-05
2.84892e-05
2.84892e-05
2.8486e-05
2.8486e-05
2.8486e-05
2.8435e-05
2.8435e-05
2.8435e-05
2.8752e-05
2.8752e-05
2.8752e-05
2.86459e-05
2.86459e-05
2.86459e-05
2.86426e-05
2.86426e-05
2.86426e-05
2.85914e-05
2.85914e-05
2.85914e-05
2.6981e-05
2.6981e-05
2.6981e-05
2.68816e-05
2.68816e-05
2.68816e-05
2.69743e-05
2.69743e-05
2.69743e-05
2.70275e-05
2.70275e-05
2.70275e-05
2.71742e-05
2.71742e-05
2.71742e-05
2.72748e-05
2.72748e-05
2.72748e-05
2.70206e-05
2.70206e-05
2.70206e-05
2.71206e-05
2.71206e-05
2.71206e-05
2.71134e-05
2.71134e-05
2.71134e-05
2.71671e-05
2.71671e-05
2.71671e-05
2.77352e-05
2.77352e-05
2.77352e-05
2.75785e-05
2.75785e-05
2.75785e-05
2.74769e-05
2.74769e-05
2.74769e-05
2.75856e-05
2.75856e-05
2.75856e-05
2.7633e-05
2.7633e-05
2.7633e-05
2.74839e-05
2.74839e-05
2.74839e-05
2.74297e-05
2.74297e-05
2.74297e-05
2.77829e-05
2.77829e-05
2.77829e-05
2.7728e-05
2.7728e-05
2.7728e-05
2.78856e-05
2.78856e-05
2.78856e-05
2.79335e-05
2.79335e-05
2.79335e-05
2.74227e-05
2.74227e-05
2.74227e-05
2.73143e-05
2.73143e-05
2.73143e-05
2.72676e-05
2.72676e-05
2.72676e-05
2.73216e-05
2.73216e-05
2.73216e-05
2.75713e-05
2.75713e-05
2.75713e-05
2.74697e-05
2.74697e-05
2.74697e-05
2.74153e-05
2.74153e-05
2.74153e-05
2.72526e-05
2.72526e-05
2.72526e-05
2.73068e-05
2.73068e-05
2.73068e-05
2.7299e-05
2.7299e-05
2.7299e-05
2.73999e-05
2.73999e-05
2.73999e-05
2.83635e-05
2.83635e-05
2.83635e-05
2.8259e-05
2.8259e-05
2.8259e-05
2.79408e-05
2.79408e-05
2.79408e-05
2.80922e-05
2.80922e-05
2.80922e-05
2.81961e-05
2.81961e-05
2.81961e-05
2.80995e-05
2.80995e-05
2.80995e-05
2.80441e-05
2.80441e-05
2.80441e-05
2.82519e-05
2.82519e-05
2.82519e-05
2.82034e-05
2.82034e-05
2.82034e-05
2.7622e-05
2.7622e-05
2.7622e-05
2.76757e-05
2.76757e-05
2.76757e-05
2.66147e-05
2.66147e-05
2.66147e-05
2.58457e-05
2.58457e-05
2.58457e-05
2.60267e-05
2.60267e-05
2.60267e-05
2.61737e-05
2.61737e-05
2.61737e-05
2.61228e-05
2.61228e-05
2.61228e-05
2.68749e-05
2.68749e-05
2.68749e-05
2.68287e-05
2.68287e-05
2.68287e-05
2.79776e-05
2.79776e-05
2.79776e-05
2.80284e-05
2.80284e-05
2.80284e-05
2.58957e-05
2.58957e-05
2.58957e-05
2.67324e-05
2.67324e-05
2.67324e-05
2.78543e-05
2.78543e-05
2.78543e-05
2.69307e-05
2.69307e-05
2.69307e-05
2.66013e-05
2.66013e-05
2.66013e-05
2.80707e-05
2.80707e-05
2.80707e-05
2.76529e-05
2.76529e-05
2.76529e-05
2.71584e-05
2.71584e-05
2.71584e-05
2.72059e-05
2.72059e-05
2.72059e-05
2.73599e-05
2.73599e-05
2.73599e-05
2.73066e-05
2.73066e-05
2.73066e-05
2.67184e-05
2.67184e-05
2.67184e-05
2.6265e-05
2.6265e-05
2.6265e-05
2.61627e-05
2.61627e-05
2.61627e-05
2.61683e-05
2.61683e-05
2.61683e-05
2.61174e-05
2.61174e-05
2.61174e-05
2.69059e-05
2.69059e-05
2.69059e-05
2.70583e-05
2.70583e-05
2.70583e-05
2.70055e-05
2.70055e-05
2.70055e-05
2.676e-05
2.676e-05
2.676e-05
2.67132e-05
2.67132e-05
2.67132e-05
2.67653e-05
2.67653e-05
2.67653e-05
2.6859e-05
2.6859e-05
2.6859e-05
2.71342e-05
2.71342e-05
2.71342e-05
2.70342e-05
2.70342e-05
2.70342e-05
2.56476e-05
2.56476e-05
2.56476e-05
2.56983e-05
2.56983e-05
2.56983e-05
2.58188e-05
2.58188e-05
2.58188e-05
2.56738e-05
2.56738e-05
2.56738e-05
2.57241e-05
2.57241e-05
2.57241e-05
2.56612e-05
2.56612e-05
2.56612e-05
2.57051e-05
2.57051e-05
2.57051e-05
2.57998e-05
2.57998e-05
2.57998e-05
2.58506e-05
2.58506e-05
2.58506e-05
2.56685e-05
2.56685e-05