<VTKFile type="UnstructuredGrid" version="1.0">
<UnstructuredGrid>
<Piece NumberOfPoints="10830" NumberOfCells="3610">
<Points>
<DataArray type="Float64" NumberOfComponents="3" format="ascii">
2.19217 2.20649 2.11575
2.19928 2.19938 2.09
2.19928 2.19938 2.14146
2.19928 2.19938 2.64508
2.19928 2.19938 2.696
2.19129 2.20737 2.67053
2.19928 2.19938 2.64508
2.19129 2.20737 2.67053
2.17928 2.21938 2.6451
1.30559 3.09307 3.11759
1.31816 3.0805 3.135
1.28831 3.11035 3.135
1.28831 3.11035 3.135
1.28831 3.11035 3.10484
1.30559 3.09307 3.11759
2.19928 2.19938 2.64508
2.17928 2.21938 2.6451
2.1913 2.20736 2.61968
1.29441 3.10425 2.36679
1.28831 3.11035 2.39201
1.28831 3.11035 2.34157
2.19132 2.20734 2.3669
2.19928 2.19938 2.39209
2.17929 2.21937 2.39211
2.19117 2.20749 2.26634
2.19928 2.19938 2.24128
2.19928 2.19938 2.29139
2.17929 2.21937 2.39211
2.19928 2.19938 2.39209
2.19133 2.20733 2.41732
2.19928 2.19938 2.39209
2.19928 2.19938 2.44254
2.19133 2.20733 2.41732
2.17929 2.21937 2.44255
2.19133 2.20733 2.41732
2.19928 2.19938 2.44254
2.17928 2.21938 2.59431
2.1913 2.20736 2.61968
2.16946 2.22921 2.6197
2.16946 2.22921 2.6197
2.1913 2.20736 2.61968
2.17928 2.21938 2.6451
2.16946 2.22921 2.6197
2.15842 2.24024 2.59432
2.17928 2.21938 2.59431
2.16946 2.22921 2.6197
2.17928 2.21938 2.6451
2.15841 2.24025 2.64512
2.19928 2.19938 2.49304
2.19928 2.19938 2.54362
2.19132 2.20734 2.51833
2.19132 2.20734 2.51833
2.17929 2.21937 2.54363
2.16947 2.22919 2.51834
2.19928 2.19938 2.54362
2.17929 2.21937 2.54363
2.19132 2.20734 2.51833
2.19928 2.19938 2.59429
2.1913 2.20736 2.61968
2.17928 2.21938 2.59431
2.19928 2.19938 2.64508
2.1913 2.20736 2.61968
2.19928 2.19938 2.59429
2.17913 2.21954 2.24132
2.19928 2.19938 2.24128
2.19117 2.20749 2.26634
2.17927 2.21939 2.69602
2.19129 2.20737 2.67053
2.19928 2.19938 2.696
1.8956 2.50306 2.87575
1.90602 2.49264 2.84998
1.91643 2.48223 2.87572
1.28831 3.11035 2.09
1.30792 3.09074 2.09
1.29529 3.10337 2.11471
1.34771 3.05096 2.34159
1.32717 3.07149 2.34157
1.33709 3.06157 2.31637
1.30704 3.09162 2.34156
1.32717 3.07149 2.34157
1.31607 3.08259 2.36678
1.30704 3.09162 2.34156
1.29441 3.10425 2.36679
1.28831 3.11035 2.34157
1.31607 3.08259 2.36678
1.29441 3.10425 2.36679
1.30704 3.09162 2.34156
1.2945 3.10417 2.56894
1.28831 3.11035 2.5943
1.28831 3.11035 2.54361
1.3071 3.09157 2.5943
1.31615 3.08252 2.56893
1.32724 3.07142 2.59429
1.28831 3.11035 2.5943
1.2945 3.10417 2.56894
1.3071 3.09157 2.5943
1.3071 3.09157 2.5943
1.2945 3.10417 2.56894
1.31615 3.08252 2.56893
1.30708 3.09158 2.5436
1.32723 3.07143 2.5436
1.31615 3.08252 2.56893
1.30708 3.09158 2.5436
1.2945 3.10417 2.56894
1.28831 3.11035 2.54361
1.31615 3.08252 2.56893
1.2945 3.10417 2.56894
1.30708 3.09158 2.5436
1.28831 3.11035 2.39201
1.29441 3.10425 2.36679
1.30705 3.09161 2.392
1.30705 3.09161 2.392
1.29441 3.10425 2.36679
1.31607 3.08259 2.36678
1.32724 3.07142 2.59429
1.31615 3.08252 2.56893
1.33718 3.06148 2.56893
1.31615 3.08252 2.56893
1.32723 3.07143 2.5436
1.33718 3.06148 2.56893
1.49256 2.90611 2.54367
1.50289 2.89577 2.56901
1.48223 2.91643 2.569
1.48223 2.91643 2.569
1.50289 2.89577 2.56901
1.49257 2.90609 2.59437
1.49257 2.90609 2.59437
1.50289 2.89577 2.56901
1.51323 2.88543 2.59438
1.88521 2.51346 2.85
1.90602 2.49264 2.84998
1.8956 2.50306 2.87575
2.19127 2.20739 2.31656
2.19928 2.19938 2.29139
2.19928 2.19938 2.3417
2.19928 2.19938 2.39209
2.19132 2.20734 2.3669
2.19928 2.19938 2.3417
2.11618 2.28248 2.4931
2.09503 2.30363 2.49311
2.10562 2.29304 2.46785
2.17929 2.21937 2.49305
2.19132 2.20734 2.51833
2.16947 2.22919 2.51834
2.19928 2.19938 2.49304
2.19132 2.20734 2.51833
2.17929 2.21937 2.49305
2.16947 2.22919 2.51834
2.17929 2.21937 2.54363
2.15843 2.24024 2.54365
2.19131 2.20735 2.56895
2.17929 2.21937 2.54363
2.19928 2.19938 2.54362
2.19928 2.19938 2.54362
2.19928 2.19938 2.59429
2.19131 2.20735 2.56895
2.19131 2.20735 2.56895
2.19928 2.19938 2.59429
2.17928 2.21938 2.59431
2.1693 2.22936 2.26637
2.17913 2.21954 2.24132
2.19117 2.20749 2.26634
2.19127 2.20739 2.31656
2.19928 2.19938 2.3417
2.17927 2.21939 2.34174
2.17927 2.21939 2.34174
2.19928 2.19938 2.3417
2.19132 2.20734 2.3669
2.10553 2.29313 2.31661
2.09491 2.30375 2.29143
2.11605 2.28261 2.29143
2.1372 2.26147 2.29145
2.12662 2.27204 2.26626
2.14787 2.25079 2.26631
2.1372 2.26147 2.29145
2.11605 2.28261 2.29143
2.12662 2.27204 2.26626
2.16946 2.2292 2.36693
2.19132 2.20734 2.3669
2.17929 2.21937 2.39211
2.16946 2.2292 2.36693
2.17927 2.21939 2.34174
2.19132 2.20734 2.3669
2.16945 2.22921 2.67055
2.17928 2.21938 2.6451
2.19129 2.20737 2.67053
2.19129 2.20737 2.67053
2.17927 2.21939 2.69602
2.16945 2.22921 2.67055
2.15841 2.24025 2.64512
2.17928 2.21938 2.6451
2.16945 2.22921 2.67055
2.16944 2.22922 2.82405
2.14804 2.25062 2.82406
2.15841 2.24025 2.79837
2.14804 2.25063 2.77274
2.16944 2.22922 2.77272
2.15841 2.24025 2.79837
2.19128 2.20738 2.72153
2.17927 2.21939 2.69602
2.19928 2.19938 2.696
2.16944 2.22922 2.72156
2.17927 2.21939 2.69602
2.19128 2.20738 2.72153
1.93725 2.46141 2.92732
1.94766 2.451 2.95316
1.92679 2.47187 2.9532
2.05276 2.34591 2.79843
2.06331 2.33535 2.77279
2.07386 2.3248 2.79841
2.07386 2.3248 2.79841
2.06331 2.33535 2.77279
2.08443 2.31423 2.77278
2.15841 2.24026 2.74713
2.14804 2.25062 2.72158
2.16944 2.22922 2.72156
2.15841 2.24026 2.74713
2.16944 2.22922 2.77272
2.14804 2.25063 2.77274
2.04222 2.35644 2.77281
2.06331 2.33535 2.77279
2.05276 2.34591 2.79843
1.9897 2.40896 2.54374
1.96874 2.42992 2.54374
1.97921 2.41945 2.51844
1.93736 2.4613 2.51844
1.92692 2.47174 2.54375
1.91649 2.48217 2.51844
1.94781 2.45085 2.54375
1.92692 2.47174 2.54375
1.93736 2.4613 2.51844
1.92691 2.47175 2.44265
1.9478 2.45086 2.44265
1.93736 2.46131 2.46789
1.93736 2.46131 2.46789
1.91648 2.48218 2.46789
1.92691 2.47175 2.44265
1.92691 2.47175 2.44265
1.91648 2.48218 2.46789
1.90605 2.49261 2.44264
1.93736 2.46131 2.46789
1.9478 2.45086 2.44265
1.95826 2.4404 2.4679
1.96871 2.42995 2.39223
1.9792 2.41946 2.41744
1.95825 2.44041 2.41743
1.95825 2.44041 2.41743
1.94778 2.45088 2.39223
1.96871 2.42995 2.39223
1.8126 2.58607 2.56909
1.82295 2.57571 2.54375
1.83332 2.56534 2.56909
1.82295 2.57571 2.54375
1.84369 2.55497 2.54375
1.83332 2.56534 2.56909
1.92692 2.47174 2.49316
1.91648 2.48218 2.46789
1.93736 2.46131 2.46789
1.92692 2.47174 2.49316
1.93736 2.4613 2.51844
1.91649 2.48217 2.51844
1.91649 2.48217 2.51844
1.89565 2.50301 2.51844
1.90606 2.4926 2.49315
1.90606 2.4926 2.49315
1.92692 2.47174 2.49316
1.91649 2.48217 2.51844
1.91648 2.48218 2.46789
1.92692 2.47174 2.49316
1.90606 2.4926 2.49315
1.90605 2.49261 2.44264
1.88523 2.51343 2.44264
1.89563 2.50303 2.41741
1.88521 2.51345 2.39219
1.90603 2.49263 2.39221
1.89563 2.50303 2.41741
1.51322 2.88545 2.54368
1.50289 2.89577 2.56901
1.49256 2.90611 2.54367
1.49256 2.90611 2.54367
1.50288 2.89578 2.51836
1.51322 2.88545 2.54368
1.29442 3.10424 2.16487
1.28831 3.11035 2.19009
1.28831 3.11035 2.13942
1.28831 3.11035 2.09
1.29529 3.10337 2.11471
1.28831 3.11035 2.13942
1.307 3.09167 2.2407
1.28831 3.11035 2.24067
1.29431 3.10435 2.21542
1.28831 3.11035 2.24067
1.28831 3.11035 2.19009
1.29431 3.10435 2.21542
2.19928 2.19938 2.09
2.19217 2.20649 2.11575
2.18013 2.21854 2.09
1.28831 3.11035 2.34157
1.28831 3.11035 2.29114
1.29438 3.10428 2.31636
1.29438 3.10428 2.31636
1.30704 3.09162 2.34156
1.28831 3.11035 2.34157
1.30702 3.09164 2.29113
1.29438 3.10428 2.31636
1.28831 3.11035 2.29114
1.30702 3.09164 2.29113
1.31601 3.08265 2.26594
1.32714 3.07152 2.29116
1.31605 3.08262 2.31635
1.33709 3.06157 2.31637
1.32717 3.07149 2.34157
1.32717 3.07149 2.34157
1.30704 3.09162 2.34156
1.31605 3.08262 2.31635
1.32714 3.07152 2.29116
1.33709 3.06157 2.31637
1.31605 3.08262 2.31635
1.31605 3.08262 2.31635
1.30702 3.09164 2.29113
1.32714 3.07152 2.29116
1.30704 3.09162 2.34156
1.29438 3.10428 2.31636
1.31605 3.08262 2.31635
1.29438 3.10428 2.31636
1.30702 3.09164 2.29113
1.31605 3.08262 2.31635
1.29435 3.10432 2.26591
1.28831 3.11035 2.29114
1.28831 3.11035 2.24067
1.29435 3.10432 2.26591
1.28831 3.11035 2.24067
1.307 3.09167 2.2407
1.307 3.09167 2.2407
1.31601 3.08265 2.26594
1.29435 3.10432 2.26591
1.29435 3.10432 2.26591
1.30702 3.09164 2.29113
1.28831 3.11035 2.29114
1.31601 3.08265 2.26594
1.30702 3.09164 2.29113
1.29435 3.10432 2.26591
1.33717 3.06149 2.51829
1.32723 3.07143 2.5436
1.31613 3.08254 2.51829
1.32723 3.07143 2.5436
1.30708 3.09158 2.5436
1.31613 3.08254 2.51829
1.31613 3.08254 2.51829
1.32722 3.07145 2.493
1.33717 3.06149 2.51829
1.33711 3.06155 2.36679
1.32717 3.07149 2.34157
1.34771 3.05096 2.34159
1.31607 3.08259 2.36678
1.32717 3.07149 2.34157
1.33711 3.06155 2.36679
1.35794 3.04072 2.3668
1.33711 3.06155 2.36679
1.34771 3.05096 2.34159
1.34773 3.05094 2.39201
1.33711 3.06155 2.36679
1.35794 3.04072 2.3668
1.34773 3.05094 2.39201
1.35794 3.04072 2.3668
1.36839 3.03027 2.39202
1.50287 2.89579 2.4678
1.51321 2.88546 2.49307
1.49255 2.90612 2.49307
1.49255 2.90612 2.49307
1.51321 2.88546 2.49307
1.50288 2.89578 2.51836
1.42017 2.9785 2.51832
1.44086 2.9578 2.51833
1.43052 2.96814 2.54363
1.43051 2.96815 2.49304
1.44086 2.9578 2.51833
1.42017 2.9785 2.51832
1.44085 2.95782 2.46777
1.4305 2.96817 2.44252
1.45119 2.94748 2.44253
1.43051 2.96815 2.49304
1.42015 2.97851 2.46776
1.44085 2.95782 2.46777
1.44085 2.95782 2.46777
1.42015 2.97851 2.46776
1.4305 2.96817 2.44252
1.44087 2.95779 2.56898
1.46156 2.9371 2.56899
1.45123 2.94744 2.59434
1.3995 2.99917 2.6197
1.40985 2.98882 2.59432
1.4202 2.97846 2.61971
1.40983 2.98883 2.54362
1.42017 2.9785 2.51832
1.43052 2.96814 2.54363
1.39946 2.9992 2.51831
1.42017 2.9785 2.51832
1.40983 2.98883 2.54362
1.32724 3.07142 2.59429
1.33718 3.06148 2.56893
1.34779 3.05087 2.59429
1.33717 3.06149 2.51829
1.32722 3.07145 2.493
1.34776 3.0509 2.493
1.34776 3.0509 2.493
1.35799 3.04067 2.51829
1.33717 3.06149 2.51829
1.38911 3.00955 2.49301
1.39946 2.9992 2.51831
1.37874 3.01992 2.5183
1.34777 3.05089 2.5436
1.33718 3.06148 2.56893
1.32723 3.07143 2.5436
1.34777 3.05089 2.5436
[...]
<PointData Scalars="View Factor" >
<DataArray type="Float64" Name="View Factor" NumberOfComponents="1" format="ascii">
8.60937e-06
8.60937e-06
8.60937e-06
2.42332e-05
2.42332e-05
2.42332e-05
2.60459e-05
2.60459e-05
2.60459e-05
0.000125556
0.000125556
0.000125556
0.000126906
0.000126906
0.000126906
2.77654e-05
2.77654e-05
2.77654e-05
0.000156604
0.000156604
0.000156604
5.97338e-06
5.97338e-06
5.97338e-06
6.96991e-06
6.96991e-06
6.96991e-06
5.89401e-06
5.89401e-06
5.89401e-06
5.91317e-06
5.91317e-06
5.91317e-06
6.05449e-06
6.05449e-06
6.05449e-06
3.12199e-05
3.12199e-05
3.12199e-05
3.04082e-05
3.04082e-05
3.04082e-05
3.97536e-05
3.97536e-05
3.97536e-05
3.77143e-05
3.77143e-05
3.77143e-05
1.83759e-05
1.83759e-05
1.83759e-05
2.19405e-05
2.19405e-05
2.19405e-05
2.16096e-05
2.16096e-05
2.16096e-05
2.94192e-05
2.94192e-05
2.94192e-05
2.88485e-05
2.88485e-05
2.88485e-05
6.86178e-06
6.86178e-06
6.86178e-06
2.25786e-05
2.25786e-05
2.25786e-05
1.04287e-05
1.04287e-05
1.04287e-05
0.000168156
0.000168156
0.000168156
0.000152196
0.000152196
0.000152196
0.000154045
0.000154045
0.000154045
0.000156573
0.000156573
0.000156573
0.000155041
0.000155041
0.000155041
0.000147961
0.000147961
0.000147961
0.000144171
0.000144171
0.000144171
0.000146526
0.000146526
0.000146526
0.000145788
0.000145788
0.000145788
0.000145533
0.000145533
0.000145533
0.000147928
0.000147928
0.000147928
0.000146479
0.000146479
0.000146479
0.000155085
0.000155085
0.000155085
0.00015431
0.00015431
0.00015431
0.00014333
0.00014333
0.00014333
0.000144011
0.000144011
0.000144011
0.000117289
0.000117289
0.000117289
0.000116673
0.000116673
0.000116673
0.000112425
0.000112425
0.000112425
1.09584e-05
1.09584e-05
1.09584e-05
6.63304e-06
6.63304e-06
6.63304e-06
6.28428e-06
6.28428e-06
6.28428e-06
2.20093e-05
2.20093e-05
2.20093e-05
1.87529e-05
1.87529e-05
1.87529e-05
1.53794e-05
1.53794e-05
1.53794e-05
3.55471e-05
3.55471e-05
3.55471e-05
2.43372e-05
2.43372e-05
2.43372e-05
2.65266e-05
2.65266e-05
2.65266e-05
2.86217e-05
2.86217e-05
2.86217e-05
8.32257e-06
8.32257e-06
8.32257e-06
6.25747e-06
6.25747e-06
6.25747e-06
6.19877e-06
6.19877e-06
6.19877e-06
1.7151e-05
1.7151e-05
1.7151e-05
2.22169e-05
2.22169e-05
2.22169e-05
2.10201e-05
2.10201e-05
2.10201e-05
7.55381e-06
7.55381e-06
7.55381e-06
7.62325e-06
7.62325e-06
7.62325e-06
2.71107e-05
2.71107e-05
2.71107e-05
2.53835e-05
2.53835e-05
2.53835e-05
3.62631e-05
3.62631e-05
3.62631e-05
2.66466e-05
2.66466e-05
2.66466e-05
2.79424e-05
2.79424e-05
2.79424e-05
2.10524e-05
2.10524e-05
2.10524e-05
2.24357e-05
2.24357e-05
2.24357e-05
7.57595e-06
7.57595e-06
7.57595e-06
1.28249e-05
1.28249e-05
1.28249e-05
1.33002e-05
1.33002e-05
1.33002e-05
3.03075e-05
3.03075e-05
3.03075e-05
2.87001e-05
2.87001e-05
2.87001e-05
1.33148e-05
1.33148e-05
1.33148e-05
2.14687e-05
2.14687e-05
2.14687e-05
2.1354e-05
2.1354e-05
2.1354e-05
2.25746e-05
2.25746e-05
2.25746e-05
5.37091e-06
5.37091e-06
5.37091e-06
6.87901e-06
6.87901e-06
6.87901e-06
5.55307e-06
5.55307e-06
5.55307e-06
6.64859e-06
6.64859e-06
6.64859e-06
2.9894e-06
2.9894e-06
2.9894e-06
3.05792e-06
3.05792e-06
3.05792e-06
3.18145e-05
3.18145e-05
3.18145e-05
2.98022e-05
2.98022e-05
2.98022e-05
1.02489e-05
1.02489e-05
1.02489e-05
1.79513e-05
1.79513e-05
1.79513e-05
1.85582e-05
1.85582e-05
1.85582e-05
1.64131e-05
1.64131e-05
1.64131e-05
1.23451e-05
1.23451e-05
1.23451e-05
3.72154e-06
3.72154e-06
3.72154e-06
3.37322e-06
3.37322e-06
3.37322e-06
0.000113731
0.000113731
0.000113731
0.000114381
0.000114381
0.000114381
0.000165872
0.000165872
0.000165872
0.000168237
0.000168237
0.000168237
0.000161897
0.000161897
0.000161897
0.000163493
0.000163493
0.000163493
8.43246e-06
8.43246e-06
8.43246e-06
0.000158857
0.000158857
0.000158857
0.000157319
0.000157319
0.000157319
0.000158825
0.000158825
0.000158825
0.000157017
0.000157017
0.000157017
0.00015389
0.00015389
0.00015389
0.000154785
0.000154785
0.000154785
0.000154622
0.000154622
0.000154622
0.000156264
0.000156264
0.000156264
0.000156533
0.000156533
0.000156533
0.000157274
0.000157274
0.000157274
0.000161153
0.000161153
0.000161153
0.000161129
0.000161129
0.000161129
0.000159557
0.000159557
0.000159557
0.000159586
0.000159586
0.000159586
0.00015879
0.00015879
0.00015879
0.000145378
0.000145378
0.000145378
0.000146229
0.000146229
0.000146229
0.000146067
0.000146067
0.000146067
0.000151477
0.000151477
0.000151477
0.000152432
0.000152432
0.000152432
0.000149836
0.000149836
0.000149836
0.000149117
0.000149117
0.000149117
0.000147471
0.000147471
0.000147471
0.000116339
0.000116339
0.000116339
0.00011571
0.00011571
0.00011571
0.000131054
0.000131054
0.000131054
0.000131731
0.000131731
0.000131731
0.000132186
0.000132186
0.000132186
0.000133088
0.000133088
0.000133088
0.000133756
0.000133756
0.000133756
0.000125078
0.000125078
0.000125078
0.000131247
0.000131247
0.000131247
0.000132697
0.000132697
0.000132697
0.000134641
0.000134641
0.000134641
0.000141755
0.000141755
0.000141755
0.000145148
0.000145148
0.000145148
0.000143574
0.000143574
0.000143574
0.000138542
0.000138542
0.000138542
0.00014311
0.00014311
0.00014311
0.00014378
0.00014378
0.00014378
0.000142898
0.000142898
0.000142898
0.000128648
0.000128648
0.000128648
0.000132127
0.000132127
0.000132127
0.000126866
0.000126866
0.000126866
0.000119848
0.000119848
0.000119848
0.000121343
0.000121343
0.000121343
0.000122082
0.000122082
0.000122082
0.000118824
0.000118824
0.000118824
0.000122704
0.000122704
0.000122704
0.000120803
0.000120803
0.000120803
0.000118335
0.000118335
0.000118335
0.00011975
0.00011975
0.00011975
0.000117272
0.000117272
0.000117272
0.000119251
0.000119251
0.000119251
0.000127118
0.000127118
0.000127118
0.000123792
0.000123792
0.000123792
0.000104384
0.000104384
0.000104384
4.59186e-05
4.59186e-05
4.59186e-05
6.91785e-05
6.91785e-05
6.91785e-05
4.12884e-05
4.12884e-05
4.12884e-05
7.08285e-05
7.08285e-05
7.08285e-05
0.000114758
0.000114758
0.000114758
0.000111809
0.000111809
0.000111809
0.000115383
0.000115383
0.000115383
1.23234e-05
1.23234e-05
1.23234e-05
1.17471e-05
1.17471e-05
1.17471e-05
1.07623e-05
1.07623e-05
1.07623e-05
1.1304e-05
1.1304e-05
1.1304e-05
1.31275e-05
1.31275e-05
1.31275e-05
1.33949e-05
1.33949e-05
1.33949e-05
1.59827e-05
1.59827e-05
1.59827e-05
1.20268e-05
1.20268e-05
1.20268e-05
6.06141e-06
6.06141e-06
6.06141e-06
6.32631e-06
6.32631e-06
6.32631e-06
5.75682e-06
5.75682e-06
5.75682e-06
5.69776e-06
5.69776e-06
5.69776e-06
6.62972e-06
6.62972e-06
6.62972e-06
6.72836e-06
6.72836e-06
6.72836e-06
6.4628e-06
6.4628e-06
6.4628e-06
6.16736e-06
6.16736e-06
6.16736e-06
6.29572e-06
6.29572e-06
6.29572e-06
6.55654e-06
6.55654e-06
6.55654e-06
6.85845e-06
6.85845e-06
6.85845e-06
5.55484e-06
5.55484e-06
5.55484e-06
6.00824e-06
6.00824e-06
6.00824e-06
5.90725e-06
5.90725e-06
5.90725e-06
5.61048e-06
5.61048e-06
5.61048e-06
5.41188e-06
5.41188e-06
5.41188e-06
4.83729e-06
4.83729e-06
4.83729e-06
4.16128e-06
4.16128e-06
4.16128e-06
4.17134e-06
4.17134e-06
4.17134e-06
7.49449e-06
7.49449e-06
7.49449e-06
7.50075e-06
7.50075e-06
7.50075e-06
7.285e-06
7.285e-06
7.285e-06
3.83854e-05
3.83854e-05
3.83854e-05
3.7583e-05
3.7583e-05
3.7583e-05
3.86316e-05
3.86316e-05
3.86316e-05
3.74754e-05
3.74754e-05
3.74754e-05
3.14074e-06
3.14074e-06
3.14074e-06
3.04807e-06
3.04807e-06
3.04807e-06
3.20839e-06
3.20839e-06
3.20839e-06
2.00628e-05
2.00628e-05
2.00628e-05
1.86954e-05
1.86954e-05
1.86954e-05
1.20665e-05
1.20665e-05
1.20665e-05
1.22994e-05
1.22994e-05
1.22994e-05
9.19014e-06
9.19014e-06
9.19014e-06
7.15589e-06
7.15589e-06
7.15589e-06
9.71808e-06
9.71808e-06
9.71808e-06
3.74385e-05
3.74385e-05
3.74385e-05
3.83587e-05
3.83587e-05
3.83587e-05
3.9728e-05
3.9728e-05
3.9728e-05
3.72478e-05
3.72478e-05
3.72478e-05
3.86154e-05
3.86154e-05
3.86154e-05
3.721e-05
3.721e-05
3.721e-05
2.97261e-05
2.97261e-05
2.97261e-05
2.74336e-05
2.74336e-05
2.74336e-05
6.49337e-06
6.49337e-06
6.49337e-06
6.60722e-06
6.60722e-06
6.60722e-06
8.22256e-06
8.22256e-06
8.22256e-06
6.98066e-06
6.98066e-06
6.98066e-06
1.72547e-05
1.72547e-05
1.72547e-05
1.98574e-05
1.98574e-05
1.98574e-05
2.47239e-05
2.47239e-05
2.47239e-05
2.26465e-05
2.26465e-05
2.26465e-05
2.34918e-05
2.34918e-05
2.34918e-05
2.24995e-05
2.24995e-05
2.24995e-05
3.38139e-05
3.38139e-05
3.38139e-05
3.27557e-05
3.27557e-05
3.27557e-05
3.12695e-05
3.12695e-05
3.12695e-05
2.60479e-05
2.60479e-05
2.60479e-05
1.78049e-05
1.78049e-05
1.78049e-05
5.21636e-06
5.21636e-06
5.21636e-06
9.75993e-06
9.75993e-06
9.75993e-06
1.12901e-05
1.12901e-05
1.12901e-05
1.0613e-05
1.0613e-05
1.0613e-05
1.19912e-05
1.19912e-05
1.19912e-05
1.04805e-05
1.04805e-05
1.04805e-05
2.23439e-05
2.23439e-05
2.23439e-05
2.29982e-05
2.29982e-05
2.29982e-05
2.36425e-05
2.36425e-05
2.36425e-05
2.03387e-05
2.03387e-05
2.03387e-05
2.0618e-05
2.0618e-05
2.0618e-05
1.89729e-05
1.89729e-05
1.89729e-05
2.74821e-05
2.74821e-05
2.74821e-05
2.78702e-05
2.78702e-05
2.78702e-05
2.76258e-05
2.76258e-05
2.76258e-05
3.09083e-05
3.09083e-05
3.09083e-05
3.00369e-05
3.00369e-05
3.00369e-05
2.11426e-05
2.11426e-05
2.11426e-05
2.60454e-05
2.60454e-05
2.60454e-05
2.49414e-05
2.49414e-05
2.49414e-05
2.66931e-05
2.66931e-05
2.66931e-05
2.62968e-05
2.62968e-05
2.62968e-05
2.44526e-05
2.44526e-05
2.44526e-05
2.51217e-05
2.51217e-05
2.51217e-05
2.08996e-05
2.08996e-05
2.08996e-05
1.60602e-05
1.60602e-05
1.60602e-05
1.925e-05
1.925e-05
1.925e-05
1.50371e-05
1.50371e-05
1.50371e-05
2.33494e-05
2.33494e-05
2.33494e-05
2.2075e-05
2.2075e-05
2.2075e-05
2.54331e-05
2.54331e-05
2.54331e-05
3.38863e-05
3.38863e-05
3.38863e-05
3.28495e-05
3.28495e-05
3.28495e-05
2.90574e-05
2.90574e-05
2.90574e-05
2.71812e-05
2.71812e-05
2.71812e-05
2.4125e-05
2.4125e-05
2.4125e-05
2.2796e-05
2.2796e-05
2.2796e-05
2.80552e-05
2.80552e-05
2.80552e-05
2.48998e-05
2.48998e-05
2.48998e-05
3.15792e-05
3.15792e-05
3.15792e-05
3.16776e-05
3.16776e-05
3.16776e-05
3.18435e-05
3.18435e-05
3.18435e-05
3.18444e-05
3.18444e-05
3.18444e-05
3.28645e-05
3.28645e-05
3.28645e-05
3.26951e-05
3.26951e-05
3.26951e-05
2.06331e-05
2.06331e-05
2.06331e-05
2.17981e-05
2.17981e-05
2.17981e-05
2.00928e-05
2.00928e-05
2.00928e-05
1.68771e-05
1.68771e-05
1.68771e-05
2.14164e-05
2.14164e-05
2.14164e-05
3.01838e-05
3.01838e-05
3.01838e-05
2.19255e-05
2.19255e-05
2.19255e-05
3.60517e-06
3.60517e-06
3.60517e-06
3.26829e-06
3.26829e-06
3.26829e-06
3.24825e-06
3.24825e-06
3.24825e-06
3.25601e-06
3.25601e-06
3.25601e-06
3.16313e-06
3.16313e-06
3.16313e-06
3.15292e-06
3.15292e-06
3.15292e-06
3.14566e-06
3.14566e-06
3.14566e-06
3.48848e-06
3.48848e-06
3.48848e-06
3.04244e-06
3.04244e-06
3.04244e-06
3.0498e-06
3.0498e-06
3.0498e-06
9.62422e-06
9.62422e-06
9.62422e-06
1.12931e-05
1.12931e-05
1.12931e-05
2.92931e-05
2.92931e-05
2.92931e-05
2.46356e-05
2.46356e-05
2.46356e-05
3.98855e-05
3.98855e-05
3.98855e-05
4.10412e-05
4.10412e-05
4.10412e-05
2.85699e-05
2.85699e-05
2.85699e-05
3.11098e-05
3.11098e-05
3.11098e-05
3.59029e-05
3.59029e-05
3.59029e-05
3.77912e-05
3.77912e-05
3.77912e-05
3.68175e-05
3.68175e-05
3.68175e-05
3.2929e-05
3.2929e-05
3.2929e-05
3.19808e-05
3.19808e-05
3.19808e-05
3.37663e-05
3.37663e-05
3.37663e-05
2.64511e-05
2.64511e-05
2.64511e-05
1.85931e-05
1.85931e-05
1.85931e-05
2.09919e-05
2.09919e-05
2.09919e-05
2.49608e-05
2.49608e-05
2.49608e-05
3.47296e-05
3.47296e-05
3.47296e-05
3.45744e-05
3.45744e-05
3.45744e-05
1.91374e-05
1.91374e-05
1.91374e-05
3.06762e-05
3.06762e-05
3.06762e-05
2.72286e-05
2.72286e-05
2.72286e-05
1.39819e-05
1.39819e-05
1.39819e-05
3.4778e-06
3.4778e-06
3.4778e-06
3.35866e-06
3.35866e-06
3.35866e-06
3.35081e-06
3.35081e-06
3.35081e-06
1.69584e-05
1.69584e-05
1.69584e-05
1.91651e-05
1.91651e-05
1.91651e-05
1.31635e-05
1.31635e-05
1.31635e-05
1.75036e-05
1.75036e-05
1.75036e-05
0.000108728
0.000108728
0.000108728
0.000128486
0.000128486
0.000128486
0.000127824
0.000127824
0.000127824
0.00012962
0.00012962
0.00012962
0.000119708
0.000119708
0.000119708
0.00011381
0.00011381
0.00011381
0.000114478
0.000114478
0.000114478
0.000148885
0.000148885
0.000148885
0.000151266
0.000151266
0.000151266
0.000149596
0.000149596
0.000149596
0.000112402
0.000112402
0.000112402
0.000111756
0.000111756
0.000111756
3.00174e-05
3.00174e-05
3.00174e-05
3.18879e-05
3.18879e-05
3.18879e-05
3.59261e-05
3.59261e-05
3.59261e-05
3.8258e-05
3.8258e-05
3.8258e-05
4.18598e-05
4.18598e-05
4.18598e-05
4.15673e-05
4.15673e-05
4.15673e-05
2.13489e-05
2.13489e-05
2.13489e-05
9.22963e-06
9.22963e-06
9.22963e-06
2.81839e-05
2.81839e-05
2.81839e-05
6.03727e-06
6.03727e-06
6.03727e-06
1.87052e-05
1.87052e-05
1.87052e-05
1.88843e-05
1.88843e-05
1.88843e-05
3.90554e-06
3.90554e-06
3.90554e-06
4.22086e-06
4.22086e-06
4.22086e-06
0.000145885
0.000145885
0.000145885
0.000145848
0.000145848
0.000145848
0.000150069
0.000150069
0.000150069
0.000148618
0.000148618
0.000148618
0.000147871
0.000147871
0.000147871
0.000152212
0.000152212
0.000152212
0.000152177
0.000152177
0.000152177
0.000149723
0.000149723
0.000149723
0.000150691
0.000150691
0.000150691
0.000154356
0.000154356
0.000154356
0.000154389
0.000154389
0.000154389
0.000152894
0.000152894
0.000152894
0.000152849
0.000152849
0.000152849
0.000152126
0.000152126
0.000152126
0.00015043
0.00015043
0.00015043
0.000149558
0.000149558
0.000149558
0.000147715
0.000147715
0.000147715
0.00014678
0.00014678
0.00014678
0.000152591
0.000152591
0.000152591
0.000151705
0.000151705
0.000151705
0.000151867
0.000151867
0.000151867
0.000150276
0.000150276
0.000150276
0.000150035
0.000150035
0.000150035
0.000149332
0.000149332
0.000149332
0.000148153
0.000148153
0.000148153
0.00014745
0.00014745
0.00014745
0.000145835
0.000145835
0.000145835
0.000144941
0.000144941
0.000144941
0.000121761
0.000121761
0.000121761
0.00012424
0.00012424
0.00012424
0.000124867
0.000124867
0.000124867
0.000120113
0.000120113
0.000120113
0.000118446
0.000118446
0.000118446
0.000119031
0.000119031
0.000119031
0.000120338
0.000120338
0.000120338
0.000121298
0.000121298
0.000121298
0.000123028
0.000123028
0.000123028
0.000122441
0.000122441
0.000122441
0.000135327
0.000135327
0.000135327
0.000136711
0.000136711
0.000136711
0.000134057
0.000134057
0.000134057
0.000134744
0.000134744
0.000134744
0.000137471
0.000137471
0.000137471
0.000138146
0.000138146
0.000138146
0.000129747
0.000129747
0.000129747
0.000132032
0.000132032
0.000132032
0.000126877
0.000126877
0.000126877
0.000130021
0.000130021
0.000130021
0.000130682
0.000130682
0.000130682
0.000129068
0.000129068
0.000129068
0.000127756
0.000127756
0.000127756
0.000126229
0.000126229
0.000126229
0.000129299
0.000129299
0.000129299
0.000128089
0.000128089
0.000128089
0.000128716
0.000128716
0.000128716
0.000130598
0.000130598
0.000130598
0.000132124
0.000132124
0.000132124
0.000132591
0.000132591
0.000132591
0.00013148
0.00013148
0.00013148
0.000133431
0.000133431
0.000133431
0.000143341
0.000143341
0.000143341
0.000140179
0.000140179
0.000140179
0.000142662
0.000142662
0.000142662
0.000141089
0.000141089
0.000141089
0.000140889
0.000140889
0.000140889
0.000141561
0.000141561
0.000141561
0.00013911
0.00013911
0.00013911
0.00014066
0.00014066
0.00014066
0.000140429
0.000140429
0.000140429
0.000141325
0.000141325
0.000141325
0.000131933
0.000131933
0.000131933
0.000132955
0.000132955
0.000132955
0.000130138
0.000130138
0.000130138
0.000134588
0.000134588
0.000134588
0.000135459
0.000135459
0.000135459
0.000132323
0.000132323
0.000132323
0.000119205
0.000119205
0.000119205
0.000126774
0.000126774
0.000126774
0.000126155
0.000126155
0.000126155
0.000123966
0.000123966
0.000123966
0.000122454
0.000122454
0.000122454
0.000127939
0.000127939
0.000127939
0.000124566
0.000124566
0.000124566
0.000125527
0.000125527
0.000125527
0.000135951
0.000135951
0.000135951
0.000134638
0.000134638
0.000134638
0.000133957
0.000133957
0.000133957
0.000132119
0.000132119
0.000132119
0.000134042
0.000134042
0.000134042
0.000132749
0.000132749
0.000132749
0.000132084
0.000132084
0.000132084
0.000134013
0.000134013
0.000134013
0.000132705
0.000132705
0.000132705
0.000132477
0.000132477
0.000132477
0.000131851
0.000131851
0.000131851
0.00012573
0.00012573
0.00012573
0.000123973
0.000123973
0.000123973
0.000124602
0.000124602
0.000124602
0.000127005
0.000127005
0.000127005
0.000128841
0.000128841
0.000128841
0.000128194
0.000128194
0.000128194
0.000120897
0.000120897
0.000120897
0.000124955
0.000124955
0.000124955
0.000123177
0.000123177
0.000123177
0.000120332
0.000120332
0.000120332
3.29698e-05
3.29698e-05
3.29698e-05
3.71444e-05
3.71444e-05
3.71444e-05
3.52146e-05
3.52146e-05
3.52146e-05
9.09843e-05
9.09843e-05
9.09843e-05
7.71815e-05
7.71815e-05
7.71815e-05
7.7617e-05
7.7617e-05
7.7617e-05
9.84906e-05
9.84906e-05
9.84906e-05
9.04486e-05
9.04486e-05
9.04486e-05
0.000110568
0.000110568
0.000110568
0.000109974
0.000109974
0.000109974
9.96119e-05
9.96119e-05
9.96119e-05
0.000104989
0.000104989
0.000104989
0.000106724
0.000106724
0.000106724
0.000106138
0.000106138
0.000106138
9.19941e-05
9.19941e-05
9.19941e-05
0.000100148
0.000100148
0.000100148
1.09259e-05
1.09259e-05
1.09259e-05
1.02139e-05
1.02139e-05
1.02139e-05
1.06211e-05
1.06211e-05
1.06211e-05
1.10075e-05
1.10075e-05
1.10075e-05
1.198e-05
1.198e-05
1.198e-05
1.27609e-05
1.27609e-05
1.27609e-05
1.06965e-05
1.06965e-05
1.06965e-05
1.14145e-05
1.14145e-05
1.14145e-05
1.10963e-05
1.10963e-05
1.10963e-05
1.16351e-05
1.16351e-05
1.16351e-05
1.77273e-05
1.77273e-05
1.77273e-05
1.56383e-05
1.56383e-05
1.56383e-05
1.4624e-05
1.4624e-05
1.4624e-05
1.60894e-05
1.60894e-05
1.60894e-05
1.64507e-05
1.64507e-05
1.64507e-05
1.50458e-05
1.50458e-05
1.50458e-05
1.43638e-05
1.43638e-05
1.43638e-05
1.78881e-05
1.78881e-05
1.78881e-05
1.72225e-05
1.72225e-05
1.72225e-05
1.93341e-05
1.93341e-05
1.93341e-05
1.98409e-05
1.98409e-05
1.98409e-05
1.39559e-05
1.39559e-05
1.39559e-05
1.26354e-05
1.26354e-05
1.26354e-05
1.23939e-05
1.23939e-05
1.23939e-05
1.30152e-05
1.30152e-05
1.30152e-05
1.51875e-05
1.51875e-05
1.51875e-05
1.42025e-05
1.42025e-05
1.42025e-05
1.35478e-05
1.35478e-05
1.35478e-05
1.16585e-05
1.16585e-05
1.16585e-05
1.22691e-05
1.22691e-05
1.22691e-05
1.1887e-05
1.1887e-05
1.1887e-05
1.27307e-05
1.27307e-05
1.27307e-05
2.87718e-05
2.87718e-05
2.87718e-05
2.65191e-05
2.65191e-05
2.65191e-05
2.04241e-05
2.04241e-05
2.04241e-05
2.25805e-05
2.25805e-05
2.25805e-05
2.44076e-05
2.44076e-05
2.44076e-05
2.32164e-05
2.32164e-05
2.32164e-05
2.20467e-05
2.20467e-05
2.20467e-05
2.578e-05
2.578e-05
2.578e-05
2.51152e-05
2.51152e-05
2.51152e-05
1.87891e-05
1.87891e-05
1.87891e-05
1.97189e-05
1.97189e-05
1.97189e-05
9.78236e-06
9.78236e-06
9.78236e-06
6.52342e-06
6.52342e-06
6.52342e-06
6.89935e-06
6.89935e-06
6.89935e-06
7.54833e-06
7.54833e-06
7.54833e-06
7.21728e-06
7.21728e-06
7.21728e-06
9.92979e-06
9.92979e-06
9.92979e-06
9.78078e-06
9.78078e-06
9.78078e-06
0.000124885
0.000124885
0.000124885
0.000123333
0.000123333
0.000123333
6.80222e-06
6.80222e-06
6.80222e-06
1.13826e-05
1.13826e-05
1.13826e-05
3.92241e-05
3.92241e-05
3.92241e-05
1.27632e-05
1.27632e-05
1.27632e-05
8.51328e-05
8.51328e-05
8.51328e-05
2.45559e-05
2.45559e-05
2.45559e-05
1.78524e-05
1.78524e-05
1.78524e-05
1.34055e-05
1.34055e-05
1.34055e-05
1.36969e-05
1.36969e-05
1.36969e-05
1.52903e-05
1.52903e-05
1.52903e-05
1.45754e-05
1.45754e-05
1.45754e-05
1.06272e-05
1.06272e-05
1.06272e-05
7.76863e-06
7.76863e-06
7.76863e-06
7.17773e-06
7.17773e-06
7.17773e-06
7.3629e-06
7.3629e-06
7.3629e-06
7.03802e-06
7.03802e-06
7.03802e-06
1.13489e-05
1.13489e-05
1.13489e-05
1.25609e-05
1.25609e-05
1.25609e-05
1.21377e-05
1.21377e-05
1.21377e-05
1.05224e-05
1.05224e-05
1.05224e-05
1.03755e-05
1.03755e-05
1.03755e-05
1.07821e-05
1.07821e-05
1.07821e-05
1.11719e-05
1.11719e-05
1.11719e-05
1.2079e-05
1.2079e-05
1.2079e-05
1.1319e-05
1.1319e-05
1.1319e-05
4.69342e-06
4.69342e-06
4.69342e-06
4.87571e-06
4.87571e-06
4.87571e-06
5.75304e-06
5.75304e-06
5.75304e-06
5.26829e-06
5.26829e-06
5.26829e-06
5.46386e-06
5.46386e-06
5.46386e-06
4.98096e-06
4.98096e-06
4.98096e-06
5.02273e-06
5.02273e-06
5.02273e-06
5.28837e-06
5.28837e-06
5.28837e-06
5.53001e-06
5.53001e-06
5.53001e-06
4.28441e-06