<VTKFile type="UnstructuredGrid" version="1.0">
<UnstructuredGrid>
<Piece NumberOfPoints="10830" NumberOfCells="3610">
<Points>
<DataArray type="Float64" NumberOfComponents="3" format="ascii">
2.19217 2.20649 4.20575
2.19928 2.19938 4.18
2.19928 2.19938 4.23146
2.19928 2.19938 4.73508
2.19928 2.19938 4.786
2.19129 2.20737 4.76053
2.19928 2.19938 4.73508
2.19129 2.20737 4.76053
2.17928 2.21938 4.7351
1.30559 3.09307 5.20759
1.31816 3.0805 5.225
1.28831 3.11035 5.225
1.28831 3.11035 5.225
1.28831 3.11035 5.19484
1.30559 3.09307 5.20759
2.19928 2.19938 4.73508
2.17928 2.21938 4.7351
2.1913 2.20736 4.70968
1.29441 3.10425 4.45679
1.28831 3.11035 4.48201
1.28831 3.11035 4.43157
2.19132 2.20734 4.4569
2.19928 2.19938 4.48209
2.17929 2.21937 4.48211
2.19117 2.20749 4.35634
2.19928 2.19938 4.33128
2.19928 2.19938 4.38139
2.17929 2.21937 4.48211
2.19928 2.19938 4.48209
2.19133 2.20733 4.50731
2.19928 2.19938 4.48209
2.19928 2.19938 4.53254
2.19133 2.20733 4.50731
2.17929 2.21937 4.53255
2.19133 2.20733 4.50731
2.19928 2.19938 4.53254
2.17928 2.21938 4.68431
2.1913 2.20736 4.70968
2.16946 2.22921 4.7097
2.16946 2.22921 4.7097
2.1913 2.20736 4.70968
2.17928 2.21938 4.7351
2.16946 2.22921 4.7097
2.15842 2.24024 4.68432
2.17928 2.21938 4.68431
2.16946 2.22921 4.7097
2.17928 2.21938 4.7351
2.15841 2.24025 4.73512
2.19928 2.19938 4.58304
2.19928 2.19938 4.63362
2.19132 2.20734 4.60833
2.19132 2.20734 4.60833
2.17929 2.21937 4.63363
2.16947 2.22919 4.60834
2.19928 2.19938 4.63362
2.17929 2.21937 4.63363
2.19132 2.20734 4.60833
2.19928 2.19938 4.68429
2.1913 2.20736 4.70968
2.17928 2.21938 4.68431
2.19928 2.19938 4.73508
2.1913 2.20736 4.70968
2.19928 2.19938 4.68429
2.17913 2.21954 4.33132
2.19928 2.19938 4.33128
2.19117 2.20749 4.35634
2.17927 2.21939 4.78603
2.19129 2.20737 4.76053
2.19928 2.19938 4.786
1.8956 2.50306 4.96575
1.90602 2.49264 4.93998
1.91643 2.48223 4.96572
1.28831 3.11035 4.18
1.30792 3.09074 4.18
1.29529 3.10337 4.20471
1.34771 3.05096 4.43159
1.32717 3.07149 4.43157
1.33709 3.06157 4.40637
1.30704 3.09162 4.43156
1.32717 3.07149 4.43157
1.31607 3.08259 4.45678
1.30704 3.09162 4.43156
1.29441 3.10425 4.45679
1.28831 3.11035 4.43157
1.31607 3.08259 4.45678
1.29441 3.10425 4.45679
1.30704 3.09162 4.43156
1.2945 3.10417 4.65894
1.28831 3.11035 4.6843
1.28831 3.11035 4.63361
1.3071 3.09157 4.6843
1.31615 3.08252 4.65894
1.32724 3.07142 4.68429
1.28831 3.11035 4.6843
1.2945 3.10417 4.65894
1.3071 3.09157 4.6843
1.3071 3.09157 4.6843
1.2945 3.10417 4.65894
1.31615 3.08252 4.65894
1.30708 3.09158 4.6336
1.32723 3.07143 4.6336
1.31615 3.08252 4.65894
1.30708 3.09158 4.6336
1.2945 3.10417 4.65894
1.28831 3.11035 4.63361
1.31615 3.08252 4.65894
1.2945 3.10417 4.65894
1.30708 3.09158 4.6336
1.28831 3.11035 4.48201
1.29441 3.10425 4.45679
1.30705 3.09161 4.482
1.30705 3.09161 4.482
1.29441 3.10425 4.45679
1.31607 3.08259 4.45678
1.32724 3.07142 4.68429
1.31615 3.08252 4.65894
1.33718 3.06148 4.65893
1.31615 3.08252 4.65894
1.32723 3.07143 4.6336
1.33718 3.06148 4.65893
1.49256 2.90611 4.63367
1.50289 2.89577 4.65901
1.48223 2.91643 4.659
1.48223 2.91643 4.659
1.50289 2.89577 4.65901
1.49257 2.90609 4.68437
1.49257 2.90609 4.68437
1.50289 2.89577 4.65901
1.51323 2.88543 4.68438
1.88521 2.51346 4.94
1.90602 2.49264 4.93998
1.8956 2.50306 4.96575
2.19127 2.20739 4.40656
2.19928 2.19938 4.38139
2.19928 2.19938 4.4317
2.19928 2.19938 4.48209
2.19132 2.20734 4.4569
2.19928 2.19938 4.4317
2.11618 2.28248 4.5831
2.09503 2.30363 4.58311
2.10562 2.29304 4.55785
2.17929 2.21937 4.58305
2.19132 2.20734 4.60833
2.16947 2.22919 4.60834
2.19928 2.19938 4.58304
2.19132 2.20734 4.60833
2.17929 2.21937 4.58305
2.16947 2.22919 4.60834
2.17929 2.21937 4.63363
2.15843 2.24024 4.63365
2.19131 2.20735 4.65895
2.17929 2.21937 4.63363
2.19928 2.19938 4.63362
2.19928 2.19938 4.63362
2.19928 2.19938 4.68429
2.19131 2.20735 4.65895
2.19131 2.20735 4.65895
2.19928 2.19938 4.68429
2.17928 2.21938 4.68431
2.1693 2.22936 4.35637
2.17913 2.21954 4.33132
2.19117 2.20749 4.35634
2.19127 2.20739 4.40656
2.19928 2.19938 4.4317
2.17927 2.21939 4.43174
2.17927 2.21939 4.43174
2.19928 2.19938 4.4317
2.19132 2.20734 4.4569
2.10553 2.29313 4.40661
2.09491 2.30375 4.38143
2.11605 2.28261 4.38143
2.1372 2.26147 4.38145
2.12662 2.27204 4.35626
2.14787 2.25079 4.35631
2.1372 2.26147 4.38145
2.11605 2.28261 4.38143
2.12662 2.27204 4.35626
2.16946 2.2292 4.45693
2.19132 2.20734 4.4569
2.17929 2.21937 4.48211
2.16946 2.2292 4.45693
2.17927 2.21939 4.43174
2.19132 2.20734 4.4569
2.16945 2.22921 4.76055
2.17928 2.21938 4.7351
2.19129 2.20737 4.76053
2.19129 2.20737 4.76053
2.17927 2.21939 4.78603
2.16945 2.22921 4.76055
2.15841 2.24025 4.73512
2.17928 2.21938 4.7351
2.16945 2.22921 4.76055
2.16944 2.22922 4.91405
2.14804 2.25062 4.91406
2.15841 2.24025 4.88837
2.14804 2.25063 4.86274
2.16944 2.22922 4.86272
2.15841 2.24025 4.88837
2.19128 2.20738 4.81153
2.17927 2.21939 4.78603
2.19928 2.19938 4.786
2.16944 2.22922 4.81156
2.17927 2.21939 4.78603
2.19128 2.20738 4.81153
1.93725 2.46141 5.01732
1.94766 2.451 5.04316
1.92679 2.47187 5.0432
2.05276 2.34591 4.88843
2.06331 2.33535 4.86279
2.07386 2.3248 4.88841
2.07386 2.3248 4.88841
2.06331 2.33535 4.86279
2.08443 2.31423 4.86278
2.15841 2.24026 4.83713
2.14804 2.25062 4.81158
2.16944 2.22922 4.81156
2.15841 2.24026 4.83713
2.16944 2.22922 4.86272
2.14804 2.25063 4.86274
2.04222 2.35644 4.86281
2.06331 2.33535 4.86279
2.05276 2.34591 4.88843
1.9897 2.40896 4.63374
1.96874 2.42992 4.63374
1.97921 2.41945 4.60844
1.93736 2.4613 4.60844
1.92692 2.47174 4.63375
1.91649 2.48217 4.60844
1.94781 2.45085 4.63375
1.92692 2.47174 4.63375
1.93736 2.4613 4.60844
1.92691 2.47175 4.53265
1.9478 2.45086 4.53265
1.93736 2.46131 4.55789
1.93736 2.46131 4.55789
1.91648 2.48218 4.55789
1.92691 2.47175 4.53265
1.92691 2.47175 4.53265
1.91648 2.48218 4.55789
1.90605 2.49261 4.53264
1.93736 2.46131 4.55789
1.9478 2.45086 4.53265
1.95826 2.4404 4.5579
1.96871 2.42995 4.48223
1.9792 2.41946 4.50744
1.95825 2.44041 4.50743
1.95825 2.44041 4.50743
1.94778 2.45088 4.48223
1.96871 2.42995 4.48223
1.8126 2.58607 4.65909
1.82295 2.57571 4.63375
1.83332 2.56534 4.65909
1.82295 2.57571 4.63375
1.84369 2.55497 4.63375
1.83332 2.56534 4.65909
1.92692 2.47174 4.58316
1.91648 2.48218 4.55789
1.93736 2.46131 4.55789
1.92692 2.47174 4.58316
1.93736 2.4613 4.60844
1.91649 2.48217 4.60844
1.91649 2.48217 4.60844
1.89565 2.50301 4.60844
1.90606 2.4926 4.58315
1.90606 2.4926 4.58315
1.92692 2.47174 4.58316
1.91649 2.48217 4.60844
1.91648 2.48218 4.55789
1.92692 2.47174 4.58316
1.90606 2.4926 4.58315
1.90605 2.49261 4.53264
1.88523 2.51343 4.53264
1.89563 2.50303 4.50741
1.88521 2.51345 4.48219
1.90603 2.49263 4.48221
1.89563 2.50303 4.50741
1.51322 2.88545 4.63368
1.50289 2.89577 4.65901
1.49256 2.90611 4.63367
1.49256 2.90611 4.63367
1.50288 2.89578 4.60836
1.51322 2.88545 4.63368
1.29442 3.10424 4.25487
1.28831 3.11035 4.28009
1.28831 3.11035 4.22942
1.28831 3.11035 4.18
1.29529 3.10337 4.20471
1.28831 3.11035 4.22942
1.307 3.09167 4.3307
1.28831 3.11035 4.33067
1.29431 3.10435 4.30542
1.28831 3.11035 4.33067
1.28831 3.11035 4.28009
1.29431 3.10435 4.30542
2.19928 2.19938 4.18
2.19217 2.20649 4.20575
2.18013 2.21854 4.18
1.28831 3.11035 4.43157
1.28831 3.11035 4.38114
1.29438 3.10428 4.40636
1.29438 3.10428 4.40636
1.30704 3.09162 4.43156
1.28831 3.11035 4.43157
1.30702 3.09164 4.38113
1.29438 3.10428 4.40636
1.28831 3.11035 4.38114
1.30702 3.09164 4.38113
1.31601 3.08265 4.35594
1.32714 3.07152 4.38116
1.31605 3.08262 4.40635
1.33709 3.06157 4.40637
1.32717 3.07149 4.43157
1.32717 3.07149 4.43157
1.30704 3.09162 4.43156
1.31605 3.08262 4.40635
1.32714 3.07152 4.38116
1.33709 3.06157 4.40637
1.31605 3.08262 4.40635
1.31605 3.08262 4.40635
1.30702 3.09164 4.38113
1.32714 3.07152 4.38116
1.30704 3.09162 4.43156
1.29438 3.10428 4.40636
1.31605 3.08262 4.40635
1.29438 3.10428 4.40636
1.30702 3.09164 4.38113
1.31605 3.08262 4.40635
1.29435 3.10432 4.35591
1.28831 3.11035 4.38114
1.28831 3.11035 4.33067
1.29435 3.10432 4.35591
1.28831 3.11035 4.33067
1.307 3.09167 4.3307
1.307 3.09167 4.3307
1.31601 3.08265 4.35594
1.29435 3.10432 4.35591
1.29435 3.10432 4.35591
1.30702 3.09164 4.38113
1.28831 3.11035 4.38114
1.31601 3.08265 4.35594
1.30702 3.09164 4.38113
1.29435 3.10432 4.35591
1.33717 3.06149 4.60829
1.32723 3.07143 4.6336
1.31613 3.08254 4.60829
1.32723 3.07143 4.6336
1.30708 3.09158 4.6336
1.31613 3.08254 4.60829
1.31613 3.08254 4.60829
1.32722 3.07145 4.583
1.33717 3.06149 4.60829
1.33711 3.06155 4.45679
1.32717 3.07149 4.43157
1.34771 3.05096 4.43159
1.31607 3.08259 4.45678
1.32717 3.07149 4.43157
1.33711 3.06155 4.45679
1.35794 3.04072 4.4568
1.33711 3.06155 4.45679
1.34771 3.05096 4.43159
1.34773 3.05094 4.48201
1.33711 3.06155 4.45679
1.35794 3.04072 4.4568
1.34773 3.05094 4.48201
1.35794 3.04072 4.4568
1.36839 3.03027 4.48202
1.50287 2.89579 4.5578
1.51321 2.88546 4.58307
1.49255 2.90612 4.58307
1.49255 2.90612 4.58307
1.51321 2.88546 4.58307
1.50288 2.89578 4.60836
1.42017 2.9785 4.60832
1.44086 2.9578 4.60833
1.43052 2.96814 4.63363
1.43051 2.96815 4.58304
1.44086 2.9578 4.60833
1.42017 2.9785 4.60832
1.44085 2.95782 4.55777
1.4305 2.96817 4.53252
1.45119 2.94748 4.53253
1.43051 2.96815 4.58304
1.42015 2.97851 4.55776
1.44085 2.95782 4.55777
1.44085 2.95782 4.55777
1.42015 2.97851 4.55776
1.4305 2.96817 4.53252
1.44087 2.95779 4.65898
1.46156 2.9371 4.65899
1.45123 2.94744 4.68434
1.3995 2.99917 4.7097
1.40985 2.98882 4.68432
1.4202 2.97846 4.70971
1.40983 2.98883 4.63362
1.42017 2.9785 4.60832
1.43052 2.96814 4.63363
1.39946 2.9992 4.60831
1.42017 2.9785 4.60832
1.40983 2.98883 4.63362
1.32724 3.07142 4.68429
1.33718 3.06148 4.65893
1.34779 3.05087 4.68429
1.33717 3.06149 4.60829
1.32722 3.07145 4.583
1.34776 3.0509 4.583
1.34776 3.0509 4.583
1.35799 3.04067 4.60829
1.33717 3.06149 4.60829
1.38911 3.00955 4.58301
1.39946 2.9992 4.60831
1.37874 3.01992 4.6083
1.34777 3.05089 4.6336
1.33718 3.06148 4.65893
1.32723 3.07143 4.6336
1.34777 3.05089 4.6336
[...]
<PointData Scalars="View Factor" >
<DataArray type="Float64" Name="View Factor" NumberOfComponents="1" format="ascii">
5.59384e-06
5.59384e-06
5.59384e-06
1.58087e-05
1.58087e-05
1.58087e-05
1.5252e-05
1.5252e-05
1.5252e-05
7.42253e-05
7.42253e-05
7.42253e-05
7.49976e-05
7.49976e-05
7.49976e-05
1.42235e-05
1.42235e-05
1.42235e-05
9.01987e-05
9.01987e-05
9.01987e-05
3.73947e-06
3.73947e-06
3.73947e-06
4.41998e-06
4.41998e-06
4.41998e-06
3.67515e-06
3.67515e-06
3.67515e-06
3.74521e-06
3.74521e-06
3.74521e-06
3.55179e-06
3.55179e-06
3.55179e-06
1.3104e-05
1.3104e-05
1.3104e-05
1.45082e-05
1.45082e-05
1.45082e-05
1.98168e-05
1.98168e-05
1.98168e-05
2.15501e-05
2.15501e-05
2.15501e-05
4.15291e-06
4.15291e-06
4.15291e-06
5.32565e-06
5.32565e-06
5.32565e-06
5.02013e-06
5.02013e-06
5.02013e-06
1.14095e-05
1.14095e-05
1.14095e-05
1.2926e-05
1.2926e-05
1.2926e-05
4.34028e-06
4.34028e-06
4.34028e-06
1.57496e-05
1.57496e-05
1.57496e-05
7.6553e-06
7.6553e-06
7.6553e-06
9.59109e-05
9.59109e-05
9.59109e-05
8.73025e-05
8.73025e-05
8.73025e-05
8.86264e-05
8.86264e-05
8.86264e-05
9.01278e-05
9.01278e-05
9.01278e-05
8.92748e-05
8.92748e-05
8.92748e-05
8.5832e-05
8.5832e-05
8.5832e-05
8.36351e-05
8.36351e-05
8.36351e-05
8.50501e-05
8.50501e-05
8.50501e-05
8.45988e-05
8.45988e-05
8.45988e-05
8.43268e-05
8.43268e-05
8.43268e-05
8.57636e-05
8.57636e-05
8.57636e-05
8.49501e-05
8.49501e-05
8.49501e-05
8.93789e-05
8.93789e-05
8.93789e-05
8.89077e-05
8.89077e-05
8.89077e-05
8.30299e-05
8.30299e-05
8.30299e-05
8.33777e-05
8.33777e-05
8.33777e-05
6.66141e-05
6.66141e-05
6.66141e-05
6.63877e-05
6.63877e-05
6.63877e-05
6.50416e-05
6.50416e-05
6.50416e-05
8.02846e-06
8.02846e-06
8.02846e-06
4.16314e-06
4.16314e-06
4.16314e-06
3.93694e-06
3.93694e-06
3.93694e-06
8.7688e-06
8.7688e-06
8.7688e-06
4.56694e-06
4.56694e-06
4.56694e-06
3.52118e-06
3.52118e-06
3.52118e-06
1.53753e-05
1.53753e-05
1.53753e-05
6.44034e-06
6.44034e-06
6.44034e-06
8.18392e-06
8.18392e-06
8.18392e-06
9.78246e-06
9.78246e-06
9.78246e-06
5.16673e-06
5.16673e-06
5.16673e-06
3.9381e-06
3.9381e-06
3.9381e-06
3.86554e-06
3.86554e-06
3.86554e-06
9.45478e-06
9.45478e-06
9.45478e-06
1.27276e-05
1.27276e-05
1.27276e-05
1.19532e-05
1.19532e-05
1.19532e-05
4.52963e-06
4.52963e-06
4.52963e-06
4.59849e-06
4.59849e-06
4.59849e-06
1.65079e-05
1.65079e-05
1.65079e-05
1.67534e-05
1.67534e-05
1.67534e-05
2.21011e-05
2.21011e-05
2.21011e-05
1.69821e-05
1.69821e-05
1.69821e-05
1.79347e-05
1.79347e-05
1.79347e-05
1.52466e-05
1.52466e-05
1.52466e-05
1.57772e-05
1.57772e-05
1.57772e-05
5.52245e-06
5.52245e-06
5.52245e-06
9.39733e-06
9.39733e-06
9.39733e-06
9.74993e-06
9.74993e-06
9.74993e-06
1.96604e-05
1.96604e-05
1.96604e-05
1.84135e-05
1.84135e-05
1.84135e-05
9.75726e-06
9.75726e-06
9.75726e-06
3.80299e-06
3.80299e-06
3.80299e-06
3.25382e-06
3.25382e-06
3.25382e-06
4.04184e-06
4.04184e-06
4.04184e-06
1.52065e-06
1.52065e-06
1.52065e-06
1.49699e-06
1.49699e-06
1.49699e-06
1.57134e-06
1.57134e-06
1.57134e-06
1.4479e-06
1.4479e-06
1.4479e-06
1.59219e-06
1.59219e-06
1.59219e-06
1.62941e-06
1.62941e-06
1.62941e-06
8.27816e-06
8.27816e-06
8.27816e-06
6.92289e-06
6.92289e-06
6.92289e-06
1.45366e-06
1.45366e-06
1.45366e-06
2.03446e-06
2.03446e-06
2.03446e-06
2.10193e-06
2.10193e-06
2.10193e-06
1.69176e-06
1.69176e-06
1.69176e-06
1.44692e-06
1.44692e-06
1.44692e-06
1.65971e-06
1.65971e-06
1.65971e-06
1.79251e-06
1.79251e-06
1.79251e-06
6.55251e-05
6.55251e-05
6.55251e-05
6.57426e-05
6.57426e-05
6.57426e-05
9.48396e-05
9.48396e-05
9.48396e-05
9.60141e-05
9.60141e-05
9.60141e-05
9.27966e-05
9.27966e-05
9.27966e-05
9.36523e-05
9.36523e-05
9.36523e-05
5.44645e-06
5.44645e-06
5.44645e-06
9.13311e-05
9.13311e-05
9.13311e-05
9.05029e-05
9.05029e-05
9.05029e-05
9.12582e-05
9.12582e-05
9.12582e-05
9.0108e-05
9.0108e-05
9.0108e-05
8.83418e-05
8.83418e-05
8.83418e-05
8.8999e-05
8.8999e-05
8.8999e-05
8.87036e-05
8.87036e-05
8.87036e-05
8.97298e-05
8.97298e-05
8.97298e-05
9.00254e-05
9.00254e-05
9.00254e-05
9.0396e-05
9.0396e-05
9.0396e-05
9.24819e-05
9.24819e-05
9.24819e-05
9.24135e-05
9.24135e-05
9.24135e-05
9.15419e-05
9.15419e-05
9.15419e-05
9.16395e-05
9.16395e-05
9.16395e-05
9.11572e-05
9.11572e-05
9.11572e-05
8.40693e-05
8.40693e-05
8.40693e-05
8.46807e-05
8.46807e-05
8.46807e-05
8.44214e-05
8.44214e-05
8.44214e-05
8.69363e-05
8.69363e-05
8.69363e-05
8.76239e-05
8.76239e-05
8.76239e-05
8.59406e-05
8.59406e-05
8.59406e-05
8.55743e-05
8.55743e-05
8.55743e-05
8.46152e-05
8.46152e-05
8.46152e-05
6.62582e-05
6.62582e-05
6.62582e-05
6.61072e-05
6.61072e-05
6.61072e-05
7.52952e-05
7.52952e-05
7.52952e-05
7.56246e-05
7.56246e-05
7.56246e-05
7.56974e-05
7.56974e-05
7.56974e-05
7.62527e-05
7.62527e-05
7.62527e-05
7.65695e-05
7.65695e-05
7.65695e-05
7.20736e-05
7.20736e-05
7.20736e-05
7.55745e-05
7.55745e-05
7.55745e-05
7.6144e-05
7.6144e-05
7.6144e-05
7.71038e-05
7.71038e-05
7.71038e-05
8.20356e-05
8.20356e-05
8.20356e-05
8.37588e-05
8.37588e-05
8.37588e-05
8.27526e-05
8.27526e-05
8.27526e-05
7.93253e-05
7.93253e-05
7.93253e-05
8.2734e-05
8.2734e-05
8.2734e-05
8.30772e-05
8.30772e-05
8.30772e-05
8.24037e-05
8.24037e-05
8.24037e-05
7.436e-05
7.436e-05
7.436e-05
7.77278e-05
7.77278e-05
7.77278e-05
7.49376e-05
7.49376e-05
7.49376e-05
6.83781e-05
6.83781e-05
6.83781e-05
6.97437e-05
6.97437e-05
6.97437e-05
7.04412e-05
7.04412e-05
7.04412e-05
6.77857e-05
6.77857e-05
6.77857e-05
7.07384e-05
7.07384e-05
7.07384e-05
6.94354e-05
6.94354e-05
6.94354e-05
6.75028e-05
6.75028e-05
6.75028e-05
6.88412e-05
6.88412e-05
6.88412e-05
6.69466e-05
6.69466e-05
6.69466e-05
6.85522e-05
6.85522e-05
6.85522e-05
7.3419e-05
7.3419e-05
7.3419e-05
7.14497e-05
7.14497e-05
7.14497e-05
6.07881e-05
6.07881e-05
6.07881e-05
2.94114e-05
2.94114e-05
2.94114e-05
3.37365e-05
3.37365e-05
3.37365e-05
2.82464e-05
2.82464e-05
2.82464e-05
3.41958e-05
3.41958e-05
3.41958e-05
6.58066e-05
6.58066e-05
6.58066e-05
6.47867e-05
6.47867e-05
6.47867e-05
6.59998e-05
6.59998e-05
6.59998e-05
9.04087e-06
9.04087e-06
9.04087e-06
8.63091e-06
8.63091e-06
8.63091e-06
7.90043e-06
7.90043e-06
7.90043e-06
8.28184e-06
8.28184e-06
8.28184e-06
9.62721e-06
9.62721e-06
9.62721e-06
9.8152e-06
9.8152e-06
9.8152e-06
1.17163e-05
1.17163e-05
1.17163e-05
8.81911e-06
8.81911e-06
8.81911e-06
4.45368e-06
4.45368e-06
4.45368e-06
4.59001e-06
4.59001e-06
4.59001e-06
4.24317e-06
4.24317e-06
4.24317e-06
4.17602e-06
4.17602e-06
4.17602e-06
4.84558e-06
4.84558e-06
4.84558e-06
4.91266e-06
4.91266e-06
4.91266e-06
4.72323e-06
4.72323e-06
4.72323e-06
4.47434e-06
4.47434e-06
4.47434e-06
4.6008e-06
4.6008e-06
4.6008e-06
4.78688e-06
4.78688e-06
4.78688e-06
5.04506e-06
5.04506e-06
5.04506e-06
4.07096e-06
4.07096e-06
4.07096e-06
4.35859e-06
4.35859e-06
4.35859e-06
4.34008e-06
4.34008e-06
4.34008e-06
4.13499e-06
4.13499e-06
4.13499e-06
3.96589e-06
3.96589e-06
3.96589e-06
3.54396e-06
3.54396e-06
3.54396e-06
3.04561e-06
3.04561e-06
3.04561e-06
3.05524e-06
3.05524e-06
3.05524e-06
5.47914e-06
5.47914e-06
5.47914e-06
5.47427e-06
5.47427e-06
5.47427e-06
5.316e-06
5.316e-06
5.316e-06
1.86287e-05
1.86287e-05
1.86287e-05
2.06155e-05
2.06155e-05
2.06155e-05
1.97093e-05
1.97093e-05
1.97093e-05
1.86366e-05
1.86366e-05
1.86366e-05
1.68155e-06
1.68155e-06
1.68155e-06
1.62386e-06
1.62386e-06
1.62386e-06
1.70246e-06
1.70246e-06
1.70246e-06
3.38858e-06
3.38858e-06
3.38858e-06
2.74544e-06
2.74544e-06
2.74544e-06
3.39838e-06
3.39838e-06
3.39838e-06
4.24136e-06
4.24136e-06
4.24136e-06
3.58407e-06
3.58407e-06
3.58407e-06
3.50454e-06
3.50454e-06
3.50454e-06
4.27717e-06
4.27717e-06
4.27717e-06
1.64279e-05
1.64279e-05
1.64279e-05
1.75452e-05
1.75452e-05
1.75452e-05
1.88022e-05
1.88022e-05
1.88022e-05
1.64918e-05
1.64918e-05
1.64918e-05
1.76344e-05
1.76344e-05
1.76344e-05
1.64472e-05
1.64472e-05
1.64472e-05
9.88263e-06
9.88263e-06
9.88263e-06
8.20074e-06
8.20074e-06
8.20074e-06
4.08827e-06
4.08827e-06
4.08827e-06
4.1652e-06
4.1652e-06
4.1652e-06
5.05903e-06
5.05903e-06
5.05903e-06
4.43197e-06
4.43197e-06
4.43197e-06
9.49305e-06
9.49305e-06
9.49305e-06
1.11538e-05
1.11538e-05
1.11538e-05
1.4624e-05
1.4624e-05
1.4624e-05
1.30959e-05
1.30959e-05
1.30959e-05
1.37642e-05
1.37642e-05
1.37642e-05
1.30052e-05
1.30052e-05
1.30052e-05
2.18245e-05
2.18245e-05
2.18245e-05
2.12105e-05
2.12105e-05
2.12105e-05
2.03404e-05
2.03404e-05
2.03404e-05
1.65893e-05
1.65893e-05
1.65893e-05
1.14247e-05
1.14247e-05
1.14247e-05
3.83573e-06
3.83573e-06
3.83573e-06
7.17994e-06
7.17994e-06
7.17994e-06
8.27851e-06
8.27851e-06
8.27851e-06
7.7752e-06
7.7752e-06
7.7752e-06
8.76449e-06
8.76449e-06
8.76449e-06
7.68623e-06
7.68623e-06
7.68623e-06
1.42804e-05
1.42804e-05
1.42804e-05
1.46998e-05
1.46998e-05
1.46998e-05
5.35145e-06
5.35145e-06
5.35145e-06
3.47111e-06
3.47111e-06
3.47111e-06
3.55398e-06
3.55398e-06
3.55398e-06
2.80733e-06
2.80733e-06
2.80733e-06
1.11272e-05
1.11272e-05
1.11272e-05
1.04506e-05
1.04506e-05
1.04506e-05
1.12849e-05
1.12849e-05
1.12849e-05
1.98503e-05
1.98503e-05
1.98503e-05
1.92564e-05
1.92564e-05
1.92564e-05
1.49684e-05
1.49684e-05
1.49684e-05
1.65966e-05
1.65966e-05
1.65966e-05
1.58398e-05
1.58398e-05
1.58398e-05
1.70714e-05
1.70714e-05
1.70714e-05
1.68296e-05
1.68296e-05
1.68296e-05
1.55568e-05
1.55568e-05
1.55568e-05
1.60509e-05
1.60509e-05
1.60509e-05
3.63695e-06
3.63695e-06
3.63695e-06
1.85038e-06
1.85038e-06
1.85038e-06
2.86939e-06
2.86939e-06
2.86939e-06
1.56847e-06
1.56847e-06
1.56847e-06
4.17909e-06
4.17909e-06
4.17909e-06
3.3623e-06
3.3623e-06
3.3623e-06
5.91536e-06
5.91536e-06
5.91536e-06
1.30621e-05
1.30621e-05
1.30621e-05
1.3749e-05
1.3749e-05
1.3749e-05
7.56585e-06
7.56585e-06
7.56585e-06
6.31875e-06
6.31875e-06
6.31875e-06
4.31643e-06
4.31643e-06
4.31643e-06
3.47068e-06
3.47068e-06
3.47068e-06
6.5203e-06
6.5203e-06
6.5203e-06
4.45351e-06
4.45351e-06
4.45351e-06
9.64198e-06
9.64198e-06
9.64198e-06
1.04442e-05
1.04442e-05
1.04442e-05
1.22784e-05
1.22784e-05
1.22784e-05
1.33301e-05
1.33301e-05
1.33301e-05
1.26701e-05
1.26701e-05
1.26701e-05
1.07776e-05
1.07776e-05
1.07776e-05
3.14532e-06
3.14532e-06
3.14532e-06
3.89081e-06
3.89081e-06
3.89081e-06
3.05572e-06
3.05572e-06
3.05572e-06
1.92235e-06
1.92235e-06
1.92235e-06
1.57699e-05
1.57699e-05
1.57699e-05
1.49274e-05
1.49274e-05
1.49274e-05
1.61157e-05
1.61157e-05
1.61157e-05
1.60797e-06
1.60797e-06
1.60797e-06
1.73651e-06
1.73651e-06
1.73651e-06
1.66851e-06
1.66851e-06
1.66851e-06
1.73497e-06
1.73497e-06
1.73497e-06
1.68571e-06
1.68571e-06
1.68571e-06
1.67983e-06
1.67983e-06
1.67983e-06
1.61566e-06
1.61566e-06
1.61566e-06
1.55609e-06
1.55609e-06
1.55609e-06
1.56253e-06
1.56253e-06
1.56253e-06
1.62467e-06
1.62467e-06
1.62467e-06
1.37781e-06
1.37781e-06
1.37781e-06
1.34927e-06
1.34927e-06
1.34927e-06
4.44432e-06
4.44432e-06
4.44432e-06
2.77807e-06
2.77807e-06
2.77807e-06
1.66802e-05
1.66802e-05
1.66802e-05
1.58053e-05
1.58053e-05
1.58053e-05
4.33622e-06
4.33622e-06
4.33622e-06
5.53115e-06
5.53115e-06
5.53115e-06
1.9395e-05
1.9395e-05
1.9395e-05
1.86829e-05
1.86829e-05
1.86829e-05
1.98881e-05
1.98881e-05
1.98881e-05
2.06541e-05
2.06541e-05
2.06541e-05
2.1141e-05
2.1141e-05
2.1141e-05
2.1179e-05
2.1179e-05
2.1179e-05
4.71175e-06
4.71175e-06
4.71175e-06
1.91044e-06
1.91044e-06
1.91044e-06
2.37598e-06
2.37598e-06
2.37598e-06
3.79579e-06
3.79579e-06
3.79579e-06
1.14442e-05
1.14442e-05
1.14442e-05
1.05503e-05
1.05503e-05
1.05503e-05
1.96473e-06
1.96473e-06
1.96473e-06
7.1242e-06
7.1242e-06
7.1242e-06
4.8488e-06
4.8488e-06
4.8488e-06
1.63275e-06
1.63275e-06
1.63275e-06
1.84835e-06
1.84835e-06
1.84835e-06
1.78992e-06
1.78992e-06
1.78992e-06
1.72134e-06
1.72134e-06
1.72134e-06
1.7466e-06
1.7466e-06
1.7466e-06
2.17436e-06
2.17436e-06
2.17436e-06
1.53998e-06
1.53998e-06
1.53998e-06
1.80137e-06
1.80137e-06
1.80137e-06
6.26721e-05
6.26721e-05
6.26721e-05
7.35216e-05
7.35216e-05
7.35216e-05
7.32175e-05
7.32175e-05
7.32175e-05
7.42678e-05
7.42678e-05
7.42678e-05
6.70619e-05
6.70619e-05
6.70619e-05
6.53945e-05
6.53945e-05
6.53945e-05
6.56357e-05
6.56357e-05
6.56357e-05
8.53311e-05
8.53311e-05
8.53311e-05
8.66536e-05
8.66536e-05
8.66536e-05
8.56854e-05
8.56854e-05
8.56854e-05
6.48432e-05
6.48432e-05
6.48432e-05
6.45566e-05
6.45566e-05
6.45566e-05
4.55259e-06
4.55259e-06
4.55259e-06
5.66782e-06
5.66782e-06
5.66782e-06
8.33205e-06
8.33205e-06
8.33205e-06
9.94056e-06
9.94056e-06
9.94056e-06
1.37781e-05
1.37781e-05
1.37781e-05
1.26713e-05
1.26713e-05
1.26713e-05
1.1945e-05
1.1945e-05
1.1945e-05
6.59054e-06
6.59054e-06
6.59054e-06
1.6604e-05
1.6604e-05
1.6604e-05
3.31929e-06
3.31929e-06
3.31929e-06
1.02591e-05
1.02591e-05
1.02591e-05
1.0397e-05
1.0397e-05
1.0397e-05
2.08001e-06
2.08001e-06
2.08001e-06
2.25635e-06
2.25635e-06
2.25635e-06
8.47772e-05
8.47772e-05
8.47772e-05
8.47075e-05
8.47075e-05
8.47075e-05
8.69009e-05
8.69009e-05
8.69009e-05
8.61125e-05
8.61125e-05
8.61125e-05
8.56564e-05
8.56564e-05
8.56564e-05
8.79845e-05
8.79845e-05
8.79845e-05
8.79132e-05
8.79132e-05
8.79132e-05
8.64527e-05
8.64527e-05
8.64527e-05
8.70825e-05
8.70825e-05
8.70825e-05
8.90123e-05
8.90123e-05
8.90123e-05
8.90835e-05
8.90835e-05
8.90835e-05
8.82745e-05
8.82745e-05
8.82745e-05
8.81713e-05
8.81713e-05
8.81713e-05
8.78067e-05
8.78067e-05
8.78067e-05
8.68113e-05
8.68113e-05
8.68113e-05
8.61836e-05
8.61836e-05
8.61836e-05
8.48615e-05
8.48615e-05
8.48615e-05
8.42693e-05
8.42693e-05
8.42693e-05
8.79003e-05
8.79003e-05
8.79003e-05
8.72575e-05
8.72575e-05
8.72575e-05
8.7536e-05
8.7536e-05
8.7536e-05
8.65471e-05
8.65471e-05
8.65471e-05
8.62171e-05
8.62171e-05
8.62171e-05
8.58684e-05
8.58684e-05
8.58684e-05
8.54777e-05
8.54777e-05
8.54777e-05
8.51243e-05
8.51243e-05
8.51243e-05
8.41091e-05
8.41091e-05
8.41091e-05
8.34551e-05
8.34551e-05
8.34551e-05
6.95455e-05
6.95455e-05
6.95455e-05
7.12421e-05
7.12421e-05
7.12421e-05
7.15536e-05
7.15536e-05
7.15536e-05
6.78058e-05
6.78058e-05
6.78058e-05
6.70372e-05
6.70372e-05
6.70372e-05
6.72899e-05
6.72899e-05
6.72899e-05
6.86682e-05
6.86682e-05
6.86682e-05
6.92496e-05
6.92496e-05
6.92496e-05
7.06352e-05
7.06352e-05
7.06352e-05
7.03164e-05
7.03164e-05
7.03164e-05
7.74283e-05
7.74283e-05
7.74283e-05
7.80357e-05
7.80357e-05
7.80357e-05
7.67431e-05
7.67431e-05
7.67431e-05
7.70502e-05
7.70502e-05
7.70502e-05
7.85895e-05
7.85895e-05
7.85895e-05
7.89256e-05
7.89256e-05
7.89256e-05
7.46953e-05
7.46953e-05
7.46953e-05
7.58275e-05
7.58275e-05
7.58275e-05
7.31333e-05
7.31333e-05
7.31333e-05
7.4913e-05
7.4913e-05
7.4913e-05
7.52108e-05
7.52108e-05
7.52108e-05
7.43635e-05
7.43635e-05
7.43635e-05
7.37285e-05
7.37285e-05
7.37285e-05
7.28234e-05
7.28234e-05
7.28234e-05
7.46702e-05
7.46702e-05
7.46702e-05
7.40337e-05
7.40337e-05
7.40337e-05
7.43198e-05
7.43198e-05
7.43198e-05
7.52813e-05
7.52813e-05
7.52813e-05
7.60318e-05
7.60318e-05
7.60318e-05
7.63954e-05
7.63954e-05
7.63954e-05
7.57243e-05
7.57243e-05
7.57243e-05
7.66499e-05
7.66499e-05
7.66499e-05
8.25234e-05
8.25234e-05
8.25234e-05
8.03856e-05
8.03856e-05
8.03856e-05
8.21673e-05
8.21673e-05
8.21673e-05
8.11103e-05
8.11103e-05
8.11103e-05
8.13883e-05
8.13883e-05
8.13883e-05
8.17388e-05
8.17388e-05
8.17388e-05
8.0103e-05
8.0103e-05
8.0103e-05
8.11461e-05
8.11461e-05
8.11461e-05
8.07579e-05
8.07579e-05
8.07579e-05
8.14875e-05
8.14875e-05
8.14875e-05
7.60786e-05
7.60786e-05
7.60786e-05
7.67764e-05
7.67764e-05
7.67764e-05
7.51077e-05
7.51077e-05
7.51077e-05
7.77926e-05
7.77926e-05
7.77926e-05
7.84802e-05
7.84802e-05
7.84802e-05
7.64518e-05
7.64518e-05
7.64518e-05
6.89566e-05
6.89566e-05
6.89566e-05
7.33957e-05
7.33957e-05
7.33957e-05
7.30934e-05
7.30934e-05
7.30934e-05
7.18725e-05
7.18725e-05
7.18725e-05
7.09722e-05
7.09722e-05
7.09722e-05
7.55351e-05
7.55351e-05
7.55351e-05
7.35624e-05
7.35624e-05
7.35624e-05
7.41118e-05
7.41118e-05
7.41118e-05
7.96975e-05
7.96975e-05
7.96975e-05
7.89742e-05
7.89742e-05
7.89742e-05
7.85538e-05
7.85538e-05
7.85538e-05
7.76769e-05
7.76769e-05
7.76769e-05
7.87152e-05
7.87152e-05
7.87152e-05
7.8002e-05
7.8002e-05
7.8002e-05
7.75898e-05
7.75898e-05
7.75898e-05
7.86534e-05
7.86534e-05
7.86534e-05
7.79095e-05
7.79095e-05
7.79095e-05
7.76631e-05
7.76631e-05
7.76631e-05
7.73424e-05
7.73424e-05
7.73424e-05
7.23913e-05
7.23913e-05
7.23913e-05
7.13552e-05
7.13552e-05
7.13552e-05
7.16617e-05
7.16617e-05
7.16617e-05
7.29901e-05
7.29901e-05
7.29901e-05
7.40896e-05
7.40896e-05
7.40896e-05
7.37748e-05
7.37748e-05
7.37748e-05
6.98464e-05
6.98464e-05
6.98464e-05
7.22046e-05
7.22046e-05
7.22046e-05
7.11517e-05
7.11517e-05
7.11517e-05
6.95678e-05
6.95678e-05
6.95678e-05
2.39024e-05
2.39024e-05
2.39024e-05
2.32811e-05
2.32811e-05
2.32811e-05
2.32641e-05
2.32641e-05
2.32641e-05
5.30142e-05
5.30142e-05
5.30142e-05
4.50814e-05
4.50814e-05
4.50814e-05
4.53289e-05
4.53289e-05
4.53289e-05
5.7405e-05
5.7405e-05
5.7405e-05
5.274e-05
5.274e-05
5.274e-05
6.4234e-05
6.4234e-05
6.4234e-05
6.39524e-05
6.39524e-05
6.39524e-05
5.79835e-05
5.79835e-05
5.79835e-05
6.10974e-05
6.10974e-05
6.10974e-05
6.19856e-05
6.19856e-05
6.19856e-05
6.16727e-05
6.16727e-05
6.16727e-05
5.35198e-05
5.35198e-05
5.35198e-05
5.82541e-05
5.82541e-05
5.82541e-05
8.01e-06
8.01e-06
8.01e-06
7.52752e-06
7.52752e-06
7.52752e-06
7.78621e-06
7.78621e-06
7.78621e-06
8.09002e-06
8.09002e-06
8.09002e-06
8.78852e-06
8.78852e-06
8.78852e-06
9.35801e-06
9.35801e-06
9.35801e-06
7.86106e-06
7.86106e-06
7.86106e-06
8.38619e-06
8.38619e-06
8.38619e-06
8.14096e-06
8.14096e-06
8.14096e-06
8.53522e-06
8.53522e-06
8.53522e-06
1.28971e-05
1.28971e-05
1.28971e-05
1.14772e-05
1.14772e-05
1.14772e-05
1.0687e-05
1.0687e-05
1.0687e-05
1.18086e-05
1.18086e-05
1.18086e-05
1.20597e-05
1.20597e-05
1.20597e-05
1.09956e-05
1.09956e-05
1.09956e-05
1.04889e-05
1.04889e-05
1.04889e-05
1.3218e-05
1.3218e-05
1.3218e-05
1.25296e-05
1.25296e-05
1.25296e-05
1.42888e-05
1.42888e-05
1.42888e-05
1.46084e-05
1.46084e-05
1.46084e-05
1.01907e-05
1.01907e-05
1.01907e-05
9.258e-06
9.258e-06
9.258e-06
9.08862e-06
9.08862e-06
9.08862e-06
9.53665e-06
9.53665e-06
9.53665e-06
1.11461e-05
1.11461e-05
1.11461e-05
1.03787e-05
1.03787e-05
1.03787e-05
9.89239e-06
9.89239e-06
9.89239e-06
8.54886e-06
8.54886e-06
8.54886e-06
8.98998e-06
8.98998e-06
8.98998e-06
8.70987e-06
8.70987e-06
8.70987e-06
9.29537e-06
9.29537e-06
9.29537e-06
1.90208e-05
1.90208e-05
1.90208e-05
1.88115e-05
1.88115e-05
1.88115e-05
1.50379e-05
1.50379e-05
1.50379e-05
1.65972e-05
1.65972e-05
1.65972e-05
1.77107e-05
1.77107e-05
1.77107e-05
1.70786e-05
1.70786e-05
1.70786e-05
1.6234e-05
1.6234e-05
1.6234e-05
1.82873e-05
1.82873e-05
1.82873e-05
1.82241e-05
1.82241e-05
1.82241e-05
1.37934e-05
1.37934e-05
1.37934e-05
1.44596e-05
1.44596e-05
1.44596e-05
7.15609e-06
7.15609e-06
7.15609e-06
4.79432e-06
4.79432e-06
4.79432e-06
5.0379e-06
5.0379e-06
5.0379e-06
5.53098e-06
5.53098e-06
5.53098e-06
5.30975e-06
5.30975e-06
5.30975e-06
7.31779e-06
7.31779e-06
7.31779e-06
7.10494e-06
7.10494e-06
7.10494e-06
7.2489e-05
7.2489e-05
7.2489e-05
7.15549e-05
7.15549e-05
7.15549e-05
4.93654e-06
4.93654e-06
4.93654e-06
8.29233e-06
8.29233e-06
8.29233e-06
2.68544e-05
2.68544e-05
2.68544e-05
9.41193e-06
9.41193e-06
9.41193e-06
4.82402e-05
4.82402e-05
4.82402e-05
1.8089e-05
1.8089e-05
1.8089e-05
1.30885e-05
1.30885e-05
1.30885e-05
9.85193e-06
9.85193e-06
9.85193e-06
1.00505e-05
1.00505e-05
1.00505e-05
1.12066e-05
1.12066e-05
1.12066e-05
1.07119e-05
1.07119e-05
1.07119e-05
7.74009e-06
7.74009e-06
7.74009e-06
5.69037e-06
5.69037e-06
5.69037e-06
5.25867e-06
5.25867e-06
5.25867e-06
5.39472e-06
5.39472e-06
5.39472e-06
5.1775e-06
5.1775e-06
5.1775e-06
8.3659e-06
8.3659e-06
8.3659e-06
9.23402e-06
9.23402e-06
9.23402e-06
8.89273e-06
8.89273e-06
8.89273e-06
7.68338e-06
7.68338e-06
7.68338e-06
7.55616e-06
7.55616e-06
7.55616e-06
7.87354e-06
7.87354e-06
7.87354e-06
8.11783e-06
8.11783e-06
8.11783e-06
8.87515e-06
8.87515e-06
8.87515e-06
8.31926e-06
8.31926e-06
8.31926e-06
3.43837e-06
3.43837e-06
3.43837e-06
3.58983e-06
3.58983e-06
3.58983e-06
4.22647e-06
4.22647e-06
4.22647e-06
3.86042e-06
3.86042e-06
3.86042e-06
4.02665e-06
4.02665e-06
4.02665e-06
3.64943e-06
3.64943e-06
3.64943e-06
3.69829e-06
3.69829e-06
3.69829e-06
3.88437e-06
3.88437e-06
3.88437e-06
4.01088e-06
4.01088e-06
4.01088e-06
3.14905e-06
3.14905e-06