<VTKFile type="UnstructuredGrid" version="1.0">
<UnstructuredGrid>
<Piece NumberOfPoints="10830" NumberOfCells="3610">
<Points>
<DataArray type="Float64" NumberOfComponents="3" format="ascii">
2.19217 2.20649 7.34075
2.19928 2.19938 7.315
2.19928 2.19938 7.36646
2.19928 2.19938 7.87008
2.19928 2.19938 7.921
2.19129 2.20737 7.89553
2.19928 2.19938 7.87008
2.19129 2.20737 7.89553
2.17928 2.21938 7.8701
1.30559 3.09307 8.34259
1.31816 3.0805 8.36
1.28831 3.11035 8.36
1.28831 3.11035 8.36
1.28831 3.11035 8.32984
1.30559 3.09307 8.34259
2.19928 2.19938 7.87008
2.17928 2.21938 7.8701
2.1913 2.20736 7.84468
1.29441 3.10425 7.59179
1.28831 3.11035 7.61701
1.28831 3.11035 7.56657
2.19132 2.20734 7.5919
2.19928 2.19938 7.61709
2.17929 2.21937 7.61711
2.19117 2.20749 7.49134
2.19928 2.19938 7.46628
2.19928 2.19938 7.51639
2.17929 2.21937 7.61711
2.19928 2.19938 7.61709
2.19133 2.20733 7.64231
2.19928 2.19938 7.61709
2.19928 2.19938 7.66754
2.19133 2.20733 7.64231
2.17929 2.21937 7.66755
2.19133 2.20733 7.64231
2.19928 2.19938 7.66754
2.17928 2.21938 7.81931
2.1913 2.20736 7.84468
2.16946 2.22921 7.8447
2.16946 2.22921 7.8447
2.1913 2.20736 7.84468
2.17928 2.21938 7.8701
2.16946 2.22921 7.8447
2.15842 2.24024 7.81932
2.17928 2.21938 7.81931
2.16946 2.22921 7.8447
2.17928 2.21938 7.8701
2.15841 2.24025 7.87012
2.19928 2.19938 7.71804
2.19928 2.19938 7.76862
2.19132 2.20734 7.74333
2.19132 2.20734 7.74333
2.17929 2.21937 7.76863
2.16947 2.22919 7.74334
2.19928 2.19938 7.76862
2.17929 2.21937 7.76863
2.19132 2.20734 7.74333
2.19928 2.19938 7.81929
2.1913 2.20736 7.84468
2.17928 2.21938 7.81931
2.19928 2.19938 7.87008
2.1913 2.20736 7.84468
2.19928 2.19938 7.81929
2.17913 2.21954 7.46632
2.19928 2.19938 7.46628
2.19117 2.20749 7.49134
2.17927 2.21939 7.92102
2.19129 2.20737 7.89553
2.19928 2.19938 7.921
1.8956 2.50306 8.10075
1.90602 2.49264 8.07498
1.91643 2.48223 8.10072
1.28831 3.11035 7.315
1.30792 3.09074 7.315
1.29529 3.10337 7.3397
1.34771 3.05096 7.56659
1.32717 3.07149 7.56657
1.33709 3.06157 7.54137
1.30704 3.09162 7.56656
1.32717 3.07149 7.56657
1.31607 3.08259 7.59178
1.30704 3.09162 7.56656
1.29441 3.10425 7.59179
1.28831 3.11035 7.56657
1.31607 3.08259 7.59178
1.29441 3.10425 7.59179
1.30704 3.09162 7.56656
1.2945 3.10417 7.79394
1.28831 3.11035 7.8193
1.28831 3.11035 7.76861
1.3071 3.09157 7.8193
1.31615 3.08252 7.79393
1.32724 3.07142 7.81929
1.28831 3.11035 7.8193
1.2945 3.10417 7.79394
1.3071 3.09157 7.8193
1.3071 3.09157 7.8193
1.2945 3.10417 7.79394
1.31615 3.08252 7.79393
1.30708 3.09158 7.7686
1.32723 3.07143 7.7686
1.31615 3.08252 7.79393
1.30708 3.09158 7.7686
1.2945 3.10417 7.79394
1.28831 3.11035 7.76861
1.31615 3.08252 7.79393
1.2945 3.10417 7.79394
1.30708 3.09158 7.7686
1.28831 3.11035 7.61701
1.29441 3.10425 7.59179
1.30705 3.09161 7.617
1.30705 3.09161 7.617
1.29441 3.10425 7.59179
1.31607 3.08259 7.59178
1.32724 3.07142 7.81929
1.31615 3.08252 7.79393
1.33718 3.06148 7.79393
1.31615 3.08252 7.79393
1.32723 3.07143 7.7686
1.33718 3.06148 7.79393
1.49256 2.90611 7.76867
1.50289 2.89577 7.79401
1.48223 2.91643 7.794
1.48223 2.91643 7.794
1.50289 2.89577 7.79401
1.49257 2.90609 7.81937
1.49257 2.90609 7.81937
1.50289 2.89577 7.79401
1.51323 2.88543 7.81939
1.88521 2.51346 8.075
1.90602 2.49264 8.07498
1.8956 2.50306 8.10075
2.19127 2.20739 7.54156
2.19928 2.19938 7.51639
2.19928 2.19938 7.5667
2.19928 2.19938 7.61709
2.19132 2.20734 7.5919
2.19928 2.19938 7.5667
2.11618 2.28248 7.7181
2.09503 2.30363 7.71811
2.10562 2.29304 7.69285
2.17929 2.21937 7.71805
2.19132 2.20734 7.74333
2.16947 2.22919 7.74334
2.19928 2.19938 7.71804
2.19132 2.20734 7.74333
2.17929 2.21937 7.71805
2.16947 2.22919 7.74334
2.17929 2.21937 7.76863
2.15843 2.24024 7.76865
2.19131 2.20735 7.79395
2.17929 2.21937 7.76863
2.19928 2.19938 7.76862
2.19928 2.19938 7.76862
2.19928 2.19938 7.81929
2.19131 2.20735 7.79395
2.19131 2.20735 7.79395
2.19928 2.19938 7.81929
2.17928 2.21938 7.81931
2.1693 2.22936 7.49137
2.17913 2.21954 7.46632
2.19117 2.20749 7.49134
2.19127 2.20739 7.54156
2.19928 2.19938 7.5667
2.17927 2.21939 7.56674
2.17927 2.21939 7.56674
2.19928 2.19938 7.5667
2.19132 2.20734 7.5919
2.10553 2.29313 7.54161
2.09491 2.30375 7.51643
2.11605 2.28261 7.51643
2.1372 2.26147 7.51645
2.12662 2.27204 7.49126
2.14787 2.25079 7.49131
2.1372 2.26147 7.51645
2.11605 2.28261 7.51643
2.12662 2.27204 7.49126
2.16946 2.2292 7.59193
2.19132 2.20734 7.5919
2.17929 2.21937 7.61711
2.16946 2.2292 7.59193
2.17927 2.21939 7.56674
2.19132 2.20734 7.5919
2.16945 2.22921 7.89555
2.17928 2.21938 7.8701
2.19129 2.20737 7.89553
2.19129 2.20737 7.89553
2.17927 2.21939 7.92102
2.16945 2.22921 7.89555
2.15841 2.24025 7.87012
2.17928 2.21938 7.8701
2.16945 2.22921 7.89555
2.16944 2.22922 8.04906
2.14804 2.25062 8.04906
2.15841 2.24025 8.02337
2.14804 2.25063 7.99774
2.16944 2.22922 7.99772
2.15841 2.24025 8.02337
2.19128 2.20738 7.94653
2.17927 2.21939 7.92102
2.19928 2.19938 7.921
2.16944 2.22922 7.94656
2.17927 2.21939 7.92102
2.19128 2.20738 7.94653
1.93725 2.46141 8.15232
1.94766 2.451 8.17816
1.92679 2.47187 8.17819
2.05276 2.34591 8.02343
2.06331 2.33535 7.99779
2.07386 2.3248 8.02341
2.07386 2.3248 8.02341
2.06331 2.33535 7.99779
2.08443 2.31423 7.99778
2.15841 2.24026 7.97213
2.14804 2.25062 7.94658
2.16944 2.22922 7.94656
2.15841 2.24026 7.97213
2.16944 2.22922 7.99772
2.14804 2.25063 7.99774
2.04222 2.35644 7.99781
2.06331 2.33535 7.99779
2.05276 2.34591 8.02343
1.9897 2.40896 7.76874
1.96874 2.42992 7.76874
1.97921 2.41945 7.74344
1.93736 2.4613 7.74344
1.92692 2.47174 7.76875
1.91649 2.48217 7.74344
1.94781 2.45085 7.76875
1.92692 2.47174 7.76875
1.93736 2.4613 7.74344
1.92691 2.47175 7.66765
1.9478 2.45086 7.66765
1.93736 2.46131 7.69289
1.93736 2.46131 7.69289
1.91648 2.48218 7.69289
1.92691 2.47175 7.66765
1.92691 2.47175 7.66765
1.91648 2.48218 7.69289
1.90605 2.49261 7.66764
1.93736 2.46131 7.69289
1.9478 2.45086 7.66765
1.95826 2.4404 7.6929
1.96871 2.42995 7.61723
1.9792 2.41946 7.64244
1.95825 2.44041 7.64243
1.95825 2.44041 7.64243
1.94778 2.45088 7.61723
1.96871 2.42995 7.61723
1.8126 2.58607 7.79409
1.82295 2.57571 7.76875
1.83332 2.56534 7.79409
1.82295 2.57571 7.76875
1.84369 2.55497 7.76875
1.83332 2.56534 7.79409
1.92692 2.47174 7.71816
1.91648 2.48218 7.69289
1.93736 2.46131 7.69289
1.92692 2.47174 7.71816
1.93736 2.4613 7.74344
1.91649 2.48217 7.74344
1.91649 2.48217 7.74344
1.89565 2.50301 7.74344
1.90606 2.4926 7.71815
1.90606 2.4926 7.71815
1.92692 2.47174 7.71816
1.91649 2.48217 7.74344
1.91648 2.48218 7.69289
1.92692 2.47174 7.71816
1.90606 2.4926 7.71815
1.90605 2.49261 7.66764
1.88523 2.51343 7.66764
1.89563 2.50303 7.64241
1.88521 2.51345 7.61719
1.90603 2.49263 7.61721
1.89563 2.50303 7.64241
1.51322 2.88545 7.76868
1.50289 2.89577 7.79401
1.49256 2.90611 7.76867
1.49256 2.90611 7.76867
1.50288 2.89578 7.74336
1.51322 2.88545 7.76868
1.29442 3.10424 7.38987
1.28831 3.11035 7.41509
1.28831 3.11035 7.36442
1.28831 3.11035 7.315
1.29529 3.10337 7.3397
1.28831 3.11035 7.36442
1.307 3.09167 7.4657
1.28831 3.11035 7.46567
1.29431 3.10435 7.44042
1.28831 3.11035 7.46567
1.28831 3.11035 7.41509
1.29431 3.10435 7.44042
2.19928 2.19938 7.315
2.19217 2.20649 7.34075
2.18013 2.21854 7.315
1.28831 3.11035 7.56657
1.28831 3.11035 7.51614
1.29438 3.10428 7.54136
1.29438 3.10428 7.54136
1.30704 3.09162 7.56656
1.28831 3.11035 7.56657
1.30702 3.09164 7.51613
1.29438 3.10428 7.54136
1.28831 3.11035 7.51614
1.30702 3.09164 7.51613
1.31601 3.08265 7.49094
1.32714 3.07152 7.51616
1.31605 3.08262 7.54135
1.33709 3.06157 7.54137
1.32717 3.07149 7.56657
1.32717 3.07149 7.56657
1.30704 3.09162 7.56656
1.31605 3.08262 7.54135
1.32714 3.07152 7.51616
1.33709 3.06157 7.54137
1.31605 3.08262 7.54135
1.31605 3.08262 7.54135
1.30702 3.09164 7.51613
1.32714 3.07152 7.51616
1.30704 3.09162 7.56656
1.29438 3.10428 7.54136
1.31605 3.08262 7.54135
1.29438 3.10428 7.54136
1.30702 3.09164 7.51613
1.31605 3.08262 7.54135
1.29435 3.10432 7.49091
1.28831 3.11035 7.51614
1.28831 3.11035 7.46567
1.29435 3.10432 7.49091
1.28831 3.11035 7.46567
1.307 3.09167 7.4657
1.307 3.09167 7.4657
1.31601 3.08265 7.49094
1.29435 3.10432 7.49091
1.29435 3.10432 7.49091
1.30702 3.09164 7.51613
1.28831 3.11035 7.51614
1.31601 3.08265 7.49094
1.30702 3.09164 7.51613
1.29435 3.10432 7.49091
1.33717 3.06149 7.74329
1.32723 3.07143 7.7686
1.31613 3.08254 7.74329
1.32723 3.07143 7.7686
1.30708 3.09158 7.7686
1.31613 3.08254 7.74329
1.31613 3.08254 7.74329
1.32722 3.07145 7.718
1.33717 3.06149 7.74329
1.33711 3.06155 7.59179
1.32717 3.07149 7.56657
1.34771 3.05096 7.56659
1.31607 3.08259 7.59178
1.32717 3.07149 7.56657
1.33711 3.06155 7.59179
1.35794 3.04072 7.5918
1.33711 3.06155 7.59179
1.34771 3.05096 7.56659
1.34773 3.05094 7.61701
1.33711 3.06155 7.59179
1.35794 3.04072 7.5918
1.34773 3.05094 7.61701
1.35794 3.04072 7.5918
1.36839 3.03027 7.61702
1.50287 2.89579 7.6928
1.51321 2.88546 7.71807
1.49255 2.90612 7.71807
1.49255 2.90612 7.71807
1.51321 2.88546 7.71807
1.50288 2.89578 7.74336
1.42017 2.9785 7.74332
1.44086 2.9578 7.74333
1.43052 2.96814 7.76863
1.43051 2.96815 7.71804
1.44086 2.9578 7.74333
1.42017 2.9785 7.74332
1.44085 2.95782 7.69277
1.4305 2.96817 7.66752
1.45119 2.94748 7.66753
1.43051 2.96815 7.71804
1.42015 2.97851 7.69276
1.44085 2.95782 7.69277
1.44085 2.95782 7.69277
1.42015 2.97851 7.69276
1.4305 2.96817 7.66752
1.44087 2.95779 7.79398
1.46156 2.9371 7.79399
1.45123 2.94744 7.81934
1.3995 2.99917 7.8447
1.40985 2.98882 7.81932
1.4202 2.97846 7.84471
1.40983 2.98883 7.76862
1.42017 2.9785 7.74332
1.43052 2.96814 7.76863
1.39946 2.9992 7.74331
1.42017 2.9785 7.74332
1.40983 2.98883 7.76862
1.32724 3.07142 7.81929
1.33718 3.06148 7.79393
1.34779 3.05087 7.81929
1.33717 3.06149 7.74329
1.32722 3.07145 7.718
1.34776 3.0509 7.718
1.34776 3.0509 7.718
1.35799 3.04067 7.74329
1.33717 3.06149 7.74329
1.38911 3.00955 7.71801
1.39946 2.9992 7.74331
1.37874 3.01992 7.7433
1.34777 3.05089 7.7686
1.33718 3.06148 7.79393
1.32723 3.07143 7.7686
[...]
<PointData Scalars="View Factor" >
<DataArray type="Float64" Name="View Factor" NumberOfComponents="1" format="ascii">
1.63407e-06
1.63407e-06
1.63407e-06
7.19691e-07
7.19691e-07
7.19691e-07
7.26514e-07
7.26514e-07
7.26514e-07
1.26585e-05
1.26585e-05
1.26585e-05
1.27792e-05
1.27792e-05
1.27792e-05
7.38519e-07
7.38519e-07
7.38519e-07
1.43968e-05
1.43968e-05
1.43968e-05
9.97405e-07
9.97405e-07
9.97405e-07
1.23179e-06
1.23179e-06
1.23179e-06
9.74618e-07
9.74618e-07
9.74618e-07
9.8111e-07
9.8111e-07
9.8111e-07
9.29789e-07
9.29789e-07
9.29789e-07
9.2646e-07
9.2646e-07
9.2646e-07
9.15253e-07
9.15253e-07
9.15253e-07
2.37132e-06
2.37132e-06
2.37132e-06
2.34349e-06
2.34349e-06
2.34349e-06
8.66155e-07
8.66155e-07
8.66155e-07
1.00431e-06
1.00431e-06
1.00431e-06
8.20352e-07
8.20352e-07
8.20352e-07
7.64064e-07
7.64064e-07
7.64064e-07
7.64116e-07
7.64116e-07
7.64116e-07
1.22653e-06
1.22653e-06
1.22653e-06
7.02279e-07
7.02279e-07
7.02279e-07
9.69248e-07
9.69248e-07
9.69248e-07
1.49381e-05
1.49381e-05
1.49381e-05
1.38908e-05
1.38908e-05
1.38908e-05
1.41239e-05
1.41239e-05
1.41239e-05
1.43643e-05
1.43643e-05
1.43643e-05
1.42394e-05
1.42394e-05
1.42394e-05
1.39491e-05
1.39491e-05
1.39491e-05
1.36131e-05
1.36131e-05
1.36131e-05
1.38426e-05
1.38426e-05
1.38426e-05
1.37597e-05
1.37597e-05
1.37597e-05
1.36852e-05
1.36852e-05
1.36852e-05
1.3918e-05
1.3918e-05
1.3918e-05
1.37964e-05
1.37964e-05
1.37964e-05
1.42878e-05
1.42878e-05
1.42878e-05
1.42026e-05
1.42026e-05
1.42026e-05
1.35058e-05
1.35058e-05
1.35058e-05
1.35423e-05
1.35423e-05
1.35423e-05
1.09159e-05
1.09159e-05
1.09159e-05
1.08959e-05
1.08959e-05
1.08959e-05
1.0549e-05
1.0549e-05
1.0549e-05
8.62892e-07
8.62892e-07
8.62892e-07
1.13778e-06
1.13778e-06
1.13778e-06
1.05238e-06
1.05238e-06
1.05238e-06
1.67707e-06
1.67707e-06
1.67707e-06
1.02257e-06
1.02257e-06
1.02257e-06
8.55986e-07
8.55986e-07
8.55986e-07
2.42673e-06
2.42673e-06
2.42673e-06
8.06534e-07
8.06534e-07
8.06534e-07
8.12248e-07
8.12248e-07
8.12248e-07
7.76506e-07
7.76506e-07
7.76506e-07
1.40585e-06
1.40585e-06
1.40585e-06
1.07307e-06
1.07307e-06
1.07307e-06
1.0459e-06
1.0459e-06
1.0459e-06
1.91285e-06
1.91285e-06
1.91285e-06
2.40177e-06
2.40177e-06
2.40177e-06
2.28555e-06
2.28555e-06
2.28555e-06
1.18959e-06
1.18959e-06
1.18959e-06
1.22133e-06
1.22133e-06
1.22133e-06
8.86913e-07
8.86913e-07
8.86913e-07
8.73698e-07
8.73698e-07
8.73698e-07
2.32908e-06
2.32908e-06
2.32908e-06
2.1415e-06
2.1415e-06
2.1415e-06
2.12037e-06
2.12037e-06
2.12037e-06
6.89799e-07
6.89799e-07
6.89799e-07
8.51208e-07
8.51208e-07
8.51208e-07
1.78545e-06
1.78545e-06
1.78545e-06
3.28484e-07
3.28484e-07
3.28484e-07
3.32731e-07
3.32731e-07
3.32731e-07
2.15541e-06
2.15541e-06
2.15541e-06
2.13329e-06
2.13329e-06
2.13329e-06
3.32063e-07
3.32063e-07
3.32063e-07
5.05051e-07
5.05051e-07
5.05051e-07
5.43876e-07
5.43876e-07
5.43876e-07
5.24131e-07
5.24131e-07
5.24131e-07
6.19658e-07
6.19658e-07
6.19658e-07
6.19616e-07
6.19616e-07
6.19616e-07
6.4036e-07
6.4036e-07
6.4036e-07
5.99259e-07
5.99259e-07
5.99259e-07
6.50335e-07
6.50335e-07
6.50335e-07
6.58497e-07
6.58497e-07
6.58497e-07
5.95057e-07
5.95057e-07
5.95057e-07
5.97015e-07
5.97015e-07
5.97015e-07
6.02061e-07
6.02061e-07
6.02061e-07
5.6239e-07
5.6239e-07
5.6239e-07
5.80902e-07
5.80902e-07
5.80902e-07
5.81964e-07
5.81964e-07
5.81964e-07
5.98879e-07
5.98879e-07
5.98879e-07
6.79674e-07
6.79674e-07
6.79674e-07
7.26824e-07
7.26824e-07
7.26824e-07
1.06136e-05
1.06136e-05
1.06136e-05
1.06434e-05
1.06434e-05
1.06434e-05
1.48618e-05
1.48618e-05
1.48618e-05
1.49766e-05
1.49766e-05
1.49766e-05
1.4632e-05
1.4632e-05
1.4632e-05
1.4744e-05
1.4744e-05
1.4744e-05
1.6437e-06
1.6437e-06
1.6437e-06
1.45113e-05
1.45113e-05
1.45113e-05
1.44021e-05
1.44021e-05
1.44021e-05
1.4478e-05
1.4478e-05
1.4478e-05
1.42738e-05
1.42738e-05
1.42738e-05
1.40466e-05
1.40466e-05
1.40466e-05
1.4162e-05
1.4162e-05
1.4162e-05
1.40817e-05
1.40817e-05
1.40817e-05
1.42354e-05
1.42354e-05
1.42354e-05
1.4316e-05
1.4316e-05
1.4316e-05
1.43526e-05
1.43526e-05
1.43526e-05
1.4627e-05
1.4627e-05
1.4627e-05
1.45945e-05
1.45945e-05
1.45945e-05
1.44686e-05
1.44686e-05
1.44686e-05
1.45162e-05
1.45162e-05
1.45162e-05
1.44296e-05
1.44296e-05
1.44296e-05
1.36152e-05
1.36152e-05
1.36152e-05
1.37233e-05
1.37233e-05
1.37233e-05
1.36505e-05
1.36505e-05
1.36505e-05
1.38547e-05
1.38547e-05
1.38547e-05
1.39743e-05
1.39743e-05
1.39743e-05
1.3701e-05
1.3701e-05
1.3701e-05
1.36635e-05
1.36635e-05
1.36635e-05
1.35205e-05
1.35205e-05
1.35205e-05
1.0742e-05
1.0742e-05
1.0742e-05
1.0712e-05
1.0712e-05
1.0712e-05
1.21752e-05
1.21752e-05
1.21752e-05
1.22086e-05
1.22086e-05
1.22086e-05
1.216e-05
1.216e-05
1.216e-05
1.22733e-05
1.22733e-05
1.22733e-05
1.23008e-05
1.23008e-05
1.23008e-05
1.17588e-05
1.17588e-05
1.17588e-05
1.23333e-05
1.23333e-05
1.23333e-05
1.234e-05
1.234e-05
1.234e-05
1.25037e-05
1.25037e-05
1.25037e-05
1.33517e-05
1.33517e-05
1.33517e-05
1.35353e-05
1.35353e-05
1.35353e-05
1.33825e-05
1.33825e-05
1.33825e-05
1.28465e-05
1.28465e-05
1.28465e-05
1.34272e-05
1.34272e-05
1.34272e-05
1.34627e-05
1.34627e-05
1.34627e-05
1.33468e-05
1.33468e-05
1.33468e-05
1.21992e-05
1.21992e-05
1.21992e-05
1.30904e-05
1.30904e-05
1.30904e-05
1.27531e-05
1.27531e-05
1.27531e-05
1.114e-05
1.114e-05
1.114e-05
1.13651e-05
1.13651e-05
1.13651e-05
1.15212e-05
1.15212e-05
1.15212e-05
1.10787e-05
1.10787e-05
1.10787e-05
1.15526e-05
1.15526e-05
1.15526e-05
1.13351e-05
1.13351e-05
1.13351e-05
1.10491e-05
1.10491e-05
1.10491e-05
1.12731e-05
1.12731e-05
1.12731e-05
1.09913e-05
1.09913e-05
1.09913e-05
1.12388e-05
1.12388e-05
1.12388e-05
1.19862e-05
1.19862e-05
1.19862e-05
1.16929e-05
1.16929e-05
1.16929e-05
9.94105e-06
9.94105e-06
9.94105e-06
2.10566e-06
2.10566e-06
2.10566e-06
5.95055e-06
5.95055e-06
5.95055e-06
2.06352e-06
2.06352e-06
2.06352e-06
5.91504e-06
5.91504e-06
5.91504e-06
1.0817e-05
1.0817e-05
1.0817e-05
1.05203e-05
1.05203e-05
1.05203e-05
1.08448e-05
1.08448e-05
1.08448e-05
9.74357e-07
9.74357e-07
9.74357e-07
1.09486e-06
1.09486e-06
1.09486e-06
1.00206e-06
1.00206e-06
1.00206e-06
8.92333e-07
8.92333e-07
8.92333e-07
7.3723e-07
7.3723e-07
7.3723e-07
6.22472e-07
6.22472e-07
6.22472e-07
3.97303e-07
3.97303e-07
3.97303e-07
6.75889e-07
6.75889e-07
6.75889e-07
1.84437e-06
1.84437e-06
1.84437e-06
1.91177e-06
1.91177e-06
1.91177e-06
1.7573e-06
1.7573e-06
1.7573e-06
1.73897e-06
1.73897e-06
1.73897e-06
2.00772e-06
2.00772e-06
2.00772e-06
2.03243e-06
2.03243e-06
2.03243e-06
1.95694e-06
1.95694e-06
1.95694e-06
1.86351e-06
1.86351e-06
1.86351e-06
1.90615e-06
1.90615e-06
1.90615e-06
1.98032e-06
1.98032e-06
1.98032e-06
2.08277e-06
2.08277e-06
2.08277e-06
1.69514e-06
1.69514e-06
1.69514e-06
1.81523e-06
1.81523e-06
1.81523e-06
1.79636e-06
1.79636e-06
1.79636e-06
1.71242e-06
1.71242e-06
1.71242e-06
1.65132e-06
1.65132e-06
1.65132e-06
1.47547e-06
1.47547e-06
1.47547e-06
1.26888e-06
1.26888e-06
1.26888e-06
1.27212e-06
1.27212e-06
1.27212e-06
1.60874e-06
1.60874e-06
1.60874e-06
1.58292e-06
1.58292e-06
1.58292e-06
1.67433e-06
1.67433e-06
1.67433e-06
2.13449e-06
2.13449e-06
2.13449e-06
2.23221e-06
2.23221e-06
2.23221e-06
2.24435e-06
2.24435e-06
2.24435e-06
2.01705e-06
2.01705e-06
2.01705e-06
6.79194e-07
6.79194e-07
6.79194e-07
6.5642e-07
6.5642e-07
6.5642e-07
6.93231e-07
6.93231e-07
6.93231e-07
5.05275e-07
5.05275e-07
5.05275e-07
5.14838e-07
5.14838e-07
5.14838e-07
8.71456e-07
8.71456e-07
8.71456e-07
1.0612e-06
1.0612e-06
1.0612e-06
9.17697e-07
9.17697e-07
9.17697e-07
9.11364e-07
9.11364e-07
9.11364e-07
1.08082e-06
1.08082e-06
1.08082e-06
2.04759e-06
2.04759e-06
2.04759e-06
2.1465e-06
2.1465e-06
2.1465e-06
2.38345e-06
2.38345e-06
2.38345e-06
2.41317e-06
2.41317e-06
2.41317e-06
2.27518e-06
2.27518e-06
2.27518e-06
2.28922e-06
2.28922e-06
2.28922e-06
9.56897e-07
9.56897e-07
9.56897e-07
9.71516e-07
9.71516e-07
9.71516e-07
1.13132e-06
1.13132e-06
1.13132e-06
1.16194e-06
1.16194e-06
1.16194e-06
1.37319e-06
1.37319e-06
1.37319e-06
1.26149e-06
1.26149e-06
1.26149e-06
1.93341e-06
1.93341e-06
1.93341e-06
2.17059e-06
2.17059e-06
2.17059e-06
2.63458e-06
2.63458e-06
2.63458e-06
2.4214e-06
2.4214e-06
2.4214e-06
2.51412e-06
2.51412e-06
2.51412e-06
2.39888e-06
2.39888e-06
2.39888e-06
2.30406e-06
2.30406e-06
2.30406e-06
2.292e-06
2.292e-06
2.292e-06
2.16896e-06
2.16896e-06
2.16896e-06
2.21936e-06
2.21936e-06
2.21936e-06
2.20709e-06
2.20709e-06
2.20709e-06
1.5829e-06
1.5829e-06
1.5829e-06
1.19307e-06
1.19307e-06
1.19307e-06
6.30243e-07
6.30243e-07
6.30243e-07
8.36773e-07
8.36773e-07
8.36773e-07
3.42608e-07
3.42608e-07
3.42608e-07
5.36213e-07
5.36213e-07
5.36213e-07
1.784e-06
1.784e-06
1.784e-06
1.69567e-06
1.69567e-06
1.69567e-06
4.92825e-07
4.92825e-07
4.92825e-07
5.05166e-07
5.05166e-07
5.05166e-07
5.05132e-07
5.05132e-07
5.05132e-07
5.1492e-07
5.1492e-07
5.1492e-07
4.40703e-07
4.40703e-07
4.40703e-07
4.51396e-07
4.51396e-07
4.51396e-07
4.40635e-07
4.40635e-07
4.40635e-07
2.26631e-06
2.26631e-06
2.26631e-06
2.25559e-06
2.25559e-06
2.25559e-06
8.38488e-07
8.38488e-07
8.38488e-07
2.00781e-06
2.00781e-06
2.00781e-06
1.92074e-06
1.92074e-06
1.92074e-06
1.99807e-06
1.99807e-06
1.99807e-06
1.89648e-06
1.89648e-06
1.89648e-06
1.79617e-06
1.79617e-06
1.79617e-06
1.78537e-06
1.78537e-06
1.78537e-06
5.0511e-07
5.0511e-07
5.0511e-07
5.32779e-07
5.32779e-07
5.32779e-07
5.15046e-07
5.15046e-07
5.15046e-07
5.42703e-07
5.42703e-07
5.42703e-07
5.41578e-07
5.41578e-07
5.41578e-07
5.61705e-07
5.61705e-07
5.61705e-07
5.11791e-07
5.11791e-07
5.11791e-07
5.31957e-07
5.31957e-07
5.31957e-07
5.10615e-07
5.10615e-07
5.10615e-07
5.44961e-07
5.44961e-07
5.44961e-07
5.45985e-07
5.45985e-07
5.45985e-07
5.59047e-07
5.59047e-07
5.59047e-07
5.79505e-07
5.79505e-07
5.79505e-07
5.63038e-07
5.63038e-07
5.63038e-07
5.76436e-07
5.76436e-07
5.76436e-07
5.32334e-07
5.32334e-07
5.32334e-07
5.10764e-07
5.10764e-07
5.10764e-07
5.00761e-07
5.00761e-07
5.00761e-07
4.95397e-07
4.95397e-07
4.95397e-07
5.16345e-07
5.16345e-07
5.16345e-07
5.26696e-07
5.26696e-07
5.26696e-07
5.26035e-07
5.26035e-07
5.26035e-07
5.06555e-07
5.06555e-07
5.06555e-07
5.15422e-07
5.15422e-07
5.15422e-07
5.33134e-07
5.33134e-07
5.33134e-07
4.46425e-07
4.46425e-07
4.46425e-07
4.83552e-07
4.83552e-07
4.83552e-07
4.43419e-07
4.43419e-07
4.43419e-07
6.5844e-07
6.5844e-07
6.5844e-07
7.04071e-07
7.04071e-07
7.04071e-07
6.82656e-07
6.82656e-07
6.82656e-07
7.08785e-07
7.08785e-07
7.08785e-07
6.81283e-07
6.81283e-07
6.81283e-07
6.86208e-07
6.86208e-07
6.86208e-07
6.6099e-07
6.6099e-07
6.6099e-07
6.37151e-07
6.37151e-07
6.37151e-07
6.39213e-07
6.39213e-07
6.39213e-07
6.63636e-07
6.63636e-07
6.63636e-07
5.70566e-07
5.70566e-07
5.70566e-07
5.58261e-07
5.58261e-07
5.58261e-07
7.38911e-07
7.38911e-07
7.38911e-07
7.64284e-07
7.64284e-07
7.64284e-07
6.16573e-07
6.16573e-07
6.16573e-07
6.40683e-07
6.40683e-07
6.40683e-07
7.21256e-07
7.21256e-07
7.21256e-07
7.15269e-07
7.15269e-07
7.15269e-07
5.85373e-07
5.85373e-07
5.85373e-07
6.01738e-07
6.01738e-07
6.01738e-07
5.99871e-07
5.99871e-07
5.99871e-07
5.63714e-07
5.63714e-07
5.63714e-07
5.64072e-07
5.64072e-07
5.64072e-07
5.77675e-07
5.77675e-07
5.77675e-07
6.11266e-07
6.11266e-07
6.11266e-07
6.56969e-07
6.56969e-07
6.56969e-07
6.54468e-07
6.54468e-07
6.54468e-07
6.32872e-07
6.32872e-07
6.32872e-07
5.58491e-07
5.58491e-07
5.58491e-07
5.81264e-07
5.81264e-07
5.81264e-07
6.75584e-07
6.75584e-07
6.75584e-07
6.13983e-07
6.13983e-07
6.13983e-07
6.2876e-07
6.2876e-07
6.2876e-07
6.76033e-07
6.76033e-07
6.76033e-07
7.49524e-07
7.49524e-07
7.49524e-07
7.31289e-07
7.31289e-07
7.31289e-07
7.04327e-07
7.04327e-07
7.04327e-07
6.00778e-07
6.00778e-07
6.00778e-07
5.99387e-07
5.99387e-07
5.99387e-07
6.37499e-07
6.37499e-07
6.37499e-07
6.19565e-07
6.19565e-07
6.19565e-07
9.89948e-06
9.89948e-06
9.89948e-06
1.18388e-05
1.18388e-05
1.18388e-05
1.18055e-05
1.18055e-05
1.18055e-05
1.19809e-05
1.19809e-05
1.19809e-05
1.08941e-05
1.08941e-05
1.08941e-05
1.04008e-05
1.04008e-05
1.04008e-05
1.04339e-05
1.04339e-05
1.04339e-05
1.35912e-05
1.35912e-05
1.35912e-05
1.37712e-05
1.37712e-05
1.37712e-05
1.36265e-05
1.36265e-05
1.36265e-05
1.03388e-05
1.03388e-05
1.03388e-05
1.03092e-05
1.03092e-05
1.03092e-05
7.56607e-07
7.56607e-07
7.56607e-07
7.32584e-07
7.32584e-07
7.32584e-07
7.15443e-07
7.15443e-07
7.15443e-07
7.11388e-07
7.11388e-07
7.11388e-07
6.69313e-07
6.69313e-07
6.69313e-07
6.94974e-07
6.94974e-07
6.94974e-07
2.48318e-06
2.48318e-06
2.48318e-06
1.74657e-06
1.74657e-06
1.74657e-06
3.12452e-06
3.12452e-06
3.12452e-06
1.3177e-06
1.3177e-06
1.3177e-06
2.19116e-06
2.19116e-06
2.19116e-06
2.23346e-06
2.23346e-06
2.23346e-06
8.42791e-07
8.42791e-07
8.42791e-07
9.07682e-07
9.07682e-07
9.07682e-07
1.38395e-05
1.38395e-05
1.38395e-05
1.38081e-05
1.38081e-05
1.38081e-05
1.40596e-05
1.40596e-05
1.40596e-05
1.39532e-05
1.39532e-05
1.39532e-05
1.38697e-05
1.38697e-05
1.38697e-05
1.41711e-05
1.41711e-05
1.41711e-05
1.41388e-05
1.41388e-05
1.41388e-05
1.39049e-05
1.39049e-05
1.39049e-05
1.40162e-05
1.40162e-05
1.40162e-05
1.4251e-05
1.4251e-05
1.4251e-05
1.42834e-05
1.42834e-05
1.42834e-05
1.41753e-05
1.41753e-05
1.41753e-05
1.41275e-05
1.41275e-05
1.41275e-05
1.40903e-05
1.40903e-05
1.40903e-05
1.3941e-05
1.3941e-05
1.3941e-05
1.38297e-05
1.38297e-05
1.38297e-05
1.35945e-05
1.35945e-05
1.35945e-05
1.34873e-05
1.34873e-05
1.34873e-05
1.40524e-05
1.40524e-05
1.40524e-05
1.39367e-05
1.39367e-05
1.39367e-05
1.40153e-05
1.40153e-05
1.40153e-05
1.38662e-05
1.38662e-05
1.38662e-05
1.37823e-05
1.37823e-05
1.37823e-05
1.37484e-05
1.37484e-05
1.37484e-05
1.37578e-05
1.37578e-05
1.37578e-05
1.37222e-05
1.37222e-05
1.37222e-05
1.35723e-05
1.35723e-05
1.35723e-05
1.34553e-05
1.34553e-05
1.34553e-05
1.1264e-05
1.1264e-05
1.1264e-05
1.15241e-05
1.15241e-05
1.15241e-05
1.1551e-05
1.1551e-05
1.1551e-05
1.10196e-05
1.10196e-05
1.10196e-05
1.09569e-05
1.09569e-05
1.09569e-05
1.0981e-05
1.0981e-05
1.0981e-05
1.11691e-05
1.11691e-05
1.11691e-05
1.12338e-05
1.12338e-05
1.12338e-05
1.14602e-05
1.14602e-05
1.14602e-05
1.14267e-05
1.14267e-05
1.14267e-05
1.25386e-05
1.25386e-05
1.25386e-05
1.26037e-05
1.26037e-05
1.26037e-05
1.24078e-05
1.24078e-05
1.24078e-05
1.2438e-05
1.2438e-05
1.2438e-05
1.2732e-05
1.2732e-05
1.2732e-05
1.2763e-05
1.2763e-05
1.2763e-05
1.21128e-05
1.21128e-05
1.21128e-05
1.23063e-05
1.23063e-05
1.23063e-05
1.19277e-05
1.19277e-05
1.19277e-05
1.22051e-05
1.22051e-05
1.22051e-05
1.22387e-05
1.22387e-05
1.22387e-05
1.20817e-05
1.20817e-05
1.20817e-05
1.20189e-05
1.20189e-05
1.20189e-05
1.18947e-05
1.18947e-05
1.18947e-05
1.22313e-05
1.22313e-05
1.22313e-05
1.21017e-05
1.21017e-05
1.21017e-05
1.21381e-05
1.21381e-05
1.21381e-05
1.22999e-05
1.22999e-05
1.22999e-05
1.24547e-05
1.24547e-05
1.24547e-05
1.25441e-05
1.25441e-05
1.25441e-05
1.24174e-05
1.24174e-05
1.24174e-05
1.25235e-05
1.25235e-05
1.25235e-05
1.33143e-05
1.33143e-05
1.33143e-05
1.29964e-05
1.29964e-05
1.29964e-05
1.32773e-05
1.32773e-05
1.32773e-05
1.31171e-05
1.31171e-05
1.31171e-05
1.32385e-05
1.32385e-05
1.32385e-05
1.32753e-05
1.32753e-05
1.32753e-05
1.30117e-05
1.30117e-05
1.30117e-05
1.31708e-05
1.31708e-05
1.31708e-05
1.30827e-05
1.30827e-05
1.30827e-05
1.32069e-05
1.32069e-05
1.32069e-05
1.25117e-05
1.25117e-05
1.25117e-05
1.26209e-05
1.26209e-05
1.26209e-05
1.23546e-05
1.23546e-05
1.23546e-05
1.27671e-05
1.27671e-05
1.27671e-05
1.28895e-05
1.28895e-05
1.28895e-05
1.25882e-05
1.25882e-05
1.25882e-05
1.13609e-05
1.13609e-05
1.13609e-05
1.20394e-05
1.20394e-05
1.20394e-05
1.20085e-05
1.20085e-05
1.20085e-05
1.18391e-05
1.18391e-05
1.18391e-05
1.17029e-05
1.17029e-05
1.17029e-05
1.28389e-05
1.28389e-05
1.28389e-05
1.2539e-05
1.2539e-05
1.2539e-05
1.26162e-05
1.26162e-05
1.26162e-05
1.33025e-05
1.33025e-05
1.33025e-05
1.32014e-05
1.32014e-05
1.32014e-05
1.31223e-05
1.31223e-05
1.31223e-05
1.30619e-05
1.30619e-05
1.30619e-05
1.31971e-05
1.31971e-05
1.31971e-05
1.3097e-05
1.3097e-05
1.3097e-05
1.30186e-05
1.30186e-05
1.30186e-05
1.31676e-05
1.31676e-05
1.31676e-05
1.3053e-05
1.3053e-05
1.3053e-05
1.29839e-05
1.29839e-05
1.29839e-05
1.29485e-05
1.29485e-05
1.29485e-05
1.17894e-05
1.17894e-05
1.17894e-05
1.16163e-05
1.16163e-05
1.16163e-05
1.16476e-05
1.16476e-05
1.16476e-05
1.18535e-05
1.18535e-05
1.18535e-05
1.20194e-05
1.20194e-05
1.20194e-05
1.1991e-05
1.1991e-05
1.1991e-05
1.14542e-05
1.14542e-05
1.14542e-05
1.18278e-05
1.18278e-05
1.18278e-05
1.1658e-05
1.1658e-05
1.1658e-05
1.14168e-05
1.14168e-05
1.14168e-05
6.28504e-07
6.28504e-07
6.28504e-07
6.33439e-07
6.33439e-07
6.33439e-07
6.19193e-07
6.19193e-07
6.19193e-07
8.91285e-06
8.91285e-06
8.91285e-06
7.89154e-06
7.89154e-06
7.89154e-06
7.92837e-06
7.92837e-06
7.92837e-06
9.40704e-06
9.40704e-06
9.40704e-06
8.92987e-06
8.92987e-06
8.92987e-06
1.04569e-05
1.04569e-05
1.04569e-05
1.04179e-05
1.04179e-05
1.04179e-05
9.45722e-06
9.45722e-06
9.45722e-06
9.96957e-06
9.96957e-06
9.96957e-06
1.00662e-05
1.00662e-05
1.00662e-05
1.00344e-05
1.00344e-05
1.00344e-05
8.87805e-06
8.87805e-06
8.87805e-06
9.49235e-06
9.49235e-06
9.49235e-06
1.487e-06
1.487e-06
1.487e-06
1.73078e-06
1.73078e-06
1.73078e-06
1.44559e-06
1.44559e-06
1.44559e-06
1.34826e-06
1.34826e-06
1.34826e-06
9.46598e-07
9.46598e-07
9.46598e-07
7.16799e-07
7.16799e-07
7.16799e-07
1.31028e-06
1.31028e-06
1.31028e-06
1.06399e-06
1.06399e-06
1.06399e-06
1.03302e-06
1.03302e-06
1.03302e-06
9.19467e-07
9.19467e-07
9.19467e-07
4.21188e-07
4.21188e-07
4.21188e-07
3.98654e-07
3.98654e-07
3.98654e-07
4.22596e-07
4.22596e-07
4.22596e-07
4.0998e-07
4.0998e-07
4.0998e-07
4.08746e-07
4.08746e-07
4.08746e-07
4.34643e-07
4.34643e-07
4.34643e-07
4.67125e-07
4.67125e-07
4.67125e-07
4.20407e-07
4.20407e-07
4.20407e-07
4.09395e-07
4.09395e-07
4.09395e-07
4.31356e-07
4.31356e-07
4.31356e-07
4.31249e-07
4.31249e-07
4.31249e-07
4.54008e-07
4.54008e-07
4.54008e-07
5.875e-07
5.875e-07
5.875e-07
6.96347e-07
6.96347e-07
6.96347e-07
6.04988e-07
6.04988e-07
6.04988e-07
3.87357e-07
3.87357e-07
3.87357e-07
4.10579e-07
4.10579e-07
4.10579e-07
4.4089e-07
4.4089e-07
4.4089e-07
6.52926e-07
6.52926e-07
6.52926e-07
5.69975e-07
5.69975e-07
5.69975e-07
5.52363e-07
5.52363e-07
5.52363e-07
4.14629e-07
4.14629e-07
4.14629e-07
5.09576e-07
5.09576e-07
5.09576e-07
4.91378e-07
4.91378e-07
4.91378e-07
4.43689e-07
4.43689e-07
4.43689e-07
4.56377e-07
4.56377e-07
4.56377e-07
4.69304e-07
4.69304e-07
4.69304e-07
4.69333e-07
4.69333e-07
4.69333e-07
4.59304e-07
4.59304e-07
4.59304e-07
4.77969e-07
4.77969e-07
4.77969e-07
4.82562e-07
4.82562e-07
4.82562e-07
4.77605e-07
4.77605e-07
4.77605e-07
4.88515e-07
4.88515e-07
4.88515e-07
2.59967e-06
2.59967e-06
2.59967e-06
1.98481e-06
1.98481e-06
1.98481e-06
2.08433e-06
2.08433e-06
2.08433e-06
2.27831e-06
2.27831e-06
2.27831e-06
2.1922e-06
2.1922e-06
2.1922e-06
1.68022e-06
1.68022e-06
1.68022e-06
1.80968e-06
1.80968e-06
1.80968e-06
1.19471e-05
1.19471e-05
1.19471e-05
1.18098e-05
1.18098e-05
1.18098e-05
2.05647e-06
2.05647e-06
2.05647e-06
2.68681e-06
2.68681e-06
2.68681e-06
2.04463e-06
2.04463e-06
2.04463e-06
2.1632e-06
2.1632e-06
2.1632e-06
8.44602e-06
8.44602e-06
8.44602e-06
5.10603e-07
5.10603e-07
5.10603e-07
4.4298e-07
4.4298e-07
4.4298e-07
1.24886e-06
1.24886e-06
1.24886e-06
1.08245e-06
1.08245e-06
1.08245e-06
7.09773e-07
7.09773e-07
7.09773e-07
8.18846e-07
8.18846e-07
8.18846e-07
2.50774e-06
2.50774e-06
2.50774e-06
2.33913e-06
2.33913e-06
2.33913e-06
2.16598e-06
2.16598e-06
2.16598e-06
2.22209e-06
2.22209e-06
2.22209e-06
2.13752e-06
2.13752e-06
2.13752e-06
1.92307e-06
1.92307e-06
1.92307e-06
1.53817e-06
1.53817e-06
1.53817e-06
1.65223e-06
1.65223e-06
1.65223e-06
2.30493e-06
2.30493e-06
2.30493e-06
2.44814e-06
2.44814e-06
2.44814e-06
2.36197e-06
2.36197e-06
2.36197e-06
2.06312e-06
2.06312e-06
2.06312e-06
1.12565e-06
1.12565e-06
1.12565e-06
1.38632e-06
1.38632e-06
1.38632e-06
1.4315e-06
1.4315e-06
1.4315e-06
1.4875e-06
1.4875e-06
1.4875e-06
1.74928e-06
1.74928e-06
1.74928e-06
1.60734e-06
1.60734e-06
1.60734e-06
1.66749e-06
1.66749e-06
1.66749e-06
1.5194e-06
1.5194e-06
1.5194e-06
1.53246e-06
1.53246e-06
1.53246e-06
1.60758e-06
1.60758e-06
1.60758e-06
1.6703e-06
1.6703e-06
1.6703e-06
1.3069e-06
1.3069e-06
1.3069e-06
1.29914e-06
1.29914e-06
1.29914e-06