<VTKFile type="UnstructuredGrid" version="1.0">
<UnstructuredGrid>
<Piece NumberOfPoints="10830" NumberOfCells="3610">
<Points>
<DataArray type="Float64" NumberOfComponents="3" format="ascii">
2.19217 2.20649 11.5207
2.19928 2.19938 11.495
2.19928 2.19938 11.5465
2.19928 2.19938 12.0501
2.19928 2.19938 12.101
2.19129 2.20737 12.0755
2.19928 2.19938 12.0501
2.19129 2.20737 12.0755
2.17928 2.21938 12.0501
1.30559 3.09307 12.5226
1.31816 3.0805 12.54
1.28831 3.11035 12.54
1.28831 3.11035 12.54
1.28831 3.11035 12.5098
1.30559 3.09307 12.5226
2.19928 2.19938 12.0501
2.17928 2.21938 12.0501
2.1913 2.20736 12.0247
1.29441 3.10425 11.7718
1.28831 3.11035 11.797
1.28831 3.11035 11.7466
2.19132 2.20734 11.7719
2.19928 2.19938 11.7971
2.17929 2.21937 11.7971
2.19117 2.20749 11.6713
2.19928 2.19938 11.6463
2.19928 2.19938 11.6964
2.17929 2.21937 11.7971
2.19928 2.19938 11.7971
2.19133 2.20733 11.8223
2.19928 2.19938 11.7971
2.19928 2.19938 11.8475
2.19133 2.20733 11.8223
2.17929 2.21937 11.8476
2.19133 2.20733 11.8223
2.19928 2.19938 11.8475
2.17928 2.21938 11.9993
2.1913 2.20736 12.0247
2.16946 2.22921 12.0247
2.16946 2.22921 12.0247
2.1913 2.20736 12.0247
2.17928 2.21938 12.0501
2.16946 2.22921 12.0247
2.15842 2.24024 11.9993
2.17928 2.21938 11.9993
2.16946 2.22921 12.0247
2.17928 2.21938 12.0501
2.15841 2.24025 12.0501
2.19928 2.19938 11.898
2.19928 2.19938 11.9486
2.19132 2.20734 11.9233
2.19132 2.20734 11.9233
2.17929 2.21937 11.9486
2.16947 2.22919 11.9233
2.19928 2.19938 11.9486
2.17929 2.21937 11.9486
2.19132 2.20734 11.9233
2.19928 2.19938 11.9993
2.1913 2.20736 12.0247
2.17928 2.21938 11.9993
2.19928 2.19938 12.0501
2.1913 2.20736 12.0247
2.19928 2.19938 11.9993
2.17913 2.21954 11.6463
2.19928 2.19938 11.6463
2.19117 2.20749 11.6713
2.17927 2.21939 12.101
2.19129 2.20737 12.0755
2.19928 2.19938 12.101
1.8956 2.50306 12.2807
1.90602 2.49264 12.255
1.91643 2.48223 12.2807
1.28831 3.11035 11.495
1.30792 3.09074 11.495
1.29529 3.10337 11.5197
1.34771 3.05096 11.7466
1.32717 3.07149 11.7466
1.33709 3.06157 11.7214
1.30704 3.09162 11.7466
1.32717 3.07149 11.7466
1.31607 3.08259 11.7718
1.30704 3.09162 11.7466
1.29441 3.10425 11.7718
1.28831 3.11035 11.7466
1.31607 3.08259 11.7718
1.29441 3.10425 11.7718
1.30704 3.09162 11.7466
1.2945 3.10417 11.9739
1.28831 3.11035 11.9993
1.28831 3.11035 11.9486
1.3071 3.09157 11.9993
1.31615 3.08252 11.9739
1.32724 3.07142 11.9993
1.28831 3.11035 11.9993
1.2945 3.10417 11.9739
1.3071 3.09157 11.9993
1.3071 3.09157 11.9993
1.2945 3.10417 11.9739
1.31615 3.08252 11.9739
1.30708 3.09158 11.9486
1.32723 3.07143 11.9486
1.31615 3.08252 11.9739
1.30708 3.09158 11.9486
1.2945 3.10417 11.9739
1.28831 3.11035 11.9486
1.31615 3.08252 11.9739
1.2945 3.10417 11.9739
1.30708 3.09158 11.9486
1.28831 3.11035 11.797
1.29441 3.10425 11.7718
1.30705 3.09161 11.797
1.30705 3.09161 11.797
1.29441 3.10425 11.7718
1.31607 3.08259 11.7718
1.32724 3.07142 11.9993
1.31615 3.08252 11.9739
1.33718 3.06148 11.9739
1.31615 3.08252 11.9739
1.32723 3.07143 11.9486
1.33718 3.06148 11.9739
1.49256 2.90611 11.9487
1.50289 2.89577 11.974
1.48223 2.91643 11.974
1.48223 2.91643 11.974
1.50289 2.89577 11.974
1.49257 2.90609 11.9994
1.49257 2.90609 11.9994
1.50289 2.89577 11.974
1.51323 2.88543 11.9994
1.88521 2.51346 12.255
1.90602 2.49264 12.255
1.8956 2.50306 12.2807
2.19127 2.20739 11.7216
2.19928 2.19938 11.6964
2.19928 2.19938 11.7467
2.19928 2.19938 11.7971
2.19132 2.20734 11.7719
2.19928 2.19938 11.7467
2.11618 2.28248 11.8981
2.09503 2.30363 11.8981
2.10562 2.29304 11.8728
2.17929 2.21937 11.8981
2.19132 2.20734 11.9233
2.16947 2.22919 11.9233
2.19928 2.19938 11.898
2.19132 2.20734 11.9233
2.17929 2.21937 11.8981
2.16947 2.22919 11.9233
2.17929 2.21937 11.9486
2.15843 2.24024 11.9486
2.19131 2.20735 11.9739
2.17929 2.21937 11.9486
2.19928 2.19938 11.9486
2.19928 2.19938 11.9486
2.19928 2.19938 11.9993
2.19131 2.20735 11.9739
2.19131 2.20735 11.9739
2.19928 2.19938 11.9993
2.17928 2.21938 11.9993
2.1693 2.22936 11.6714
2.17913 2.21954 11.6463
2.19117 2.20749 11.6713
2.19127 2.20739 11.7216
2.19928 2.19938 11.7467
2.17927 2.21939 11.7467
2.17927 2.21939 11.7467
2.19928 2.19938 11.7467
2.19132 2.20734 11.7719
2.10553 2.29313 11.7216
2.09491 2.30375 11.6964
2.11605 2.28261 11.6964
2.1372 2.26147 11.6965
2.12662 2.27204 11.6713
2.14787 2.25079 11.6713
2.1372 2.26147 11.6965
2.11605 2.28261 11.6964
2.12662 2.27204 11.6713
2.16946 2.2292 11.7719
2.19132 2.20734 11.7719
2.17929 2.21937 11.7971
2.16946 2.2292 11.7719
2.17927 2.21939 11.7467
2.19132 2.20734 11.7719
2.16945 2.22921 12.0756
2.17928 2.21938 12.0501
2.19129 2.20737 12.0755
2.19129 2.20737 12.0755
2.17927 2.21939 12.101
2.16945 2.22921 12.0756
2.15841 2.24025 12.0501
2.17928 2.21938 12.0501
2.16945 2.22921 12.0756
2.16944 2.22922 12.2291
2.14804 2.25062 12.2291
2.15841 2.24025 12.2034
2.14804 2.25063 12.1777
2.16944 2.22922 12.1777
2.15841 2.24025 12.2034
2.19128 2.20738 12.1265
2.17927 2.21939 12.101
2.19928 2.19938 12.101
2.16944 2.22922 12.1266
2.17927 2.21939 12.101
2.19128 2.20738 12.1265
1.93725 2.46141 12.3323
1.94766 2.451 12.3582
1.92679 2.47187 12.3582
2.05276 2.34591 12.2034
2.06331 2.33535 12.1778
2.07386 2.3248 12.2034
2.07386 2.3248 12.2034
2.06331 2.33535 12.1778
2.08443 2.31423 12.1778
2.15841 2.24026 12.1521
2.14804 2.25062 12.1266
2.16944 2.22922 12.1266
2.15841 2.24026 12.1521
2.16944 2.22922 12.1777
2.14804 2.25063 12.1777
2.04222 2.35644 12.1778
2.06331 2.33535 12.1778
2.05276 2.34591 12.2034
1.9897 2.40896 11.9487
1.96874 2.42992 11.9487
1.97921 2.41945 11.9234
1.93736 2.4613 11.9234
1.92692 2.47174 11.9487
1.91649 2.48217 11.9234
1.94781 2.45085 11.9487
1.92692 2.47174 11.9487
1.93736 2.4613 11.9234
1.92691 2.47175 11.8477
1.9478 2.45086 11.8477
1.93736 2.46131 11.8729
1.93736 2.46131 11.8729
1.91648 2.48218 11.8729
1.92691 2.47175 11.8477
1.92691 2.47175 11.8477
1.91648 2.48218 11.8729
1.90605 2.49261 11.8476
1.93736 2.46131 11.8729
1.9478 2.45086 11.8477
1.95826 2.4404 11.8729
1.96871 2.42995 11.7972
1.9792 2.41946 11.8224
1.95825 2.44041 11.8224
1.95825 2.44041 11.8224
1.94778 2.45088 11.7972
1.96871 2.42995 11.7972
1.8126 2.58607 11.9741
1.82295 2.57571 11.9487
1.83332 2.56534 11.9741
1.82295 2.57571 11.9487
1.84369 2.55497 11.9488
1.83332 2.56534 11.9741
1.92692 2.47174 11.8982
1.91648 2.48218 11.8729
1.93736 2.46131 11.8729
1.92692 2.47174 11.8982
1.93736 2.4613 11.9234
1.91649 2.48217 11.9234
1.91649 2.48217 11.9234
1.89565 2.50301 11.9234
1.90606 2.4926 11.8982
1.90606 2.4926 11.8982
1.92692 2.47174 11.8982
1.91649 2.48217 11.9234
1.91648 2.48218 11.8729
1.92692 2.47174 11.8982
1.90606 2.4926 11.8982
1.90605 2.49261 11.8476
1.88523 2.51343 11.8476
1.89563 2.50303 11.8224
1.88521 2.51345 11.7972
1.90603 2.49263 11.7972
1.89563 2.50303 11.8224
1.51322 2.88545 11.9487
1.50289 2.89577 11.974
1.49256 2.90611 11.9487
1.49256 2.90611 11.9487
1.50288 2.89578 11.9234
1.51322 2.88545 11.9487
1.29442 3.10424 11.5699
1.28831 3.11035 11.5951
1.28831 3.11035 11.5444
1.28831 3.11035 11.495
1.29529 3.10337 11.5197
1.28831 3.11035 11.5444
1.307 3.09167 11.6457
1.28831 3.11035 11.6457
1.29431 3.10435 11.6204
1.28831 3.11035 11.6457
1.28831 3.11035 11.5951
1.29431 3.10435 11.6204
2.19928 2.19938 11.495
2.19217 2.20649 11.5207
2.18013 2.21854 11.495
1.28831 3.11035 11.7466
1.28831 3.11035 11.6961
1.29438 3.10428 11.7214
1.29438 3.10428 11.7214
1.30704 3.09162 11.7466
1.28831 3.11035 11.7466
1.30702 3.09164 11.6961
1.29438 3.10428 11.7214
1.28831 3.11035 11.6961
1.30702 3.09164 11.6961
1.31601 3.08265 11.6709
1.32714 3.07152 11.6962
1.31605 3.08262 11.7214
1.33709 3.06157 11.7214
1.32717 3.07149 11.7466
1.32717 3.07149 11.7466
1.30704 3.09162 11.7466
1.31605 3.08262 11.7214
1.32714 3.07152 11.6962
1.33709 3.06157 11.7214
1.31605 3.08262 11.7214
1.31605 3.08262 11.7214
1.30702 3.09164 11.6961
1.32714 3.07152 11.6962
1.30704 3.09162 11.7466
1.29438 3.10428 11.7214
1.31605 3.08262 11.7214
1.29438 3.10428 11.7214
1.30702 3.09164 11.6961
1.31605 3.08262 11.7214
1.29435 3.10432 11.6709
1.28831 3.11035 11.6961
1.28831 3.11035 11.6457
1.29435 3.10432 11.6709
1.28831 3.11035 11.6457
1.307 3.09167 11.6457
1.307 3.09167 11.6457
1.31601 3.08265 11.6709
1.29435 3.10432 11.6709
1.29435 3.10432 11.6709
1.30702 3.09164 11.6961
1.28831 3.11035 11.6961
1.31601 3.08265 11.6709
1.30702 3.09164 11.6961
1.29435 3.10432 11.6709
1.33717 3.06149 11.9233
1.32723 3.07143 11.9486
1.31613 3.08254 11.9233
1.32723 3.07143 11.9486
1.30708 3.09158 11.9486
1.31613 3.08254 11.9233
1.31613 3.08254 11.9233
1.32722 3.07145 11.898
1.33717 3.06149 11.9233
1.33711 3.06155 11.7718
1.32717 3.07149 11.7466
1.34771 3.05096 11.7466
1.31607 3.08259 11.7718
1.32717 3.07149 11.7466
1.33711 3.06155 11.7718
1.35794 3.04072 11.7718
1.33711 3.06155 11.7718
1.34771 3.05096 11.7466
1.34773 3.05094 11.797
1.33711 3.06155 11.7718
1.35794 3.04072 11.7718
1.34773 3.05094 11.797
1.35794 3.04072 11.7718
1.36839 3.03027 11.797
1.50287 2.89579 11.8728
1.51321 2.88546 11.8981
1.49255 2.90612 11.8981
1.49255 2.90612 11.8981
1.51321 2.88546 11.8981
1.50288 2.89578 11.9234
1.42017 2.9785 11.9233
1.44086 2.9578 11.9233
1.43052 2.96814 11.9486
1.43051 2.96815 11.898
1.44086 2.9578 11.9233
1.42017 2.9785 11.9233
1.44085 2.95782 11.8728
1.4305 2.96817 11.8475
1.45119 2.94748 11.8475
1.43051 2.96815 11.898
1.42015 2.97851 11.8728
1.44085 2.95782 11.8728
1.44085 2.95782 11.8728
1.42015 2.97851 11.8728
1.4305 2.96817 11.8475
1.44087 2.95779 11.974
1.46156 2.9371 11.974
1.45123 2.94744 11.9993
1.3995 2.99917 12.0247
1.40985 2.98882 11.9993
1.4202 2.97846 12.0247
1.40983 2.98883 11.9486
1.42017 2.9785 11.9233
1.43052 2.96814 11.9486
1.39946 2.9992 11.9233
1.42017 2.9785 11.9233
1.40983 2.98883 11.9486
1.32724 3.07142 11.9993
1.33718 3.06148 11.9739
1.34779 3.05087 11.9993
1.33717 3.06149 11.9233
1.32722 3.07145 11.898
1.34776 3.0509 11.898
1.34776 3.0509 11.898
1.35799 3.04067 11.9233
1.33717 3.06149 11.9233
1.38911 3.00955 11.898
1.39946 2.9992 11.9233
1.37874 3.01992 11.9233
1.34777 3.05089 11.9486
[...]
<PointData Scalars="View Factor" >
<DataArray type="Float64" Name="View Factor" NumberOfComponents="1" format="ascii">
1.11411e-06
1.11411e-06
1.11411e-06
4.76842e-07
4.76842e-07
4.76842e-07
4.67848e-07
4.67848e-07
4.67848e-07
7.01143e-06
7.01143e-06
7.01143e-06
7.07686e-06
7.07686e-06
7.07686e-06
4.77586e-07
4.77586e-07
4.77586e-07
7.84539e-06
7.84539e-06
7.84539e-06
6.77872e-07
6.77872e-07
6.77872e-07
8.25471e-07
8.25471e-07
8.25471e-07
6.6053e-07
6.6053e-07
6.6053e-07
6.50324e-07
6.50324e-07
6.50324e-07
6.27944e-07
6.27944e-07
6.27944e-07
5.86142e-07
5.86142e-07
5.86142e-07
5.76986e-07
5.76986e-07
5.76986e-07
1.35839e-06
1.35839e-06
1.35839e-06
1.34187e-06
1.34187e-06
1.34187e-06
5.68954e-07
5.68954e-07
5.68954e-07
6.38087e-07
6.38087e-07
6.38087e-07
5.43594e-07
5.43594e-07
5.43594e-07
4.96923e-07
4.96923e-07
4.96923e-07
5.0351e-07
5.0351e-07
5.0351e-07
8.51293e-07
8.51293e-07
8.51293e-07
4.50157e-07
4.50157e-07
4.50157e-07
2.38879e-07
2.38879e-07
2.38879e-07
8.09205e-06
8.09205e-06
8.09205e-06
7.56705e-06
7.56705e-06
7.56705e-06
7.69513e-06
7.69513e-06
7.69513e-06
7.82484e-06
7.82484e-06
7.82484e-06
7.75823e-06
7.75823e-06
7.75823e-06
7.63501e-06
7.63501e-06
7.63501e-06
7.45459e-06
7.45459e-06
7.45459e-06
7.57939e-06
7.57939e-06
7.57939e-06
7.53275e-06
7.53275e-06
7.53275e-06
7.48782e-06
7.48782e-06
7.48782e-06
7.61531e-06
7.61531e-06
7.61531e-06
7.55012e-06
7.55012e-06
7.55012e-06
7.78885e-06
7.78885e-06
7.78885e-06
7.74113e-06
7.74113e-06
7.74113e-06
7.39402e-06
7.39402e-06
7.39402e-06
7.41127e-06
7.41127e-06
7.41127e-06
5.9474e-06
5.9474e-06
5.9474e-06
5.9332e-06
5.9332e-06
5.9332e-06
5.73876e-06
5.73876e-06
5.73876e-06
2.44354e-07
2.44354e-07
2.44354e-07
7.59547e-07
7.59547e-07
7.59547e-07
7.01431e-07
7.01431e-07
7.01431e-07
1.00039e-06
1.00039e-06
1.00039e-06
6.49164e-07
6.49164e-07
6.49164e-07
5.70147e-07
5.70147e-07
5.70147e-07
1.39797e-06
1.39797e-06
1.39797e-06
5.31188e-07
5.31188e-07
5.31188e-07
5.34405e-07
5.34405e-07
5.34405e-07
5.08888e-07
5.08888e-07
5.08888e-07
9.2021e-07
9.2021e-07
9.2021e-07
7.33142e-07
7.33142e-07
7.33142e-07
7.15153e-07
7.15153e-07
7.15153e-07
1.15273e-06
1.15273e-06
1.15273e-06
1.42868e-06
1.42868e-06
1.42868e-06
1.36388e-06
1.36388e-06
1.36388e-06
7.66403e-07
7.66403e-07
7.66403e-07
7.88036e-07
7.88036e-07
7.88036e-07
5.59875e-07
5.59875e-07
5.59875e-07
5.52461e-07
5.52461e-07
5.52461e-07
1.3329e-06
1.3329e-06
1.3329e-06
1.19819e-06
1.19819e-06
1.19819e-06
1.21233e-06
1.21233e-06
1.21233e-06
4.41234e-07
4.41234e-07
4.41234e-07
5.32841e-07
5.32841e-07
5.32841e-07
2.20203e-07
2.20203e-07
2.20203e-07
2.4652e-07
2.4652e-07
2.4652e-07
2.48793e-07
2.48793e-07
2.48793e-07
1.23339e-06
1.23339e-06
1.23339e-06
1.21958e-06
1.21958e-06
1.21958e-06
2.48718e-07
2.48718e-07
2.48718e-07
3.76275e-07
3.76275e-07
3.76275e-07
4.01554e-07
4.01554e-07
4.01554e-07
3.90627e-07
3.90627e-07
3.90627e-07
4.58712e-07
4.58712e-07
4.58712e-07
4.58628e-07
4.58628e-07
4.58628e-07
4.74038e-07
4.74038e-07
4.74038e-07
4.43561e-07
4.43561e-07
4.43561e-07
4.78479e-07
4.78479e-07
4.78479e-07
4.90747e-07
4.90747e-07
4.90747e-07
4.40351e-07
4.40351e-07
4.40351e-07
4.4061e-07
4.4061e-07
4.4061e-07
4.42765e-07
4.42765e-07
4.42765e-07
4.12809e-07
4.12809e-07
4.12809e-07
4.26398e-07
4.26398e-07
4.26398e-07
4.29832e-07
4.29832e-07
4.29832e-07
4.44106e-07
4.44106e-07
4.44106e-07
5.06208e-07
5.06208e-07
5.06208e-07
5.41667e-07
5.41667e-07
5.41667e-07
5.76079e-06
5.76079e-06
5.76079e-06
5.77132e-06
5.77132e-06
5.77132e-06
8.06268e-06
8.06268e-06
8.06268e-06
8.11587e-06
8.11587e-06
8.11587e-06
7.94989e-06
7.94989e-06
7.94989e-06
8.00778e-06
8.00778e-06
8.00778e-06
1.15022e-06
1.15022e-06
1.15022e-06
7.89901e-06
7.89901e-06
7.89901e-06
7.84251e-06
7.84251e-06
7.84251e-06
7.87796e-06
7.87796e-06
7.87796e-06
7.76574e-06
7.76574e-06
7.76574e-06
7.65013e-06
7.65013e-06
7.65013e-06
7.71311e-06
7.71311e-06
7.71311e-06
7.66647e-06
7.66647e-06
7.66647e-06
7.74764e-06
7.74764e-06
7.74764e-06
7.79428e-06
7.79428e-06
7.79428e-06
7.81119e-06
7.81119e-06
7.81119e-06
7.95313e-06
7.95313e-06
7.95313e-06
7.93259e-06
7.93259e-06
7.93259e-06
7.86567e-06
7.86567e-06
7.86567e-06
7.89581e-06
7.89581e-06
7.89581e-06
7.84733e-06
7.84733e-06
7.84733e-06
7.44529e-06
7.44529e-06
7.44529e-06
7.50574e-06
7.50574e-06
7.50574e-06
7.46167e-06
7.46167e-06
7.46167e-06
7.54988e-06
7.54988e-06
7.54988e-06
7.61662e-06
7.61662e-06
7.61662e-06
7.46692e-06
7.46692e-06
7.46692e-06
7.44878e-06
7.44878e-06
7.44878e-06
7.37155e-06
7.37155e-06
7.37155e-06
5.81047e-06
5.81047e-06
5.81047e-06
5.79782e-06
5.79782e-06
5.79782e-06
6.66779e-06
6.66779e-06
6.66779e-06
6.68165e-06
6.68165e-06
6.68165e-06
6.64523e-06
6.64523e-06
6.64523e-06
6.71631e-06
6.71631e-06
6.71631e-06
6.73189e-06
6.73189e-06
6.73189e-06
6.42214e-06
6.42214e-06
6.42214e-06
6.75771e-06
6.75771e-06
6.75771e-06
6.74848e-06
6.74848e-06
6.74848e-06
6.82878e-06
6.82878e-06
6.82878e-06
7.30902e-06
7.30902e-06
7.30902e-06
7.39282e-06
7.39282e-06
7.39282e-06
7.31057e-06
7.31057e-06
7.31057e-06
7.01846e-06
7.01846e-06
7.01846e-06
7.34345e-06
7.34345e-06
7.34345e-06
7.35916e-06
7.35916e-06
7.35916e-06
7.29454e-06
7.29454e-06
7.29454e-06
6.69789e-06
6.69789e-06
6.69789e-06
7.22817e-06
7.22817e-06
7.22817e-06
7.06026e-06
7.06026e-06
7.06026e-06
6.11716e-06
6.11716e-06
6.11716e-06
6.24136e-06
6.24136e-06
6.24136e-06
6.30886e-06
6.30886e-06
6.30886e-06
6.08712e-06
6.08712e-06
6.08712e-06
6.32023e-06
6.32023e-06
6.32023e-06
6.22617e-06
6.22617e-06
6.22617e-06
6.07477e-06
6.07477e-06
6.07477e-06
6.1986e-06
6.1986e-06
6.1986e-06
6.04624e-06
6.04624e-06
6.04624e-06
6.18474e-06
6.18474e-06
6.18474e-06
6.57999e-06
6.57999e-06
6.57999e-06
6.39391e-06
6.39391e-06
6.39391e-06
5.50472e-06
5.50472e-06
5.50472e-06
1.27961e-06
1.27961e-06
1.27961e-06
3.39376e-06
3.39376e-06
3.39376e-06
1.25427e-06
1.25427e-06
1.25427e-06
3.37787e-06
3.37787e-06
3.37787e-06
5.89344e-06
5.89344e-06
5.89344e-06
5.73152e-06
5.73152e-06
5.73152e-06
5.90636e-06
5.90636e-06
5.90636e-06
2.7406e-07
2.7406e-07
2.7406e-07
2.69088e-07
2.69088e-07
2.69088e-07
2.46413e-07
2.46413e-07
2.46413e-07
2.51965e-07
2.51965e-07
2.51965e-07
2.7917e-07
2.7917e-07
2.7917e-07
2.77607e-07
2.77607e-07
2.77607e-07
2.96475e-07
2.96475e-07
2.96475e-07
2.56068e-07
2.56068e-07
2.56068e-07
1.24853e-06
1.24853e-06
1.24853e-06
1.23283e-06
1.23283e-06
1.23283e-06
1.26659e-06
1.26659e-06
1.26659e-06
1.27518e-06
1.27518e-06
1.27518e-06
1.14631e-06
1.14631e-06
1.14631e-06
1.07322e-06
1.07322e-06
1.07322e-06
1.11734e-06
1.11734e-06
1.11734e-06
1.20173e-06
1.20173e-06
1.20173e-06
1.08837e-06
1.08837e-06
1.08837e-06
1.04595e-06
1.04595e-06
1.04595e-06
9.38474e-07
9.38474e-07
9.38474e-07
1.24305e-06
1.24305e-06
1.24305e-06
1.17195e-06
1.17195e-06
1.17195e-06
1.21665e-06
1.21665e-06
1.21665e-06
1.23426e-06
1.23426e-06
1.23426e-06
1.21092e-06
1.21092e-06
1.21092e-06
1.08202e-06
1.08202e-06
1.08202e-06
8.88191e-07
8.88191e-07
8.88191e-07
9.29834e-07
9.29834e-07
9.29834e-07
2.02607e-07
2.02607e-07
2.02607e-07
2.02376e-07
2.02376e-07
2.02376e-07
2.10938e-07
2.10938e-07
2.10938e-07
1.23068e-06
1.23068e-06
1.23068e-06
1.28145e-06
1.28145e-06
1.28145e-06
1.28942e-06
1.28942e-06
1.28942e-06
1.16945e-06
1.16945e-06
1.16945e-06
5.05149e-07
5.05149e-07
5.05149e-07
4.89218e-07
4.89218e-07
4.89218e-07
5.1292e-07
5.1292e-07
5.1292e-07
3.75893e-07
3.75893e-07
3.75893e-07
3.81155e-07
3.81155e-07
3.81155e-07
5.83462e-07
5.83462e-07
5.83462e-07
6.75305e-07
6.75305e-07
6.75305e-07
6.04518e-07
6.04518e-07
6.04518e-07
6.12381e-07
6.12381e-07
6.12381e-07
6.89581e-07
6.89581e-07
6.89581e-07
1.18634e-06
1.18634e-06
1.18634e-06
1.23926e-06
1.23926e-06
1.23926e-06
1.36722e-06
1.36722e-06
1.36722e-06
1.38724e-06
1.38724e-06
1.38724e-06
1.30691e-06
1.30691e-06
1.30691e-06
1.31665e-06
1.31665e-06
1.31665e-06
6.05098e-07
6.05098e-07
6.05098e-07
6.15497e-07
6.15497e-07
6.15497e-07
7.76564e-07
7.76564e-07
7.76564e-07
8.003e-07
8.003e-07
8.003e-07
8.95511e-07
8.95511e-07
8.95511e-07
8.78297e-07
8.78297e-07
8.78297e-07
1.1677e-06
1.1677e-06
1.1677e-06
1.3094e-06
1.3094e-06
1.3094e-06
1.53385e-06
1.53385e-06
1.53385e-06
1.42251e-06
1.42251e-06
1.42251e-06
1.46629e-06
1.46629e-06
1.46629e-06
1.40947e-06
1.40947e-06
1.40947e-06
1.31735e-06
1.31735e-06
1.31735e-06
1.30818e-06
1.30818e-06
1.30818e-06
1.23905e-06
1.23905e-06
1.23905e-06
1.19046e-06
1.19046e-06
1.19046e-06
8.04364e-07
8.04364e-07
8.04364e-07
6.88047e-07
6.88047e-07
6.88047e-07
2.31706e-07
2.31706e-07
2.31706e-07
2.39995e-07
2.39995e-07
2.39995e-07
2.3747e-07
2.3747e-07
2.3747e-07
2.37727e-07
2.37727e-07
2.37727e-07
2.23858e-07
2.23858e-07
2.23858e-07
9.44708e-07
9.44708e-07
9.44708e-07
9.5242e-07
9.5242e-07
9.5242e-07
3.63835e-07
3.63835e-07
3.63835e-07
3.75928e-07
3.75928e-07
3.75928e-07
3.76019e-07
3.76019e-07
3.76019e-07
3.81204e-07
3.81204e-07
3.81204e-07
3.30313e-07
3.30313e-07
3.30313e-07
3.3297e-07
3.3297e-07
3.3297e-07
3.30481e-07
3.30481e-07
3.30481e-07
1.29491e-06
1.29491e-06
1.29491e-06
1.2879e-06
1.2879e-06
1.2879e-06
5.26501e-07
5.26501e-07
5.26501e-07
1.13888e-06
1.13888e-06
1.13888e-06
1.07625e-06
1.07625e-06
1.07625e-06
1.14706e-06
1.14706e-06
1.14706e-06
1.0907e-06
1.0907e-06
1.0907e-06
1.02303e-06
1.02303e-06
1.02303e-06
1.03145e-06
1.03145e-06
1.03145e-06
3.76033e-07
3.76033e-07
3.76033e-07
3.91107e-07
3.91107e-07
3.91107e-07
3.81285e-07
3.81285e-07
3.81285e-07
4.0083e-07
4.0083e-07
4.0083e-07
4.0363e-07
4.0363e-07
4.0363e-07
4.1472e-07
4.1472e-07
4.1472e-07
3.777e-07
3.777e-07
3.777e-07
3.92146e-07
3.92146e-07
3.92146e-07
3.83152e-07
3.83152e-07
3.83152e-07
4.03268e-07
4.03268e-07
4.03268e-07
4.02939e-07
4.02939e-07
4.02939e-07
4.16652e-07
4.16652e-07
4.16652e-07
4.27864e-07
4.27864e-07
4.27864e-07
4.15527e-07
4.15527e-07
4.15527e-07
4.29615e-07
4.29615e-07
4.29615e-07
3.9163e-07
3.9163e-07
3.9163e-07
3.79208e-07
3.79208e-07
3.79208e-07
3.69143e-07
3.69143e-07
3.69143e-07
3.7173e-07
3.7173e-07
3.7173e-07
3.80634e-07
3.80634e-07
3.80634e-07
3.91039e-07
3.91039e-07
3.91039e-07
3.88381e-07
3.88381e-07
3.88381e-07
3.77526e-07
3.77526e-07
3.77526e-07
3.81538e-07
3.81538e-07
3.81538e-07
3.91337e-07
3.91337e-07
3.91337e-07
3.29198e-07
3.29198e-07
3.29198e-07
3.62716e-07
3.62716e-07
3.62716e-07
3.28943e-07
3.28943e-07
3.28943e-07
4.90393e-07
4.90393e-07
4.90393e-07
5.2471e-07
5.2471e-07
5.2471e-07
5.04874e-07
5.04874e-07
5.04874e-07
5.21401e-07
5.21401e-07
5.21401e-07
5.07727e-07
5.07727e-07
5.07727e-07
5.04792e-07
5.04792e-07
5.04792e-07
4.89286e-07
4.89286e-07
4.89286e-07
4.74537e-07
4.74537e-07
4.74537e-07
4.73166e-07
4.73166e-07
4.73166e-07
4.88189e-07
4.88189e-07
4.88189e-07
4.19671e-07
4.19671e-07
4.19671e-07
4.14037e-07
4.14037e-07
4.14037e-07
5.47015e-07
5.47015e-07
5.47015e-07
5.61076e-07
5.61076e-07
5.61076e-07
4.62706e-07
4.62706e-07
4.62706e-07
4.72343e-07
4.72343e-07
4.72343e-07
5.33935e-07
5.33935e-07
5.33935e-07
5.3314e-07
5.3314e-07
5.3314e-07
4.36418e-07
4.36418e-07
4.36418e-07
4.51414e-07
4.51414e-07
4.51414e-07
4.47235e-07
4.47235e-07
4.47235e-07
4.23068e-07
4.23068e-07
4.23068e-07
4.26559e-07
4.26559e-07
4.26559e-07
4.33553e-07
4.33553e-07
4.33553e-07
4.55581e-07
4.55581e-07
4.55581e-07
4.85244e-07
4.85244e-07
4.85244e-07
4.80415e-07
4.80415e-07
4.80415e-07
4.68283e-07
4.68283e-07
4.68283e-07
4.14654e-07
4.14654e-07
4.14654e-07
4.27639e-07
4.27639e-07
4.27639e-07
4.98998e-07
4.98998e-07
4.98998e-07
4.53138e-07
4.53138e-07
4.53138e-07
4.68625e-07
4.68625e-07
4.68625e-07
5.01333e-07
5.01333e-07
5.01333e-07
5.58585e-07
5.58585e-07
5.58585e-07
5.37956e-07
5.37956e-07
5.37956e-07
5.20902e-07
5.20902e-07
5.20902e-07
4.4373e-07
4.4373e-07
4.4373e-07
4.3997e-07
4.3997e-07
4.3997e-07
4.7275e-07
4.7275e-07
4.7275e-07
4.57609e-07
4.57609e-07
4.57609e-07
5.45851e-06
5.45851e-06
5.45851e-06
6.44654e-06
6.44654e-06
6.44654e-06
6.43073e-06
6.43073e-06
6.43073e-06
6.52773e-06
6.52773e-06
6.52773e-06
5.8839e-06
5.8839e-06
5.8839e-06
5.69576e-06
5.69576e-06
5.69576e-06
5.70306e-06
5.70306e-06
5.70306e-06
7.40621e-06
7.40621e-06
7.40621e-06
7.50024e-06
7.50024e-06
7.50024e-06
7.42307e-06
7.42307e-06
7.42307e-06
5.6822e-06
5.6822e-06
5.6822e-06
5.67146e-06
5.67146e-06
5.67146e-06
5.60126e-07
5.60126e-07
5.60126e-07
5.46057e-07
5.46057e-07
5.46057e-07
5.28068e-07
5.28068e-07
5.28068e-07
5.26497e-07
5.26497e-07
5.26497e-07
4.96989e-07
4.96989e-07
4.96989e-07
5.11355e-07
5.11355e-07
5.11355e-07
1.53761e-06
1.53761e-06
1.53761e-06
1.20738e-06
1.20738e-06
1.20738e-06
1.86403e-06
1.86403e-06
1.86403e-06
9.67129e-07
9.67129e-07
9.67129e-07
1.35048e-06
1.35048e-06
1.35048e-06
1.37708e-06
1.37708e-06
1.37708e-06
6.22605e-07
6.22605e-07
6.22605e-07
6.72641e-07
6.72641e-07
6.72641e-07
7.5833e-06
7.5833e-06
7.5833e-06
7.56344e-06
7.56344e-06
7.56344e-06
7.68706e-06
7.68706e-06
7.68706e-06
7.63163e-06
7.63163e-06
7.63163e-06
7.58475e-06
7.58475e-06
7.58475e-06
7.73945e-06
7.73945e-06
7.73945e-06
7.7191e-06
7.7191e-06
7.7191e-06
7.59065e-06
7.59065e-06
7.59065e-06
7.65357e-06
7.65357e-06
7.65357e-06
7.77176e-06
7.77176e-06
7.77176e-06
7.79222e-06
7.79222e-06
7.79222e-06
7.73606e-06
7.73606e-06
7.73606e-06
7.70581e-06
7.70581e-06
7.70581e-06
7.68837e-06
7.68837e-06
7.68837e-06
7.60751e-06
7.60751e-06
7.60751e-06
7.54655e-06
7.54655e-06
7.54655e-06
7.4154e-06
7.4154e-06
7.4154e-06
7.35561e-06
7.35561e-06
7.35561e-06
7.66066e-06
7.66066e-06
7.66066e-06
7.59885e-06
7.59885e-06
7.59885e-06
7.64324e-06
7.64324e-06
7.64324e-06
7.56528e-06
7.56528e-06
7.56528e-06
7.51433e-06
7.51433e-06
7.51433e-06
7.49808e-06
7.49808e-06
7.49808e-06
7.51245e-06
7.51245e-06
7.51245e-06
7.49533e-06
7.49533e-06
7.49533e-06
7.40908e-06
7.40908e-06
7.40908e-06
7.34434e-06
7.34434e-06
7.34434e-06
6.1744e-06
6.1744e-06
6.1744e-06
6.31328e-06
6.31328e-06
6.31328e-06
6.32797e-06
6.32797e-06
6.32797e-06
6.02022e-06
6.02022e-06
6.02022e-06
5.97531e-06
5.97531e-06
5.97531e-06
5.98645e-06
5.98645e-06
5.98645e-06
6.13063e-06
6.13063e-06
6.13063e-06
6.16034e-06
6.16034e-06
6.16034e-06
6.28041e-06
6.28041e-06
6.28041e-06
6.27026e-06
6.27026e-06
6.27026e-06
6.84411e-06
6.84411e-06
6.84411e-06
6.8777e-06
6.8777e-06
6.8777e-06
6.77974e-06
6.77974e-06
6.77974e-06
6.79409e-06
6.79409e-06
6.79409e-06
6.94957e-06
6.94957e-06
6.94957e-06
6.96524e-06
6.96524e-06
6.96524e-06
6.6367e-06
6.6367e-06
6.6367e-06
6.73442e-06
6.73442e-06
6.73442e-06
6.52177e-06
6.52177e-06
6.52177e-06
6.69363e-06
6.69363e-06
6.69363e-06
6.70668e-06
6.70668e-06
6.70668e-06
6.6227e-06
6.6227e-06
6.6227e-06
6.59469e-06
6.59469e-06
6.59469e-06
6.50839e-06
6.50839e-06
6.50839e-06
6.71319e-06
6.71319e-06
6.71319e-06
6.64916e-06
6.64916e-06
6.64916e-06
6.66424e-06
6.66424e-06
6.66424e-06
6.74385e-06
6.74385e-06
6.74385e-06
6.8257e-06
6.8257e-06
6.8257e-06
6.8792e-06
6.8792e-06
6.8792e-06
6.80991e-06
6.80991e-06
6.80991e-06
6.85703e-06
6.85703e-06
6.85703e-06
7.26811e-06
7.26811e-06
7.26811e-06
7.10444e-06
7.10444e-06
7.10444e-06
7.25175e-06
7.25175e-06
7.25175e-06
7.16824e-06
7.16824e-06
7.16824e-06
7.24472e-06
7.24472e-06
7.24472e-06
7.26196e-06
7.26196e-06
7.26196e-06
7.12121e-06
7.12121e-06
7.12121e-06
7.20334e-06
7.20334e-06
7.20334e-06
7.15331e-06
7.15331e-06
7.15331e-06
7.21951e-06
7.21951e-06
7.21951e-06
6.86297e-06
6.86297e-06
6.86297e-06
6.93147e-06
6.93147e-06
6.93147e-06
6.77815e-06
6.77815e-06
6.77815e-06
7.01098e-06
7.01098e-06
7.01098e-06
7.07418e-06
7.07418e-06
7.07418e-06
6.91509e-06
6.91509e-06
6.91509e-06
6.244e-06
6.244e-06
6.244e-06
6.61902e-06
6.61902e-06
6.61902e-06
6.60597e-06
6.60597e-06
6.60597e-06
6.50182e-06
6.50182e-06
6.50182e-06
6.4158e-06
6.4158e-06
6.4158e-06
7.10553e-06
7.10553e-06
7.10553e-06
6.94315e-06
6.94315e-06
6.94315e-06
6.98396e-06
6.98396e-06
6.98396e-06
7.32907e-06
7.32907e-06
7.32907e-06
7.27604e-06
7.27604e-06
7.27604e-06
7.23118e-06
7.23118e-06
7.23118e-06
7.20973e-06
7.20973e-06
7.20973e-06
7.27899e-06
7.27899e-06
7.27899e-06
7.22639e-06
7.22639e-06
7.22639e-06
7.18188e-06
7.18188e-06
7.18188e-06
7.2601e-06
7.2601e-06
7.2601e-06
7.19823e-06
7.19823e-06
7.19823e-06
7.15674e-06
7.15674e-06
7.15674e-06
7.1398e-06
7.1398e-06
7.1398e-06
6.43504e-06
6.43504e-06
6.43504e-06
6.34521e-06
6.34521e-06
6.34521e-06
6.35887e-06
6.35887e-06
6.35887e-06
6.46603e-06
6.46603e-06
6.46603e-06
6.56615e-06
6.56615e-06
6.56615e-06
6.55116e-06
6.55116e-06
6.55116e-06
6.28499e-06
6.28499e-06
6.28499e-06
6.47789e-06
6.47789e-06
6.47789e-06
6.37999e-06
6.37999e-06
6.37999e-06
6.27122e-06
6.27122e-06
6.27122e-06
4.6999e-07
4.6999e-07
4.6999e-07
4.75442e-07
4.75442e-07
4.75442e-07
4.68279e-07
4.68279e-07
4.68279e-07
4.80771e-06
4.80771e-06
4.80771e-06
4.41751e-06
4.41751e-06
4.41751e-06
4.41715e-06
4.41715e-06
4.41715e-06
5.20803e-06
5.20803e-06
5.20803e-06
4.79299e-06
4.79299e-06
4.79299e-06
5.71472e-06
5.71472e-06
5.71472e-06
5.70881e-06
5.70881e-06
5.70881e-06
5.23798e-06
5.23798e-06
5.23798e-06
5.5212e-06
5.5212e-06
5.5212e-06
5.5637e-06
5.5637e-06
5.5637e-06
5.54844e-06
5.54844e-06
5.54844e-06
4.83156e-06
4.83156e-06
4.83156e-06
5.25059e-06
5.25059e-06
5.25059e-06
2.60211e-07
2.60211e-07
2.60211e-07
2.56907e-07
2.56907e-07
2.56907e-07
2.53013e-07
2.53013e-07
2.53013e-07
2.60514e-07
2.60514e-07
2.60514e-07
2.67206e-07
2.67206e-07
2.67206e-07
2.71477e-07
2.71477e-07
2.71477e-07
2.53242e-07
2.53242e-07
2.53242e-07
2.61555e-07
2.61555e-07
2.61555e-07
2.53984e-07
2.53984e-07
2.53984e-07
2.59585e-07
2.59585e-07
2.59585e-07
3.14841e-07
3.14841e-07
3.14841e-07
2.98594e-07
2.98594e-07
2.98594e-07
2.88328e-07
2.88328e-07
2.88328e-07
3.06213e-07
3.06213e-07
3.06213e-07
3.05019e-07
3.05019e-07
3.05019e-07
2.96545e-07
2.96545e-07
2.96545e-07
2.88857e-07
2.88857e-07
2.88857e-07
3.14718e-07
3.14718e-07
3.14718e-07
3.06022e-07
3.06022e-07
3.06022e-07
3.22163e-07
3.22163e-07
3.22163e-07
3.22735e-07
3.22735e-07
3.22735e-07
2.80757e-07
2.80757e-07
2.80757e-07
2.6208e-07
2.6208e-07
2.6208e-07
2.63773e-07
2.63773e-07
2.63773e-07
2.69844e-07
2.69844e-07
2.69844e-07
2.90129e-07
2.90129e-07
2.90129e-07
2.80133e-07
2.80133e-07
2.80133e-07
2.72658e-07
2.72658e-07
2.72658e-07
2.48313e-07
2.48313e-07
2.48313e-07
2.54295e-07
2.54295e-07
2.54295e-07
2.46571e-07
2.46571e-07
2.46571e-07
2.55864e-07
2.55864e-07
2.55864e-07
3.84737e-07
3.84737e-07
3.84737e-07
3.73528e-07
3.73528e-07
3.73528e-07
3.32049e-07
3.32049e-07
3.32049e-07
3.38559e-07
3.38559e-07
3.38559e-07
3.50858e-07
3.50858e-07
3.50858e-07
3.48175e-07
3.48175e-07
3.48175e-07
3.387e-07
3.387e-07
3.387e-07
3.63329e-07
3.63329e-07
3.63329e-07
3.60773e-07
3.60773e-07
3.60773e-07
3.56763e-07
3.56763e-07
3.56763e-07
3.64596e-07
3.64596e-07
3.64596e-07
3.63707e-07
3.63707e-07
3.63707e-07
1.34423e-06
1.34423e-06
1.34423e-06
1.10058e-06
1.10058e-06
1.10058e-06
9.36804e-07
9.36804e-07
9.36804e-07
9.87704e-07
9.87704e-07
9.87704e-07
2.49841e-07
2.49841e-07
2.49841e-07
2.50819e-07
2.50819e-07
2.50819e-07
6.57507e-06
6.57507e-06
6.57507e-06
6.48713e-06
6.48713e-06
6.48713e-06
1.3261e-06
1.3261e-06
1.3261e-06
3.2941e-07
3.2941e-07
3.2941e-07
1.24221e-06
1.24221e-06
1.24221e-06
3.20394e-07
3.20394e-07
3.20394e-07
4.70778e-06
4.70778e-06
4.70778e-06
3.76555e-07
3.76555e-07
3.76555e-07
3.30583e-07
3.30583e-07
3.30583e-07
3.06618e-07
3.06618e-07
3.06618e-07
3.04237e-07
3.04237e-07
3.04237e-07
3.16097e-07
3.16097e-07
3.16097e-07
3.0989e-07
3.0989e-07
3.0989e-07
3.08147e-07
3.08147e-07
3.08147e-07
7.88165e-07
7.88165e-07
7.88165e-07
8.90697e-07
8.90697e-07
8.90697e-07
9.13723e-07
9.13723e-07
9.13723e-07
9.63106e-07
9.63106e-07
9.63106e-07
2.85172e-07
2.85172e-07
2.85172e-07
2.9689e-07
2.9689e-07
2.9689e-07
2.88867e-07
2.88867e-07
2.88867e-07
2.83579e-07
2.83579e-07
2.83579e-07
3.00904e-07
3.00904e-07
3.00904e-07
2.90554e-07
2.90554e-07
2.90554e-07
2.85763e-07
2.85763e-07
2.85763e-07
2.76591e-07
2.76591e-07
2.76591e-07
2.67818e-07
2.67818e-07
2.67818e-07
1.04979e-06
1.04979e-06
1.04979e-06
1.07342e-06
1.07342e-06
1.07342e-06
1.1842e-06
1.1842e-06
1.1842e-06
1.17868e-06
1.17868e-06
1.17868e-06
1.20188e-06
1.20188e-06
1.20188e-06
1.11422e-06
1.11422e-06
1.11422e-06
1.10585e-06
1.10585e-06
1.10585e-06
1.08832e-06
1.08832e-06
1.08832e-06
1.07844e-06
1.07844e-06
1.07844e-06
9.42727e-07
9.42727e-07
9.42727e-07