<VTKFile type="UnstructuredGrid" version="1.0">
<UnstructuredGrid>
<Piece NumberOfPoints="10830" NumberOfCells="3610">
<Points>
<DataArray type="Float64" NumberOfComponents="3" format="ascii">
3.10314 1.29552 3.16075
3.11025 1.28841 3.135
3.11025 1.28841 3.18646
3.11025 1.28841 3.69008
3.11025 1.28841 3.741
3.10226 1.2964 3.71553
3.11025 1.28841 3.69008
3.10226 1.2964 3.71553
3.09025 1.30841 3.6901
2.21656 2.1821 4.16259
2.22913 2.16953 4.18
2.19928 2.19938 4.18
2.19928 2.19938 4.18
2.19928 2.19938 4.14984
2.21656 2.1821 4.16259
3.11025 1.28841 3.69008
3.09025 1.30841 3.6901
3.10227 1.29639 3.66468
2.20538 2.19328 3.41179
2.19928 2.19938 3.43701
2.19928 2.19938 3.38657
3.10229 1.29637 3.4119
3.11025 1.28841 3.43709
3.09026 1.3084 3.43711
3.10214 1.29652 3.31134
3.11025 1.28841 3.28628
3.11025 1.28841 3.33639
3.09026 1.3084 3.43711
3.11025 1.28841 3.43709
3.1023 1.29636 3.46231
3.11025 1.28841 3.43709
3.11025 1.28841 3.48754
3.1023 1.29636 3.46231
3.09026 1.3084 3.48755
3.1023 1.29636 3.46231
3.11025 1.28841 3.48754
3.09025 1.30841 3.63931
3.10227 1.29639 3.66468
3.08043 1.31823 3.6647
3.08043 1.31823 3.6647
3.10227 1.29639 3.66468
3.09025 1.30841 3.6901
3.08043 1.31823 3.6647
3.06939 1.32927 3.63932
3.09025 1.30841 3.63931
3.08043 1.31823 3.6647
3.09025 1.30841 3.6901
3.06938 1.32928 3.69012
3.11025 1.28841 3.53804
3.11025 1.28841 3.58862
3.10229 1.29637 3.56333
3.10229 1.29637 3.56333
3.09026 1.3084 3.58863
3.08044 1.31822 3.56334
3.11025 1.28841 3.58862
3.09026 1.3084 3.58863
3.10229 1.29637 3.56333
3.11025 1.28841 3.63929
3.10227 1.29639 3.66468
3.09025 1.30841 3.63931
3.11025 1.28841 3.69008
3.10227 1.29639 3.66468
3.11025 1.28841 3.63929
3.0901 1.30856 3.28632
3.11025 1.28841 3.28628
3.10214 1.29652 3.31134
3.09024 1.30842 3.74102
3.10226 1.2964 3.71553
3.11025 1.28841 3.741
2.80657 1.59209 3.92075
2.81699 1.58167 3.89498
2.8274 1.57126 3.92072
2.19928 2.19938 3.135
2.21889 2.17977 3.135
2.20626 2.1924 3.1597
2.25868 2.13998 3.38659
2.23814 2.16052 3.38657
2.24806 2.1506 3.36137
2.21801 2.18065 3.38656
2.23814 2.16052 3.38657
2.22704 2.17162 3.41178
2.21801 2.18065 3.38656
2.20538 2.19328 3.41179
2.19928 2.19938 3.38657
2.22704 2.17162 3.41178
2.20538 2.19328 3.41179
2.21801 2.18065 3.38656
2.20547 2.19319 3.61394
2.19928 2.19938 3.6393
2.19928 2.19938 3.58861
2.21807 2.1806 3.6393
2.22712 2.17155 3.61393
2.23821 2.16045 3.63929
2.19928 2.19938 3.6393
2.20547 2.19319 3.61394
2.21807 2.1806 3.6393
2.21807 2.1806 3.6393
2.20547 2.19319 3.61394
2.22712 2.17155 3.61393
2.21805 2.18061 3.5886
2.2382 2.16046 3.5886
2.22712 2.17155 3.61393
2.21805 2.18061 3.5886
2.20547 2.19319 3.61394
2.19928 2.19938 3.58861
2.22712 2.17155 3.61393
2.20547 2.19319 3.61394
2.21805 2.18061 3.5886
2.19928 2.19938 3.43701
2.20538 2.19328 3.41179
2.21802 2.18064 3.437
2.21802 2.18064 3.437
2.20538 2.19328 3.41179
2.22704 2.17162 3.41178
2.23821 2.16045 3.63929
2.22712 2.17155 3.61393
2.24816 2.15051 3.61393
2.22712 2.17155 3.61393
2.2382 2.16046 3.5886
2.24816 2.15051 3.61393
2.40353 1.99513 3.58867
2.41386 1.9848 3.61401
2.3932 2.00546 3.614
2.3932 2.00546 3.614
2.41386 1.9848 3.61401
2.40354 1.99512 3.63937
2.40354 1.99512 3.63937
2.41386 1.9848 3.61401
2.4242 1.97446 3.63938
2.79618 1.60248 3.895
2.81699 1.58167 3.89498
2.80657 1.59209 3.92075
3.10224 1.29642 3.36156
3.11025 1.28841 3.33639
3.11025 1.28841 3.3867
3.11025 1.28841 3.43709
3.10229 1.29637 3.4119
3.11025 1.28841 3.3867
3.02715 1.37151 3.5381
3.006 1.39266 3.53811
3.01659 1.38207 3.51285
3.09026 1.3084 3.53805
3.10229 1.29637 3.56333
3.08044 1.31822 3.56334
3.11025 1.28841 3.53804
3.10229 1.29637 3.56333
3.09026 1.3084 3.53805
3.08044 1.31822 3.56334
3.09026 1.3084 3.58863
3.0694 1.32926 3.58865
3.10228 1.29638 3.61395
3.09026 1.3084 3.58863
3.11025 1.28841 3.58862
3.11025 1.28841 3.58862
3.11025 1.28841 3.63929
3.10228 1.29638 3.61395
3.10228 1.29638 3.61395
3.11025 1.28841 3.63929
3.09025 1.30841 3.63931
3.08027 1.31839 3.31137
3.0901 1.30856 3.28632
3.10214 1.29652 3.31134
3.10224 1.29642 3.36156
3.11025 1.28841 3.3867
3.09024 1.30842 3.38674
3.09024 1.30842 3.38674
3.11025 1.28841 3.3867
3.10229 1.29637 3.4119
3.0165 1.38216 3.36161
3.00588 1.39278 3.33643
3.02702 1.37164 3.33643
3.04817 1.35049 3.33645
3.03759 1.36107 3.31126
3.05884 1.33982 3.31131
3.04817 1.35049 3.33645
3.02702 1.37164 3.33643
3.03759 1.36107 3.31126
3.08043 1.31823 3.41193
3.10229 1.29637 3.4119
3.09026 1.3084 3.43711
3.08043 1.31823 3.41193
3.09024 1.30842 3.38674
3.10229 1.29637 3.4119
3.08042 1.31824 3.71555
3.09025 1.30841 3.6901
3.10226 1.2964 3.71553
3.10226 1.2964 3.71553
3.09024 1.30842 3.74102
3.08042 1.31824 3.71555
3.06938 1.32928 3.69012
3.09025 1.30841 3.6901
3.08042 1.31824 3.71555
3.08041 1.31825 3.86905
3.05901 1.33965 3.86906
3.06938 1.32928 3.84337
3.05901 1.33966 3.81774
3.08041 1.31825 3.81772
3.06938 1.32928 3.84337
3.10225 1.29641 3.76653
3.09024 1.30842 3.74102
3.11025 1.28841 3.741
3.08041 1.31825 3.76656
3.09024 1.30842 3.74102
3.10225 1.29641 3.76653
2.84822 1.55044 3.97232
2.85863 1.54003 3.99816
2.83776 1.5609 3.9982
2.96373 1.43493 3.84343
2.97428 1.42438 3.81779
2.98483 1.41383 3.84341
2.98483 1.41383 3.84341
2.97428 1.42438 3.81779
2.9954 1.40326 3.81778
3.06938 1.32929 3.79213
3.05901 1.33965 3.76658
3.08041 1.31825 3.76656
3.06938 1.32929 3.79213
3.08041 1.31825 3.81772
3.05901 1.33966 3.81774
2.95319 1.44547 3.81781
2.97428 1.42438 3.81779
2.96373 1.43493 3.84343
2.90067 1.49799 3.58874
2.87971 1.51895 3.58874
2.89018 1.50848 3.56344
2.84833 1.55033 3.56344
2.83789 1.56077 3.58875
2.82746 1.5712 3.56344
2.85878 1.53988 3.58875
2.83789 1.56077 3.58875
2.84833 1.55033 3.56344
2.83788 1.56078 3.48765
2.85877 1.53989 3.48765
2.84833 1.55034 3.51289
2.84833 1.55034 3.51289
2.82745 1.57121 3.51289
2.83788 1.56078 3.48765
2.83788 1.56078 3.48765
2.82745 1.57121 3.51289
2.81702 1.58164 3.48764
2.84833 1.55034 3.51289
2.85877 1.53989 3.48765
2.86924 1.52943 3.5129
2.87968 1.51898 3.43723
2.89017 1.50849 3.46244
2.86922 1.52944 3.46243
2.86922 1.52944 3.46243
2.85875 1.53991 3.43723
2.87968 1.51898 3.43723
2.72357 1.6751 3.61409
2.73392 1.66474 3.58875
2.74429 1.65437 3.61409
2.73392 1.66474 3.58875
2.75466 1.644 3.58875
2.74429 1.65437 3.61409
2.83789 1.56077 3.53816
2.82745 1.57121 3.51289
2.84833 1.55034 3.51289
2.83789 1.56077 3.53816
2.84833 1.55033 3.56344
2.82746 1.5712 3.56344
2.82746 1.5712 3.56344
2.80662 1.59204 3.56344
2.81703 1.58163 3.53815
2.81703 1.58163 3.53815
2.83789 1.56077 3.53816
2.82746 1.5712 3.56344
2.82745 1.57121 3.51289
2.83789 1.56077 3.53816
2.81703 1.58163 3.53815
2.81702 1.58164 3.48764
2.7962 1.60246 3.48764
2.8066 1.59206 3.46241
2.79618 1.60248 3.43719
2.81701 1.58166 3.43721
2.8066 1.59206 3.46241
2.42419 1.97447 3.58868
2.41386 1.9848 3.61401
2.40353 1.99513 3.58867
2.40353 1.99513 3.58867
2.41385 1.98481 3.56336
2.42419 1.97447 3.58868
2.20539 2.19327 3.20987
2.19928 2.19938 3.23509
2.19928 2.19938 3.18442
2.19928 2.19938 3.135
2.20626 2.1924 3.1597
2.19928 2.19938 3.18442
2.21797 2.1807 3.2857
2.19928 2.19938 3.28567
2.20528 2.19338 3.26042
2.19928 2.19938 3.28567
2.19928 2.19938 3.23509
2.20528 2.19338 3.26042
3.11025 1.28841 3.135
3.10314 1.29552 3.16075
3.0911 1.30756 3.135
2.19928 2.19938 3.38657
2.19928 2.19938 3.33614
2.20536 2.19331 3.36136
2.20536 2.19331 3.36136
2.21801 2.18065 3.38656
2.19928 2.19938 3.38657
2.21799 2.18067 3.33613
2.20536 2.19331 3.36136
2.19928 2.19938 3.33614
2.21799 2.18067 3.33613
2.22698 2.17168 3.31094
2.23811 2.16055 3.33616
2.22702 2.17165 3.36135
2.24806 2.1506 3.36137
2.23814 2.16052 3.38657
2.23814 2.16052 3.38657
2.21801 2.18065 3.38656
2.22702 2.17165 3.36135
2.23811 2.16055 3.33616
2.24806 2.1506 3.36137
2.22702 2.17165 3.36135
2.22702 2.17165 3.36135
2.21799 2.18067 3.33613
2.23811 2.16055 3.33616
2.21801 2.18065 3.38656
2.20536 2.19331 3.36136
2.22702 2.17165 3.36135
2.20536 2.19331 3.36136
2.21799 2.18067 3.33613
2.22702 2.17165 3.36135
2.20532 2.19334 3.31091
2.19928 2.19938 3.33614
2.19928 2.19938 3.28567
2.20532 2.19334 3.31091
2.19928 2.19938 3.28567
2.21797 2.1807 3.2857
2.21797 2.1807 3.2857
2.22698 2.17168 3.31094
2.20532 2.19334 3.31091
2.20532 2.19334 3.31091
2.21799 2.18067 3.33613
2.19928 2.19938 3.33614
2.22698 2.17168 3.31094
2.21799 2.18067 3.33613
2.20532 2.19334 3.31091
2.24814 2.15052 3.56329
2.2382 2.16046 3.5886
2.2271 2.17156 3.56329
2.2382 2.16046 3.5886
2.21805 2.18061 3.5886
2.2271 2.17156 3.56329
2.2271 2.17156 3.56329
2.23819 2.16048 3.538
2.24814 2.15052 3.56329
2.24809 2.15058 3.41179
2.23814 2.16052 3.38657
2.25868 2.13998 3.38659
2.22704 2.17162 3.41178
2.23814 2.16052 3.38657
2.24809 2.15058 3.41179
2.26891 2.12975 3.4118
2.24809 2.15058 3.41179
2.25868 2.13998 3.38659
2.2587 2.13996 3.43701
2.24809 2.15058 3.41179
2.26891 2.12975 3.4118
2.2587 2.13996 3.43701
2.26891 2.12975 3.4118
2.27936 2.1193 3.43702
2.41384 1.98482 3.5128
2.42418 1.97448 3.53807
2.40352 1.99515 3.53807
2.40352 1.99515 3.53807
2.42418 1.97448 3.53807
2.41385 1.98481 3.56336
2.33114 2.06753 3.56332
2.35183 2.04683 3.56333
2.34149 2.05717 3.58863
2.34148 2.05718 3.53804
2.35183 2.04683 3.56333
2.33114 2.06753 3.56332
2.35182 2.04684 3.51277
2.34147 2.05719 3.48752
2.36216 2.03651 3.48753
2.34148 2.05718 3.53804
2.33112 2.06754 3.51276
2.35182 2.04684 3.51277
2.35182 2.04684 3.51277
2.33112 2.06754 3.51276
2.34147 2.05719 3.48752
2.35184 2.04682 3.61398
2.37253 2.02613 3.61399
2.3622 2.03646 3.63934
2.31047 2.08819 3.6647
2.32082 2.07785 3.63932
2.33117 2.06749 3.66471
2.3208 2.07786 3.58862
2.33114 2.06753 3.56332
2.34149 2.05717 3.58863
2.31043 2.08823 3.56331
2.33114 2.06753 3.56332
2.3208 2.07786 3.58862
2.23821 2.16045 3.63929
2.24816 2.15051 3.61393
2.25876 2.1399 3.63929
2.24814 2.15052 3.56329
2.23819 2.16048 3.538
2.25873 2.13993 3.538
2.25873 2.13993 3.538
2.26896 2.1297 3.56329
2.24814 2.15052 3.56329
2.30008 2.09858 3.53801
2.31043 2.08823 3.56331
2.28971 2.10895 3.5633
2.25874 2.13992 3.5886
2.24816 2.15051 3.61393
2.2382 2.16046 3.5886
2.25874 2.13992 3.5886
[...]
<PointData Scalars="View Factor" >
<DataArray type="Float64" Name="View Factor" NumberOfComponents="1" format="ascii">
0.000101399
0.000101399
0.000101399
8.75702e-05
8.75702e-05
8.75702e-05
8.7438e-05
8.7438e-05
8.7438e-05
9.41016e-06
9.41016e-06
9.41016e-06
7.08951e-06
7.08951e-06
7.08951e-06
8.78295e-05
8.78295e-05
8.78295e-05
5.39245e-06
5.39245e-06
5.39245e-06
9.38423e-05
9.38423e-05
9.38423e-05
9.73693e-05
9.73693e-05
9.73693e-05
9.34215e-05
9.34215e-05
9.34215e-05
9.35598e-05
9.35598e-05
9.35598e-05
9.26012e-05
9.26012e-05
9.26012e-05
8.76277e-05
8.76277e-05
8.76277e-05
8.72454e-05
8.72454e-05
8.72454e-05
8.69583e-05
8.69583e-05
8.69583e-05
8.61998e-05
8.61998e-05
8.61998e-05
9.11112e-05
9.11112e-05
9.11112e-05
8.95818e-05
8.95818e-05
8.95818e-05
9.01792e-05
9.01792e-05
9.01792e-05
8.85987e-05
8.85987e-05
8.85987e-05
8.87339e-05
8.87339e-05
8.87339e-05
9.72229e-05
9.72229e-05
9.72229e-05
8.66752e-05
8.66752e-05
8.66752e-05
1.13585e-05
1.13585e-05
1.13585e-05
9.14179e-06
9.14179e-06
9.14179e-06
2.94759e-05
2.94759e-05
2.94759e-05
3.14737e-05
3.14737e-05
3.14737e-05
6.36185e-06
6.36185e-06
6.36185e-06
1.24674e-05
1.24674e-05
1.24674e-05
1.55822e-05
1.55822e-05
1.55822e-05
3.38344e-05
3.38344e-05
3.38344e-05
1.90899e-05
1.90899e-05
1.90899e-05
2.38313e-05
2.38313e-05
2.38313e-05
3.2193e-05
3.2193e-05
3.2193e-05
1.48655e-05
1.48655e-05
1.48655e-05
2.17619e-05
2.17619e-05
2.17619e-05
6.22987e-06
6.22987e-06
6.22987e-06
1.23748e-05
1.23748e-05
1.23748e-05
3.26363e-05
3.26363e-05
3.26363e-05
3.17934e-05
3.17934e-05
3.17934e-05
9.85009e-06
9.85009e-06
9.85009e-06
1.19435e-05
1.19435e-05
1.19435e-05
1.28848e-05
1.28848e-05
1.28848e-05
1.16027e-05
1.16027e-05
1.16027e-05
9.60827e-05
9.60827e-05
9.60827e-05
9.48121e-05
9.48121e-05
9.48121e-05
8.40045e-05
8.40045e-05
8.40045e-05
8.9975e-05
8.9975e-05
8.9975e-05
9.09752e-05
9.09752e-05
9.09752e-05
8.85074e-05
8.85074e-05
8.85074e-05
8.97791e-05
8.97791e-05
8.97791e-05
8.9914e-05
8.9914e-05
8.9914e-05
8.89936e-05
8.89936e-05
8.89936e-05
9.61501e-05
9.61501e-05
9.61501e-05
9.50944e-05
9.50944e-05
9.50944e-05
9.46704e-05
9.46704e-05
9.46704e-05
8.83125e-05
8.83125e-05
8.83125e-05
9.20506e-05
9.20506e-05
9.20506e-05
9.08712e-05
9.08712e-05
9.08712e-05
9.32182e-05
9.32182e-05
9.32182e-05
9.36323e-05
9.36323e-05
9.36323e-05
8.64781e-05
8.64781e-05
8.64781e-05
8.60985e-05
8.60985e-05
8.60985e-05
8.58187e-05
8.58187e-05
8.58187e-05
8.15316e-05
8.15316e-05
8.15316e-05
8.22528e-05
8.22528e-05
8.22528e-05
8.62891e-05
8.62891e-05
8.62891e-05
8.53431e-05
8.53431e-05
8.53431e-05
4.50197e-05
4.50197e-05
4.50197e-05
7.3865e-05
7.3865e-05
7.3865e-05
7.49422e-05
7.49422e-05
7.49422e-05
8.33437e-05
8.33437e-05
8.33437e-05
8.26175e-05
8.26175e-05
8.26175e-05
7.2852e-05
7.2852e-05
7.2852e-05
6.72687e-05
6.72687e-05
6.72687e-05
2.909e-05
2.909e-05
2.909e-05
4.56593e-05
4.56593e-05
4.56593e-05
4.70184e-05
4.70184e-05
4.70184e-05
2.98933e-05
2.98933e-05
2.98933e-05
2.34774e-06
2.34774e-06
2.34774e-06
5.60906e-05
5.60906e-05
5.60906e-05
6.72175e-05
6.72175e-05
6.72175e-05
6.34783e-05
6.34783e-05
6.34783e-05
1.09945e-05
1.09945e-05
1.09945e-05
9.63278e-06
9.63278e-06
9.63278e-06
2.9676e-05
2.9676e-05
2.9676e-05
2.92816e-05
2.92816e-05
2.92816e-05
3.85295e-06
3.85295e-06
3.85295e-06
3.0493e-06
3.0493e-06
3.0493e-06
2.18965e-06
2.18965e-06
2.18965e-06
2.39614e-06
2.39614e-06
2.39614e-06
2.55311e-06
2.55311e-06
2.55311e-06
8.62484e-06
8.62484e-06
8.62484e-06
6.40158e-06
6.40158e-06
6.40158e-06
6.97265e-06
6.97265e-06
6.97265e-06
7.61304e-06
7.61304e-06
7.61304e-06
7.09651e-06
7.09651e-06
7.09651e-06
6.56379e-06
6.56379e-06
6.56379e-06
0.000101289
0.000101289
0.000101289
5.79359e-06
5.79359e-06
5.79359e-06
6.40987e-06
6.40987e-06
6.40987e-06
6.55804e-06
6.55804e-06
6.55804e-06
3.21666e-05
3.21666e-05
3.21666e-05
3.07438e-05
3.07438e-05
3.07438e-05
3.16372e-05
3.16372e-05
3.16372e-05
3.09287e-05
3.09287e-05
3.09287e-05
3.19815e-05
3.19815e-05
3.19815e-05
1.26266e-05
1.26266e-05
1.26266e-05
1.27237e-05
1.27237e-05
1.27237e-05
6.17694e-06
6.17694e-06
6.17694e-06
6.92505e-06
6.92505e-06
6.92505e-06
1.27426e-05
1.27426e-05
1.27426e-05
6.66328e-06
6.66328e-06
6.66328e-06
1.26452e-05
1.26452e-05
1.26452e-05
3.01039e-05
3.01039e-05
3.01039e-05
3.13697e-05
3.13697e-05
3.13697e-05
2.95165e-05
2.95165e-05
2.95165e-05
2.93166e-05
2.93166e-05
2.93166e-05
3.0413e-05
3.0413e-05
3.0413e-05
2.81256e-05
2.81256e-05
2.81256e-05
2.79541e-05
2.79541e-05
2.79541e-05
2.63439e-05
2.63439e-05
2.63439e-05
1.93353e-06
1.93353e-06
1.93353e-06
2.85366e-06
2.85366e-06
2.85366e-06
5.91948e-06
5.91948e-06
5.91948e-06
3.97026e-06
3.97026e-06
3.97026e-06
1.62944e-06
1.62944e-06
1.62944e-06
1.86084e-06
1.86084e-06
1.86084e-06
1.62276e-06
1.62276e-06
1.62276e-06
1.22907e-05
1.22907e-05
1.22907e-05
1.62569e-05
1.62569e-05
1.62569e-05
7.08832e-06
7.08832e-06
7.08832e-06
6.08125e-06
6.08125e-06
6.08125e-06
3.21275e-05
3.21275e-05
3.21275e-05
2.82016e-05
2.82016e-05
2.82016e-05
2.73672e-05
2.73672e-05
2.73672e-05
4.21948e-06
4.21948e-06
4.21948e-06
3.03127e-05
3.03127e-05
3.03127e-05
2.94083e-05
2.94083e-05
2.94083e-05
2.80267e-05
2.80267e-05
2.80267e-05
1.71136e-05
1.71136e-05
1.71136e-05
8.2815e-06
8.2815e-06
8.2815e-06
8.64874e-06
8.64874e-06
8.64874e-06
8.80195e-06
8.80195e-06
8.80195e-06
1.00262e-05
1.00262e-05
1.00262e-05
1.50239e-05
1.50239e-05
1.50239e-05
1.30525e-05
1.30525e-05
1.30525e-05
1.32222e-05
1.32222e-05
1.32222e-05
1.21157e-05
1.21157e-05
1.21157e-05
1.48544e-05
1.48544e-05
1.48544e-05
1.57525e-05
1.57525e-05
1.57525e-05
1.74941e-05
1.74941e-05
1.74941e-05
1.70612e-05
1.70612e-05
1.70612e-05
1.73208e-05
1.73208e-05
1.73208e-05
1.59163e-05
1.59163e-05
1.59163e-05
1.70763e-05
1.70763e-05
1.70763e-05
1.55132e-05
1.55132e-05
1.55132e-05
1.49163e-05
1.49163e-05
1.49163e-05
1.33227e-05
1.33227e-05
1.33227e-05
1.38149e-05
1.38149e-05
1.38149e-05
1.69336e-05
1.69336e-05
1.69336e-05
1.46866e-05
1.46866e-05
1.46866e-05
1.55877e-05
1.55877e-05
1.55877e-05
1.04327e-05
1.04327e-05
1.04327e-05
1.0246e-05
1.0246e-05
1.0246e-05
1.1077e-05
1.1077e-05
1.1077e-05
1.12957e-05
1.12957e-05
1.12957e-05
1.11424e-05
1.11424e-05
1.11424e-05
1.16804e-05
1.16804e-05
1.16804e-05
1.47268e-05
1.47268e-05
1.47268e-05
1.20808e-05
1.20808e-05
1.20808e-05
4.37183e-06
4.37183e-06
4.37183e-06
4.42029e-06
4.42029e-06
4.42029e-06
4.14403e-06
4.14403e-06
4.14403e-06
3.98264e-06
3.98264e-06
3.98264e-06
4.64593e-06
4.64593e-06
4.64593e-06
4.83212e-06
4.83212e-06
4.83212e-06
4.78596e-06
4.78596e-06
4.78596e-06
4.55329e-06
4.55329e-06
4.55329e-06
4.92593e-06
4.92593e-06
4.92593e-06
4.97578e-06
4.97578e-06
4.97578e-06
5.23038e-06
5.23038e-06
5.23038e-06
4.10246e-06
4.10246e-06
4.10246e-06
4.68656e-06
4.68656e-06
4.68656e-06
4.50135e-06
4.50135e-06
4.50135e-06
4.26674e-06
4.26674e-06
4.26674e-06
4.22201e-06
4.22201e-06
4.22201e-06
4.70185e-06
4.70185e-06
4.70185e-06
6.85569e-05
6.85569e-05
6.85569e-05
5.42985e-05
5.42985e-05
5.42985e-05
6.2281e-05
6.2281e-05
6.2281e-05
6.52175e-05
6.52175e-05
6.52175e-05
6.39532e-05
6.39532e-05
6.39532e-05
8.52978e-05
8.52978e-05
8.52978e-05
8.55768e-05
8.55768e-05
8.55768e-05
8.59493e-05
8.59493e-05
8.59493e-05
8.42385e-05
8.42385e-05
8.42385e-05
6.91505e-05
6.91505e-05
6.91505e-05
6.89038e-05
6.89038e-05
6.89038e-05
7.13929e-05
7.13929e-05
7.13929e-05
8.0791e-05
8.0791e-05
8.0791e-05
7.99509e-05
7.99509e-05
7.99509e-05
9.13811e-05
9.13811e-05
9.13811e-05
9.07762e-05
9.07762e-05
9.07762e-05
9.23263e-05
9.23263e-05
9.23263e-05
9.21891e-05
9.21891e-05
9.21891e-05
9.11754e-05
9.11754e-05
9.11754e-05
8.4985e-05
8.4985e-05
8.4985e-05
8.56769e-05
8.56769e-05
8.56769e-05
8.73447e-05
8.73447e-05
8.73447e-05
8.81152e-05
8.81152e-05
8.81152e-05
8.6715e-05
8.6715e-05
8.6715e-05
8.70954e-05
8.70954e-05
8.70954e-05
8.84021e-05
8.84021e-05
8.84021e-05
8.87922e-05
8.87922e-05
8.87922e-05
9.59395e-05
9.59395e-05
9.59395e-05
9.63673e-05
9.63673e-05
9.63673e-05
9.57233e-05
9.57233e-05
9.57233e-05
9.76503e-05
9.76503e-05
9.76503e-05
8.8726e-05
8.8726e-05
8.8726e-05
9.0052e-05
9.0052e-05
9.0052e-05
9.2918e-05
9.2918e-05
9.2918e-05
9.15428e-05
9.15428e-05
9.15428e-05
9.18379e-05
9.18379e-05
9.18379e-05
9.11416e-05
9.11416e-05
9.11416e-05
8.50681e-05
8.50681e-05
8.50681e-05
8.46923e-05
8.46923e-05
8.46923e-05
8.37085e-05
8.37085e-05
8.37085e-05
8.11739e-05
8.11739e-05
8.11739e-05
7.5188e-05
7.5188e-05
7.5188e-05
6.22146e-05
6.22146e-05
6.22146e-05
1.06835e-05
1.06835e-05
1.06835e-05
1.27001e-05
1.27001e-05
1.27001e-05
1.18955e-05
1.18955e-05
1.18955e-05
7.353e-05
7.353e-05
7.353e-05
7.28888e-05
7.28888e-05
7.28888e-05
7.76514e-05
7.76514e-05
7.76514e-05
7.79955e-05
7.79955e-05
7.79955e-05
7.34574e-05
7.34574e-05
7.34574e-05
7.88102e-05
7.88102e-05
7.88102e-05
7.65135e-05
7.65135e-05
7.65135e-05
7.78711e-05
7.78711e-05
7.78711e-05
7.6172e-05
7.6172e-05
7.6172e-05
7.51117e-05
7.51117e-05
7.51117e-05
7.36626e-05
7.36626e-05
7.36626e-05
8.39507e-05
8.39507e-05
8.39507e-05
8.35871e-05
8.35871e-05
8.35871e-05
8.49709e-05
8.49709e-05
8.49709e-05
8.09138e-05
8.09138e-05
8.09138e-05
7.98933e-05
7.98933e-05
7.98933e-05
8.12726e-05
8.12726e-05
8.12726e-05
8.06042e-05
8.06042e-05
8.06042e-05
7.91211e-05
7.91211e-05
7.91211e-05
7.94739e-05
7.94739e-05
7.94739e-05
7.37876e-05
7.37876e-05
7.37876e-05
7.57105e-05
7.57105e-05
7.57105e-05
7.53692e-05
7.53692e-05
7.53692e-05
6.76868e-05
6.76868e-05
6.76868e-05
7.54261e-06
7.54261e-06
7.54261e-06
6.07251e-06
6.07251e-06
6.07251e-06
4.53957e-05
4.53957e-05
4.53957e-05
1.81824e-05
1.81824e-05
1.81824e-05
1.95693e-05
1.95693e-05
1.95693e-05
1.19056e-05
1.19056e-05
1.19056e-05
1.04208e-05
1.04208e-05
1.04208e-05
7.35697e-06
7.35697e-06
7.35697e-06
5.9216e-06
5.9216e-06
5.9216e-06
1.01576e-05
1.01576e-05
1.01576e-05
7.17154e-06
7.17154e-06
7.17154e-06
1.48973e-05
1.48973e-05
1.48973e-05
1.65715e-05
1.65715e-05
1.65715e-05
1.91496e-05
1.91496e-05
1.91496e-05
2.00833e-05
2.00833e-05
2.00833e-05
1.86661e-05
1.86661e-05
1.86661e-05
1.61524e-05
1.61524e-05
1.61524e-05
5.48193e-05
5.48193e-05
5.48193e-05
6.06875e-05
6.06875e-05
6.06875e-05
6.49788e-05
6.49788e-05
6.49788e-05
6.53292e-05
6.53292e-05
6.53292e-05
1.98521e-05
1.98521e-05
1.98521e-05
2.23577e-05
2.23577e-05
2.23577e-05
2.09201e-05
2.09201e-05
2.09201e-05
2.45481e-06
2.45481e-06
2.45481e-06
2.61574e-06
2.61574e-06
2.61574e-06
2.45375e-06
2.45375e-06
2.45375e-06
2.55688e-06
2.55688e-06
2.55688e-06
4.78904e-05
4.78904e-05
4.78904e-05
3.05407e-05
3.05407e-05
3.05407e-05
3.03136e-05
3.03136e-05
3.03136e-05
4.7322e-05
4.7322e-05
4.7322e-05
5.67446e-05
5.67446e-05
5.67446e-05
5.70947e-05
5.70947e-05
5.70947e-05
6.60135e-05
6.60135e-05
6.60135e-05
6.78616e-05
6.78616e-05
6.78616e-05
4.57513e-06
4.57513e-06
4.57513e-06
2.90849e-06
2.90849e-06
2.90849e-06
1.6003e-05
1.6003e-05
1.6003e-05
1.4828e-05
1.4828e-05
1.4828e-05
4.72371e-06
4.72371e-06
4.72371e-06
5.70105e-06
5.70105e-06
5.70105e-06
1.88783e-05
1.88783e-05
1.88783e-05
1.78168e-05
1.78168e-05
1.78168e-05
1.82907e-05
1.82907e-05
1.82907e-05
1.97443e-05
1.97443e-05
1.97443e-05
1.94564e-05
1.94564e-05
1.94564e-05
1.91306e-05
1.91306e-05
1.91306e-05
6.80185e-06
6.80185e-06
6.80185e-06
2.75426e-06
2.75426e-06
2.75426e-06
3.47376e-06
3.47376e-06
3.47376e-06
5.4702e-06
5.4702e-06
5.4702e-06
1.53171e-05
1.53171e-05
1.53171e-05
1.37564e-05
1.37564e-05
1.37564e-05
2.68093e-06
2.68093e-06
2.68093e-06
9.3715e-06
9.3715e-06
9.3715e-06
6.61722e-06
6.61722e-06
6.61722e-06
1.98265e-06
1.98265e-06
1.98265e-06
2.49055e-06
2.49055e-06
2.49055e-06
2.49476e-06
2.49476e-06
2.49476e-06
2.39428e-06
2.39428e-06
2.39428e-06
2.97523e-06
2.97523e-06
2.97523e-06
3.75782e-06
3.75782e-06
3.75782e-06
2.08723e-06
2.08723e-06
2.08723e-06
2.90146e-06
2.90146e-06
2.90146e-06
1.82451e-06
1.82451e-06
1.82451e-06
1.70122e-06
1.70122e-06
1.70122e-06
1.63076e-06
1.63076e-06
1.63076e-06
1.62113e-06
1.62113e-06
1.62113e-06
1.82491e-06
1.82491e-06
1.82491e-06
1.72604e-06
1.72604e-06
1.72604e-06
1.79827e-06
1.79827e-06
1.79827e-06
2.66827e-05
2.66827e-05
2.66827e-05
2.84317e-05
2.84317e-05
2.84317e-05
2.6831e-05
2.6831e-05
2.6831e-05
1.62075e-06
1.62075e-06
1.62075e-06
1.74216e-06
1.74216e-06
1.74216e-06
4.42653e-06
4.42653e-06
4.42653e-06
5.51852e-06
5.51852e-06
5.51852e-06
7.81231e-06
7.81231e-06
7.81231e-06
8.88897e-06
8.88897e-06
8.88897e-06
1.24201e-05
1.24201e-05
1.24201e-05
1.1121e-05
1.1121e-05
1.1121e-05
9.40838e-05
9.40838e-05
9.40838e-05
0.000100194
0.000100194
0.000100194
9.94768e-05
9.94768e-05
9.94768e-05
8.82076e-05
8.82076e-05
8.82076e-05
9.20924e-05
9.20924e-05
9.20924e-05
9.25029e-05
9.25029e-05
9.25029e-05
8.17876e-05
8.17876e-05
8.17876e-05
8.25205e-05
8.25205e-05
8.25205e-05
2.07984e-05
2.07984e-05
2.07984e-05
2.08941e-05
2.08941e-05
2.08941e-05
8.83267e-06
8.83267e-06
8.83267e-06
1.25815e-05
1.25815e-05
1.25815e-05
1.72194e-05
1.72194e-05
1.72194e-05
4.84855e-06
4.84855e-06
4.84855e-06
6.03277e-06
6.03277e-06
6.03277e-06
3.04764e-05
3.04764e-05
3.04764e-05
1.20222e-05
1.20222e-05
1.20222e-05
6.17974e-06
6.17974e-06
6.17974e-06
4.98793e-06
4.98793e-06
4.98793e-06
6.08292e-06
6.08292e-06
6.08292e-06
1.22216e-05
1.22216e-05
1.22216e-05
1.2138e-05
1.2138e-05
1.2138e-05
3.06383e-05
3.06383e-05
3.06383e-05
2.97412e-05
2.97412e-05
2.97412e-05
2.76572e-05
2.76572e-05
2.76572e-05
2.6195e-05
2.6195e-05
2.6195e-05
3.1115e-05
3.1115e-05
3.1115e-05
3.02317e-05
3.02317e-05
3.02317e-05
3.09545e-05
3.09545e-05
3.09545e-05
2.99071e-05
2.99071e-05
2.99071e-05
2.89644e-05
2.89644e-05
2.89644e-05
2.88091e-05
2.88091e-05
2.88091e-05
2.94247e-05
2.94247e-05
2.94247e-05
2.92657e-05
2.92657e-05
2.92657e-05
2.80447e-05
2.80447e-05
2.80447e-05
2.70573e-05
2.70573e-05
2.70573e-05
1.9899e-06
1.9899e-06
1.9899e-06
1.80218e-06
1.80218e-06
1.80218e-06
1.62509e-06
1.62509e-06
1.62509e-06
1.77199e-06
1.77199e-06
1.77199e-06
5.4508e-06
5.4508e-06
5.4508e-06
3.61313e-06
3.61313e-06
3.61313e-06
6.57149e-06
6.57149e-06
6.57149e-06
2.95638e-06
2.95638e-06
2.95638e-06
3.73421e-06
3.73421e-06
3.73421e-06
5.60278e-06
5.60278e-06
5.60278e-06
4.09468e-06
4.09468e-06
4.09468e-06
1.89099e-06
1.89099e-06
1.89099e-06
3.26752e-06
3.26752e-06
3.26752e-06
2.16033e-06
2.16033e-06
2.16033e-06
3.37226e-06
3.37226e-06
3.37226e-06
2.22139e-06
2.22139e-06
2.22139e-06
1.03834e-05
1.03834e-05
1.03834e-05
9.33029e-06
9.33029e-06
9.33029e-06
1.33944e-05
1.33944e-05
1.33944e-05
1.53697e-05
1.53697e-05
1.53697e-05
1.3569e-05
1.3569e-05
1.3569e-05
1.24676e-05
1.24676e-05
1.24676e-05
1.60854e-05
1.60854e-05
1.60854e-05
1.51955e-05
1.51955e-05
1.51955e-05
1.78694e-05
1.78694e-05
1.78694e-05
1.80276e-05
1.80276e-05
1.80276e-05
1.78205e-05
1.78205e-05
1.78205e-05
1.74595e-05
1.74595e-05
1.74595e-05
1.79344e-05
1.79344e-05
1.79344e-05
1.79186e-05
1.79186e-05
1.79186e-05
1.80963e-05
1.80963e-05
1.80963e-05
1.55463e-05
1.55463e-05
1.55463e-05
2.54709e-05
2.54709e-05
2.54709e-05
1.88065e-05
1.88065e-05
1.88065e-05
2.56522e-05
2.56522e-05
2.56522e-05
2.41624e-05
2.41624e-05
2.41624e-05
3.07883e-05
3.07883e-05
3.07883e-05
2.98738e-05
2.98738e-05
2.98738e-05
2.69434e-05
2.69434e-05
2.69434e-05
2.79695e-05
2.79695e-05
2.79695e-05
2.48946e-05
2.48946e-05
2.48946e-05
2.69845e-05
2.69845e-05
2.69845e-05
1.71276e-05
1.71276e-05
1.71276e-05
2.55139e-05
2.55139e-05
2.55139e-05
1.65952e-05
1.65952e-05
1.65952e-05
3.05654e-05
3.05654e-05
3.05654e-05
3.18395e-05
3.18395e-05
3.18395e-05
2.48487e-05
2.48487e-05
2.48487e-05
1.65875e-05
1.65875e-05
1.65875e-05
1.66021e-05
1.66021e-05
1.66021e-05
1.54612e-05
1.54612e-05
1.54612e-05
1.48609e-05
1.48609e-05
1.48609e-05
1.54602e-05
1.54602e-05
1.54602e-05
7.41405e-06
7.41405e-06
7.41405e-06
2.66521e-05
2.66521e-05
2.66521e-05
2.32789e-05
2.32789e-05
2.32789e-05
1.0608e-05
1.0608e-05
1.0608e-05
1.15308e-05
1.15308e-05
1.15308e-05
1.56896e-05
1.56896e-05
1.56896e-05
9.99215e-06
9.99215e-06
9.99215e-06
9.3228e-06
9.3228e-06
9.3228e-06
1.03285e-05
1.03285e-05
1.03285e-05
1.35296e-05
1.35296e-05
1.35296e-05
1.11335e-05
1.11335e-05
1.11335e-05
1.4158e-05
1.4158e-05
1.4158e-05
2.97571e-05
2.97571e-05
2.97571e-05
2.94537e-05
2.94537e-05
2.94537e-05
1.02041e-05
1.02041e-05
1.02041e-05
8.97547e-06
8.97547e-06
8.97547e-06
6.74292e-06
6.74292e-06
6.74292e-06
5.76297e-06
5.76297e-06
5.76297e-06
6.91487e-06
6.91487e-06
6.91487e-06
9.15526e-06
9.15526e-06
9.15526e-06
1.7587e-05
1.7587e-05
1.7587e-05
1.76968e-05
1.76968e-05
1.76968e-05
1.71847e-05
1.71847e-05
1.71847e-05
1.79004e-05
1.79004e-05
1.79004e-05
1.66621e-05
1.66621e-05
1.66621e-05
1.75218e-05
1.75218e-05
1.75218e-05
1.75141e-05
1.75141e-05
1.75141e-05
1.76339e-05
1.76339e-05
1.76339e-05
1.55059e-05
1.55059e-05
1.55059e-05
1.66289e-05
1.66289e-05
1.66289e-05
1.66115e-05
1.66115e-05
1.66115e-05
1.70737e-05
1.70737e-05
1.70737e-05
1.7389e-05
1.7389e-05
1.7389e-05
1.78008e-05
1.78008e-05
1.78008e-05
1.77458e-05
1.77458e-05
1.77458e-05
1.76678e-05
1.76678e-05
1.76678e-05
1.5426e-05
1.5426e-05
1.5426e-05
1.6823e-05
1.6823e-05
1.6823e-05
1.66982e-05
1.66982e-05
1.66982e-05
1.72872e-05
1.72872e-05
1.72872e-05
9.23387e-06
9.23387e-06
9.23387e-06
8.63442e-06
8.63442e-06
8.63442e-06
9.50245e-06
9.50245e-06
9.50245e-06
9.62395e-06
9.62395e-06
9.62395e-06
1.07194e-05
1.07194e-05
1.07194e-05
1.14495e-05
1.14495e-05
1.14495e-05
9.88513e-06
9.88513e-06
9.88513e-06
1.05183e-05
1.05183e-05
1.05183e-05
1.07977e-05
1.07977e-05
1.07977e-05
1.10072e-05
1.10072e-05
1.10072e-05
1.54161e-05
1.54161e-05
1.54161e-05
1.40664e-05
1.40664e-05
1.40664e-05
1.30953e-05
1.30953e-05
1.30953e-05
1.36878e-05
1.36878e-05
1.36878e-05
1.43353e-05
1.43353e-05
1.43353e-05
1.27428e-05
1.27428e-05
1.27428e-05
1.24975e-05
1.24975e-05
1.24975e-05
1.61528e-05
1.61528e-05
1.61528e-05
1.58371e-05
1.58371e-05
1.58371e-05
1.7489e-05
1.7489e-05
1.7489e-05
1.83763e-05
1.83763e-05
1.83763e-05
1.28384e-05
1.28384e-05
1.28384e-05
1.23169e-05
1.23169e-05
1.23169e-05
1.17576e-05
1.17576e-05
1.17576e-05
1.19991e-05
1.19991e-05
1.19991e-05
1.44456e-05
1.44456e-05
1.44456e-05
1.34476e-05
1.34476e-05
1.34476e-05
1.31796e-05
1.31796e-05
1.31796e-05
1.23907e-05
1.23907e-05
1.23907e-05
1.26362e-05
1.26362e-05
1.26362e-05
1.29451e-05
1.29451e-05
1.29451e-05
1.38629e-05
1.38629e-05
1.38629e-05
2.19218e-05
2.19218e-05
2.19218e-05
2.14431e-05
2.14431e-05
2.14431e-05
1.78863e-05
1.78863e-05
1.78863e-05
2.03678e-05
2.03678e-05
2.03678e-05
2.18254e-05
2.18254e-05
2.18254e-05
1.98165e-05
1.98165e-05
1.98165e-05
1.93215e-05
1.93215e-05
1.93215e-05
2.2048e-05
2.2048e-05
2.2048e-05
2.12349e-05
2.12349e-05
2.12349e-05
1.14286e-05
1.14286e-05
1.14286e-05
1.16112e-05
1.16112e-05
1.16112e-05
6.26646e-06
6.26646e-06
6.26646e-06
3.98335e-06
3.98335e-06
3.98335e-06
4.6889e-06
4.6889e-06
4.6889e-06
4.98942e-06
4.98942e-06
4.98942e-06
4.92886e-06
4.92886e-06
4.92886e-06
8.87155e-06
8.87155e-06
8.87155e-06
8.59356e-06
8.59356e-06
8.59356e-06
1.32501e-05
1.32501e-05
1.32501e-05
1.37533e-05
1.37533e-05
1.37533e-05
4.02177e-06
4.02177e-06
4.02177e-06
6.08246e-06
6.08246e-06
6.08246e-06
1.23308e-05
1.23308e-05
1.23308e-05
6.81162e-06
6.81162e-06
6.81162e-06
5.54762e-06
5.54762e-06
5.54762e-06
1.72109e-05
1.72109e-05
1.72109e-05
1.3165e-05
1.3165e-05
1.3165e-05
8.85864e-06
8.85864e-06
8.85864e-06
9.2866e-06
9.2866e-06
9.2866e-06
1.00974e-05
1.00974e-05
1.00974e-05
9.91826e-06
9.91826e-06
9.91826e-06
6.44767e-06
6.44767e-06
6.44767e-06
5.40757e-06
5.40757e-06
5.40757e-06
5.29946e-06
5.29946e-06
5.29946e-06
5.14454e-06
5.14454e-06
5.14454e-06
5.07985e-06
5.07985e-06
5.07985e-06
7.68321e-06
7.68321e-06
7.68321e-06
8.32178e-06
8.32178e-06
8.32178e-06
8.22105e-06
8.22105e-06
8.22105e-06
6.9678e-06
6.9678e-06
6.9678e-06
6.65808e-06
6.65808e-06
6.65808e-06
6.75077e-06
6.75077e-06
6.75077e-06
7.4329e-06
7.4329e-06
7.4329e-06
9.96789e-06
9.96789e-06
9.96789e-06
9.3624e-06
9.3624e-06
9.3624e-06
4.82214e-06
4.82214e-06
4.82214e-06
4.88173e-06
4.88173e-06
4.88173e-06
4.6313e-06
4.6313e-06
4.6313e-06
4.34187e-06
4.34187e-06
4.34187e-06
4.38936e-06
4.38936e-06
4.38936e-06
4.58184e-06
4.58184e-06
4.58184e-06
4.75852e-06
4.75852e-06
4.75852e-06
5.02102e-06
5.02102e-06
5.02102e-06
5.08638e-06
5.08638e-06
5.08638e-06
5.08465e-05
5.08465e-05