<VTKFile type="UnstructuredGrid" version="1.0">
<UnstructuredGrid>
<Piece NumberOfPoints="10830" NumberOfCells="3610">
<Points>
<DataArray type="Float64" NumberOfComponents="3" format="ascii">
3.10314 1.29552 2.11575
3.11025 1.28841 2.09
3.11025 1.28841 2.14146
3.11025 1.28841 2.64508
3.11025 1.28841 2.696
3.10226 1.2964 2.67053
3.11025 1.28841 2.64508
3.10226 1.2964 2.67053
3.09025 1.30841 2.6451
2.21656 2.1821 3.11759
2.22913 2.16953 3.135
2.19928 2.19938 3.135
2.19928 2.19938 3.135
2.19928 2.19938 3.10484
2.21656 2.1821 3.11759
3.11025 1.28841 2.64508
3.09025 1.30841 2.6451
3.10227 1.29639 2.61968
2.20538 2.19328 2.36679
2.19928 2.19938 2.39201
2.19928 2.19938 2.34157
3.10229 1.29637 2.3669
3.11025 1.28841 2.39209
3.09026 1.3084 2.39211
3.10214 1.29652 2.26634
3.11025 1.28841 2.24128
3.11025 1.28841 2.29139
3.09026 1.3084 2.39211
3.11025 1.28841 2.39209
3.1023 1.29636 2.41732
3.11025 1.28841 2.39209
3.11025 1.28841 2.44254
3.1023 1.29636 2.41732
3.09026 1.3084 2.44255
3.1023 1.29636 2.41732
3.11025 1.28841 2.44254
3.09025 1.30841 2.59431
3.10227 1.29639 2.61968
3.08043 1.31823 2.6197
3.08043 1.31823 2.6197
3.10227 1.29639 2.61968
3.09025 1.30841 2.6451
3.08043 1.31823 2.6197
3.06939 1.32927 2.59432
3.09025 1.30841 2.59431
3.08043 1.31823 2.6197
3.09025 1.30841 2.6451
3.06938 1.32928 2.64512
3.11025 1.28841 2.49304
3.11025 1.28841 2.54362
3.10229 1.29637 2.51833
3.10229 1.29637 2.51833
3.09026 1.3084 2.54363
3.08044 1.31822 2.51834
3.11025 1.28841 2.54362
3.09026 1.3084 2.54363
3.10229 1.29637 2.51833
3.11025 1.28841 2.59429
3.10227 1.29639 2.61968
3.09025 1.30841 2.59431
3.11025 1.28841 2.64508
3.10227 1.29639 2.61968
3.11025 1.28841 2.59429
3.0901 1.30856 2.24132
3.11025 1.28841 2.24128
3.10214 1.29652 2.26634
3.09024 1.30842 2.69602
3.10226 1.2964 2.67053
3.11025 1.28841 2.696
2.80657 1.59209 2.87575
2.81699 1.58167 2.84998
2.8274 1.57126 2.87572
2.19928 2.19938 2.09
2.21889 2.17977 2.09
2.20626 2.1924 2.11471
2.25868 2.13998 2.34159
2.23814 2.16052 2.34157
2.24806 2.1506 2.31637
2.21801 2.18065 2.34156
2.23814 2.16052 2.34157
2.22704 2.17162 2.36678
2.21801 2.18065 2.34156
2.20538 2.19328 2.36679
2.19928 2.19938 2.34157
2.22704 2.17162 2.36678
2.20538 2.19328 2.36679
2.21801 2.18065 2.34156
2.20547 2.19319 2.56894
2.19928 2.19938 2.5943
2.19928 2.19938 2.54361
2.21807 2.1806 2.5943
2.22712 2.17155 2.56893
2.23821 2.16045 2.59429
2.19928 2.19938 2.5943
2.20547 2.19319 2.56894
2.21807 2.1806 2.5943
2.21807 2.1806 2.5943
2.20547 2.19319 2.56894
2.22712 2.17155 2.56893
2.21805 2.18061 2.5436
2.2382 2.16046 2.5436
2.22712 2.17155 2.56893
2.21805 2.18061 2.5436
2.20547 2.19319 2.56894
2.19928 2.19938 2.54361
2.22712 2.17155 2.56893
2.20547 2.19319 2.56894
2.21805 2.18061 2.5436
2.19928 2.19938 2.39201
2.20538 2.19328 2.36679
2.21802 2.18064 2.392
2.21802 2.18064 2.392
2.20538 2.19328 2.36679
2.22704 2.17162 2.36678
2.23821 2.16045 2.59429
2.22712 2.17155 2.56893
2.24816 2.15051 2.56893
2.22712 2.17155 2.56893
2.2382 2.16046 2.5436
2.24816 2.15051 2.56893
2.40353 1.99513 2.54367
2.41386 1.9848 2.56901
2.3932 2.00546 2.569
2.3932 2.00546 2.569
2.41386 1.9848 2.56901
2.40354 1.99512 2.59437
2.40354 1.99512 2.59437
2.41386 1.9848 2.56901
2.4242 1.97446 2.59438
2.79618 1.60248 2.85
2.81699 1.58167 2.84998
2.80657 1.59209 2.87575
3.10224 1.29642 2.31656
3.11025 1.28841 2.29139
3.11025 1.28841 2.3417
3.11025 1.28841 2.39209
3.10229 1.29637 2.3669
3.11025 1.28841 2.3417
3.02715 1.37151 2.4931
3.006 1.39266 2.49311
3.01659 1.38207 2.46785
3.09026 1.3084 2.49305
3.10229 1.29637 2.51833
3.08044 1.31822 2.51834
3.11025 1.28841 2.49304
3.10229 1.29637 2.51833
3.09026 1.3084 2.49305
3.08044 1.31822 2.51834
3.09026 1.3084 2.54363
3.0694 1.32926 2.54365
3.10228 1.29638 2.56895
3.09026 1.3084 2.54363
3.11025 1.28841 2.54362
3.11025 1.28841 2.54362
3.11025 1.28841 2.59429
3.10228 1.29638 2.56895
3.10228 1.29638 2.56895
3.11025 1.28841 2.59429
3.09025 1.30841 2.59431
3.08027 1.31839 2.26637
3.0901 1.30856 2.24132
3.10214 1.29652 2.26634
3.10224 1.29642 2.31656
3.11025 1.28841 2.3417
3.09024 1.30842 2.34174
3.09024 1.30842 2.34174
3.11025 1.28841 2.3417
3.10229 1.29637 2.3669
3.0165 1.38216 2.31661
3.00588 1.39278 2.29143
3.02702 1.37164 2.29143
3.04817 1.35049 2.29145
3.03759 1.36107 2.26626
3.05884 1.33982 2.26631
3.04817 1.35049 2.29145
3.02702 1.37164 2.29143
3.03759 1.36107 2.26626
3.08043 1.31823 2.36693
3.10229 1.29637 2.3669
3.09026 1.3084 2.39211
3.08043 1.31823 2.36693
3.09024 1.30842 2.34174
3.10229 1.29637 2.3669
3.08042 1.31824 2.67055
3.09025 1.30841 2.6451
3.10226 1.2964 2.67053
3.10226 1.2964 2.67053
3.09024 1.30842 2.69602
3.08042 1.31824 2.67055
3.06938 1.32928 2.64512
3.09025 1.30841 2.6451
3.08042 1.31824 2.67055
3.08041 1.31825 2.82405
3.05901 1.33965 2.82406
3.06938 1.32928 2.79837
3.05901 1.33966 2.77274
3.08041 1.31825 2.77272
3.06938 1.32928 2.79837
3.10225 1.29641 2.72153
3.09024 1.30842 2.69602
3.11025 1.28841 2.696
3.08041 1.31825 2.72156
3.09024 1.30842 2.69602
3.10225 1.29641 2.72153
2.84822 1.55044 2.92732
2.85863 1.54003 2.95316
2.83776 1.5609 2.9532
2.96373 1.43493 2.79843
2.97428 1.42438 2.77279
2.98483 1.41383 2.79841
2.98483 1.41383 2.79841
2.97428 1.42438 2.77279
2.9954 1.40326 2.77278
3.06938 1.32929 2.74713
3.05901 1.33965 2.72158
3.08041 1.31825 2.72156
3.06938 1.32929 2.74713
3.08041 1.31825 2.77272
3.05901 1.33966 2.77274
2.95319 1.44547 2.77281
2.97428 1.42438 2.77279
2.96373 1.43493 2.79843
2.90067 1.49799 2.54374
2.87971 1.51895 2.54374
2.89018 1.50848 2.51844
2.84833 1.55033 2.51844
2.83789 1.56077 2.54375
2.82746 1.5712 2.51844
2.85878 1.53988 2.54375
2.83789 1.56077 2.54375
2.84833 1.55033 2.51844
2.83788 1.56078 2.44265
2.85877 1.53989 2.44265
2.84833 1.55034 2.46789
2.84833 1.55034 2.46789
2.82745 1.57121 2.46789
2.83788 1.56078 2.44265
2.83788 1.56078 2.44265
2.82745 1.57121 2.46789
2.81702 1.58164 2.44264
2.84833 1.55034 2.46789
2.85877 1.53989 2.44265
2.86924 1.52943 2.4679
2.87968 1.51898 2.39223
2.89017 1.50849 2.41744
2.86922 1.52944 2.41743
2.86922 1.52944 2.41743
2.85875 1.53991 2.39223
2.87968 1.51898 2.39223
2.72357 1.6751 2.56909
2.73392 1.66474 2.54375
2.74429 1.65437 2.56909
2.73392 1.66474 2.54375
2.75466 1.644 2.54375
2.74429 1.65437 2.56909
2.83789 1.56077 2.49316
2.82745 1.57121 2.46789
2.84833 1.55034 2.46789
2.83789 1.56077 2.49316
2.84833 1.55033 2.51844
2.82746 1.5712 2.51844
2.82746 1.5712 2.51844
2.80662 1.59204 2.51844
2.81703 1.58163 2.49315
2.81703 1.58163 2.49315
2.83789 1.56077 2.49316
2.82746 1.5712 2.51844
2.82745 1.57121 2.46789
2.83789 1.56077 2.49316
2.81703 1.58163 2.49315
2.81702 1.58164 2.44264
2.7962 1.60246 2.44264
2.8066 1.59206 2.41741
2.79618 1.60248 2.39219
2.81701 1.58166 2.39221
2.8066 1.59206 2.41741
2.42419 1.97447 2.54368
2.41386 1.9848 2.56901
2.40353 1.99513 2.54367
2.40353 1.99513 2.54367
2.41385 1.98481 2.51836
2.42419 1.97447 2.54368
2.20539 2.19327 2.16487
2.19928 2.19938 2.19009
2.19928 2.19938 2.13942
2.19928 2.19938 2.09
2.20626 2.1924 2.11471
2.19928 2.19938 2.13942
2.21797 2.1807 2.2407
2.19928 2.19938 2.24067
2.20528 2.19338 2.21542
2.19928 2.19938 2.24067
2.19928 2.19938 2.19009
2.20528 2.19338 2.21542
3.11025 1.28841 2.09
3.10314 1.29552 2.11575
3.0911 1.30756 2.09
2.19928 2.19938 2.34157
2.19928 2.19938 2.29114
2.20536 2.19331 2.31636
2.20536 2.19331 2.31636
2.21801 2.18065 2.34156
2.19928 2.19938 2.34157
2.21799 2.18067 2.29113
2.20536 2.19331 2.31636
2.19928 2.19938 2.29114
2.21799 2.18067 2.29113
2.22698 2.17168 2.26594
2.23811 2.16055 2.29116
2.22702 2.17165 2.31635
2.24806 2.1506 2.31637
2.23814 2.16052 2.34157
2.23814 2.16052 2.34157
2.21801 2.18065 2.34156
2.22702 2.17165 2.31635
2.23811 2.16055 2.29116
2.24806 2.1506 2.31637
2.22702 2.17165 2.31635
2.22702 2.17165 2.31635
2.21799 2.18067 2.29113
2.23811 2.16055 2.29116
2.21801 2.18065 2.34156
2.20536 2.19331 2.31636
2.22702 2.17165 2.31635
2.20536 2.19331 2.31636
2.21799 2.18067 2.29113
2.22702 2.17165 2.31635
2.20532 2.19334 2.26591
2.19928 2.19938 2.29114
2.19928 2.19938 2.24067
2.20532 2.19334 2.26591
2.19928 2.19938 2.24067
2.21797 2.1807 2.2407
2.21797 2.1807 2.2407
2.22698 2.17168 2.26594
2.20532 2.19334 2.26591
2.20532 2.19334 2.26591
2.21799 2.18067 2.29113
2.19928 2.19938 2.29114
2.22698 2.17168 2.26594
2.21799 2.18067 2.29113
2.20532 2.19334 2.26591
2.24814 2.15052 2.51829
2.2382 2.16046 2.5436
2.2271 2.17156 2.51829
2.2382 2.16046 2.5436
2.21805 2.18061 2.5436
2.2271 2.17156 2.51829
2.2271 2.17156 2.51829
2.23819 2.16048 2.493
2.24814 2.15052 2.51829
2.24809 2.15058 2.36679
2.23814 2.16052 2.34157
2.25868 2.13998 2.34159
2.22704 2.17162 2.36678
2.23814 2.16052 2.34157
2.24809 2.15058 2.36679
2.26891 2.12975 2.3668
2.24809 2.15058 2.36679
2.25868 2.13998 2.34159
2.2587 2.13996 2.39201
2.24809 2.15058 2.36679
2.26891 2.12975 2.3668
2.2587 2.13996 2.39201
2.26891 2.12975 2.3668
2.27936 2.1193 2.39202
2.41384 1.98482 2.4678
2.42418 1.97448 2.49307
2.40352 1.99515 2.49307
2.40352 1.99515 2.49307
2.42418 1.97448 2.49307
2.41385 1.98481 2.51836
2.33114 2.06753 2.51832
2.35183 2.04683 2.51833
2.34149 2.05717 2.54363
2.34148 2.05718 2.49304
2.35183 2.04683 2.51833
2.33114 2.06753 2.51832
2.35182 2.04684 2.46777
2.34147 2.05719 2.44252
2.36216 2.03651 2.44253
2.34148 2.05718 2.49304
2.33112 2.06754 2.46776
2.35182 2.04684 2.46777
2.35182 2.04684 2.46777
2.33112 2.06754 2.46776
2.34147 2.05719 2.44252
2.35184 2.04682 2.56898
2.37253 2.02613 2.56899
2.3622 2.03646 2.59434
2.31047 2.08819 2.6197
2.32082 2.07785 2.59432
2.33117 2.06749 2.61971
2.3208 2.07786 2.54362
2.33114 2.06753 2.51832
2.34149 2.05717 2.54363
2.31043 2.08823 2.51831
2.33114 2.06753 2.51832
2.3208 2.07786 2.54362
2.23821 2.16045 2.59429
2.24816 2.15051 2.56893
2.25876 2.1399 2.59429
2.24814 2.15052 2.51829
2.23819 2.16048 2.493
2.25873 2.13993 2.493
2.25873 2.13993 2.493
2.26896 2.1297 2.51829
2.24814 2.15052 2.51829
2.30008 2.09858 2.49301
2.31043 2.08823 2.51831
2.28971 2.10895 2.5183
2.25874 2.13992 2.5436
2.24816 2.15051 2.56893
2.2382 2.16046 2.5436
2.25874 2.13992 2.5436
[...]
<PointData Scalars="View Factor" >
<DataArray type="Float64" Name="View Factor" NumberOfComponents="1" format="ascii">
0.000577952
0.000577952
0.000577952
0.000730305
0.000730305
0.000730305
0.000720622
0.000720622
0.000720622
0.000101463
0.000101463
0.000101463
5.23334e-05
5.23334e-05
5.23334e-05
0.000715326
0.000715326
0.000715326
4.81348e-05
4.81348e-05
4.81348e-05
0.000642081
0.000642081
0.000642081
0.000614915
0.000614915
0.000614915
0.000646678
0.000646678
0.000646678
0.000655192
0.000655192
0.000655192
0.000655931
0.000655931
0.000655931
0.000701195
0.000701195
0.000701195
0.000706328
0.000706328
0.000706328
0.000691674
0.000691674
0.000691674
0.000701843
0.000701843
0.000701843
0.000683952
0.000683952
0.000683952
0.000676206
0.000676206
0.000676206
0.000684784
0.000684784
0.000684784
0.000704975
0.000704975
0.000704975
0.000714397
0.000714397
0.000714397
0.000606987
0.000606987
0.000606987
0.000731309
0.000731309
0.000731309
0.000176073
0.000176073
0.000176073
3.94386e-05
3.94386e-05
3.94386e-05
0.000190165
0.000190165
0.000190165
0.00020558
0.00020558
0.00020558
4.88612e-05
4.88612e-05
4.88612e-05
9.03316e-05
9.03316e-05
9.03316e-05
8.52989e-05
8.52989e-05
8.52989e-05
0.000243396
0.000243396
0.000243396
0.000103574
0.000103574
0.000103574
0.000115863
0.000115863
0.000115863
0.000236004
0.000236004
0.000236004
9.18399e-05
9.18399e-05
9.18399e-05
0.000111989
0.000111989
0.000111989
5.24821e-05
5.24821e-05
5.24821e-05
9.15461e-05
9.15461e-05
9.15461e-05
0.000234838
0.000234838
0.000234838
0.000231105
0.000231105
0.000231105
5.47388e-05
5.47388e-05
5.47388e-05
5.98352e-05
5.98352e-05
5.98352e-05
6.24785e-05
6.24785e-05
6.24785e-05
0.0001908
0.0001908
0.0001908
0.00062797
0.00062797
0.00062797
0.000641395
0.000641395
0.000641395
0.000615144
0.000615144
0.000615144
0.000671364
0.000671364
0.000671364
0.000674999
0.000674999
0.000674999
0.000671878
0.000671878
0.000671878
0.000689767
0.000689767
0.000689767
0.000698953
0.000698953
0.000698953
0.000699843
0.000699843
0.000699843
0.000603607
0.000603607
0.000603607
0.000628625
0.000628625
0.000628625
0.000633094
0.000633094
0.000633094
0.000569752
0.000569752
0.000569752
0.000583915
0.000583915
0.000583915
0.000579253
0.000579253
0.000579253
0.000634098
0.000634098
0.000634098
0.000629627
0.000629627
0.000629627
0.000716783
0.000716783
0.000716783
0.000722085
0.000722085
0.000722085
0.000707025
0.000707025
0.000707025
0.00075159
0.00075159
0.00075159
0.000740352
0.000740352
0.000740352
0.000736768
0.000736768
0.000736768
0.000732856
0.000732856
0.000732856
0.000381278
0.000381278
0.000381278
0.000665604
0.000665604
0.000665604
0.00067152
0.00067152
0.00067152
0.000723945
0.000723945
0.000723945
0.000734812
0.000734812
0.000734812
0.000653801
0.000653801
0.000653801
0.000496605
0.000496605
0.000496605
0.000260282
0.000260282
0.000260282
0.000390156
0.000390156
0.000390156
0.000356215
0.000356215
0.000356215
0.000236477
0.000236477
0.000236477
4.78158e-05
4.78158e-05
4.78158e-05
0.000424455
0.000424455
0.000424455
0.000454987
0.000454987
0.000454987
0.000442777
0.000442777
0.000442777
7.17562e-05
7.17562e-05
7.17562e-05
6.95022e-05
6.95022e-05
6.95022e-05
0.000241571
0.000241571
0.000241571
0.000253625
0.000253625
0.000253625
6.18894e-05
6.18894e-05
6.18894e-05
6.02001e-05
6.02001e-05
6.02001e-05
5.54851e-05
5.54851e-05
5.54851e-05
4.3363e-05
4.3363e-05
4.3363e-05
3.74434e-05
3.74434e-05
3.74434e-05
5.25516e-05
5.25516e-05
5.25516e-05
4.83362e-05
4.83362e-05
4.83362e-05
3.05578e-05
3.05578e-05
3.05578e-05
2.98778e-05
2.98778e-05
2.98778e-05
4.27e-05
4.27e-05
4.27e-05
3.31633e-05
3.31633e-05
3.31633e-05
0.000570641
0.000570641
0.000570641
4.20464e-05
4.20464e-05
4.20464e-05
4.74751e-05
4.74751e-05
4.74751e-05
4.54461e-05
4.54461e-05
4.54461e-05
0.000198292
0.000198292
0.000198292
0.000196585
0.000196585
0.000196585
0.000203615
0.000203615
0.000203615
0.000194824
0.000194824
0.000194824
0.000200053
0.000200053
0.000200053
8.80408e-05
8.80408e-05
8.80408e-05
8.70055e-05
8.70055e-05
8.70055e-05
3.68297e-05
3.68297e-05
3.68297e-05
4.3271e-05
4.3271e-05
4.3271e-05
8.23321e-05
8.23321e-05
8.23321e-05
4.46335e-05
4.46335e-05
4.46335e-05
8.32991e-05
8.32991e-05
8.32991e-05
0.000224508
0.000224508
0.000224508
0.000232691
0.000232691
0.000232691
0.000221419
0.000221419
0.000221419
0.000192117
0.000192117
0.000192117
0.000200299
0.000200299
0.000200299
0.000185249
0.000185249
0.000185249
0.000187198
0.000187198
0.000187198
0.000177525
0.000177525
0.000177525
3.80317e-05
3.80317e-05
3.80317e-05
4.12424e-05
4.12424e-05
4.12424e-05
4.63229e-05
4.63229e-05
4.63229e-05
4.2628e-05
4.2628e-05
4.2628e-05
3.2704e-05
3.2704e-05
3.2704e-05
3.66376e-05
3.66376e-05
3.66376e-05
3.39564e-05
3.39564e-05
3.39564e-05
5.96645e-05
5.96645e-05
5.96645e-05
7.11696e-05
7.11696e-05
7.11696e-05
4.81727e-05
4.81727e-05
4.81727e-05
4.62908e-05
4.62908e-05
4.62908e-05
0.000229622
0.000229622
0.000229622
0.000212788
0.000212788
0.000212788
0.000206495
0.000206495
0.000206495
4.25813e-05
4.25813e-05
4.25813e-05
0.00022213
0.00022213
0.00022213
0.000218831
0.000218831
0.000218831
0.000209626
0.000209626
0.000209626
0.0001054
0.0001054
0.0001054
3.98858e-05
3.98858e-05
3.98858e-05
7.09982e-05
7.09982e-05
7.09982e-05
5.24933e-05
5.24933e-05
5.24933e-05
5.46854e-05
5.46854e-05
5.46854e-05
6.81423e-05
6.81423e-05
6.81423e-05
6.24191e-05
6.24191e-05
6.24191e-05
6.23523e-05
6.23523e-05
6.23523e-05
5.97674e-05
5.97674e-05
5.97674e-05
6.82234e-05
6.82234e-05
6.82234e-05
7.13606e-05
7.13606e-05
7.13606e-05
8.24524e-05
8.24524e-05
8.24524e-05
7.85455e-05
7.85455e-05
7.85455e-05
7.83143e-05
7.83143e-05
7.83143e-05
7.1284e-05
7.1284e-05
7.1284e-05
0.000106183
0.000106183
0.000106183
0.000125611
0.000125611
0.000125611
0.000132458
0.000132458
0.000132458
0.000157444
0.000157444
0.000157444
0.000148219
0.000148219
0.000148219
7.86543e-05
7.86543e-05
7.86543e-05
6.83796e-05
6.83796e-05
6.83796e-05
7.14576e-05
7.14576e-05
7.14576e-05
0.000170396
0.000170396
0.000170396
0.000157251
0.000157251
0.000157251
0.00017125
0.00017125
0.00017125
0.000185712
0.000185712
0.000185712
0.000197819
0.000197819
0.000197819
0.000213493
0.000213493
0.000213493
0.000258419
0.000258419
0.000258419
0.000215347
0.000215347
0.000215347
1.11344e-05
1.11344e-05
1.11344e-05
1.06136e-05
1.06136e-05
1.06136e-05
1.17989e-05
1.17989e-05
1.17989e-05
1.19817e-05
1.19817e-05
1.19817e-05
1.00209e-05
1.00209e-05
1.00209e-05
1.0003e-05
1.0003e-05
1.0003e-05
1.03156e-05
1.03156e-05
1.03156e-05
1.09263e-05
1.09263e-05
1.09263e-05
1.061e-05
1.061e-05
1.061e-05
1.02923e-05
1.02923e-05
1.02923e-05
9.8065e-06
9.8065e-06
9.8065e-06
1.23348e-05
1.23348e-05
1.23348e-05
1.12379e-05
1.12379e-05
1.12379e-05
1.14576e-05
1.14576e-05
1.14576e-05
1.21415e-05
1.21415e-05
1.21415e-05
1.26881e-05
1.26881e-05
1.26881e-05
1.40919e-05
1.40919e-05
1.40919e-05
0.000781904
0.000781904
0.000781904
0.000617672
0.000617672
0.000617672
0.000615989
0.000615989
0.000615989
0.000652208
0.000652208
0.000652208
0.000638522
0.000638522
0.000638522
0.000678227
0.000678227
0.000678227
0.000692578
0.000692578
0.000692578
0.000687558
0.000687558
0.000687558
0.000673448
0.000673448
0.000673448
0.000466225
0.000466225
0.000466225
0.000468841
0.000468841
0.000468841
0.000479639
0.000479639
0.000479639
0.000613332
0.000613332
0.000613332
0.000603688
0.000603688
0.000603688
0.000670156
0.000670156
0.000670156
0.000661779
0.000661779
0.000661779
0.000669371
0.000669371
0.000669371
0.000660643
0.000660643
0.000660643
0.000657072
0.000657072
0.000657072
0.000663721
0.000663721
0.000663721
0.000673295
0.000673295
0.000673295
0.000686645
0.000686645
0.000686645
0.000676765
0.000676765
0.000676765
0.000677595
0.000677595
0.000677595
0.000672709
0.000672709
0.000672709
0.000691062
0.000691062
0.000691062
0.000686067
0.000686067
0.000686067
0.000619858
0.000619858
0.000619858
0.000615506
0.000615506
0.000615506
0.000607852
0.000607852
0.000607852
0.000602783
0.000602783
0.000602783
0.000565704
0.000565704
0.000565704
0.000570578
0.000570578
0.000570578
0.00062115
0.00062115
0.00062115
0.000604807
0.000604807
0.000604807
0.000617389
0.000617389
0.000617389
0.000609083
0.000609083
0.000609083
0.000717516
0.000717516
0.000717516
0.000722856
0.000722856
0.000722856
0.000718598
0.000718598
0.000718598
0.000757296
0.000757296
0.000757296
0.000739067
0.000739067
0.000739067
0.000671349
0.000671349
0.000671349
0.00013781
0.00013781
0.00013781
0.000227142
0.000227142
0.000227142
0.000195912
0.000195912
0.000195912
0.000670379
0.000670379
0.000670379
0.000680097
0.000680097
0.000680097
0.000723508
0.000723508
0.000723508
0.000718068
0.000718068
0.000718068
0.000561403
0.000561403
0.000561403
0.000598123
0.000598123
0.000598123
0.000578619
0.000578619
0.000578619
0.000586622
0.000586622
0.000586622
0.000608192
0.000608192
0.000608192
0.000595996
0.000595996
0.000595996
0.000587402
0.000587402
0.000587402
0.000733679
0.000733679
0.000733679
0.000739151
0.000739151
0.000739151
0.000738311
0.000738311
0.000738311
0.00074129
0.00074129
0.00074129
0.000736163
0.000736163
0.000736163
0.000735719
0.000735719
0.000735719
0.00072515
0.00072515
0.00072515
0.000724456
0.000724456
0.000724456
0.000719015
0.000719015
0.000719015
0.000557238
0.000557238
0.000557238
0.000561887
0.000561887
0.000561887
0.000566141
0.000566141
0.000566141
0.000489384
0.000489384
0.000489384
7.07753e-05
7.07753e-05
7.07753e-05
6.71059e-05
6.71059e-05
6.71059e-05
0.000397065
0.000397065
0.000397065
9.3329e-05
9.3329e-05
9.3329e-05
9.90824e-05
9.90824e-05
9.90824e-05
7.76623e-05
7.76623e-05
7.76623e-05
7.51384e-05
7.51384e-05
7.51384e-05
6.90494e-05
6.90494e-05
6.90494e-05
6.54524e-05
6.54524e-05
6.54524e-05
7.32584e-05
7.32584e-05
7.32584e-05
6.7326e-05
6.7326e-05
6.7326e-05
8.46254e-05
8.46254e-05
8.46254e-05
8.96221e-05
8.96221e-05
8.96221e-05
9.82865e-05
9.82865e-05
9.82865e-05
0.000101683
0.000101683
0.000101683
9.58033e-05
9.58033e-05
9.58033e-05
8.73676e-05
8.73676e-05
8.73676e-05
0.000434588
0.000434588
0.000434588
0.000446742
0.000446742
0.000446742
0.000470657
0.000470657
0.000470657
0.000467256
0.000467256
0.000467256
0.00017966
0.00017966
0.00017966
0.000112106
0.000112106
0.000112106
0.000172287
0.000172287
0.000172287
4.44324e-05
4.44324e-05
4.44324e-05
3.83632e-05
3.83632e-05
3.83632e-05
4.22281e-05
4.22281e-05
4.22281e-05
3.95952e-05
3.95952e-05
3.95952e-05
0.00034023
0.00034023
0.00034023
0.000223183
0.000223183
0.000223183
0.000227123
0.000227123
0.000227123
0.000350638
0.000350638
0.000350638
0.000415144
0.000415144
0.000415144
0.000410167
0.000410167
0.000410167
0.000462052
0.000462052
0.000462052
0.000485792
0.000485792
0.000485792
5.06159e-05
5.06159e-05
5.06159e-05
4.67082e-05
4.67082e-05
4.67082e-05
8.09664e-05
8.09664e-05
8.09664e-05
7.60692e-05
7.60692e-05
7.60692e-05
5.22615e-05
5.22615e-05
5.22615e-05
5.3574e-05
5.3574e-05
5.3574e-05
9.50047e-05
9.50047e-05
9.50047e-05
8.92061e-05
8.92061e-05
8.92061e-05
9.2017e-05
9.2017e-05
9.2017e-05
0.00010474
0.00010474
0.00010474
0.000108601
0.000108601
0.000108601
0.000101435
0.000101435
0.000101435
6.38819e-05
6.38819e-05
6.38819e-05
5.44536e-05
5.44536e-05
5.44536e-05
5.5808e-05
5.5808e-05
5.5808e-05
6.05012e-05
6.05012e-05
6.05012e-05
8.28647e-05
8.28647e-05
8.28647e-05
7.81753e-05
7.81753e-05
7.81753e-05
5.29913e-05
5.29913e-05
5.29913e-05
6.76248e-05
6.76248e-05
6.76248e-05
6.21642e-05
6.21642e-05
6.21642e-05
5.01139e-05
5.01139e-05
5.01139e-05
3.65233e-05
3.65233e-05
3.65233e-05
3.8635e-05
3.8635e-05
3.8635e-05
4.12011e-05
4.12011e-05
4.12011e-05
5.8742e-05
5.8742e-05
5.8742e-05
6.03691e-05
6.03691e-05
6.03691e-05
5.27988e-05
5.27988e-05
5.27988e-05
5.72823e-05
5.72823e-05
5.72823e-05
2.64955e-05
2.64955e-05
2.64955e-05
3.0486e-05
3.0486e-05
3.0486e-05
3.27259e-05
3.27259e-05
3.27259e-05
3.39719e-05
3.39719e-05
3.39719e-05
2.6477e-05
2.6477e-05
2.6477e-05
2.94719e-05
2.94719e-05
2.94719e-05
2.7589e-05
2.7589e-05
2.7589e-05
0.000173692
0.000173692
0.000173692
0.000181601
0.000181601
0.000181601
0.00017182
0.00017182
0.00017182
3.40322e-05
3.40322e-05
3.40322e-05
3.67082e-05
3.67082e-05
3.67082e-05
4.89726e-05
4.89726e-05
4.89726e-05
5.186e-05
5.186e-05
5.186e-05
5.63966e-05
5.63966e-05
5.63966e-05
5.79833e-05
5.79833e-05
5.79833e-05
6.71737e-05
6.71737e-05
6.71737e-05
6.31924e-05
6.31924e-05
6.31924e-05
0.000528038
0.000528038
0.000528038
0.00056768
0.00056768
0.00056768
0.000560265
0.000560265
0.000560265
0.000493981
0.000493981
0.000493981
0.00053493
0.00053493
0.00053493
0.000531209
0.000531209
0.000531209
0.000518906
0.000518906
0.000518906
0.000511529
0.000511529
0.000511529
0.000103556
0.000103556
0.000103556
0.000109693
0.000109693
0.000109693
7.2474e-05
7.2474e-05
7.2474e-05
8.66404e-05
8.66404e-05
8.66404e-05
0.000106772
0.000106772
0.000106772
6.2888e-05
6.2888e-05
6.2888e-05
6.43683e-05
6.43683e-05
6.43683e-05
0.000218665
0.000218665
0.000218665
9.88916e-05
9.88916e-05
9.88916e-05
5.47196e-05
5.47196e-05
5.47196e-05
5.50831e-05
5.50831e-05
5.50831e-05
6.06937e-05
6.06937e-05
6.06937e-05
9.42863e-05
9.42863e-05
9.42863e-05
9.57265e-05
9.57265e-05
9.57265e-05
0.000216278
0.000216278
0.000216278
0.000208637
0.000208637
0.000208637
0.000191362
0.000191362
0.000191362
0.000179479
0.000179479
0.000179479
0.000209657
0.000209657
0.000209657
0.000202228
0.000202228
0.000202228
0.000211695
0.000211695
0.000211695
0.000206436
0.000206436
0.000206436
0.000196081
0.000196081
0.000196081
0.000198088
0.000198088
0.000198088
0.000213337
0.000213337
0.000213337
0.00021589
0.00021589
0.00021589
0.000210013
0.000210013
0.000210013
0.000200867
0.000200867
0.000200867
3.79938e-05
3.79938e-05
3.79938e-05
3.66637e-05
3.66637e-05
3.66637e-05
3.3991e-05
3.3991e-05
3.3991e-05
3.66846e-05
3.66846e-05
3.66846e-05
4.64132e-05
4.64132e-05
4.64132e-05
4.28056e-05
4.28056e-05
4.28056e-05
4.82446e-05
4.82446e-05
4.82446e-05
4.11939e-05
4.11939e-05
4.11939e-05
4.27819e-05
4.27819e-05
4.27819e-05
4.6408e-05
4.6408e-05
4.6408e-05
4.26005e-05
4.26005e-05
4.26005e-05
3.66342e-05
3.66342e-05
3.66342e-05
4.10632e-05
4.10632e-05
4.10632e-05
3.79429e-05
3.79429e-05
3.79429e-05
4.09719e-05
4.09719e-05
4.09719e-05
3.79232e-05
3.79232e-05
3.79232e-05
5.45436e-05
5.45436e-05
5.45436e-05
5.23063e-05
5.23063e-05
5.23063e-05
6.22959e-05
6.22959e-05
6.22959e-05
6.80217e-05
6.80217e-05
6.80217e-05
6.22501e-05
6.22501e-05
6.22501e-05
5.96178e-05
5.96178e-05
5.96178e-05
7.12195e-05
7.12195e-05
7.12195e-05
6.80758e-05
6.80758e-05
6.80758e-05
9.50137e-05
9.50137e-05
9.50137e-05
9.03557e-05
9.03557e-05
9.03557e-05
8.21786e-05
8.21786e-05
8.21786e-05
7.82588e-05
7.82588e-05
7.82588e-05
8.21258e-05
8.21258e-05
8.21258e-05
9.49526e-05
9.49526e-05
9.49526e-05
9.02915e-05
9.02915e-05
9.02915e-05
6.79814e-05
6.79814e-05
6.79814e-05
0.000191296
0.000191296
0.000191296
0.000156167
0.000156167
0.000156167
0.000194078
0.000194078
0.000194078
0.000179441
0.000179441
0.000179441
0.000220026
0.000220026
0.000220026
0.000216259
0.000216259
0.000216259
0.0001891
0.0001891
0.0001891
0.000203532
0.000203532
0.000203532
0.000182489
0.000182489
0.000182489
0.000200173
0.000200173
0.000200173
0.000105341
0.000105341
0.000105341
0.000191115
0.000191115
0.000191115
0.00011103
0.00011103
0.00011103
0.000223408
0.000223408
0.000223408
0.000244011
0.000244011
0.000244011
0.000196942
0.000196942
0.000196942
0.000111438
0.000111438
0.000111438
0.000111136
0.000111136
0.000111136
0.000123729
0.000123729
0.000123729
0.000130911
0.000130911
0.000130911
0.000123856
0.000123856
0.000123856
5.1278e-05
5.1278e-05
5.1278e-05
0.000275891
0.000275891
0.000275891
0.000241805
0.000241805
0.000241805
0.000159296
0.000159296
0.000159296
0.000146607
0.000146607
0.000146607
0.000212575
0.000212575
0.000212575
5.68949e-05
5.68949e-05
5.68949e-05
7.50057e-05
7.50057e-05
7.50057e-05
6.86381e-05
6.86381e-05
6.86381e-05
0.000131824
0.000131824
0.000131824
0.000117564
0.000117564
0.000117564
0.000156189
0.000156189
0.000156189
0.000279311
0.000279311
0.000279311
0.000269528
0.000269528
0.000269528
5.45942e-05
5.45942e-05
5.45942e-05
5.24354e-05
5.24354e-05
5.24354e-05
4.81983e-05
4.81983e-05
4.81983e-05
4.63614e-05
4.63614e-05
4.63614e-05
4.82036e-05
4.82036e-05
4.82036e-05
5.2423e-05
5.2423e-05
5.2423e-05
8.23423e-05
8.23423e-05
8.23423e-05
8.22513e-05
8.22513e-05
8.22513e-05
7.84417e-05
7.84417e-05
7.84417e-05
9.05643e-05
9.05643e-05
9.05643e-05
0.000112887
0.000112887
0.000112887
9.22064e-05
9.22064e-05
9.22064e-05
9.72436e-05
9.72436e-05
9.72436e-05
9.59301e-05
9.59301e-05
9.59301e-05
0.000125176
0.000125176
0.000125176
0.000112293
0.000112293
0.000112293
0.000112047
0.000112047
0.000112047
0.000106382
0.000106382
0.000106382
8.25206e-05
8.25206e-05
8.25206e-05
9.08482e-05
9.08482e-05
9.08482e-05
9.10308e-05
9.10308e-05
9.10308e-05
9.57352e-05
9.57352e-05
9.57352e-05
7.1638e-05
7.1638e-05
7.1638e-05
7.87591e-05
7.87591e-05
7.87591e-05
7.89034e-05
7.89034e-05
7.89034e-05
8.26516e-05
8.26516e-05
8.26516e-05
0.000102164
0.000102164
0.000102164
6.66991e-05
6.66991e-05
6.66991e-05
0.000105187
0.000105187
0.000105187
0.000123189
0.000123189
0.000123189
0.000175422
0.000175422
0.000175422
0.000203637
0.000203637
0.000203637
0.000126787
0.000126787
0.000126787
0.000162024
0.000162024
0.000162024
0.000166626
0.000166626
0.000166626
0.000180467
0.000180467
0.000180467
0.000239117
0.000239117
0.000239117
0.000257155
0.000257155
0.000257155
0.000249607
0.000249607
0.000249607
0.000249859
0.000249859
0.000249859
0.00025119
0.00025119
0.00025119
0.000242506
0.000242506
0.000242506
0.000235865
0.000235865
0.000235865
0.000233275
0.000233275
0.000233275
0.000245971
0.000245971
0.000245971
0.000210682
0.000210682
0.000210682
0.000201296
0.000201296
0.000201296
0.000242693
0.000242693
0.000242693
0.000225865
0.000225865
0.000225865
0.000209478
0.000209478
0.000209478
0.000219643
0.000219643
0.000219643
0.000264477
0.000264477
0.000264477
0.000256739
0.000256739
0.000256739
0.000249642
0.000249642
0.000249642
0.000221229
0.000221229
0.000221229
0.000232107
0.000232107
0.000232107
0.000238504
0.000238504
0.000238504
0.00026358
0.00026358
0.00026358
0.000122595
0.000122595
0.000122595
0.000136283
0.000136283
0.000136283
0.000195741
0.000195741
0.000195741
0.000167624
0.000167624
0.000167624
0.000149886
0.000149886
0.000149886
0.000162971
0.000162971
0.000162971
0.000174727
0.000174727
0.000174727
0.000140204
0.000140204
0.000140204
0.000145737
0.000145737
0.000145737
0.00020661
0.00020661
0.00020661
0.000201275
0.000201275
0.000201275
6.85016e-06
6.85016e-06
6.85016e-06
1.01621e-05
1.01621e-05
1.01621e-05
9.71246e-06
9.71246e-06
9.71246e-06
8.77726e-06
8.77726e-06
8.77726e-06
9.25388e-06
9.25388e-06
9.25388e-06
6.86738e-05
6.86738e-05
6.86738e-05
5.11589e-05
5.11589e-05
5.11589e-05
0.000155077
0.000155077
0.000155077
0.000146354
0.000146354
0.000146354
9.67207e-06
9.67207e-06
9.67207e-06
1.1767e-05
1.1767e-05
1.1767e-05
0.000174377
0.000174377
0.000174377
5.28558e-05
5.28558e-05
5.28558e-05
6.496e-06
6.496e-06
6.496e-06
0.000155102
0.000155102
0.000155102
0.00022965
0.00022965
0.00022965
0.000134621
0.000134621
0.000134621
0.000150506
0.000150506
0.000150506
0.000182875
0.000182875
0.000182875
0.000174766
0.000174766
0.000174766
1.17817e-05
1.17817e-05
1.17817e-05
8.6028e-06
8.6028e-06
8.6028e-06
9.30969e-06
9.30969e-06
9.30969e-06
9.04346e-06
9.04346e-06
9.04346e-06
9.52992e-06
9.52992e-06
9.52992e-06
5.86287e-05
5.86287e-05
5.86287e-05
0.000105431
0.000105431
0.000105431
9.01963e-05
9.01963e-05
9.01963e-05
2.05875e-05
2.05875e-05
2.05875e-05
1.21776e-05
1.21776e-05
1.21776e-05
1.99131e-05
1.99131e-05
1.99131e-05
4.37019e-05
4.37019e-05
4.37019e-05
0.000152687
0.000152687
0.000152687
0.00011961
0.00011961
0.00011961
1.44405e-05
1.44405e-05
1.44405e-05
1.37585e-05
1.37585e-05
1.37585e-05
1.17793e-05
1.17793e-05
1.17793e-05
1.30401e-05
1.30401e-05
1.30401e-05
1.24839e-05
1.24839e-05
1.24839e-05
1.37419e-05
1.37419e-05
1.37419e-05
1.34217e-05
1.34217e-05
1.34217e-05
1.27421e-05
1.27421e-05
1.27421e-05
1.21701e-05
1.21701e-05
1.21701e-05
0.000571298
0.000571298
0.000571298
0.000516479