<VTKFile type="UnstructuredGrid" version="1.0">
<UnstructuredGrid>
<Piece NumberOfPoints="10830" NumberOfCells="3610">
<Points>
<DataArray type="Float64" NumberOfComponents="3" format="ascii">
1.27826 3.11035 17.7907
1.28831 3.11035 17.765
1.28831 3.11035 17.8165
1.28831 3.11035 18.3201
1.28831 3.11035 18.371
1.27701 3.11035 18.3455
1.28831 3.11035 18.3201
1.27701 3.11035 18.3455
1.26002 3.11035 18.3201
0.0244388 3.11035 18.7926
0.0422213 3.11035 18.81
0 3.11035 18.81
0 3.11035 18.81
-7.89601e-14 3.11035 18.7798
0.0244388 3.11035 18.7926
1.28831 3.11035 18.3201
1.26002 3.11035 18.3201
1.27702 3.11035 18.2947
0.00863377 3.11035 18.0418
1.49469e-13 3.11035 18.067
1.49791e-13 3.11035 18.0166
1.27705 3.11035 18.0419
1.28831 3.11035 18.0671
1.26004 3.11035 18.0671
1.27684 3.11035 17.9413
1.28831 3.11035 17.9163
1.28831 3.11035 17.9664
1.26004 3.11035 18.0671
1.28831 3.11035 18.0671
1.27707 3.11035 18.0923
1.28831 3.11035 18.0671
1.28831 3.11035 18.1175
1.27707 3.11035 18.0923
1.26005 3.11035 18.1176
1.27707 3.11035 18.0923
1.28831 3.11035 18.1175
1.26003 3.11035 18.2693
1.27702 3.11035 18.2947
1.24613 3.11035 18.2947
1.24613 3.11035 18.2947
1.27702 3.11035 18.2947
1.26002 3.11035 18.3201
1.24613 3.11035 18.2947
1.23052 3.11035 18.2693
1.26003 3.11035 18.2693
1.24613 3.11035 18.2947
1.26002 3.11035 18.3201
1.23052 3.11035 18.3201
1.28831 3.11035 18.168
1.28831 3.11035 18.2186
1.27705 3.11035 18.1933
1.27705 3.11035 18.1933
1.26004 3.11035 18.2186
1.24616 3.11035 18.1933
1.28831 3.11035 18.2186
1.26004 3.11035 18.2186
1.27705 3.11035 18.1933
1.28831 3.11035 18.2693
1.27702 3.11035 18.2947
1.26003 3.11035 18.2693
1.28831 3.11035 18.3201
1.27702 3.11035 18.2947
1.28831 3.11035 18.2693
1.25981 3.11035 17.9163
1.28831 3.11035 17.9163
1.27684 3.11035 17.9413
1.26002 3.11035 18.371
1.27701 3.11035 18.3455
1.28831 3.11035 18.371
0.85884 3.11035 18.5507
0.873578 3.11035 18.525
0.888295 3.11035 18.5507
0 3.11035 17.765
0.0277369 3.11035 17.765
0.00987207 3.11035 17.7897
0.0840033 3.11035 18.0166
0.0549577 3.11035 18.0166
0.0689903 3.11035 17.9914
0.0264927 3.11035 18.0166
0.0549577 3.11035 18.0166
0.0392653 3.11035 18.0418
0.0264927 3.11035 18.0166
0.00863377 3.11035 18.0418
1.49791e-13 3.11035 18.0166
0.0392653 3.11035 18.0418
0.00863377 3.11035 18.0418
0.0264927 3.11035 18.0166
0.0087521 3.11035 18.2439
-9.63464e-14 3.11035 18.2693
1.47962e-13 3.11035 18.2186
0.0265703 3.11035 18.2693
0.0393699 3.11035 18.2439
0.0550657 3.11035 18.2693
-9.63464e-14 3.11035 18.2693
0.0087521 3.11035 18.2439
0.0265703 3.11035 18.2693
0.0265703 3.11035 18.2693
0.0087521 3.11035 18.2439
0.0393699 3.11035 18.2439
0.0265544 3.11035 18.2186
0.0550443 3.11035 18.2186
0.0393699 3.11035 18.2439
0.0265544 3.11035 18.2186
0.0087521 3.11035 18.2439
1.47962e-13 3.11035 18.2186
0.0393699 3.11035 18.2439
0.0087521 3.11035 18.2439
0.0265544 3.11035 18.2186
1.49469e-13 3.11035 18.067
0.00863377 3.11035 18.0418
0.0265126 3.11035 18.067
0.0265126 3.11035 18.067
0.00863377 3.11035 18.0418
0.0392653 3.11035 18.0418
0.0550657 3.11035 18.2693
0.0393699 3.11035 18.2439
0.0691236 3.11035 18.2439
0.0393699 3.11035 18.2439
0.0550443 3.11035 18.2186
0.0691236 3.11035 18.2439
0.288852 3.11035 18.2187
0.303471 3.11035 18.244
0.274248 3.11035 18.244
0.274248 3.11035 18.244
0.303471 3.11035 18.244
0.288872 3.11035 18.2694
0.288872 3.11035 18.2694
0.303471 3.11035 18.244
0.318088 3.11035 18.2694
0.844143 3.11035 18.525
0.873578 3.11035 18.525
0.85884 3.11035 18.5507
1.27699 3.11035 17.9916
1.28831 3.11035 17.9664
1.28831 3.11035 18.0167
1.28831 3.11035 18.0671
1.27705 3.11035 18.0419
1.28831 3.11035 18.0167
1.17079 3.11035 18.1681
1.14088 3.11035 18.1681
1.15586 3.11035 18.1428
1.26004 3.11035 18.1681
1.27705 3.11035 18.1933
1.24616 3.11035 18.1933
1.28831 3.11035 18.168
1.27705 3.11035 18.1933
1.26004 3.11035 18.1681
1.24616 3.11035 18.1933
1.26004 3.11035 18.2186
1.23053 3.11035 18.2186
1.27704 3.11035 18.2439
1.26004 3.11035 18.2186
1.28831 3.11035 18.2186
1.28831 3.11035 18.2186
1.28831 3.11035 18.2693
1.27704 3.11035 18.2439
1.27704 3.11035 18.2439
1.28831 3.11035 18.2693
1.26003 3.11035 18.2693
1.24591 3.11035 17.9414
1.25981 3.11035 17.9163
1.27684 3.11035 17.9413
1.27699 3.11035 17.9916
1.28831 3.11035 18.0167
1.26001 3.11035 18.0167
1.26001 3.11035 18.0167
1.28831 3.11035 18.0167
1.27705 3.11035 18.0419
1.15573 3.11035 17.9916
1.1407 3.11035 17.9664
1.1706 3.11035 17.9664
1.20051 3.11035 17.9665
1.18556 3.11035 17.9413
1.21561 3.11035 17.9413
1.20051 3.11035 17.9665
1.1706 3.11035 17.9664
1.18556 3.11035 17.9413
1.24614 3.11035 18.0419
1.27705 3.11035 18.0419
1.26004 3.11035 18.0671
1.24614 3.11035 18.0419
1.26001 3.11035 18.0167
1.27705 3.11035 18.0419
1.24612 3.11035 18.3456
1.26002 3.11035 18.3201
1.27701 3.11035 18.3455
1.27701 3.11035 18.3455
1.26002 3.11035 18.371
1.24612 3.11035 18.3456
1.23052 3.11035 18.3201
1.26002 3.11035 18.3201
1.24612 3.11035 18.3456
1.24611 3.11035 18.4991
1.21584 3.11035 18.4991
1.23051 3.11035 18.4734
1.21584 3.11035 18.4477
1.24611 3.11035 18.4477
1.23051 3.11035 18.4734
1.27699 3.11035 18.3965
1.26002 3.11035 18.371
1.28831 3.11035 18.371
1.24611 3.11035 18.3966
1.26002 3.11035 18.371
1.27699 3.11035 18.3965
0.917741 3.11035 18.6023
0.932465 3.11035 18.6282
0.902954 3.11035 18.6282
1.08109 3.11035 18.4734
1.09602 3.11035 18.4478
1.11094 3.11035 18.4734
1.11094 3.11035 18.4734
1.09602 3.11035 18.4478
1.12589 3.11035 18.4478
1.2305 3.11035 18.4221
1.21584 3.11035 18.3966
1.24611 3.11035 18.3966
1.2305 3.11035 18.4221
1.24611 3.11035 18.4477
1.21584 3.11035 18.4477
1.0662 3.11035 18.4478
1.09602 3.11035 18.4478
1.08109 3.11035 18.4734
0.991917 3.11035 18.2187
0.962274 3.11035 18.2187
0.977089 3.11035 18.1934
0.917902 3.11035 18.1934
0.903138 3.11035 18.2188
0.888384 3.11035 18.1934
0.932681 3.11035 18.2187
0.903138 3.11035 18.2188
0.917902 3.11035 18.1934
0.903119 3.11035 18.1177
0.932664 3.11035 18.1177
0.917893 3.11035 18.1429
0.917893 3.11035 18.1429
0.888374 3.11035 18.1429
0.903119 3.11035 18.1177
0.903119 3.11035 18.1177
0.888374 3.11035 18.1429
0.873625 3.11035 18.1176
0.917893 3.11035 18.1429
0.932664 3.11035 18.1177
0.947463 3.11035 18.1429
0.962233 3.11035 18.0672
0.977066 3.11035 18.0924
0.947444 3.11035 18.0924
0.947444 3.11035 18.0924
0.932637 3.11035 18.0672
0.962233 3.11035 18.0672
0.741456 3.11035 18.2441
0.756104 3.11035 18.2188
0.770765 3.11035 18.2441
0.756104 3.11035 18.2188
0.785431 3.11035 18.2188
0.770765 3.11035 18.2441
0.903133 3.11035 18.1682
0.888374 3.11035 18.1429
0.917893 3.11035 18.1429
0.903133 3.11035 18.1682
0.917902 3.11035 18.1934
0.888384 3.11035 18.1934
0.888384 3.11035 18.1934
0.858913 3.11035 18.1934
0.873639 3.11035 18.1682
0.873639 3.11035 18.1682
0.903133 3.11035 18.1682
0.888384 3.11035 18.1934
0.888374 3.11035 18.1429
0.903133 3.11035 18.1682
0.873639 3.11035 18.1682
0.873625 3.11035 18.1176
0.844177 3.11035 18.1176
0.858884 3.11035 18.0924
0.844153 3.11035 18.0672
0.873599 3.11035 18.0672
0.858884 3.11035 18.0924
0.318069 3.11035 18.2187
0.303471 3.11035 18.244
0.288852 3.11035 18.2187
0.288852 3.11035 18.2187
0.303454 3.11035 18.1934
0.318069 3.11035 18.2187
0.00864568 3.11035 17.8399
1.4958e-13 3.11035 17.8651
-9.64495e-14 3.11035 17.8144
0 3.11035 17.765
0.00987207 3.11035 17.7897
-9.64495e-14 3.11035 17.8144
0.0264295 3.11035 17.9157
1.50097e-13 3.11035 17.9157
0.00849117 3.11035 17.8904
1.50097e-13 3.11035 17.9157
1.4958e-13 3.11035 17.8651
0.00849117 3.11035 17.8904
1.28831 3.11035 17.765
1.27826 3.11035 17.7907
1.26122 3.11035 17.765
1.49791e-13 3.11035 18.0166
1.50032e-13 3.11035 17.9661
0.00859461 3.11035 17.9914
0.00859461 3.11035 17.9914
0.0264927 3.11035 18.0166
1.49791e-13 3.11035 18.0166
0.0264637 3.11035 17.9661
0.00859461 3.11035 17.9914
1.50032e-13 3.11035 17.9661
0.0264637 3.11035 17.9661
0.0391815 3.11035 17.9409
0.0549232 3.11035 17.9662
0.0392276 3.11035 17.9914
0.0689903 3.11035 17.9914
0.0549577 3.11035 18.0166
0.0549577 3.11035 18.0166
0.0264927 3.11035 18.0166
0.0392276 3.11035 17.9914
0.0549232 3.11035 17.9662
0.0689903 3.11035 17.9914
0.0392276 3.11035 17.9914
0.0392276 3.11035 17.9914
0.0264637 3.11035 17.9661
0.0549232 3.11035 17.9662
0.0264927 3.11035 18.0166
0.00859461 3.11035 17.9914
0.0392276 3.11035 17.9914
0.00859461 3.11035 17.9914
0.0264637 3.11035 17.9661
0.0392276 3.11035 17.9914
0.00854014 3.11035 17.9409
1.50032e-13 3.11035 17.9661
1.50097e-13 3.11035 17.9157
0.00854014 3.11035 17.9409
1.50097e-13 3.11035 17.9157
0.0264295 3.11035 17.9157
0.0264295 3.11035 17.9157
0.0391815 3.11035 17.9409
0.00854014 3.11035 17.9409
0.00854014 3.11035 17.9409
0.0264637 3.11035 17.9661
1.50032e-13 3.11035 17.9661
0.0391815 3.11035 17.9409
0.0264637 3.11035 17.9661
0.00854014 3.11035 17.9409
0.0690987 3.11035 18.1933
0.0550443 3.11035 18.2186
0.0393425 3.11035 18.1933
0.0550443 3.11035 18.2186
0.0265544 3.11035 18.2186
0.0393425 3.11035 18.1933
0.0393425 3.11035 18.1933
0.0550252 3.11035 18.168
0.0690987 3.11035 18.1933
0.0690242 3.11035 18.0418
0.0549577 3.11035 18.0166
0.0840033 3.11035 18.0166
0.0392653 3.11035 18.0418
0.0549577 3.11035 18.0166
0.0690242 3.11035 18.0418
0.0984777 3.11035 18.0418
0.0690242 3.11035 18.0418
0.0840033 3.11035 18.0166
0.0840313 3.11035 18.067
0.0690242 3.11035 18.0418
0.0984777 3.11035 18.0418
0.0840313 3.11035 18.067
0.0984777 3.11035 18.0418
0.113251 3.11035 18.067
0.303441 3.11035 18.1428
0.318055 3.11035 18.1681
0.288836 3.11035 18.1681
0.288836 3.11035 18.1681
0.318055 3.11035 18.1681
0.303454 3.11035 18.1934
0.186476 3.11035 18.1933
0.215741 3.11035 18.1933
0.201123 3.11035 18.2186
0.201103 3.11035 18.168
0.215741 3.11035 18.1933
0.186476 3.11035 18.1933
0.215723 3.11035 18.1428
0.201085 3.11035 18.1175
0.230345 3.11035 18.1175
0.201103 3.11035 18.168
0.186456 3.11035 18.1428
0.215723 3.11035 18.1428
0.215723 3.11035 18.1428
0.186456 3.11035 18.1428
0.201085 3.11035 18.1175
0.215762 3.11035 18.244
0.245012 3.11035 18.244
0.230402 3.11035 18.2693
0.157245 3.11035 18.2947
0.171881 3.11035 18.2693
0.186525 3.11035 18.2947
[...]
<PointData Scalars="View Factor" >
<DataArray type="Float64" Name="View Factor" NumberOfComponents="1" format="ascii">
3.37056e-06
3.37056e-06
3.37056e-06
3.15652e-06
3.15652e-06
3.15652e-06
3.16294e-06
3.16294e-06
3.16294e-06
1.78932e-06
1.78932e-06
1.78932e-06
1.92534e-06
1.92534e-06
1.92534e-06
3.16924e-06
3.16924e-06
3.16924e-06
2.15166e-06
2.15166e-06
2.15166e-06
3.26513e-06
3.26513e-06
3.26513e-06
3.31072e-06
3.31072e-06
3.31072e-06
3.25865e-06
3.25865e-06
3.25865e-06
3.25204e-06
3.25204e-06
3.25204e-06
3.24572e-06
3.24572e-06
3.24572e-06
3.1789e-06
3.1789e-06
3.1789e-06
3.17259e-06
3.17259e-06
3.17259e-06
3.18228e-06
3.18228e-06
3.18228e-06
3.16964e-06
3.16964e-06
3.16964e-06
3.21351e-06
3.21351e-06
3.21351e-06
3.21065e-06
3.21065e-06
3.21065e-06
3.20727e-06
3.20727e-06
3.20727e-06
3.18187e-06
3.18187e-06
3.18187e-06
3.17542e-06
3.17542e-06
3.17542e-06
3.31743e-06
3.31743e-06
3.31743e-06
3.15037e-06
3.15037e-06
3.15037e-06
9.59407e-08
9.59407e-08
9.59407e-08
2.12084e-06
2.12084e-06
2.12084e-06
1.4993e-06
1.4993e-06
1.4993e-06
1.78948e-06
1.78948e-06
1.78948e-06
2.05823e-06
2.05823e-06
2.05823e-06
1.93414e-06
1.93414e-06
1.93414e-06
2.51358e-06
2.51358e-06
2.51358e-06
2.43132e-06
2.43132e-06
2.43132e-06
2.56872e-06
2.56872e-06
2.56872e-06
2.44342e-06
2.44342e-06
2.44342e-06
2.14391e-06
2.14391e-06
2.14391e-06
2.33519e-06
2.33519e-06
2.33519e-06
2.31443e-06
2.31443e-06
2.31443e-06
2.05004e-06
2.05004e-06
2.05004e-06
1.93029e-06
1.93029e-06
1.93029e-06
2.2792e-06
2.2792e-06
2.2792e-06
2.12083e-06
2.12083e-06
2.12083e-06
1.03582e-06
1.03582e-06
1.03582e-06
1.35808e-06
1.35808e-06
1.35808e-06
1.51552e-06
1.51552e-06
1.51552e-06
0
0
0
3.29106e-06
3.29106e-06
3.29106e-06
3.27149e-06
3.27149e-06
3.27149e-06
2.81923e-06
2.81923e-06
2.81923e-06
3.21704e-06
3.21704e-06
3.21704e-06
3.22004e-06
3.22004e-06
3.22004e-06
3.20768e-06
3.20768e-06
3.20768e-06
3.2009e-06
3.2009e-06
3.2009e-06
3.19442e-06
3.19442e-06
3.19442e-06
3.18821e-06
3.18821e-06
3.18821e-06
3.31435e-06
3.31435e-06
3.31435e-06
3.28466e-06
3.28466e-06
3.28466e-06
3.27814e-06
3.27814e-06
3.27814e-06
2.8816e-06
2.8816e-06
2.8816e-06
3.30866e-06
3.30866e-06
3.30866e-06
3.18224e-06
3.18224e-06
3.18224e-06
3.26858e-06
3.26858e-06
3.26858e-06
3.27508e-06
3.27508e-06
3.27508e-06
3.15999e-06
3.15999e-06
3.15999e-06
3.1537e-06
3.1537e-06
3.1537e-06
3.16334e-06
3.16334e-06
3.16334e-06
3.10413e-06
3.10413e-06
3.10413e-06
3.11657e-06
3.11657e-06
3.11657e-06
3.1441e-06
3.1441e-06
3.1441e-06
3.14116e-06
3.14116e-06
3.14116e-06
4.87457e-07
4.87457e-07
4.87457e-07
2.42695e-06
2.42695e-06
2.42695e-06
2.56739e-06
2.56739e-06
2.56739e-06
3.13529e-06
3.13529e-06
3.13529e-06
3.1228e-06
3.1228e-06
3.1228e-06
2.37945e-06
2.37945e-06
2.37945e-06
1.43794e-06
1.43794e-06
1.43794e-06
7.21623e-07
7.21623e-07
7.21623e-07
9.58078e-07
9.58078e-07
9.58078e-07
5.16544e-07
5.16544e-07
5.16544e-07
3.70845e-07
3.70845e-07
3.70845e-07
2.42851e-07
2.42851e-07
2.42851e-07
6.61155e-07
6.61155e-07
6.61155e-07
9.56811e-07
9.56811e-07
9.56811e-07
8.11827e-07
8.11827e-07
8.11827e-07
1.0349e-06
1.0349e-06
1.0349e-06
8.69424e-07
8.69424e-07
8.69424e-07
3.70108e-07
3.70108e-07
3.70108e-07
4.09132e-07
4.09132e-07
4.09132e-07
1.44581e-07
1.44581e-07
1.44581e-07
2.42051e-07
2.42051e-07
2.42051e-07
2.42533e-07
2.42533e-07
2.42533e-07
0
0
0
0
0
0
8.7022e-07
8.7022e-07
8.7022e-07
5.32071e-07
5.32071e-07
5.32071e-07
2.20397e-06
2.20397e-06
2.20397e-06
2.21718e-06
2.21718e-06
2.21718e-06
2.08722e-06
2.08722e-06
2.08722e-06
2.19072e-06
2.19072e-06
2.19072e-06
3.37761e-06
3.37761e-06
3.37761e-06
2.16458e-06
2.16458e-06
2.16458e-06
2.06234e-06
2.06234e-06
2.06234e-06
2.07059e-06
2.07059e-06
2.07059e-06
1.80382e-06
1.80382e-06
1.80382e-06
1.64783e-06
1.64783e-06
1.64783e-06
1.79305e-06
1.79305e-06
1.79305e-06
1.65112e-06
1.65112e-06
1.65112e-06
1.80022e-06
1.80022e-06
1.80022e-06
1.94187e-06
1.94187e-06
1.94187e-06
1.94575e-06
1.94575e-06
1.94575e-06
2.17759e-06
2.17759e-06
2.17759e-06
2.08304e-06
2.08304e-06
2.08304e-06
1.95744e-06
1.95744e-06
1.95744e-06
2.07473e-06
2.07473e-06
2.07473e-06
1.95353e-06
1.95353e-06
1.95353e-06
1.80845e-06
1.80845e-06
1.80845e-06
1.99268e-06
1.99268e-06
1.99268e-06
1.63489e-06
1.63489e-06
1.63489e-06
1.49632e-06
1.49632e-06
1.49632e-06
1.64127e-06
1.64127e-06
1.64127e-06
1.34837e-06
1.34837e-06
1.34837e-06
1.34569e-06
1.34569e-06
1.34569e-06
1.19828e-06
1.19828e-06
1.19828e-06
0
0
0
0
0
0
5.68702e-07
5.68702e-07
5.68702e-07
2.35898e-07
2.35898e-07
2.35898e-07
4.9572e-08
4.9572e-08
4.9572e-08
1.94459e-07
1.94459e-07
1.94459e-07
1.94846e-07
1.94846e-07
1.94846e-07
1.35815e-06
1.35815e-06
1.35815e-06
2.1552e-06
2.1552e-06
2.1552e-06
8.12183e-07
8.12183e-07
8.12183e-07
8.21998e-07
8.21998e-07
8.21998e-07
2.28142e-06
2.28142e-06
2.28142e-06
1.46975e-06
1.46975e-06
1.46975e-06
1.35122e-06
1.35122e-06
1.35122e-06
7.83034e-07
7.83034e-07
7.83034e-07
1.93525e-06
1.93525e-06
1.93525e-06
1.75316e-06
1.75316e-06
1.75316e-06
1.557e-06
1.557e-06
1.557e-06
2.85212e-06
2.85212e-06
2.85212e-06
2.00197e-06
2.00197e-06
2.00197e-06
1.83931e-06
1.83931e-06
1.83931e-06
8.70248e-07
8.70248e-07
8.70248e-07
1.03585e-06
1.03585e-06
1.03585e-06
1.82286e-06
1.82286e-06
1.82286e-06
1.51556e-06
1.51556e-06
1.51556e-06
1.51561e-06
1.51561e-06
1.51561e-06
1.35812e-06
1.35812e-06
1.35812e-06
1.8228e-06
1.8228e-06
1.8228e-06
1.97275e-06
1.97275e-06
1.97275e-06
2.3737e-06
2.3737e-06
2.3737e-06
2.23011e-06
2.23011e-06
2.23011e-06
2.28669e-06
2.28669e-06
2.28669e-06
1.97281e-06
1.97281e-06
1.97281e-06
2.79617e-06
2.79617e-06
2.79617e-06
2.38024e-06
2.38024e-06
2.38024e-06
2.2137e-06
2.2137e-06
2.2137e-06
1.72927e-06
1.72927e-06
1.72927e-06
1.8883e-06
1.8883e-06
1.8883e-06
2.23004e-06
2.23004e-06
2.23004e-06
1.82275e-06
1.82275e-06
1.82275e-06
1.97269e-06
1.97269e-06
1.97269e-06
0
0
0
0
0
0
0
0
0
0
0
0
3.31809e-08
3.31809e-08
3.31809e-08
1.66505e-07
1.66505e-07
1.66505e-07
9.72928e-07
9.72928e-07
9.72928e-07
3.31737e-08
3.31737e-08
3.31737e-08
0
0
0
0
0
0
0
0
0
0
0
0
0
0
0
0
0
0
0
0
0
0
0
0
0
0
0
0
0
0
0
0
0
0
0
0
0
0
0
0
0
0
0
0
0
0
0
0
0
0
0
2.19273e-06
2.19273e-06
2.19273e-06
8.79642e-07
8.79642e-07
8.79642e-07
1.17308e-06
1.17308e-06
1.17308e-06
1.44637e-06
1.44637e-06
1.44637e-06
1.30846e-06
1.30846e-06
1.30846e-06
3.18267e-06
3.18267e-06
3.18267e-06
3.17299e-06
3.17299e-06
3.17299e-06
3.17931e-06
3.17931e-06
3.17931e-06
3.1797e-06
3.1797e-06
3.1797e-06
1.10578e-06
1.10578e-06
1.10578e-06
1.10358e-06
1.10358e-06
1.10358e-06
1.25301e-06
1.25301e-06
1.25301e-06
2.63219e-06
2.63219e-06
2.63219e-06
2.47979e-06
2.47979e-06
2.47979e-06
3.22644e-06
3.22644e-06
3.22644e-06
3.22984e-06
3.22984e-06
3.22984e-06
3.23272e-06
3.23272e-06
3.23272e-06
3.23928e-06
3.23928e-06
3.23928e-06
3.23626e-06
3.23626e-06
3.23626e-06
3.19237e-06
3.19237e-06
3.19237e-06
3.18901e-06
3.18901e-06
3.18901e-06
3.18861e-06
3.18861e-06
3.18861e-06
3.20131e-06
3.20131e-06
3.20131e-06
3.19198e-06
3.19198e-06
3.19198e-06
3.19833e-06
3.19833e-06
3.19833e-06
3.19157e-06
3.19157e-06
3.19157e-06
3.19792e-06
3.19792e-06
3.19792e-06
3.29774e-06
3.29774e-06
3.29774e-06
3.30429e-06
3.30429e-06
3.30429e-06
3.30778e-06
3.30778e-06
3.30778e-06
3.324e-06
3.324e-06
3.324e-06
2.88736e-06
2.88736e-06
2.88736e-06
3.03781e-06
3.03781e-06
3.03781e-06
3.27855e-06
3.27855e-06
3.27855e-06
3.28549e-06
3.28549e-06
3.28549e-06
3.2755e-06
3.2755e-06
3.2755e-06
3.27896e-06
3.27896e-06
3.27896e-06
3.15077e-06
3.15077e-06
3.15077e-06
3.14449e-06
3.14449e-06
3.14449e-06
3.14155e-06
3.14155e-06
3.14155e-06
3.09792e-06
3.09792e-06
3.09792e-06
2.68205e-06
2.68205e-06
2.68205e-06
1.29275e-06
1.29275e-06
1.29275e-06
9.57484e-08
9.57484e-08
9.57484e-08
2.62204e-07
2.62204e-07
2.62204e-07
2.30879e-07
2.30879e-07
2.30879e-07
2.33658e-06
2.33658e-06
2.33658e-06
2.16207e-06
2.16207e-06
2.16207e-06
2.8583e-06
2.8583e-06
2.8583e-06
2.88626e-06
2.88626e-06
2.88626e-06
2.07537e-06
2.07537e-06
2.07537e-06
2.39351e-06
2.39351e-06
2.39351e-06
2.15495e-06
2.15495e-06
2.15495e-06
2.22935e-06
2.22935e-06
2.22935e-06
2.75698e-06
2.75698e-06
2.75698e-06
2.64607e-06
2.64607e-06
2.64607e-06
2.64931e-06
2.64931e-06
2.64931e-06
3.13198e-06
3.13198e-06
3.13198e-06
3.12573e-06
3.12573e-06
3.12573e-06
3.1349e-06
3.1349e-06
3.1349e-06
3.10743e-06
3.10743e-06
3.10743e-06
3.10451e-06
3.10451e-06
3.10451e-06
3.11365e-06
3.11365e-06
3.11365e-06
3.11695e-06
3.11695e-06
3.11695e-06
3.01339e-06
3.01339e-06
3.01339e-06
3.02936e-06
3.02936e-06
3.02936e-06
1.91626e-06
1.91626e-06
1.91626e-06
1.82774e-06
1.82774e-06
1.82774e-06
1.97889e-06
1.97889e-06
1.97889e-06
1.09048e-06
1.09048e-06
1.09048e-06
7.35196e-07
7.35196e-07
7.35196e-07
4.87977e-07
4.87977e-07
4.87977e-07
1.24081e-06
1.24081e-06
1.24081e-06
1.82096e-06
1.82096e-06
1.82096e-06
1.97066e-06
1.97066e-06
1.97066e-06
1.03463e-06
1.03463e-06
1.03463e-06
8.69198e-07
8.69198e-07
8.69198e-07
5.31437e-07
5.31437e-07
5.31437e-07
3.99578e-07
3.99578e-07
3.99578e-07
8.69276e-07
8.69276e-07
8.69276e-07
5.31485e-07
5.31485e-07
5.31485e-07
1.35654e-06
1.35654e-06
1.35654e-06
1.51376e-06
1.51376e-06
1.51376e-06
1.82065e-06
1.82065e-06
1.82065e-06
1.97049e-06
1.97049e-06
1.97049e-06
1.82081e-06
1.82081e-06
1.82081e-06
1.5139e-06
1.5139e-06
1.5139e-06
9.73816e-07
9.73816e-07
9.73816e-07
1.19819e-06
1.19819e-06
1.19819e-06
1.22569e-06
1.22569e-06
1.22569e-06
9.77872e-07
9.77872e-07
9.77872e-07
2.21191e-06
2.21191e-06
2.21191e-06
2.22756e-06
2.22756e-06
2.22756e-06
2.37827e-06
2.37827e-06
2.37827e-06
2.43334e-07
2.43334e-07
2.43334e-07
2.43656e-07
2.43656e-07
2.43656e-07
1.0105e-07
1.0105e-07
1.0105e-07
1.01251e-07
1.01251e-07
1.01251e-07
5.19637e-07
5.19637e-07
5.19637e-07
3.73066e-07
3.73066e-07
3.73066e-07
3.72324e-07
3.72324e-07
3.72324e-07
5.17573e-07
5.17573e-07
5.17573e-07
6.63793e-07
6.63793e-07
6.63793e-07
6.65115e-07
6.65115e-07
6.65115e-07
9.49222e-07
9.49222e-07
9.49222e-07
1.09265e-06
1.09265e-06
1.09265e-06
3.99853e-07
3.99853e-07
3.99853e-07
4.5893e-08
4.5893e-08
4.5893e-08
1.97167e-06
1.97167e-06
1.97167e-06
1.82189e-06
1.82189e-06
1.82189e-06
3.99827e-07
3.99827e-07
3.99827e-07
5.31811e-07
5.31811e-07
5.31811e-07
2.37236e-06
2.37236e-06
2.37236e-06
2.22889e-06
2.22889e-06
2.22889e-06
2.37251e-06
2.37251e-06
2.37251e-06
2.65255e-06
2.65255e-06
2.65255e-06
2.78996e-06
2.78996e-06
2.78996e-06
2.65272e-06
2.65272e-06
2.65272e-06
5.31577e-07
5.31577e-07
5.31577e-07
0
0
0
4.58722e-08
4.58722e-08
4.58722e-08
3.99681e-07
3.99681e-07
3.99681e-07
1.51415e-06
1.51415e-06
1.51415e-06
1.35688e-06
1.35688e-06
1.35688e-06
0
0
0
8.69493e-07
8.69493e-07
8.69493e-07
5.3162e-07
5.3162e-07
5.3162e-07
0
0
0
0
0
0
0
0
0
0
0
0
0
0
0
4.58598e-08
4.58598e-08
4.58598e-08
0
0
0
0
0
0
0
0
0
0
0
0
0
0
0
0
0
0
0
0
0
0
0
0
0
0
0
1.20306e-06
1.20306e-06
1.20306e-06
1.35375e-06
1.35375e-06
1.35375e-06
1.20545e-06
1.20545e-06
1.20545e-06
0
0
0
0
0
0
3.99877e-07
3.99877e-07
3.99877e-07
5.31844e-07
5.31844e-07
5.31844e-07
8.69855e-07
8.69855e-07
8.69855e-07
1.0354e-06
1.0354e-06
1.0354e-06
1.51489e-06
1.51489e-06
1.51489e-06
1.35753e-06
1.35753e-06
1.35753e-06
3.02815e-06
3.02815e-06
3.02815e-06
3.37436e-06
3.37436e-06
3.37436e-06
3.37804e-06
3.37804e-06
3.37804e-06
2.3079e-06
2.3079e-06
2.3079e-06
2.93382e-06
2.93382e-06
2.93382e-06
2.93958e-06
2.93958e-06
2.93958e-06
2.00385e-06
2.00385e-06
2.00385e-06
2.01186e-06
2.01186e-06
2.01186e-06
2.80575e-06
2.80575e-06
2.80575e-06
2.67959e-06
2.67959e-06
2.67959e-06
2.19029e-06
2.19029e-06
2.19029e-06
2.21225e-06
2.21225e-06
2.21225e-06
2.05986e-06
2.05986e-06
2.05986e-06
2.12611e-06
2.12611e-06
2.12611e-06
2.03378e-06
2.03378e-06
2.03378e-06
1.76822e-06
1.76822e-06
1.76822e-06
1.91116e-06
1.91116e-06
1.91116e-06
2.04596e-06
2.04596e-06
2.04596e-06
2.13884e-06
2.13884e-06
2.13884e-06
2.03783e-06
2.03783e-06
2.03783e-06
1.92261e-06
1.92261e-06
1.92261e-06
1.91879e-06
1.91879e-06
1.91879e-06
1.77175e-06
1.77175e-06
1.77175e-06
1.62825e-06
1.62825e-06
1.62825e-06
1.34034e-06
1.34034e-06
1.34034e-06
1.19589e-06
1.19589e-06
1.19589e-06
1.78236e-06
1.78236e-06
1.78236e-06
1.638e-06
1.638e-06
1.638e-06
1.77882e-06
1.77882e-06
1.77882e-06
1.63149e-06
1.63149e-06
1.63149e-06
1.49037e-06
1.49037e-06
1.49037e-06
1.48741e-06
1.48741e-06
1.48741e-06
1.62178e-06
1.62178e-06
1.62178e-06
1.61856e-06
1.61856e-06
1.61856e-06
1.47268e-06
1.47268e-06
1.47268e-06
1.32972e-06
1.32972e-06
1.32972e-06
0
0
0
0
0
0
0
0
0
0
0
0
4.00042e-07
4.00042e-07
4.00042e-07
4.59162e-08
4.59162e-08
4.59162e-08
5.32088e-07
5.32088e-07
5.32088e-07
0
0
0
4.59178e-08
4.59178e-08
4.59178e-08
4.00054e-07
4.00054e-07
4.00054e-07
5.21454e-07
5.21454e-07
5.21454e-07
4.85187e-07
4.85187e-07
4.85187e-07
3.38856e-07
3.38856e-07
3.38856e-07
3.3953e-07
3.3953e-07
3.3953e-07
6.2847e-07
6.2847e-07
6.2847e-07
6.2972e-07
6.2972e-07
6.2972e-07
1.16572e-06
1.16572e-06
1.16572e-06
1.11541e-06
1.11541e-06
1.11541e-06
1.54185e-06
1.54185e-06
1.54185e-06
1.96679e-06
1.96679e-06
1.96679e-06
1.69241e-06
1.69241e-06
1.69241e-06
1.469e-06
1.469e-06
1.469e-06
2.04613e-06
2.04613e-06
2.04613e-06
1.8444e-06
1.8444e-06
1.8444e-06
2.84808e-06
2.84808e-06
2.84808e-06
2.70848e-06
2.70848e-06
2.70848e-06
2.4577e-06
2.4577e-06
2.4577e-06
2.37221e-06
2.37221e-06
2.37221e-06
2.52995e-06
2.52995e-06
2.52995e-06
2.87882e-06
2.87882e-06
2.87882e-06
2.75495e-06
2.75495e-06
2.75495e-06
2.08953e-06
2.08953e-06
2.08953e-06
1.18406e-06
1.18406e-06
1.18406e-06
8.9334e-07
8.9334e-07
8.9334e-07
1.18171e-06
1.18171e-06
1.18171e-06
1.06736e-06
1.06736e-06
1.06736e-06
2.11495e-06
2.11495e-06
2.11495e-06
1.9272e-06
1.9272e-06
1.9272e-06
1.73341e-06
1.73341e-06
1.73341e-06
1.7265e-06
1.7265e-06
1.7265e-06
1.30537e-06
1.30537e-06
1.30537e-06
1.51354e-06
1.51354e-06
1.51354e-06
2.8818e-06
2.8818e-06
2.8818e-06
2.84414e-06
2.84414e-06
2.84414e-06
2.80845e-06
2.80845e-06
2.80845e-06
2.9144e-06
2.9144e-06
2.9144e-06
2.88302e-06
2.88302e-06
2.88302e-06
2.59439e-06
2.59439e-06
2.59439e-06
2.72272e-06
2.72272e-06
2.72272e-06
2.76891e-06
2.76891e-06
2.76891e-06
2.46209e-06
2.46209e-06
2.46209e-06
2.27074e-06
2.27074e-06
2.27074e-06
2.39271e-06
2.39271e-06
2.39271e-06
1.93196e-06
1.93196e-06
1.93196e-06
1.63494e-06
1.63494e-06
1.63494e-06
1.68255e-06
1.68255e-06
1.68255e-06
2.02661e-06
2.02661e-06
2.02661e-06
1.93086e-06
1.93086e-06
1.93086e-06
1.8181e-06
1.8181e-06
1.8181e-06
1.91527e-06
1.91527e-06
1.91527e-06
2.01436e-06
2.01436e-06
2.01436e-06
1.91918e-06
1.91918e-06
1.91918e-06
1.80715e-06
1.80715e-06
1.80715e-06
1.92697e-06
1.92697e-06
1.92697e-06
1.81079e-06
1.81079e-06
1.81079e-06
1.67878e-06
1.67878e-06
1.67878e-06
1.67541e-06
1.67541e-06
1.67541e-06
1.03588e-06
1.03588e-06
1.03588e-06
8.70273e-07
8.70273e-07
8.70273e-07
5.31445e-07
5.31445e-07
5.31445e-07
4.00065e-07
4.00065e-07
4.00065e-07
5.72087e-07
5.72087e-07
5.72087e-07
9.05699e-07
9.05699e-07
9.05699e-07
2.37377e-06
2.37377e-06
2.37377e-06
2.38552e-06
2.38552e-06
2.38552e-06
2.23017e-06
2.23017e-06
2.23017e-06
2.65411e-06
2.65411e-06
2.65411e-06
2.72214e-06
2.72214e-06
2.72214e-06
2.6533e-06
2.6533e-06
2.6533e-06
2.79059e-06
2.79059e-06
2.79059e-06
2.7912e-06
2.7912e-06
2.7912e-06
2.38034e-06
2.38034e-06
2.38034e-06
2.72237e-06
2.72237e-06
2.72237e-06
2.72247e-06
2.72247e-06
2.72247e-06
2.79608e-06
2.79608e-06
2.79608e-06
2.37362e-06
2.37362e-06
2.37362e-06
2.65395e-06
2.65395e-06
2.65395e-06
2.65386e-06
2.65386e-06
2.65386e-06
2.7913e-06
2.7913e-06
2.7913e-06
1.97263e-06
1.97263e-06
1.97263e-06
2.22997e-06
2.22997e-06
2.22997e-06
2.22989e-06
2.22989e-06
2.22989e-06
2.37354e-06
2.37354e-06
2.37354e-06
0
0
0
0
0
0
0
0
0
0
0
0
0
0
0
3.31786e-08
3.31786e-08
3.31786e-08
0
0
0
0
0
0
0
0
0
0
0
0
1.26657e-06
1.26657e-06
1.26657e-06
8.58655e-07
8.58655e-07
8.58655e-07
5.76935e-07
5.76935e-07
5.76935e-07
8.56583e-07
8.56583e-07
8.56583e-07
9.73e-07
9.73e-07
9.73e-07
5.76976e-07
5.76976e-07
5.76976e-07
4.38056e-07
4.38056e-07
4.38056e-07
1.4179e-06
1.4179e-06
1.4179e-06
1.26647e-06
1.26647e-06
1.26647e-06
1.72799e-06
1.72799e-06
1.72799e-06
1.88679e-06
1.88679e-06
1.88679e-06
4.38025e-07
4.38025e-07
4.38025e-07
1.66481e-07
1.66481e-07
1.66481e-07
3.31762e-08
3.31762e-08
3.31762e-08
1.66493e-07
1.66493e-07
1.66493e-07
8.60727e-07
8.60727e-07
8.60727e-07
5.76893e-07
5.76893e-07
5.76893e-07
4.38498e-07
4.38498e-07
4.38498e-07
3.31712e-08
3.31712e-08
3.31712e-08
1.66468e-07
1.66468e-07
1.66468e-07
2.58458e-07
2.58458e-07
2.58458e-07
5.2186e-07
5.2186e-07
5.2186e-07
2.78921e-06
2.78921e-06
2.78921e-06
2.7941e-06
2.7941e-06
2.7941e-06
1.88693e-06
1.88693e-06
1.88693e-06
2.37846e-06
2.37846e-06
2.37846e-06
2.7202e-06
2.7202e-06
2.7202e-06
2.37863e-06
2.37863e-06
2.37863e-06
2.21208e-06
2.21208e-06
2.21208e-06
2.79389e-06
2.79389e-06
2.79389e-06
2.7204e-06
2.7204e-06
2.7204e-06
8.54772e-07
8.54772e-07
8.54772e-07
9.73428e-07
9.73428e-07
9.73428e-07
0
0
0
0
0
0
0
0
0
0
0
0
0
0
0
0
0
0
0
0
0
1.8775e-06
1.8775e-06
1.8775e-06
1.96388e-06
1.96388e-06
1.96388e-06
0
0
0
0
0
0
1.41895e-06
1.41895e-06
1.41895e-06
0
0
0
0
0
0
2.21268e-06
2.21268e-06
2.21268e-06
9.72656e-07
9.72656e-07
9.72656e-07
0
0
0
0
0
0
1.66558e-07
1.66558e-07
1.66558e-07
3.31892e-08
3.31892e-08
3.31892e-08
0
0
0
0
0
0
0
0
0
0
0
0
0
0
0
0
0
0
0
0
0
0
0
0
0
0
0
0
0
0
0
0
0
0
0
0
0
0
0
0
0
0
0
0
0
0
0
0
0
0
0
0
0
0
0
0
0
0
0
0
0
0
0
0
0
0
0
0
0
7.46363e-07
7.46363e-07
7.46363e-07
6.11478e-07
6.11478e-07
6.11478e-07
1.82784e-06
1.82784e-06
1.82784e-06
1.92606e-06
1.92606e-06
1.92606e-06
2.06147e-06
2.06147e-06
2.06147e-06
1.16837e-06
1.16837e-06
1.16837e-06
1.16602e-06
1.16602e-06
1.16602e-06
1.44056e-06
1.44056e-06
1.44056e-06
1.30583e-06
1.30583e-06
1.30583e-06
1.03315e-06
1.03315e-06
1.03315e-06
1.03523e-06
1.03523e-06
1.03523e-06
2.25098e-06
2.25098e-06
2.25098e-06
2.68743e-06
2.68743e-06
2.68743e-06
2.99378e-06
2.99378e-06
2.99378e-06
2.99361e-06
2.99361e-06
2.99361e-06
2.99688e-06
2.99688e-06
2.99688e-06
2.99701e-06
2.99701e-06
2.99701e-06
3.00339e-06
3.00339e-06
3.00339e-06
3.17004e-06
3.17004e-06
3.17004e-06
3.17338e-06
3.17338e-06
3.17338e-06
2.97247e-06
2.97247e-06
2.97247e-06
3.01232e-06
3.01232e-06
3.01232e-06
2.69898e-06
2.69898e-06
2.69898e-06
3.10103e-06
3.10103e-06
3.10103e-06
2.90718e-06
2.90718e-06
2.90718e-06
2.82869e-06
2.82869e-06
2.82869e-06
2.87792e-06
2.87792e-06
2.87792e-06
3.02197e-06
3.02197e-06
3.02197e-06
2.87119e-06
2.87119e-06
2.87119e-06
2.67566e-06
2.67566e-06
2.67566e-06
2.73047e-06
2.73047e-06
2.73047e-06
2.81363e-06
2.81363e-06
2.81363e-06
2.95872e-06
2.95872e-06
2.95872e-06
2.98148e-06
2.98148e-06
2.98148e-06
2.52641e-06
2.52641e-06
2.52641e-06
2.39288e-06
2.39288e-06
2.39288e-06
2.67796e-06
2.67796e-06
2.67796e-06
2.53144e-06
2.53144e-06
2.53144e-06
2.39003e-06
2.39003e-06
2.39003e-06
1.95265e-06
1.95265e-06
1.95265e-06
2.11033e-06
2.11033e-06
2.11033e-06
2.23948e-06
2.23948e-06
2.23948e-06
2.24394e-06
2.24394e-06
2.24394e-06
3.22685e-06
3.22685e-06
3.22685e-06
3.22045e-06
3.22045e-06
3.22045e-06
2.69398e-06
2.69398e-06
2.69398e-06
2.68329e-06
2.68329e-06
2.68329e-06
3.2397e-06
3.2397e-06
3.2397e-06
3.1072e-06
3.1072e-06
3.1072e-06
2.96614e-06
2.96614e-06
2.96614e-06
3.34739e-06
3.34739e-06
3.34739e-06
3.32752e-06
3.32752e-06
3.32752e-06
3.33413e-06
3.33413e-06
3.33413e-06
3.3438e-06
3.3438e-06
3.3438e-06
3.33719e-06
3.33719e-06
3.33719e-06
3.33043e-06
3.33043e-06
3.33043e-06
3.35027e-06
3.35027e-06
3.35027e-06
3.31526e-06
3.31526e-06
3.31526e-06
3.3285e-06
3.3285e-06
3.3285e-06
3.21414e-06
3.21414e-06
3.21414e-06
3.33514e-06
3.33514e-06
3.33514e-06
3.30515e-06
3.30515e-06
3.30515e-06
3.29858e-06
3.29858e-06
3.29858e-06
3.30822e-06
3.30822e-06
3.30822e-06
3.30471e-06
3.30471e-06
3.30471e-06
3.28507e-06
3.28507e-06
3.28507e-06
3.28812e-06
3.28812e-06
3.28812e-06
3.29466e-06
3.29466e-06
3.29466e-06
3.29815e-06
3.29815e-06
3.29815e-06
3.28854e-06
3.28854e-06
3.28854e-06
3.29509e-06
3.29509e-06
3.29509e-06
3.157e-06
3.157e-06
3.157e-06
3.27591e-06
3.27591e-06
3.27591e-06
3.02572e-06
3.02572e-06
3.02572e-06
3.0197e-06
3.0197e-06
3.0197e-06
3.1759e-06
3.1759e-06
3.1759e-06
3.16329e-06
3.16329e-06
3.16329e-06
3.29551e-06
3.29551e-06
3.29551e-06
3.28896e-06
3.28896e-06
3.28896e-06
2.98124e-06
2.98124e-06
2.98124e-06