<VTKFile type="UnstructuredGrid" version="1.0">
<UnstructuredGrid>
<Piece NumberOfPoints="10830" NumberOfCells="3610">
<Points>
<DataArray type="Float64" NumberOfComponents="3" format="ascii">
1.27826 3.11035 0.0257489
1.28831 3.11035 0
1.28831 3.11035 0.0514594
1.28831 3.11035 0.555078
1.28831 3.11035 0.605999
1.27701 3.11035 0.580532
1.28831 3.11035 0.555078
1.27701 3.11035 0.580532
1.26002 3.11035 0.555099
0.0244388 3.11035 1.02759
0.0422213 3.11035 1.045
0 3.11035 1.045
0 3.11035 1.045
-7.89601e-14 3.11035 1.01484
0.0244388 3.11035 1.02759
1.28831 3.11035 0.555078
1.26002 3.11035 0.555099
1.27702 3.11035 0.529679
0.00863377 3.11035 0.276786
1.49469e-13 3.11035 0.302009
1.49791e-13 3.11035 0.251574
1.27705 3.11035 0.2769
1.28831 3.11035 0.302091
1.26004 3.11035 0.302114
1.27684 3.11035 0.17634
1.28831 3.11035 0.151284
1.28831 3.11035 0.201394
1.26004 3.11035 0.302114
1.28831 3.11035 0.302091
1.27707 3.11035 0.327315
1.28831 3.11035 0.302091
1.28831 3.11035 0.352537
1.27707 3.11035 0.327315
1.26005 3.11035 0.352551
1.27707 3.11035 0.327315
1.28831 3.11035 0.352537
1.26003 3.11035 0.504308
1.27702 3.11035 0.529679
1.24613 3.11035 0.529697
1.24613 3.11035 0.529697
1.27702 3.11035 0.529679
1.26002 3.11035 0.555099
1.24613 3.11035 0.529697
1.23052 3.11035 0.504324
1.26003 3.11035 0.504308
1.24613 3.11035 0.529697
1.26002 3.11035 0.555099
1.23052 3.11035 0.555118
1.28831 3.11035 0.403041
1.28831 3.11035 0.453619
1.27705 3.11035 0.428326
1.27705 3.11035 0.428326
1.26004 3.11035 0.453633
1.24616 3.11035 0.428339
1.28831 3.11035 0.453619
1.26004 3.11035 0.453633
1.27705 3.11035 0.428326
1.28831 3.11035 0.504291
1.27702 3.11035 0.529679
1.26003 3.11035 0.504308
1.28831 3.11035 0.555078
1.27702 3.11035 0.529679
1.28831 3.11035 0.504291
1.25981 3.11035 0.151322
1.28831 3.11035 0.151284
1.27684 3.11035 0.17634
1.26002 3.11035 0.606025
1.27701 3.11035 0.580532
1.28831 3.11035 0.605999
0.85884 3.11035 0.785748
0.873578 3.11035 0.759978
0.888295 3.11035 0.785725
0 3.11035 0
0.0277369 3.11035 -5.6077e-14
0.00987207 3.11035 0.024705
0.0840033 3.11035 0.251587
0.0549577 3.11035 0.251567
0.0689903 3.11035 0.226374
0.0264927 3.11035 0.251562
0.0549577 3.11035 0.251567
0.0392653 3.11035 0.276779
0.0264927 3.11035 0.251562
0.00863377 3.11035 0.276786
1.49791e-13 3.11035 0.251574
0.0392653 3.11035 0.276779
0.00863377 3.11035 0.276786
0.0264927 3.11035 0.251562
0.0087521 3.11035 0.478941
-9.63464e-14 3.11035 0.504301
1.47962e-13 3.11035 0.453605
0.0265703 3.11035 0.504296
0.0393699 3.11035 0.478935
0.0550657 3.11035 0.504293
-9.63464e-14 3.11035 0.504301
0.0087521 3.11035 0.478941
0.0265703 3.11035 0.504296
0.0265703 3.11035 0.504296
0.0087521 3.11035 0.478941
0.0393699 3.11035 0.478935
0.0265544 3.11035 0.453601
0.0550443 3.11035 0.453599
0.0393699 3.11035 0.478935
0.0265544 3.11035 0.453601
0.0087521 3.11035 0.478941
1.47962e-13 3.11035 0.453605
0.0393699 3.11035 0.478935
0.0087521 3.11035 0.478941
0.0265544 3.11035 0.453601
1.49469e-13 3.11035 0.302009
0.00863377 3.11035 0.276786
0.0265126 3.11035 0.302001
0.0265126 3.11035 0.302001
0.00863377 3.11035 0.276786
0.0392653 3.11035 0.276779
0.0550657 3.11035 0.504293
0.0393699 3.11035 0.478935
0.0691236 3.11035 0.478933
0.0393699 3.11035 0.478935
0.0550443 3.11035 0.453599
0.0691236 3.11035 0.478933
0.288852 3.11035 0.453669
0.303471 3.11035 0.479013
0.274248 3.11035 0.479001
0.274248 3.11035 0.479001
0.303471 3.11035 0.479013
0.288872 3.11035 0.504372
0.288872 3.11035 0.504372
0.303471 3.11035 0.479013
0.318088 3.11035 0.504385
0.844143 3.11035 0.759998
0.873578 3.11035 0.759978
0.85884 3.11035 0.785748
1.27699 3.11035 0.226555
1.28831 3.11035 0.201394
1.28831 3.11035 0.251699
1.28831 3.11035 0.302091
1.27705 3.11035 0.2769
1.28831 3.11035 0.251699
1.17079 3.11035 0.403096
1.14088 3.11035 0.40311
1.15586 3.11035 0.377846
1.26004 3.11035 0.403053
1.27705 3.11035 0.428326
1.24616 3.11035 0.428339
1.28831 3.11035 0.403041
1.27705 3.11035 0.428326
1.26004 3.11035 0.403053
1.24616 3.11035 0.428339
1.26004 3.11035 0.453633
1.23053 3.11035 0.453647
1.27704 3.11035 0.47895
1.26004 3.11035 0.453633
1.28831 3.11035 0.453619
1.28831 3.11035 0.453619
1.28831 3.11035 0.504291
1.27704 3.11035 0.47895
1.27704 3.11035 0.47895
1.28831 3.11035 0.504291
1.26003 3.11035 0.504308
1.24591 3.11035 0.176367
1.25981 3.11035 0.151322
1.27684 3.11035 0.17634
1.27699 3.11035 0.226555
1.28831 3.11035 0.251699
1.26001 3.11035 0.251744
1.26001 3.11035 0.251744
1.28831 3.11035 0.251699
1.27705 3.11035 0.2769
1.15573 3.11035 0.226614
1.1407 3.11035 0.201434
1.1706 3.11035 0.201432
1.20051 3.11035 0.201451
1.18556 3.11035 0.176261
1.21561 3.11035 0.176315
1.20051 3.11035 0.201451
1.1706 3.11035 0.201432
1.18556 3.11035 0.176261
1.24614 3.11035 0.276933
1.27705 3.11035 0.2769
1.26004 3.11035 0.302114
1.24614 3.11035 0.276933
1.26001 3.11035 0.251744
1.27705 3.11035 0.2769
1.24612 3.11035 0.580555
1.26002 3.11035 0.555099
1.27701 3.11035 0.580532
1.27701 3.11035 0.580532
1.26002 3.11035 0.606025
1.24612 3.11035 0.580555
1.23052 3.11035 0.555118
1.26002 3.11035 0.555099
1.24612 3.11035 0.580555
1.24611 3.11035 0.734055
1.21584 3.11035 0.734064
1.23051 3.11035 0.708373
1.21584 3.11035 0.682738
1.24611 3.11035 0.682719
1.23051 3.11035 0.708373
1.27699 3.11035 0.63153
1.26002 3.11035 0.606025
1.28831 3.11035 0.605999
1.24611 3.11035 0.631556
1.26002 3.11035 0.606025
1.27699 3.11035 0.63153
0.917741 3.11035 0.837317
0.932465 3.11035 0.86316
0.902954 3.11035 0.863195
1.08109 3.11035 0.708429
1.09602 3.11035 0.682792
1.11094 3.11035 0.708414
1.11094 3.11035 0.708414
1.09602 3.11035 0.682792
1.12589 3.11035 0.682778
1.2305 3.11035 0.657127
1.21584 3.11035 0.631578
1.24611 3.11035 0.631556
1.2305 3.11035 0.657127
1.24611 3.11035 0.682719
1.21584 3.11035 0.682738
1.0662 3.11035 0.682809
1.09602 3.11035 0.682792
1.08109 3.11035 0.708429
0.991917 3.11035 0.453738
0.962274 3.11035 0.453743
0.977089 3.11035 0.428435
0.917902 3.11035 0.42844
0.903138 3.11035 0.45375
0.888384 3.11035 0.428441
0.932681 3.11035 0.453747
0.903138 3.11035 0.45375
0.917902 3.11035 0.42844
0.903119 3.11035 0.35265
0.932664 3.11035 0.352655
0.917893 3.11035 0.377895
0.917893 3.11035 0.377895
0.888374 3.11035 0.377891
0.903119 3.11035 0.35265
0.903119 3.11035 0.35265
0.888374 3.11035 0.377891
0.873625 3.11035 0.352644
0.917893 3.11035 0.377895
0.932664 3.11035 0.352655
0.947463 3.11035 0.377896
0.962233 3.11035 0.302232
0.977066 3.11035 0.327437
0.947444 3.11035 0.327435
0.947444 3.11035 0.327435
0.932637 3.11035 0.302227
0.962233 3.11035 0.302232
0.741456 3.11035 0.479091
0.756104 3.11035 0.453749
0.770765 3.11035 0.479092
0.756104 3.11035 0.453749
0.785431 3.11035 0.453751
0.770765 3.11035 0.479092
0.903133 3.11035 0.403156
0.888374 3.11035 0.377891
0.917893 3.11035 0.377895
0.903133 3.11035 0.403156
0.917902 3.11035 0.42844
0.888384 3.11035 0.428441
0.888384 3.11035 0.428441
0.858913 3.11035 0.42844
0.873639 3.11035 0.403154
0.873639 3.11035 0.403154
0.903133 3.11035 0.403156
0.888384 3.11035 0.428441
0.888374 3.11035 0.377891
0.903133 3.11035 0.403156
0.873639 3.11035 0.403154
0.873625 3.11035 0.352644
0.844177 3.11035 0.352637
0.858884 3.11035 0.327412
0.844153 3.11035 0.302193
0.873599 3.11035 0.302206
0.858884 3.11035 0.327412
0.318069 3.11035 0.45368
0.303471 3.11035 0.479013
0.288852 3.11035 0.453669
0.288852 3.11035 0.453669
0.303454 3.11035 0.428361
0.318069 3.11035 0.45368
0.00864568 3.11035 0.0748701
1.4958e-13 3.11035 0.100085
-9.64495e-14 3.11035 0.0494157
0 3.11035 0
0.00987207 3.11035 0.024705
-9.64495e-14 3.11035 0.0494157
0.0264295 3.11035 0.150698
1.50097e-13 3.11035 0.150672
0.00849117 3.11035 0.12542
1.50097e-13 3.11035 0.150672
1.4958e-13 3.11035 0.100085
0.00849117 3.11035 0.12542
1.28831 3.11035 0
1.27826 3.11035 0.0257489
1.26122 3.11035 1.13803e-14
1.49791e-13 3.11035 0.251574
1.50032e-13 3.11035 0.201144
0.00859461 3.11035 0.226356
0.00859461 3.11035 0.226356
0.0264927 3.11035 0.251562
1.49791e-13 3.11035 0.251574
0.0264637 3.11035 0.201134
0.00859461 3.11035 0.226356
1.50032e-13 3.11035 0.201144
0.0264637 3.11035 0.201134
0.0391815 3.11035 0.175937
0.0549232 3.11035 0.20116
0.0392276 3.11035 0.226352
0.0689903 3.11035 0.226374
0.0549577 3.11035 0.251567
0.0549577 3.11035 0.251567
0.0264927 3.11035 0.251562
0.0392276 3.11035 0.226352
0.0549232 3.11035 0.20116
0.0689903 3.11035 0.226374
0.0392276 3.11035 0.226352
0.0392276 3.11035 0.226352
0.0264637 3.11035 0.201134
0.0549232 3.11035 0.20116
0.0264927 3.11035 0.251562
0.00859461 3.11035 0.226356
0.0392276 3.11035 0.226352
0.00859461 3.11035 0.226356
0.0264637 3.11035 0.201134
0.0392276 3.11035 0.226352
0.00854014 3.11035 0.175915
1.50032e-13 3.11035 0.201144
1.50097e-13 3.11035 0.150672
0.00854014 3.11035 0.175915
1.50097e-13 3.11035 0.150672
0.0264295 3.11035 0.150698
0.0264295 3.11035 0.150698
0.0391815 3.11035 0.175937
0.00854014 3.11035 0.175915
0.00854014 3.11035 0.175915
0.0264637 3.11035 0.201134
1.50032e-13 3.11035 0.201144
0.0391815 3.11035 0.175937
0.0264637 3.11035 0.201134
0.00854014 3.11035 0.175915
0.0690987 3.11035 0.428289
0.0550443 3.11035 0.453599
0.0393425 3.11035 0.428289
0.0550443 3.11035 0.453599
0.0265544 3.11035 0.453601
0.0393425 3.11035 0.428289
0.0393425 3.11035 0.428289
0.0550252 3.11035 0.402998
0.0690987 3.11035 0.428289
0.0690242 3.11035 0.276785
0.0549577 3.11035 0.251567
0.0840033 3.11035 0.251587
0.0392653 3.11035 0.276779
0.0549577 3.11035 0.251567
0.0690242 3.11035 0.276785
0.0984777 3.11035 0.276801
0.0690242 3.11035 0.276785
0.0840033 3.11035 0.251587
0.0840313 3.11035 0.302008
0.0690242 3.11035 0.276785
0.0984777 3.11035 0.276801
0.0840313 3.11035 0.302008
0.0984777 3.11035 0.276801
0.113251 3.11035 0.302022
0.303441 3.11035 0.3778
0.318055 3.11035 0.403074
0.288836 3.11035 0.403066
0.288836 3.11035 0.403066
0.318055 3.11035 0.403074
0.303454 3.11035 0.428361
0.186476 3.11035 0.428318
0.215741 3.11035 0.428329
0.201123 3.11035 0.453634
0.201103 3.11035 0.403035
0.215741 3.11035 0.428329
0.186476 3.11035 0.428318
0.215723 3.11035 0.377773
[...]
<PointData Scalars="View Factor" >
<DataArray type="Float64" Name="View Factor" NumberOfComponents="1" format="ascii">
0.00132853
0.00132853
0.00132853
0.00100516
0.00100516
0.00100516
0.00101419
0.00101419
0.00101419
0.000505519
0.000505519
0.000505519
0.000547132
0.000547132
0.000547132
0.00102261
0.00102261
0.00102261
0.00122841
0.00122841
0.00122841
0.00115923
0.00115923
0.00115923
0.00122939
0.00122939
0.00122939
0.00114948
0.00114948
0.00114948
0.001139
0.001139
0.001139
0.00113026
0.00113026
0.00113026
0.00103644
0.00103644
0.00103644
0.00102789
0.00102789
0.00102789
0.0010419
0.0010419
0.0010419
0.00102476
0.00102476
0.00102476
0.00108311
0.00108311
0.00108311
0.00108047
0.00108047
0.00108047
0.00107486
0.00107486
0.00107486
0.0010397
0.0010397
0.0010397
0.0010304
0.0010304
0.0010304
0.00124086
0.00124086
0.00124086
0.000997575
0.000997575
0.000997575
7.7482e-05
7.7482e-05
7.7482e-05
0.00141423
0.00141423
0.00141423
0.00124975
0.00124975
0.00124975
0.00123906
0.00123906
0.00123906
0.00123911
0.00123911
0.00123911
0.00123373
0.00123373
0.00123373
0.00110824
0.00110824
0.00110824
0.00109882
0.00109882
0.00109882
0.00109887
0.00109887
0.00109887
0.00110352
0.00110352
0.00110352
0.00111766
0.00111766
0.00111766
0.0011177
0.0011177
0.0011177
0.00111294
0.00111294
0.00111294
0.00121781
0.00121781
0.00121781
0.00122308
0.00122308
0.00122308
0.00110345
0.00110345
0.00110345
0.00111287
0.00111287
0.00111287
0.0011102
0.0011102
0.0011102
0.00110082
0.00110082
0.00110082
0.00109588
0.00109588
0.00109588
7.91187e-05
7.91187e-05
7.91187e-05
0.00119837
0.00119837
0.00119837
0.00116824
0.00116824
0.00116824
0.00111155
0.00111155
0.00111155
0.00108953
0.00108953
0.00108953
0.00109296
0.00109296
0.00109296
0.00107718
0.00107718
0.00107718
0.00106594
0.00106594
0.00106594
0.00105638
0.00105638
0.00105638
0.00104836
0.00104836
0.00104836
0.00123693
0.00123693
0.00123693
0.0011891
0.0011891
0.0011891
0.00117904
0.00117904
0.00117904
0.00122029
0.00122029
0.00122029
0.00123206
0.00123206
0.00123206
0.00122815
0.00122815
0.00122815
0.00116539
0.00116539
0.00116539
0.0011753
0.0011753
0.0011753
0.00101102
0.00101102
0.00101102
0.0010027
0.0010027
0.0010027
0.00101631
0.00101631
0.00101631
0.000940752
0.000940752
0.000940752
0.000956331
0.000956331
0.000956331
0.000989384
0.000989384
0.000989384
0.000986291
0.000986291
0.000986291
0.00014942
0.00014942
0.00014942
0.000803587
0.000803587
0.000803587
0.000841272
0.000841272
0.000841272
0.000980238
0.000980238
0.000980238
0.000964228
0.000964228
0.000964228
0.000796476
0.000796476
0.000796476
0.00109601
0.00109601
0.00109601
0.00110512
0.00110512
0.00110512
0.00109961
0.00109961
0.00109961
0.00114711
0.00114711
0.00114711
0.00114317
0.00114317
0.00114317
0.00114894
0.00114894
0.00114894
0.00114132
0.00114132
0.00114132
0.00116882
0.00116882
0.00116882
0.00117481
0.00117481
0.00117481
0.00109441
0.00109441
0.00109441
0.00109832
0.00109832
0.00109832
0.00113351
0.00113351
0.00113351
0.00111449
0.00111449
0.00111449
0.00111621
0.00111621
0.00111621
0.00112009
0.00112009
0.00112009
0.00112961
0.00112961
0.00112961
0.00116054
0.00116054
0.00116054
0.00118051
0.00118051
0.00118051
0.00111464
0.00111464
0.00111464
0.00112417
0.00112417
0.00112417
0.0013651
0.0013651
0.0013651
0.00140188
0.00140188
0.00140188
0.00131743
0.00131743
0.00131743
0.00132915
0.00132915
0.00132915
0.00134144
0.00134144
0.00134144
0.00126088
0.00126088
0.00126088
0.00124994
0.00124994
0.00124994
0.00127194
0.00127194
0.00127194
0.00128305
0.00128305
0.00128305
0.00125528
0.00125528
0.00125528
0.00124988
0.00124988
0.00124988
0.00126627
0.00126627
0.00126627
0.00127187
0.00127187
0.00127187
0.00125537
0.00125537
0.00125537
0.00126637
0.00126637
0.00126637
0.00129443
0.00129443
0.00129443
0.00130586
0.00130586
0.00130586
0.0013001
0.0013001
0.0013001
0.00128312
0.00128312
0.00128312
0.00128873
0.00128873
0.00128873
0.00113199
0.00113199
0.00113199
0.00112721
0.00112721
0.00112721
0.00114169
0.00114169
0.00114169
0.00123893
0.00123893
0.00123893
0.00123364
0.00123364
0.00123364
0.00123348
0.00123348
0.00123348
0.00122283
0.00122283
0.00122283
0.00121745
0.00121745
0.00121745
0.00115331
0.00115331
0.00115331
0.0011435
0.0011435
0.0011435
0.00113071
0.00113071
0.00113071
0.0011404
0.0011404
0.0011404
0.00117486
0.00117486
0.00117486
0.00116007
0.00116007
0.00116007
0.00117005
0.00117005
0.00117005
0.00110181
0.00110181
0.00110181
0.00108404
0.00108404
0.00108404
0.0011261
0.0011261
0.0011261
0.00113108
0.00113108
0.00113108
0.00109872
0.00109872
0.00109872
0.00114651
0.00114651
0.00114651
0.00114155
0.00114155
0.00114155
0.00114109
0.00114109
0.00114109
0.00111755
0.00111755
0.00111755
0.00112711
0.00112711
0.00112711
0.00113185
0.00113185
0.00113185
0.00104803
0.00104803
0.00104803
0.000598429
0.000598429
0.000598429
0.000524821
0.000524821
0.000524821
0.0011152
0.0011152
0.0011152
0.00111073
0.00111073
0.00111073
0.00108766
0.00108766
0.00108766
0.00109642
0.00109642
0.00109642
0.00109692
0.00109692
0.00109692
0.00110134
0.00110134
0.00110134
0.00108717
0.00108717
0.00108717
0.00108283
0.00108283
0.00108283
0.00106894
0.00106894
0.00106894
0.00107371
0.00107371
0.00107371
0.00107456
0.00107456
0.00107456
0.00108329
0.00108329
0.00108329
0.00104584
0.00104584
0.00104584
0.00103096
0.00103096
0.00103096
0.000946975
0.000946975
0.000946975
0.00072208
0.00072208
0.00072208
0.000792455
0.000792455
0.000792455
0.0010732
0.0010732
0.0010732
0.00108663
0.00108663
0.00108663
0.00108232
0.00108232
0.00108232
7.94396e-05
7.94396e-05
7.94396e-05
4.92615e-05
4.92615e-05
4.92615e-05
4.91142e-05
4.91142e-05
4.91142e-05
7.92032e-05
7.92032e-05
7.92032e-05
0.000144605
0.000144605
0.000144605
0.000179746
0.000179746
0.000179746
0.000424126
0.000424126
0.000424126
0.000144163
0.000144163
0.000144163
0
0
0
0
0
0
0
0
0
0
0
0
0
0
0
0
0
0
0
0
0
0
0
0
0
0
0
0
0
0
0
0
0
0
0
0
0
0
0
0
0
0
0
0
0
0
0
0
0
0
0
0.000621764
0.000621764
0.000621764
0.000254306
0.000254306
0.000254306
0.00036424
0.00036424
0.00036424
0.000448466
0.000448466
0.000448466
0.000404842
0.000404842
0.000404842
0.00104409
0.00104409
0.00104409
0.00103008
0.00103008
0.00103008
0.00103866
0.00103866
0.00103866
0.00104083
0.00104083
0.00104083
0.00118283
0.00118283
0.00118283
0.00117279
0.00117279
0.00117279
0.00118684
0.00118684
0.00118684
0.00108607
0.00108607
0.00108607
0.00109169
0.00109169
0.00109169
0.00110215
0.00110215
0.00110215
0.00110793
0.00110793
0.00110793
0.00111064
0.00111064
0.00111064
0.0011208
0.0011208
0.0011208
0.00111727
0.00111727
0.00111727
0.00105829
0.00105829
0.00105829
0.00105281
0.00105281
0.00105281
0.0010506
0.0010506
0.0010506
0.00106823
0.00106823
0.00106823
0.00105608
0.00105608
0.00105608
0.00106491
0.00106491
0.00106491
0.0010538
0.0010538
0.0010538
0.0010626
0.0010626
0.0010626
0.0012095
0.0012095
0.0012095
0.00121986
0.00121986
0.00121986
0.00122641
0.00122641
0.00122641
0.0012515
0.0012515
0.0012515
0.00123081
0.00123081
0.00123081
0.00123478
0.00123478
0.00123478
0.00118168
0.00118168
0.00118168
0.00119442
0.00119442
0.00119442
0.00117797
0.00117797
0.00117797
0.0011843
0.0011843
0.0011843
0.00099965
0.00099965
0.00099965
0.000991434
0.000991434
0.000991434
0.000988354
0.000988354
0.000988354
0.000933068
0.000933068
0.000933068
0.000805775
0.000805775
0.000805775
0.000384974
0.000384974
0.000384974
2.95142e-05
2.95142e-05
2.95142e-05
0.000205792
0.000205792
0.000205792
0.000145481
0.000145481
0.000145481
0.000773296
0.000773296
0.000773296
0.000719906
0.000719906
0.000719906
0.000884684
0.000884684
0.000884684
0.000897173
0.000897173
0.000897173
0.00108307
0.00108307
0.00108307
0.00108817
0.00108817
0.00108817
0.00109021
0.00109021
0.00109021
0.00109378
0.00109378
0.00109378
0.00104896
0.00104896
0.00104896
0.00105431
0.00105431
0.00105431
0.00105087
0.00105087
0.00105087
0.000975226
0.000975226
0.000975226
0.000967233
0.000967233
0.000967233
0.000978199
0.000978199
0.000978199
0.000945576
0.000945576
0.000945576
0.000942628
0.000942628
0.000942628
0.000953376
0.000953376
0.000953376
0.000958249
0.000958249
0.000958249
0.000927362
0.000927362
0.000927362
0.000937683
0.000937683
0.000937683
0.0010922
0.0010922
0.0010922
0.00110506
0.00110506
0.00110506
0.0010958
0.0010958
0.0010958
0.00111464
0.00111464
0.00111464
0.00110132
0.00110132
0.00110132
0.00110682
0.00110682
0.00110682
0.00109039
0.00109039
0.00109039
0.00106947
0.00106947
0.00106947
0.00106426
0.00106426
0.00106426
0.00108992
0.00108992
0.00108992
0.00109372
0.00109372
0.00109372
0.00110299
0.00110299
0.00110299
0.00110847
0.00110847
0.00110847
0.00109531
0.00109531
0.00109531
0.00110459
0.00110459
0.00110459
0.00108078
0.00108078
0.00108078
0.00107546
0.00107546
0.00107546
0.00106646
0.00106646
0.00106646
0.00106276
0.00106276
0.00106276
0.00106799
0.00106799
0.00106799
0.00107701
0.00107701
0.00107701
0.00110337
0.00110337
0.00110337
0.00109784
0.00109784
0.00109784
0.00110156
0.00110156
0.00110156
0.00111088
0.00111088
0.00111088
0.00093452
0.00093452
0.00093452
0.00105389
0.00105389
0.00105389
0.00101683
0.00101683
0.00101683
0.00115875
0.00115875
0.00115875
0.00117867
0.00117867
0.00117867
0.0011646
0.0011646
0.0011646
0.00117457
0.00117457
0.00117457
0.00117677
0.00117677
0.00117677
0.00117272
0.00117272
0.00117272
0.00116277
0.00116277
0.00116277
0.0011569
0.0011569
0.0011569
0.00116087
0.00116087
0.00116087
0.0011708
0.0011708
0.0011708
0.00112981
0.00112981
0.00112981
0.00112409
0.00112409
0.00112409
0.00112079
0.00112079
0.00112079
0.00113036
0.00113036
0.00113036
0.00107326
0.00107326
0.00107326
0.00107835
0.00107835
0.00107835
0.00111964
0.00111964
0.00111964
0.00111548
0.00111548
0.00111548
0.00105923
0.00105923
0.00105923
0.00106426
0.00106426
0.00106426
0.00106032
0.00106032
0.00106032
0.00105036
0.00105036
0.00105036
0.0010465
0.0010465
0.0010465
0.00105143
0.00105143
0.00105143
0.00110764
0.00110764
0.00110764
0.00112657
0.00112657
0.00112657
0.00112254
0.00112254
0.00112254
0.00111307
0.00111307
0.00111307
0.00107995
0.00107995
0.00107995
0.00108521
0.00108521
0.00108521
0.00112805
0.00112805
0.00112805
0.00109975
0.00109975
0.00109975
0.00110909
0.00110909
0.00110909
0.00113617
0.00113617
0.00113617
0.00118229
0.00118229
0.00118229
0.00117637
0.00117637
0.00117637
0.00116638
0.00116638
0.00116638
0.00112179
0.00112179
0.00112179
0.00111788
0.00111788
0.00111788
0.001133
0.001133
0.001133
0.00112344
0.00112344
0.00112344
0.00120322
0.00120322
0.00120322
0.00118451
0.00118451
0.00118451
0.00117438
0.00117438
0.00117438
0.0011696
0.0011696
0.0011696
0.0012039
0.0012039
0.0012039
0.00118813
0.00118813
0.00118813
0.0011984
0.0011984
0.0011984
0.00123873
0.00123873
0.00123873
0.0012551
0.0012551
0.0012551
0.00124954
0.00124954
0.00124954
0.0011679
0.0011679
0.0011679
0.00115794
0.00115794
0.00115794
0.00112189
0.00112189
0.00112189
0.00111659
0.00111659
0.00111659
0.00110716
0.00110716
0.00110716
0.00110301
0.00110301
0.00110301
0.00108857
0.00108857
0.00108857
0.00109371
0.00109371
0.00109371
0.00135315
0.00135315
0.00135315
0.00133694
0.00133694
0.00133694
0.00134454
0.00134454
0.00134454
0.00136036
0.00136036
0.00136036
0.00131905
0.00131905
0.00131905
0.0013304
0.0013304
0.0013304
0.00123833
0.00123833
0.00123833
0.00125987
0.00125987
0.00125987
0.00108039
0.00108039
0.00108039
0.00108958
0.00108958
0.00108958
0.00113692
0.00113692
0.00113692
0.00112726
0.00112726
0.00112726
0.00113206
0.00113206
0.00113206
0.00116648
0.00116648
0.00116648
0.00117653
0.00117653
0.00117653
0.00117648
0.00117648
0.00117648
0.00117148
0.00117148
0.00117148
0.00120733
0.00120733
0.00120733
0.00119696
0.00119696
0.00119696
0.00118669
0.00118669
0.00118669
0.00120211
0.00120211
0.00120211
0.0011918
0.0011918
0.0011918
0.00118664
0.00118664
0.00118664
0.00119171
0.00119171
0.00119171
0.00120188
0.00120188
0.00120188
0.00120697
0.00120697
0.00120697
0.00121776
0.00121776
0.00121776
0.00122299
0.00122299
0.00122299
0.00120728
0.00120728
0.00120728
0.00120203
0.00120203
0.00120203
0.00121764
0.00121764
0.00121764
0.00120716
0.00120716
0.00120716
0.00117139
0.00117139
0.00117139
0.00116139
0.00116139
0.00116139
0.00115636
0.00115636
0.00115636
0.00116125
0.00116125
0.00116125
0.0011539
0.0011539
0.0011539
0.00115912
0.00115912
0.00115912
0.00116909
0.00116909
0.00116909
0.00115856
0.00115856
0.00115856
0.00112926
0.00112926
0.00112926
0.00113893
0.00113893
0.00113893
0.00112473
0.00112473
0.00112473
0.00114408
0.00114408
0.00114408
0.00113947
0.00113947
0.00113947
0.0011298
0.0011298
0.0011298
0.00114077
0.00114077
0.00114077
0.00116045
0.00116045
0.00116045
0.00114547
0.00114547
0.00114547
0.00115531
0.00115531
0.00115531
0.00114582
0.00114582
0.00114582
0.00115566
0.00115566
0.00115566
0.00111162
0.00111162
0.00111162
0.00111655
0.00111655
0.00111655
0.00109736
0.00109736
0.00109736
0.00108847
0.00108847
0.00108847
0.00109774
0.00109774
0.00109774
0.00110222
0.00110222
0.00110222
0.00108369
0.00108369
0.00108369
0.00108809
0.00108809
0.00108809
0.00105691
0.00105691
0.00105691
0.00106121
0.00106121
0.00106121
0.00107021
0.00107021
0.00107021
0.00107491
0.00107491
0.00107491
0.00107053
0.00107053
0.00107053
0.00105719
0.00105719
0.00105719
0.00106153
0.00106153
0.00106153
0.0010888
0.0010888
0.0010888
0.00115619
0.00115619
0.00115619
0.00114611
0.00114611
0.00114611
0.00114634
0.00114634
0.00114634
0.00114135
0.00114135
0.00114135
0.00110332
0.00110332
0.00110332
0.00111273
0.00111273
0.00111273
0.00111254
0.00111254
0.00111254
0.00111739
0.00111739
0.00111739
0.00113165
0.00113165
0.00113165
0.00112694
0.00112694
0.00112694
0.00104832
0.00104832
0.00104832
0.00104403
0.00104403
0.00104403
0.00104378
0.00104378
0.00104378
0.00104855
0.00104855
0.00104855
0.00104423
0.00104423
0.00104423
0.00103528
0.00103528
0.00103528
0.0010427
0.0010427
0.0010427
0.00104347
0.00104347
0.00104347
0.00103473
0.00103473
0.00103473
0.000954118
0.000954118
0.000954118
0.00103437
0.00103437
0.00103437
0.000554856
0.000554856
0.000554856
0.000461696
0.000461696
0.000461696
0.000478296
0.000478296
0.000478296
0.000636684
0.000636684
0.000636684
0.000595242
0.000595242
0.000595242
0.000561026
0.000561026
0.000561026
0.000575563
0.000575563
0.000575563
0.000613897
0.000613897
0.000613897
0.000580444
0.000580444
0.000580444
0.00054714
0.00054714
0.00054714
0.00059027
0.00059027
0.00059027
0.000551724
0.000551724
0.000551724
0.000514681
0.000514681
0.000514681
0.000510414
0.000510414
0.000510414
0.00111121
0.00111121
0.00111121
0.00111571
0.00111571
0.00111571
0.00112524
0.00112524
0.00112524
0.00113028
0.00113028
0.00113028
0.0011257
0.0011257
0.0011257
0.00111616
0.00111616
0.00111616
0.00106941
0.00106941
0.00106941
0.00106984
0.00106984
0.00106984
0.00107416
0.00107416
0.00107416
0.00106042
0.00106042
0.00106042
0.00103918
0.00103918
0.00103918
0.00105523
0.00105523
0.00105523
0.00105037
0.00105037
0.00105037
0.00105409
0.00105409
0.00105409
0.00103161
0.00103161
0.00103161
0.00104055
0.00104055
0.00104055
0.00104116
0.00104116
0.00104116
0.00104525
0.00104525
0.00104525
0.00106841
0.00106841
0.00106841
0.00105943
0.00105943
0.00105943
0.00105885
0.00105885
0.00105885
0.00105469
0.00105469
0.00105469
0.00108175
0.00108175
0.00108175
0.00107264
0.00107264
0.00107264
0.00107204
0.00107204
0.00107204
0.00106783
0.00106783
0.00106783
0
0
0
0
0
0
0
0
0
0
0
0
7.93636e-05
7.93636e-05
7.93636e-05
0.000144463
0.000144463
0.000144463
0
0
0
4.92142e-05
4.92142e-05
4.92142e-05
4.91651e-05
4.91651e-05
4.91651e-05
7.92849e-05
7.92849e-05
7.92849e-05
0.000530239
0.000530239
0.000530239
0.000386543
0.000386543
0.000386543
0.000297297
0.000297297
0.000297297
0.000386797
0.000386797
0.000386797
0.000424593
0.000424593
0.000424593
0.000297605
0.000297605
0.000297605
0.000256058
0.000256058
0.000256058
0.000587609
0.000587609
0.000587609
0.000529638
0.000529638
0.000529638
0.000713695
0.000713695
0.000713695
0.000782381
0.000782381
0.000782381
0.000255792
0.000255792
0.000255792
0.000179375
0.000179375
0.000179375
0.000144316
0.000144316
0.000144316
0.000179564
0.000179564
0.000179564
0.000386118
0.000386118
0.000386118
0.000296977
0.000296977
0.000296977
0.000255516
0.000255516
0.000255516
0.000144005
0.000144005
0.000144005
0.00017918
0.00017918
0.00017918
0.000203662
0.000203662
0.000203662
0.000277398
0.000277398
0.000277398
0.00104184
0.00104184
0.00104184
0.00103314
0.00103314
0.00103314
0.000783327
0.000783327
0.000783327
0.00101815
0.00101815
0.00101815
0.00102691
0.00102691
0.00102691
0.00101942
0.00101942
0.00101942
0.00093569
0.00093569
0.00093569
0.00103187
0.00103187
0.00103187
0.0010282
0.0010282
0.0010282
0.000388926
0.000388926
0.000388926
0.000427379
0.000427379
0.000427379
0
0
0
0
0
0
0
0
0
0
0
0
0
0
0
0
0
0
0
0
0
0.00075278
0.00075278
0.00075278
0.000807218
0.000807218
0.000807218
0
0
0
0
0
0
0.000594303
0.000594303
0.000594303
0
0
0
0
0
0
0.000939938
0.000939938
0.000939938
0.00042589
0.00042589
0.00042589
4.94721e-05
4.94721e-05
4.94721e-05
7.97147e-05
7.97147e-05
7.97147e-05
0.000180556
0.000180556
0.000180556
0.000145119
0.000145119
0.000145119
0
0
0
0
0
0
0
0
0
0
0
0
0
0
0
0
0
0
0
0
0
0
0
0
0
0
0
0
0
0
0
0
0
0
0
0
4.93071e-05
4.93071e-05
4.93071e-05
0
0
0
0
0
0
0
0
0
0
0
0
0
0
0
0
0
0
0
0
0
0
0
0
0
0
0
0
0
0
0.000216055
0.000216055
0.000216055
0.000176003
0.000176003
0.000176003
0.000536393
0.000536393
0.000536393
0.0005512
0.0005512
0.0005512
0.000589265
0.000589265
0.000589265
0.000358162
0.000358162
0.000358162
0.000355167
0.000355167
0.000355167
0.000440991
0.000440991
0.000440991
0.000401452
0.000401452
0.000401452
0.000317592
0.000317592
0.000317592
0.000320275
0.000320275
0.000320275
0.000670431
0.000670431
0.000670431
0.000812451
0.000812451
0.000812451
0.000811741
0.000811741
0.000811741
0.000810505
0.000810505
0.000810505
0.000814438
0.000814438
0.000814438
0.000815708
0.000815708
0.000815708
0.000823738
0.000823738
0.000823738
0.0010269
0.0010269
0.0010269
0.00103222
0.00103222
0.00103222
0.00104499
0.00104499
0.00104499
0.00103633
0.00103633
0.00103633
0.00107702
0.00107702
0.00107702
0.0011
0.0011
0.0011
0.0010749
0.0010749
0.0010749
0.00107147
0.00107147
0.00107147
0.00106256
0.00106256
0.00106256
0.00106934
0.00106934
0.00106934
0.00108393
0.00108393
0.00108393
0.00109874
0.00109874
0.00109874
0.00108956
0.00108956
0.00108956
0.00110225
0.00110225
0.00110225
0.00109652
0.00109652
0.00109652
0.00108737
0.00108737
0.00108737
0.00110445
0.00110445
0.00110445
0.0011009
0.0011009
0.0011009
0.00111736
0.00111736
0.00111736
0.00111378
0.00111378
0.00111378
0.00111957
0.00111957
0.00111957
0.00110869
0.00110869
0.00110869
0.001103
0.001103
0.001103
0.0011066
0.0011066
0.0011066
0.00111595
0.00111595
0.00111595
0.00110455
0.00110455
0.00110455
0.00109534
0.00109534
0.00109534
0.001146
0.001146
0.001146
0.00112681
0.00112681
0.00112681
0.00112326
0.00112326
0.00112326
0.00110927
0.00110927
0.00110927
0.00111509
0.00111509
0.00111509
0.00129113
0.00129113
0.00129113
0.00125828
0.00125828
0.00125828
0.00126913
0.00126913
0.00126913
0.00128405
0.00128405
0.00128405
0.00127309
0.00127309
0.00127309
0.00126126
0.00126126
0.00126126
0.00129411
0.00129411
0.00129411
0.00124269
0.00124269
0.00124269
0.0012643
0.0012643
0.0012643
0.00128229
0.00128229
0.00128229
0.00127527
0.00127527
0.00127527
0.00122542
0.00122542
0.00122542
0.00121498
0.00121498
0.00121498
0.00122926
0.00122926
0.00122926
0.00122264
0.00122264
0.00122264
0.00119177
0.00119177
0.00119177
0.00119544
0.00119544
0.00119544
0.00120566
0.00120566
0.00120566
0.00121224
0.00121224
0.00121224
0.00119817
0.00119817
0.00119817
0.00120843
0.00120843
0.00120843
0.00118688
0.00118688
0.00118688
0.00118056
0.00118056
0.00118056
0.00121378
0.00121378
0.00121378
0.00120344
0.00120344
0.00120344
0.00121767
0.00121767
0.00121767
0.00119703
0.00119703
0.00119703
0.00121114
0.00121114
0.00121114
0.00120084
0.00120084
0.00120084
0.00090765
0.00090765
0.00090765
0.000934924
0.000934924
0.000934924
0.000930187
0.000930187
0.000930187
0.000836964
0.000836964
0.000836964
0.000943683
0.000943683
0.000943683
0.000951462
0.000951462
0.000951462
0.000340611
0.000340611