<VTKFile type="UnstructuredGrid" version="1.0">
<UnstructuredGrid>
<Piece NumberOfPoints="10830" NumberOfCells="3610">
<Points>
<DataArray type="Float64" NumberOfComponents="3" format="ascii">
2.19217 2.20649 10.4757
2.19928 2.19938 10.45
2.19928 2.19938 10.5015
2.19928 2.19938 11.0051
2.19928 2.19938 11.056
2.19129 2.20737 11.0305
2.19928 2.19938 11.0051
2.19129 2.20737 11.0305
2.17928 2.21938 11.0051
1.30559 3.09307 11.4776
1.31816 3.0805 11.495
1.28831 3.11035 11.495
1.28831 3.11035 11.495
1.28831 3.11035 11.4648
1.30559 3.09307 11.4776
2.19928 2.19938 11.0051
2.17928 2.21938 11.0051
2.1913 2.20736 10.9797
1.29441 3.10425 10.7268
1.28831 3.11035 10.752
1.28831 3.11035 10.7016
2.19132 2.20734 10.7269
2.19928 2.19938 10.7521
2.17929 2.21937 10.7521
2.19117 2.20749 10.6263
2.19928 2.19938 10.6013
2.19928 2.19938 10.6514
2.17929 2.21937 10.7521
2.19928 2.19938 10.7521
2.19133 2.20733 10.7773
2.19928 2.19938 10.7521
2.19928 2.19938 10.8025
2.19133 2.20733 10.7773
2.17929 2.21937 10.8026
2.19133 2.20733 10.7773
2.19928 2.19938 10.8025
2.17928 2.21938 10.9543
2.1913 2.20736 10.9797
2.16946 2.22921 10.9797
2.16946 2.22921 10.9797
2.1913 2.20736 10.9797
2.17928 2.21938 11.0051
2.16946 2.22921 10.9797
2.15842 2.24024 10.9543
2.17928 2.21938 10.9543
2.16946 2.22921 10.9797
2.17928 2.21938 11.0051
2.15841 2.24025 11.0051
2.19928 2.19938 10.853
2.19928 2.19938 10.9036
2.19132 2.20734 10.8783
2.19132 2.20734 10.8783
2.17929 2.21937 10.9036
2.16947 2.22919 10.8783
2.19928 2.19938 10.9036
2.17929 2.21937 10.9036
2.19132 2.20734 10.8783
2.19928 2.19938 10.9543
2.1913 2.20736 10.9797
2.17928 2.21938 10.9543
2.19928 2.19938 11.0051
2.1913 2.20736 10.9797
2.19928 2.19938 10.9543
2.17913 2.21954 10.6013
2.19928 2.19938 10.6013
2.19117 2.20749 10.6263
2.17927 2.21939 11.056
2.19129 2.20737 11.0305
2.19928 2.19938 11.056
1.8956 2.50306 11.2357
1.90602 2.49264 11.21
1.91643 2.48223 11.2357
1.28831 3.11035 10.45
1.30792 3.09074 10.45
1.29529 3.10337 10.4747
1.34771 3.05096 10.7016
1.32717 3.07149 10.7016
1.33709 3.06157 10.6764
1.30704 3.09162 10.7016
1.32717 3.07149 10.7016
1.31607 3.08259 10.7268
1.30704 3.09162 10.7016
1.29441 3.10425 10.7268
1.28831 3.11035 10.7016
1.31607 3.08259 10.7268
1.29441 3.10425 10.7268
1.30704 3.09162 10.7016
1.2945 3.10417 10.9289
1.28831 3.11035 10.9543
1.28831 3.11035 10.9036
1.3071 3.09157 10.9543
1.31615 3.08252 10.9289
1.32724 3.07142 10.9543
1.28831 3.11035 10.9543
1.2945 3.10417 10.9289
1.3071 3.09157 10.9543
1.3071 3.09157 10.9543
1.2945 3.10417 10.9289
1.31615 3.08252 10.9289
1.30708 3.09158 10.9036
1.32723 3.07143 10.9036
1.31615 3.08252 10.9289
1.30708 3.09158 10.9036
1.2945 3.10417 10.9289
1.28831 3.11035 10.9036
1.31615 3.08252 10.9289
1.2945 3.10417 10.9289
1.30708 3.09158 10.9036
1.28831 3.11035 10.752
1.29441 3.10425 10.7268
1.30705 3.09161 10.752
1.30705 3.09161 10.752
1.29441 3.10425 10.7268
1.31607 3.08259 10.7268
1.32724 3.07142 10.9543
1.31615 3.08252 10.9289
1.33718 3.06148 10.9289
1.31615 3.08252 10.9289
1.32723 3.07143 10.9036
1.33718 3.06148 10.9289
1.49256 2.90611 10.9037
1.50289 2.89577 10.929
1.48223 2.91643 10.929
1.48223 2.91643 10.929
1.50289 2.89577 10.929
1.49257 2.90609 10.9544
1.49257 2.90609 10.9544
1.50289 2.89577 10.929
1.51323 2.88543 10.9544
1.88521 2.51346 11.21
1.90602 2.49264 11.21
1.8956 2.50306 11.2357
2.19127 2.20739 10.6766
2.19928 2.19938 10.6514
2.19928 2.19938 10.7017
2.19928 2.19938 10.7521
2.19132 2.20734 10.7269
2.19928 2.19938 10.7017
2.11618 2.28248 10.8531
2.09503 2.30363 10.8531
2.10562 2.29304 10.8278
2.17929 2.21937 10.8531
2.19132 2.20734 10.8783
2.16947 2.22919 10.8783
2.19928 2.19938 10.853
2.19132 2.20734 10.8783
2.17929 2.21937 10.8531
2.16947 2.22919 10.8783
2.17929 2.21937 10.9036
2.15843 2.24024 10.9036
2.19131 2.20735 10.9289
2.17929 2.21937 10.9036
2.19928 2.19938 10.9036
2.19928 2.19938 10.9036
2.19928 2.19938 10.9543
2.19131 2.20735 10.9289
2.19131 2.20735 10.9289
2.19928 2.19938 10.9543
2.17928 2.21938 10.9543
2.1693 2.22936 10.6264
2.17913 2.21954 10.6013
2.19117 2.20749 10.6263
2.19127 2.20739 10.6766
2.19928 2.19938 10.7017
2.17927 2.21939 10.7017
2.17927 2.21939 10.7017
2.19928 2.19938 10.7017
2.19132 2.20734 10.7269
2.10553 2.29313 10.6766
2.09491 2.30375 10.6514
2.11605 2.28261 10.6514
2.1372 2.26147 10.6515
2.12662 2.27204 10.6263
2.14787 2.25079 10.6263
2.1372 2.26147 10.6515
2.11605 2.28261 10.6514
2.12662 2.27204 10.6263
2.16946 2.2292 10.7269
2.19132 2.20734 10.7269
2.17929 2.21937 10.7521
2.16946 2.2292 10.7269
2.17927 2.21939 10.7017
2.19132 2.20734 10.7269
2.16945 2.22921 11.0306
2.17928 2.21938 11.0051
2.19129 2.20737 11.0305
2.19129 2.20737 11.0305
2.17927 2.21939 11.056
2.16945 2.22921 11.0306
2.15841 2.24025 11.0051
2.17928 2.21938 11.0051
2.16945 2.22921 11.0306
2.16944 2.22922 11.1841
2.14804 2.25062 11.1841
2.15841 2.24025 11.1584
2.14804 2.25063 11.1327
2.16944 2.22922 11.1327
2.15841 2.24025 11.1584
2.19128 2.20738 11.0815
2.17927 2.21939 11.056
2.19928 2.19938 11.056
2.16944 2.22922 11.0816
2.17927 2.21939 11.056
2.19128 2.20738 11.0815
1.93725 2.46141 11.2873
1.94766 2.451 11.3132
1.92679 2.47187 11.3132
2.05276 2.34591 11.1584
2.06331 2.33535 11.1328
2.07386 2.3248 11.1584
2.07386 2.3248 11.1584
2.06331 2.33535 11.1328
2.08443 2.31423 11.1328
2.15841 2.24026 11.1071
2.14804 2.25062 11.0816
2.16944 2.22922 11.0816
2.15841 2.24026 11.1071
2.16944 2.22922 11.1327
2.14804 2.25063 11.1327
2.04222 2.35644 11.1328
2.06331 2.33535 11.1328
2.05276 2.34591 11.1584
1.9897 2.40896 10.9037
1.96874 2.42992 10.9037
1.97921 2.41945 10.8784
1.93736 2.4613 10.8784
1.92692 2.47174 10.9037
1.91649 2.48217 10.8784
1.94781 2.45085 10.9037
1.92692 2.47174 10.9037
1.93736 2.4613 10.8784
1.92691 2.47175 10.8027
1.9478 2.45086 10.8027
1.93736 2.46131 10.8279
1.93736 2.46131 10.8279
1.91648 2.48218 10.8279
1.92691 2.47175 10.8027
1.92691 2.47175 10.8027
1.91648 2.48218 10.8279
1.90605 2.49261 10.8026
1.93736 2.46131 10.8279
1.9478 2.45086 10.8027
1.95826 2.4404 10.8279
1.96871 2.42995 10.7522
1.9792 2.41946 10.7774
1.95825 2.44041 10.7774
1.95825 2.44041 10.7774
1.94778 2.45088 10.7522
1.96871 2.42995 10.7522
1.8126 2.58607 10.9291
1.82295 2.57571 10.9037
1.83332 2.56534 10.9291
1.82295 2.57571 10.9037
1.84369 2.55497 10.9038
1.83332 2.56534 10.9291
1.92692 2.47174 10.8532
1.91648 2.48218 10.8279
1.93736 2.46131 10.8279
1.92692 2.47174 10.8532
1.93736 2.4613 10.8784
1.91649 2.48217 10.8784
1.91649 2.48217 10.8784
1.89565 2.50301 10.8784
1.90606 2.4926 10.8532
1.90606 2.4926 10.8532
1.92692 2.47174 10.8532
1.91649 2.48217 10.8784
1.91648 2.48218 10.8279
1.92692 2.47174 10.8532
1.90606 2.4926 10.8532
1.90605 2.49261 10.8026
1.88523 2.51343 10.8026
1.89563 2.50303 10.7774
1.88521 2.51345 10.7522
1.90603 2.49263 10.7522
1.89563 2.50303 10.7774
1.51322 2.88545 10.9037
1.50289 2.89577 10.929
1.49256 2.90611 10.9037
1.49256 2.90611 10.9037
1.50288 2.89578 10.8784
1.51322 2.88545 10.9037
1.29442 3.10424 10.5249
1.28831 3.11035 10.5501
1.28831 3.11035 10.4994
1.28831 3.11035 10.45
1.29529 3.10337 10.4747
1.28831 3.11035 10.4994
1.307 3.09167 10.6007
1.28831 3.11035 10.6007
1.29431 3.10435 10.5754
1.28831 3.11035 10.6007
1.28831 3.11035 10.5501
1.29431 3.10435 10.5754
2.19928 2.19938 10.45
2.19217 2.20649 10.4757
2.18013 2.21854 10.45
1.28831 3.11035 10.7016
1.28831 3.11035 10.6511
1.29438 3.10428 10.6764
1.29438 3.10428 10.6764
1.30704 3.09162 10.7016
1.28831 3.11035 10.7016
1.30702 3.09164 10.6511
1.29438 3.10428 10.6764
1.28831 3.11035 10.6511
1.30702 3.09164 10.6511
1.31601 3.08265 10.6259
1.32714 3.07152 10.6512
1.31605 3.08262 10.6764
1.33709 3.06157 10.6764
1.32717 3.07149 10.7016
1.32717 3.07149 10.7016
1.30704 3.09162 10.7016
1.31605 3.08262 10.6764
1.32714 3.07152 10.6512
1.33709 3.06157 10.6764
1.31605 3.08262 10.6764
1.31605 3.08262 10.6764
1.30702 3.09164 10.6511
1.32714 3.07152 10.6512
1.30704 3.09162 10.7016
1.29438 3.10428 10.6764
1.31605 3.08262 10.6764
1.29438 3.10428 10.6764
1.30702 3.09164 10.6511
1.31605 3.08262 10.6764
1.29435 3.10432 10.6259
1.28831 3.11035 10.6511
1.28831 3.11035 10.6007
1.29435 3.10432 10.6259
1.28831 3.11035 10.6007
1.307 3.09167 10.6007
1.307 3.09167 10.6007
1.31601 3.08265 10.6259
1.29435 3.10432 10.6259
1.29435 3.10432 10.6259
1.30702 3.09164 10.6511
1.28831 3.11035 10.6511
1.31601 3.08265 10.6259
1.30702 3.09164 10.6511
1.29435 3.10432 10.6259
1.33717 3.06149 10.8783
1.32723 3.07143 10.9036
1.31613 3.08254 10.8783
1.32723 3.07143 10.9036
1.30708 3.09158 10.9036
1.31613 3.08254 10.8783
1.31613 3.08254 10.8783
1.32722 3.07145 10.853
1.33717 3.06149 10.8783
1.33711 3.06155 10.7268
1.32717 3.07149 10.7016
1.34771 3.05096 10.7016
1.31607 3.08259 10.7268
1.32717 3.07149 10.7016
1.33711 3.06155 10.7268
1.35794 3.04072 10.7268
1.33711 3.06155 10.7268
1.34771 3.05096 10.7016
1.34773 3.05094 10.752
1.33711 3.06155 10.7268
1.35794 3.04072 10.7268
1.34773 3.05094 10.752
1.35794 3.04072 10.7268
1.36839 3.03027 10.752
1.50287 2.89579 10.8278
1.51321 2.88546 10.8531
1.49255 2.90612 10.8531
1.49255 2.90612 10.8531
1.51321 2.88546 10.8531
1.50288 2.89578 10.8784
1.42017 2.9785 10.8783
1.44086 2.9578 10.8783
1.43052 2.96814 10.9036
1.43051 2.96815 10.853
1.44086 2.9578 10.8783
1.42017 2.9785 10.8783
1.44085 2.95782 10.8278
1.4305 2.96817 10.8025
1.45119 2.94748 10.8025
1.43051 2.96815 10.853
1.42015 2.97851 10.8278
1.44085 2.95782 10.8278
1.44085 2.95782 10.8278
1.42015 2.97851 10.8278
1.4305 2.96817 10.8025
1.44087 2.95779 10.929
1.46156 2.9371 10.929
1.45123 2.94744 10.9543
1.3995 2.99917 10.9797
1.40985 2.98882 10.9543
1.4202 2.97846 10.9797
1.40983 2.98883 10.9036
1.42017 2.9785 10.8783
1.43052 2.96814 10.9036
1.39946 2.9992 10.8783
1.42017 2.9785 10.8783
1.40983 2.98883 10.9036
1.32724 3.07142 10.9543
1.33718 3.06148 10.9289
1.34779 3.05087 10.9543
1.33717 3.06149 10.8783
1.32722 3.07145 10.853
1.34776 3.0509 10.853
1.34776 3.0509 10.853
1.35799 3.04067 10.8783
1.33717 3.06149 10.8783
1.38911 3.00955 10.853
1.39946 2.9992 10.8783
1.37874 3.01992 10.8783
1.34777 3.05089 10.9036
1.33718 3.06148 10.9289
[...]
<PointData Scalars="View Factor" >
<DataArray type="Float64" Name="View Factor" NumberOfComponents="1" format="ascii">
0.000242857
0.000242857
0.000242857
0.00024847
0.00024847
0.00024847
0.000270345
0.000270345
0.000270345
0.00319629
0.00319629
0.00319629
0.00324144
0.00324144
0.00324144
0.000288879
0.000288879
0.000288879
0.00516015
0.00516015
0.00516015
0.00102861
0.00102861
0.00102861
0.00118935
0.00118935
0.00118935
0.000916681
0.000916681
0.000916681
0.000829478
0.000829478
0.000829478
0.000737672
0.000737672
0.000737672
0.000334303
0.000334303
0.000334303
0.000319581
0.000319581
0.000319581
0.000736928
0.000736928
0.000736928
0.000703473
0.000703473
0.000703473
0.000478699
0.000478699
0.000478699
0.000457006
0.000457006
0.000457006
0.000435356
0.000435356
0.000435356
0.000330105
0.000330105
0.000330105
0.000304693
0.000304693
0.000304693
0.00105108
0.00105108
0.00105108
0.000237136
0.000237136
0.000237136
5.42216e-05
5.42216e-05
5.42216e-05
0.00612686
0.00612686
0.00612686
0.00505107
0.00505107
0.00505107
0.00510008
0.00510008
0.00510008
0.00519023
0.00519023
0.00519023
0.00512284
0.00512284
0.00512284
0.00453578
0.00453578
0.00453578
0.00438712
0.00438712
0.00438712
0.00446495
0.00446495
0.00446495
0.00445464
0.00445464
0.00445464
0.00448139
0.00448139
0.00448139
0.00456102
0.00456102
0.00456102
0.00450227
0.00450227
0.00450227
0.00507841
0.00507841
0.00507841
0.00506744
0.00506744
0.00506744
0.00436572
0.00436572
0.00436572
0.00441262
0.00441262
0.00441262
0.00342865
0.00342865
0.00342865
0.00340749
0.00340749
0.00340749
0.00333923
0.00333923
0.00333923
5.65847e-05
5.65847e-05
5.65847e-05
0.00143329
0.00143329
0.00143329
0.00116686
0.00116686
0.00116686
0.00065653
0.00065653
0.00065653
0.000497414
0.000497414
0.000497414
0.000508682
0.000508682
0.000508682
0.000825931
0.000825931
0.000825931
0.00040464
0.00040464
0.00040464
0.000379333
0.000379333
0.000379333
0.000353152
0.000353152
0.000353152
0.00121855
0.00121855
0.00121855
0.00138001
0.00138001
0.00138001
0.00128381
0.00128381
0.00128381
0.00137842
0.00137842
0.00137842
0.00141099
0.00141099
0.00141099
0.0014293
0.0014293
0.0014293
0.00116755
0.00116755
0.00116755
0.00130467
0.00130467
0.00130467
0.00029608
0.00029608
0.00029608
0.000287023
0.000287023
0.000287023
0.000688633
0.000688633
0.000688633
0.000547781
0.000547781
0.000547781
0.000565292
0.000565292
0.000565292
0.000222049
0.000222049
0.000222049
0.000270085
0.000270085
0.000270085
3.83381e-05
3.83381e-05
3.83381e-05
6.91041e-05
6.91041e-05
6.91041e-05
7.20415e-05
7.20415e-05
7.20415e-05
0.000594459
0.000594459
0.000594459
0.000574081
0.000574081
0.000574081
7.21108e-05
7.21108e-05
7.21108e-05
0.000282778
0.000282778
0.000282778
0.000316863
0.000316863
0.000316863
0.000295007
0.000295007
0.000295007
0.000542763
0.000542763
0.000542763
0.000518183
0.000518183
0.000518183
0.000562171
0.000562171
0.000562171
0.000500047
0.000500047
0.000500047
0.000720748
0.000720748
0.000720748
0.000786254
0.000786254
0.000786254
0.000296395
0.000296395
0.000296395
0.000309017
0.000309017
0.000309017
0.000455616
0.000455616
0.000455616
0.000356313
0.000356313
0.000356313
0.000368543
0.000368543
0.000368543
0.000385121
0.000385121
0.000385121
0.000435062
0.000435062
0.000435062
0.000663336
0.000663336
0.000663336
0.000876335
0.000876335
0.000876335
0.00336843
0.00336843
0.00336843
0.00338376
0.00338376
0.00338376
0.00589233
0.00589233
0.00589233
0.00609175
0.00609175
0.00609175
0.00560597
0.00560597
0.00560597
0.00569774
0.00569774
0.00569774
0.000227706
0.000227706
0.000227706
0.00533204
0.00533204
0.00533204
0.00524723
0.00524723
0.00524723
0.00536351
0.00536351
0.00536351
0.00532879
0.00532879
0.00532879
0.00513324
0.00513324
0.00513324
0.00515604
0.00515604
0.00515604
0.00519018
0.00519018
0.00519018
0.00527033
0.00527033
0.00527033
0.00523611
0.00523611
0.00523611
0.00529374
0.00529374
0.00529374
0.00551105
0.00551105
0.00551105
0.00554417
0.00554417
0.00554417
0.00547184
0.00547184
0.00547184
0.00542289
0.00542289
0.00542289
0.00541166
0.00541166
0.00541166
0.00450804
0.00450804
0.00450804
0.00452949
0.00452949
0.00452949
0.00455659
0.00455659
0.00455659
0.00499649
0.00499649
0.00499649
0.00502213
0.00502213
0.00502213
0.00491685
0.00491685
0.00491685
0.00486323
0.00486323
0.00486323
0.00478939
0.00478939
0.00478939
0.00343404
0.00343404
0.00343404
0.00341633
0.00341633
0.00341633
0.00397317
0.00397317
0.00397317
0.00401612
0.00401612
0.00401612
0.00410358
0.00410358
0.00410358
0.00410314
0.00410314
0.00410314
0.00414797
0.00414797
0.00414797
0.00371228
0.00371228
0.00371228
0.00388238
0.00388238
0.00388238
0.00401956
0.00401956
0.00401956
0.00409501
0.00409501
0.00409501
0.00429403
0.00429403
0.00429403
0.0045307
0.0045307
0.0045307
0.00445853
0.00445853
0.00445853
0.00425866
0.00425866
0.00425866
0.00438673
0.00438673
0.00438673
0.00443374
0.00443374
0.00443374
0.00441065
0.00441065
0.00441065
0.00372206
0.00372206
0.00372206
0.00352727
0.00352727
0.00352727
0.0032556
0.0032556
0.0032556
0.00352437
0.00352437
0.00352437
0.00359107
0.00359107
0.00359107
0.00358485
0.00358485
0.00358485
0.00346619
0.00346619
0.00346619
0.00362292
0.00362292
0.00362292
0.00355576
0.00355576
0.00355576
0.00343818
0.00343818
0.00343818
0.00349001
0.00349001
0.00349001
0.00338672
0.00338672
0.00338672
0.00345988
0.00345988
0.00345988
0.00372766
0.00372766
0.00372766
0.00363417
0.00363417
0.00363417
0.00305213
0.00305213
0.00305213
0.000498513
0.000498513
0.000498513
0.00149533
0.00149533
0.00149533
0.000464262
0.000464262
0.000464262
0.00146924
0.00146924
0.00146924
0.00334354
0.00334354
0.00334354
0.00331775
0.00331775
0.00331775
0.00336375
0.00336375
0.00336375
6.33916e-05
6.33916e-05
6.33916e-05
6.0858e-05
6.0858e-05
6.0858e-05
5.58942e-05
5.58942e-05
5.58942e-05
5.83024e-05
5.83024e-05
5.83024e-05
6.89036e-05
6.89036e-05
6.89036e-05
7.0144e-05
7.0144e-05
7.0144e-05
8.6111e-05
8.6111e-05
8.6111e-05
6.33674e-05
6.33674e-05
6.33674e-05
2.80187e-05
2.80187e-05
2.80187e-05
2.86844e-05
2.86844e-05
2.86844e-05
2.6362e-05
2.6362e-05
2.6362e-05
2.61075e-05
2.61075e-05
2.61075e-05
3.08663e-05
3.08663e-05
3.08663e-05
3.13119e-05
3.13119e-05
3.13119e-05
3.0144e-05
3.0144e-05
3.0144e-05
2.80148e-05
2.80148e-05
2.80148e-05
2.94159e-05
2.94159e-05
2.94159e-05
3.05671e-05
3.05671e-05
3.05671e-05
3.25264e-05
3.25264e-05
3.25264e-05
2.54992e-05
2.54992e-05
2.54992e-05
2.73397e-05
2.73397e-05
2.73397e-05
2.73547e-05
2.73547e-05
2.73547e-05
2.57376e-05
2.57376e-05
2.57376e-05
2.48864e-05
2.48864e-05
2.48864e-05
2.23847e-05
2.23847e-05
2.23847e-05
1.94374e-05
1.94374e-05
1.94374e-05
1.94216e-05
1.94216e-05
1.94216e-05
3.75587e-05
3.75587e-05
3.75587e-05
3.75658e-05
3.75658e-05
3.75658e-05
3.69147e-05
3.69147e-05
3.69147e-05
0.000657256
0.000657256
0.000657256
0.000671263
0.000671263
0.000671263
0.000688172
0.000688172
0.000688172
0.000613646
0.000613646
0.000613646
0.000898168
0.000898168
0.000898168
0.000778259
0.000778259
0.000778259
0.000961864
0.000961864
0.000961864
0.000277929
0.000277929
0.000277929
0.000293829
0.000293829
0.000293829
0.000554303
0.000554303
0.000554303
0.000604494
0.000604494
0.000604494
0.000616371
0.000616371
0.000616371
0.000667468
0.000667468
0.000667468
0.000669923
0.000669923
0.000669923
0.000652695
0.000652695
0.000652695
0.000676798
0.000676798
0.000676798
0.000756664
0.000756664
0.000756664
0.000800127
0.000800127
0.000800127
0.000727261
0.000727261
0.000727261
0.000748065
0.000748065
0.000748065
0.000372021
0.000372021
0.000372021
0.000394761
0.000394761
0.000394761
0.00138482
0.00138482
0.00138482
0.00129252
0.00129252
0.00129252
0.00133598
0.00133598
0.00133598
0.000895843
0.000895843
0.000895843
0.00130378
0.00130378
0.00130378
0.00135573
0.00135573
0.00135573
0.00146544
0.00146544
0.00146544
0.00149218
0.00149218
0.00149218
0.00138734
0.00138734
0.00138734
0.00140844
0.00140844
0.00140844
0.00066192
0.00066192
0.00066192
0.000649989
0.000649989
0.000649989
0.000605306
0.000605306
0.000605306
0.000539806
0.000539806
0.000539806
0.000311645
0.000311645
0.000311645
2.50557e-05
2.50557e-05
2.50557e-05
5.04869e-05
5.04869e-05
5.04869e-05
5.96138e-05
5.96138e-05
5.96138e-05
5.48584e-05
5.48584e-05
5.48584e-05
6.40635e-05
6.40635e-05
6.40635e-05
5.53807e-05
5.53807e-05
5.53807e-05
0.000403323
0.000403323
0.000403323
0.000409801
0.000409801
0.000409801
0.000251062
0.000251062
0.000251062
0.000278664
0.000278664
0.000278664
0.000279569
0.000279569
0.000279569
0.000294708
0.000294708
0.000294708
0.000173059
0.000173059
0.000173059
0.000182276
0.000182276
0.000182276
0.000173463
0.000173463
0.000173463
0.000626989
0.000626989
0.000626989
0.000617256
0.000617256
0.000617256
0.000262235
0.000262235
0.000262235
0.000515572
0.000515572
0.000515572
0.000478812
0.000478812
0.000478812
0.000523675
0.000523675
0.000523675
0.000495187
0.000495187
0.000495187
0.000451734
0.000451734
0.000451734
0.000459328
0.000459328
0.000459328
0.000280558
0.000280558
0.000280558
0.00033186
0.00033186
0.00033186
0.000295685
0.000295685
0.000295685
0.000355931
0.000355931
0.000355931
0.000305221
0.000305221
0.000305221
0.000327669
0.000327669
0.000327669
0.000263808
0.000263808
0.000263808
0.000217004
0.000217004
0.000217004
0.000203573
0.000203573
0.000203573
0.000270939
0.000270939
0.000270939
0.000281977
0.000281977
0.000281977
0.000315417
0.000315417
0.000315417
0.000338449
0.000338449
0.000338449
0.000291022
0.000291022
0.000291022
0.000325579
0.000325579
0.000325579
0.000245375
0.000245375
0.000245375
0.000228022
0.000228022
0.000228022
0.000204122
0.000204122
0.000204122
0.00019745
0.00019745
0.00019745
0.000210574
0.000210574
0.000210574
0.000235263
0.000235263
0.000235263
0.000306038
0.000306038
0.000306038
0.000284758
0.000284758
0.000284758
0.000299154
0.000299154
0.000299154
0.000336252
0.000336252
0.000336252
0.000120037
0.000120037
0.000120037
0.000178255
0.000178255
0.000178255
0.000123928
0.000123928
0.000123928
0.000641037
0.000641037
0.000641037
0.000846357
0.000846357
0.000846357
0.000696953
0.000696953
0.000696953
0.0007937
0.0007937
0.0007937
0.000816425
0.000816425
0.000816425
0.000766226
0.000766226
0.000766226
0.000673037
0.000673037
0.000673037
0.000618741
0.000618741
0.000618741
0.000649126
0.000649126
0.000649126
0.000738798
0.000738798
0.000738798
0.00042952
0.00042952
0.00042952
0.000402205
0.000402205
0.000402205
0.000433999
0.000433999
0.000433999
0.000488948
0.000488948
0.000488948
0.000245632
0.000245632
0.000245632
0.000261179
0.000261179
0.000261179
0.000423539
0.000423539
0.000423539
0.000405725
0.000405725
0.000405725
0.000209163
0.000209163
0.000209163
0.000221539
0.000221539
0.000221539
0.00021421
0.00021421
0.00021421
0.000190258
0.000190258
0.000190258
0.000181896
0.000181896
0.000181896
0.000194829
0.000194829
0.000194829
0.00034583
0.00034583
0.00034583
0.000436511
0.000436511
0.000436511
0.00041717
0.00041717
0.00041717
0.000370633
0.000370633
0.000370633
0.000249662
0.000249662
0.000249662
0.00026831
0.00026831
0.00026831
0.000449389
0.000449389
0.000449389
0.000317968
0.000317968
0.000317968
0.000355922
0.000355922
0.000355922
0.000494124
0.000494124
0.000494124
0.000906353
0.000906353
0.000906353
0.000820756
0.000820756
0.000820756
0.000721378
0.000721378
0.000721378
0.000398141
0.000398141
0.000398141
0.00038075
0.00038075
0.00038075
0.000464639
0.000464639
0.000464639
0.000410646
0.000410646
0.000410646
0.00324196
0.00324196
0.00324196
0.00398882
0.00398882
0.00398882
0.00394585
0.00394585
0.00394585
0.00400073
0.00400073
0.00400073
0.00358339
0.00358339
0.00358339
0.00337108
0.00337108
0.00337108
0.00338773
0.00338773
0.00338773
0.00489636
0.00489636
0.00489636
0.00502585
0.00502585
0.00502585
0.00494949
0.00494949
0.00494949
0.00335058
0.00335058
0.00335058
0.00334321
0.00334321
0.00334321
0.00044442
0.00044442
0.00044442
0.000415566
0.000415566
0.000415566
0.000370898
0.000370898
0.000370898
0.000354582
0.000354582
0.000354582
0.000299043
0.000299043
0.000299043
0.000320667
0.000320667
0.000320667
0.000536871
0.000536871
0.000536871
0.000301944
0.000301944
0.000301944
0.0008595
0.0008595
0.0008595
2.13586e-05
2.13586e-05
2.13586e-05
0.000424138
0.000424138
0.000424138
0.000429435
0.000429435
0.000429435
0.00119384
0.00119384
0.00119384
0.000941323
0.000941323
0.000941323
0.00439382
0.00439382
0.00439382
0.004418
0.004418
0.004418
0.00468309
0.00468309
0.00468309
0.00460978
0.00460978
0.00460978
0.0045993
0.0045993
0.0045993
0.00483604
0.00483604
0.00483604
0.00486351
0.00486351
0.00486351
0.00477875
0.00477875
0.00477875
0.00480068
0.00480068
0.00480068
0.00502367
0.00502367
0.00502367
0.00499495
0.00499495
0.00499495
0.00491615
0.00491615
0.00491615
0.00495863
0.00495863
0.00495863
0.0049053
0.0049053
0.0049053
0.00483054
0.00483054
0.00483054
0.00480886
0.00480886
0.00480886
0.00475799
0.00475799
0.00475799
0.0047376
0.0047376
0.0047376
0.00499007
0.00499007
0.00499007
0.00496779
0.00496779
0.00496779
0.00493623
0.00493623
0.00493623
0.00486117
0.00486117
0.00486117
0.00488779
0.00488779
0.00488779
0.0048349
0.0048349
0.0048349
0.00470612
0.00470612
0.00470612
0.00465543
0.00465543
0.00465543
0.00457973
0.00457973
0.00457973
0.00455559
0.00455559
0.00455559
0.00366964
0.00366964
0.00366964
0.00378732
0.00378732
0.00378732
0.00382849
0.00382849
0.00382849
0.0035664
0.0035664
0.0035664
0.0034764
0.0034764
0.0034764
0.00350372
0.00350372
0.00350372
0.00355671
0.00355671
0.00355671
0.00363085
0.00363085
0.00363085
0.00370744
0.00370744
0.00370744
0.00366806
0.00366806
0.00366806
0.00413939
0.00413939
0.00413939
0.00422914
0.00422914
0.00422914
0.00410728
0.00410728
0.00410728
0.00415153
0.00415153
0.00415153
0.00422864
0.00422864
0.00422864
0.00427426
0.00427426
0.00427426
0.0038893
0.0038893
0.0038893
0.00397702
0.00397702
0.00397702
0.00376606
0.00376606
0.00376606
0.00385233
0.00385233
0.00385233
0.00389345
0.00389345
0.00389345
0.00384816
0.00384816
0.00384816
0.00376726
0.00376726
0.00376726
0.0037259
0.0037259
0.0037259
0.00376157
0.00376157
0.00376157
0.00373217
0.00373217
0.00373217
0.00377159
0.00377159
0.00377159
0.00384159
0.00384159
0.00384159
0.00388252
0.00388252
0.00388252
0.00386949
0.00386949
0.00386949
0.00384188
0.00384188
0.00384188
0.00396575
0.00396575
0.00396575
0.00448649
0.00448649
0.00448649
0.00433431
0.00433431
0.00433431
0.00443843
0.00443843
0.00443843
0.00436303
0.00436303
0.00436303
0.00427126
0.00427126
0.00427126
0.00431717
0.00431717
0.00431717
0.00422475
0.00422475
0.00422475
0.00429734
0.00429734
0.00429734
0.00431624
0.00431624
0.00431624
0.00434346
0.00434346
0.00434346
0.00382884
0.00382884
0.00382884
0.00385543
0.00385543
0.00385543
0.00376176
0.00376176
0.00376176
0.00392238
0.00392238
0.00392238
0.00394776
0.00394776
0.00394776
0.00381522
0.00381522
0.00381522
0.00341747
0.00341747
0.00341747
0.00365437
0.00365437
0.00365437
0.00361646
0.00361646
0.00361646
0.00353724
0.00353724
0.00353724
0.00349811
0.00349811
0.00349811
0.00329843
0.00329843
0.00329843
0.0031759
0.0031759
0.0031759
0.00321727
0.00321727
0.00321727
0.00375557
0.00375557
0.00375557
0.00369788
0.00369788
0.00369788
0.00368885
0.00368885
0.00368885
0.00354734
0.00354734
0.00354734
0.00364031
0.00364031
0.00364031
0.0035846
0.0035846
0.0035846
0.00357621
0.00357621
0.00357621
0.00365983
0.00365983
0.00365983
0.00361331
0.00361331
0.00361331
0.00363332
0.00363332
0.00363332
0.00359593
0.00359593
0.00359593
0.00375179
0.00375179
0.00375179
0.00370029
0.00370029
0.00370029
0.00373971
0.00373971
0.00373971
0.00383259
0.00383259
0.00383259
0.00388788
0.00388788
0.00388788
0.00384681
0.00384681
0.00384681
0.00351361
0.00351361
0.00351361
0.00364789
0.00364789
0.00364789
0.00359609
0.00359609
0.00359609
0.00348029
0.00348029
0.00348029
0.000183277
0.000183277
0.000183277
0.000212811
0.000212811
0.000212811
0.000198901
0.000198901
0.000198901
0.00262342
0.00262342
0.00262342
0.00211643
0.00211643
0.00211643
0.00214998
0.00214998
0.00214998
0.0028409
0.0028409
0.0028409
0.00258134
0.00258134
0.00258134
0.00326668
0.00326668
0.00326668
0.00323619
0.00323619
0.00323619
0.00293582
0.00293582
0.00293582
0.00309295
0.00309295
0.00309295
0.003214
0.003214
0.003214
0.00317537
0.00317537
0.00317537
0.00272032
0.00272032
0.00272032
0.00298477
0.00298477
0.00298477
5.50087e-05
5.50087e-05
5.50087e-05
5.23988e-05
5.23988e-05
5.23988e-05
5.35505e-05
5.35505e-05
5.35505e-05
5.6658e-05
5.6658e-05
5.6658e-05
6.17091e-05
6.17091e-05
6.17091e-05
6.707e-05
6.707e-05
6.707e-05
5.51318e-05
5.51318e-05
5.51318e-05
5.92156e-05
5.92156e-05
5.92156e-05
5.75598e-05
5.75598e-05
5.75598e-05
6.00108e-05
6.00108e-05
6.00108e-05
9.54218e-05
9.54218e-05
9.54218e-05
8.37208e-05
8.37208e-05
8.37208e-05
7.77491e-05
7.77491e-05
7.77491e-05
8.60256e-05
8.60256e-05
8.60256e-05
8.8524e-05
8.8524e-05
8.8524e-05
7.98862e-05
7.98862e-05
7.98862e-05
7.53801e-05
7.53801e-05
7.53801e-05
9.87767e-05
9.87767e-05
9.87767e-05
9.28144e-05
9.28144e-05
9.28144e-05
0.000106492
0.000106492
0.000106492
0.000109889
0.000109889
0.000109889
7.33326e-05
7.33326e-05
7.33326e-05
6.63329e-05
6.63329e-05
6.63329e-05
6.52242e-05
6.52242e-05
6.52242e-05
6.82442e-05
6.82442e-05
6.82442e-05
8.14042e-05
8.14042e-05
8.14042e-05
7.56008e-05
7.56008e-05
7.56008e-05
7.1273e-05
7.1273e-05
7.1273e-05
6.14959e-05
6.14959e-05
6.14959e-05
6.44086e-05
6.44086e-05
6.44086e-05
6.24696e-05
6.24696e-05
6.24696e-05
6.71173e-05
6.71173e-05
6.71173e-05
0.00016445
0.00016445
0.00016445
0.000151311
0.000151311
0.000151311
0.000112994
0.000112994
0.000112994
0.000127502
0.000127502
0.000127502
0.00013841
0.00013841
0.00013841
0.000130852
0.000130852
0.000130852
0.000123438
0.000123438
0.000123438
0.000147251
0.000147251
0.000147251
0.000142055
0.000142055
0.000142055
9.95213e-05
9.95213e-05
9.95213e-05
0.000104965
0.000104965
0.000104965
4.76726e-05
4.76726e-05
4.76726e-05
2.99806e-05
2.99806e-05
2.99806e-05
3.20485e-05
3.20485e-05
3.20485e-05
3.51603e-05
3.51603e-05
3.51603e-05
3.41047e-05
3.41047e-05
3.41047e-05
5.10142e-05
5.10142e-05
5.10142e-05
4.88956e-05
4.88956e-05
4.88956e-05
0.0035417
0.0035417
0.0035417
0.00350055
0.00350055
0.00350055
3.06609e-05
3.06609e-05
3.06609e-05
5.58809e-05
5.58809e-05
5.58809e-05
0.000450992
0.000450992
0.000450992
6.44077e-05
6.44077e-05
6.44077e-05
0.00204461
0.00204461
0.00204461
0.000137009
0.000137009
0.000137009
9.56688e-05
9.56688e-05
9.56688e-05
6.88966e-05
6.88966e-05
6.88966e-05
7.00127e-05
7.00127e-05
7.00127e-05
7.92762e-05
7.92762e-05
7.92762e-05
7.61122e-05
7.61122e-05
7.61122e-05
5.25011e-05
5.25011e-05
5.25011e-05
3.67e-05
3.67e-05
3.67e-05
3.35573e-05
3.35573e-05
3.35573e-05
3.43613e-05
3.43613e-05
3.43613e-05
3.33188e-05
3.33188e-05
3.33188e-05
5.78422e-05
5.78422e-05
5.78422e-05
6.41377e-05
6.41377e-05
6.41377e-05
6.07318e-05
6.07318e-05
6.07318e-05
5.18095e-05
5.18095e-05
5.18095e-05
5.13574e-05
5.13574e-05
5.13574e-05
5.29874e-05
5.29874e-05
5.29874e-05
5.53204e-05
5.53204e-05
5.53204e-05
6.24879e-05
6.24879e-05
6.24879e-05
5.81769e-05
5.81769e-05
5.81769e-05
2.1749e-05
2.1749e-05
2.1749e-05
2.25421e-05
2.25421e-05
2.25421e-05
2.66857e-05
2.66857e-05
2.66857e-05
2.42671e-05
2.42671e-05
2.42671e-05
2.51077e-05
2.51077e-05
2.51077e-05
2.30161e-05
2.30161e-05
2.30161e-05
2.31893e-05
2.31893e-05
2.31893e-05
2.46457e-05
2.46457e-05
2.46457e-05
2.52844e-05
2.52844e-05
2.52844e-05
1.99063e-05
1.99063e-05
1.99063e-05
1.98144e-05
1.98144e-05
1.98144e-05
2.36996e-05
2.36996e-05
2.36996e-05
1.94357e-05
1.94357e-05
1.94357e-05
1.98885e-05
1.98885e-05
1.98885e-05
3.32444e-05
3.32444e-05
3.32444e-05
3.11604e-05
3.11604e-05
3.11604e-05
3.32377e-05
3.32377e-05
3.32377e-05
3.4164e-05
3.4164e-05
3.4164e-05
3.41728e-05
3.41728e-05
3.41728e-05
3.69455e-05
3.69455e-05
3.69455e-05
3.12184e-05
3.12184e-05
3.12184e-05
0.000316516
0.000316516
0.000316516
0.000292264
0.000292264
0.000292264
0.000109099
0.000109099
0.000109099
0.000117156
0.000117156
0.000117156
0.000454611
0.000454611
0.000454611
0.000407959
0.000407959
0.000407959
0.000624466
0.000624466
0.000624466
0.000596924
0.000596924
0.000596924
0.000172385
0.000172385
0.000172385