<VTKFile type="UnstructuredGrid" version="1.0">
<UnstructuredGrid>
<Piece NumberOfPoints="10830" NumberOfCells="3610">
<Points>
<DataArray type="Float64" NumberOfComponents="3" format="ascii">
3.11035 1.27826 14.6557
3.11035 1.28831 14.6815
3.11035 1.28831 14.63
3.11035 1.28831 15.1851
3.11035 1.27701 15.2105
3.11035 1.28831 15.236
3.11035 1.28831 15.1851
3.11035 1.26002 15.1851
3.11035 1.27701 15.2105
3.11035 0.0244388 15.6576
3.11035 4.44089e-16 15.675
3.11035 0.0422213 15.675
3.11035 4.44089e-16 15.675
3.11035 0.0244388 15.6576
3.11035 -7.90479e-14 15.6448
3.11035 1.28831 15.1851
3.11035 1.27702 15.1597
3.11035 1.26002 15.1851
3.11035 0.00863377 14.9068
3.11035 1.50546e-13 14.8816
3.11035 1.49658e-13 14.932
3.11035 1.27705 14.9069
3.11035 1.26004 14.9321
3.11035 1.28831 14.9321
3.11035 1.27684 14.8063
3.11035 1.28831 14.8314
3.11035 1.28831 14.7813
3.11035 1.26004 14.9321
3.11035 1.27707 14.9573
3.11035 1.28831 14.9321
3.11035 1.28831 14.9321
3.11035 1.27707 14.9573
3.11035 1.28831 14.9825
3.11035 1.26005 14.9826
3.11035 1.28831 14.9825
3.11035 1.27707 14.9573
3.11035 1.26003 15.1343
3.11035 1.24613 15.1597
3.11035 1.27702 15.1597
3.11035 1.24613 15.1597
3.11035 1.26002 15.1851
3.11035 1.27702 15.1597
3.11035 1.24613 15.1597
3.11035 1.26003 15.1343
3.11035 1.23052 15.1343
3.11035 1.24613 15.1597
3.11035 1.23052 15.1851
3.11035 1.26002 15.1851
3.11035 1.28831 15.033
3.11035 1.27705 15.0583
3.11035 1.28831 15.0836
3.11035 1.27705 15.0583
3.11035 1.24616 15.0583
3.11035 1.26004 15.0836
3.11035 1.28831 15.0836
3.11035 1.27705 15.0583
3.11035 1.26004 15.0836
3.11035 1.28831 15.1343
3.11035 1.26003 15.1343
3.11035 1.27702 15.1597
3.11035 1.28831 15.1851
3.11035 1.28831 15.1343
3.11035 1.27702 15.1597
3.11035 1.25981 14.7813
3.11035 1.27684 14.8063
3.11035 1.28831 14.7813
3.11035 1.26002 15.236
3.11035 1.28831 15.236
3.11035 1.27701 15.2105
3.11035 0.85884 15.4157
3.11035 0.888295 15.4157
3.11035 0.873578 15.39
3.11035 4.44089e-16 14.63
3.11035 0.00987207 14.6547
3.11035 0.0277369 14.63
3.11035 0.0840033 14.8816
3.11035 0.0689903 14.8564
3.11035 0.0549577 14.8816
3.11035 0.0264927 14.8816
3.11035 0.0392653 14.9068
3.11035 0.0549577 14.8816
3.11035 0.0264927 14.8816
3.11035 1.50546e-13 14.8816
3.11035 0.00863377 14.9068
3.11035 0.0392653 14.9068
3.11035 0.0264927 14.8816
3.11035 0.00863377 14.9068
3.11035 0.0087521 15.1089
3.11035 1.48326e-13 15.0836
3.11035 -9.59233e-14 15.1343
3.11035 0.0265703 15.1343
3.11035 0.0550657 15.1343
3.11035 0.0393699 15.1089
3.11035 -9.59233e-14 15.1343
3.11035 0.0265703 15.1343
3.11035 0.0087521 15.1089
3.11035 0.0265703 15.1343
3.11035 0.0393699 15.1089
3.11035 0.0087521 15.1089
3.11035 0.0265544 15.0836
3.11035 0.0393699 15.1089
3.11035 0.0550443 15.0836
3.11035 0.0265544 15.0836
3.11035 1.48326e-13 15.0836
3.11035 0.0087521 15.1089
3.11035 0.0393699 15.1089
3.11035 0.0265544 15.0836
3.11035 0.0087521 15.1089
3.11035 1.49658e-13 14.932
3.11035 0.0265126 14.932
3.11035 0.00863377 14.9068
3.11035 0.0265126 14.932
3.11035 0.0392653 14.9068
3.11035 0.00863377 14.9068
3.11035 0.0550657 15.1343
3.11035 0.0691236 15.1089
3.11035 0.0393699 15.1089
3.11035 0.0393699 15.1089
3.11035 0.0691236 15.1089
3.11035 0.0550443 15.0836
3.11035 0.288852 15.0837
3.11035 0.274248 15.109
3.11035 0.303471 15.109
3.11035 0.274248 15.109
3.11035 0.288872 15.1344
3.11035 0.303471 15.109
3.11035 0.288872 15.1344
3.11035 0.318088 15.1344
3.11035 0.303471 15.109
3.11035 0.844143 15.39
3.11035 0.85884 15.4157
3.11035 0.873578 15.39
3.11035 1.27699 14.8566
3.11035 1.28831 14.8817
3.11035 1.28831 14.8314
3.11035 1.28831 14.9321
3.11035 1.28831 14.8817
3.11035 1.27705 14.9069
3.11035 1.17079 15.0331
3.11035 1.15586 15.0078
3.11035 1.14088 15.0331
3.11035 1.26004 15.0331
3.11035 1.24616 15.0583
3.11035 1.27705 15.0583
3.11035 1.28831 15.033
3.11035 1.26004 15.0331
3.11035 1.27705 15.0583
3.11035 1.24616 15.0583
3.11035 1.23053 15.0836
3.11035 1.26004 15.0836
3.11035 1.27704 15.1089
3.11035 1.28831 15.0836
3.11035 1.26004 15.0836
3.11035 1.28831 15.0836
3.11035 1.27704 15.1089
3.11035 1.28831 15.1343
3.11035 1.27704 15.1089
3.11035 1.26003 15.1343
3.11035 1.28831 15.1343
3.11035 1.24591 14.8064
3.11035 1.27684 14.8063
3.11035 1.25981 14.7813
3.11035 1.27699 14.8566
3.11035 1.26001 14.8817
3.11035 1.28831 14.8817
3.11035 1.26001 14.8817
3.11035 1.27705 14.9069
3.11035 1.28831 14.8817
3.11035 1.15573 14.8566
3.11035 1.1706 14.8314
3.11035 1.1407 14.8314
3.11035 1.20051 14.8315
3.11035 1.21561 14.8063
3.11035 1.18556 14.8063
3.11035 1.20051 14.8315
3.11035 1.18556 14.8063
3.11035 1.1706 14.8314
3.11035 1.24614 14.9069
3.11035 1.26004 14.9321
3.11035 1.27705 14.9069
3.11035 1.24614 14.9069
3.11035 1.27705 14.9069
3.11035 1.26001 14.8817
3.11035 1.24612 15.2106
3.11035 1.27701 15.2105
3.11035 1.26002 15.1851
3.11035 1.27701 15.2105
3.11035 1.24612 15.2106
3.11035 1.26002 15.236
3.11035 1.23052 15.1851
3.11035 1.24612 15.2106
3.11035 1.26002 15.1851
3.11035 1.24611 15.3641
3.11035 1.23051 15.3384
3.11035 1.21584 15.3641
3.11035 1.21584 15.3127
3.11035 1.23051 15.3384
3.11035 1.24611 15.3127
3.11035 1.27699 15.2615
3.11035 1.28831 15.236
3.11035 1.26002 15.236
3.11035 1.24611 15.2616
3.11035 1.27699 15.2615
3.11035 1.26002 15.236
3.11035 0.917741 15.4673
3.11035 0.902954 15.4932
3.11035 0.932465 15.4932
3.11035 1.08109 15.3384
3.11035 1.11094 15.3384
3.11035 1.09602 15.3128
3.11035 1.11094 15.3384
3.11035 1.12589 15.3128
3.11035 1.09602 15.3128
3.11035 1.2305 15.2871
3.11035 1.24611 15.2616
3.11035 1.21584 15.2616
3.11035 1.2305 15.2871
3.11035 1.21584 15.3127
3.11035 1.24611 15.3127
3.11035 1.0662 15.3128
3.11035 1.08109 15.3384
3.11035 1.09602 15.3128
3.11035 0.991917 15.0837
3.11035 0.977089 15.0584
3.11035 0.962274 15.0837
3.11035 0.917902 15.0584
3.11035 0.888384 15.0584
3.11035 0.903138 15.0837
3.11035 0.932681 15.0837
3.11035 0.917902 15.0584
3.11035 0.903138 15.0837
3.11035 0.903119 14.9827
3.11035 0.917893 15.0079
3.11035 0.932664 14.9827
3.11035 0.917893 15.0079
3.11035 0.903119 14.9827
3.11035 0.888374 15.0079
3.11035 0.903119 14.9827
3.11035 0.873625 14.9826
3.11035 0.888374 15.0079
3.11035 0.917893 15.0079
3.11035 0.947463 15.0079
3.11035 0.932664 14.9827
3.11035 0.962233 14.9322
3.11035 0.947444 14.9574
3.11035 0.977066 14.9574
3.11035 0.947444 14.9574
3.11035 0.962233 14.9322
3.11035 0.932637 14.9322
3.11035 0.741456 15.1091
3.11035 0.770765 15.1091
3.11035 0.756104 15.0837
3.11035 0.756104 15.0837
3.11035 0.770765 15.1091
3.11035 0.785431 15.0838
3.11035 0.903133 15.0332
3.11035 0.917893 15.0079
3.11035 0.888374 15.0079
3.11035 0.903133 15.0332
3.11035 0.888384 15.0584
3.11035 0.917902 15.0584
3.11035 0.888384 15.0584
3.11035 0.873639 15.0332
3.11035 0.858913 15.0584
3.11035 0.873639 15.0332
3.11035 0.888384 15.0584
3.11035 0.903133 15.0332
3.11035 0.888374 15.0079
3.11035 0.873639 15.0332
3.11035 0.903133 15.0332
3.11035 0.873625 14.9826
3.11035 0.858884 14.9574
3.11035 0.844177 14.9826
3.11035 0.844153 14.9322
3.11035 0.858884 14.9574
3.11035 0.873599 14.9322
3.11035 0.318069 15.0837
3.11035 0.288852 15.0837
3.11035 0.303471 15.109
3.11035 0.288852 15.0837
3.11035 0.318069 15.0837
3.11035 0.303454 15.0584
3.11035 0.00864568 14.7049
3.11035 -9.63674e-14 14.6794
3.11035 1.49658e-13 14.7301
3.11035 4.44089e-16 14.63
3.11035 -9.63674e-14 14.6794
3.11035 0.00987207 14.6547
3.11035 0.0264295 14.7807
3.11035 0.00849117 14.7554
3.11035 1.50546e-13 14.7807
3.11035 1.50546e-13 14.7807
3.11035 0.00849117 14.7554
3.11035 1.49658e-13 14.7301
3.11035 1.28831 14.63
3.11035 1.26122 14.63
3.11035 1.27826 14.6557
3.11035 1.50546e-13 14.8816
3.11035 0.00859461 14.8564
3.11035 1.50546e-13 14.8311
3.11035 0.00859461 14.8564
3.11035 1.50546e-13 14.8816
3.11035 0.0264927 14.8816
3.11035 0.0264637 14.8311
3.11035 1.50546e-13 14.8311
3.11035 0.00859461 14.8564
3.11035 0.0264637 14.8311
3.11035 0.0549232 14.8312
3.11035 0.0391815 14.8059
3.11035 0.0392276 14.8564
3.11035 0.0549577 14.8816
3.11035 0.0689903 14.8564
3.11035 0.0549577 14.8816
3.11035 0.0392276 14.8564
3.11035 0.0264927 14.8816
3.11035 0.0549232 14.8312
3.11035 0.0392276 14.8564
3.11035 0.0689903 14.8564
3.11035 0.0392276 14.8564
3.11035 0.0549232 14.8312
3.11035 0.0264637 14.8311
3.11035 0.0264927 14.8816
3.11035 0.0392276 14.8564
3.11035 0.00859461 14.8564
3.11035 0.00859461 14.8564
3.11035 0.0392276 14.8564
3.11035 0.0264637 14.8311
3.11035 0.00854014 14.8059
3.11035 1.50546e-13 14.7807
3.11035 1.50546e-13 14.8311
3.11035 0.00854014 14.8059
3.11035 0.0264295 14.7807
3.11035 1.50546e-13 14.7807
3.11035 0.0264295 14.7807
3.11035 0.00854014 14.8059
3.11035 0.0391815 14.8059
3.11035 0.00854014 14.8059
3.11035 1.50546e-13 14.8311
3.11035 0.0264637 14.8311
3.11035 0.0391815 14.8059
3.11035 0.00854014 14.8059
3.11035 0.0264637 14.8311
3.11035 0.0690987 15.0583
3.11035 0.0393425 15.0583
3.11035 0.0550443 15.0836
3.11035 0.0550443 15.0836
3.11035 0.0393425 15.0583
3.11035 0.0265544 15.0836
3.11035 0.0393425 15.0583
3.11035 0.0690987 15.0583
3.11035 0.0550252 15.033
3.11035 0.0690242 14.9068
3.11035 0.0840033 14.8816
3.11035 0.0549577 14.8816
3.11035 0.0392653 14.9068
3.11035 0.0690242 14.9068
3.11035 0.0549577 14.8816
3.11035 0.0984777 14.9068
3.11035 0.0840033 14.8816
3.11035 0.0690242 14.9068
3.11035 0.0840313 14.932
3.11035 0.0984777 14.9068
3.11035 0.0690242 14.9068
3.11035 0.0840313 14.932
3.11035 0.113251 14.932
3.11035 0.0984777 14.9068
3.11035 0.303441 15.0078
3.11035 0.288836 15.0331
3.11035 0.318055 15.0331
3.11035 0.288836 15.0331
3.11035 0.303454 15.0584
3.11035 0.318055 15.0331
3.11035 0.186476 15.0583
3.11035 0.201123 15.0836
3.11035 0.215741 15.0583
3.11035 0.201103 15.033
3.11035 0.186476 15.0583
3.11035 0.215741 15.0583
3.11035 0.215723 15.0078
3.11035 0.230345 14.9825
3.11035 0.201085 14.9825
3.11035 0.201103 15.033
3.11035 0.215723 15.0078
3.11035 0.186456 15.0078
3.11035 0.215723 15.0078
3.11035 0.201085 14.9825
3.11035 0.186456 15.0078
3.11035 0.215762 15.109
3.11035 0.230402 15.1343
3.11035 0.245012 15.109
3.11035 0.157245 15.1597
[...]
<PointData Scalars="View Factor" >
<DataArray type="Float64" Name="View Factor" NumberOfComponents="1" format="ascii">
1.37289e-05
1.37289e-05
1.37289e-05
1.24312e-05
1.24312e-05
1.24312e-05
1.24697e-05
1.24697e-05
1.24697e-05
8.78754e-06
8.78754e-06
8.78754e-06
9.27623e-06
9.27623e-06
9.27623e-06
1.25072e-05
1.25072e-05
1.25072e-05
8.56615e-06
8.56615e-06
8.56615e-06
1.30833e-05
1.30833e-05
1.30833e-05
1.33606e-05
1.33606e-05
1.33606e-05
1.3044e-05
1.3044e-05
1.3044e-05
1.30036e-05
1.30036e-05
1.30036e-05
1.29658e-05
1.29658e-05
1.29658e-05
1.25653e-05
1.25653e-05
1.25653e-05
1.25277e-05
1.25277e-05
1.25277e-05
1.25861e-05
1.25861e-05
1.25861e-05
1.25108e-05
1.25108e-05
1.25108e-05
1.27714e-05
1.27714e-05
1.27714e-05
1.27552e-05
1.27552e-05
1.27552e-05
1.27343e-05
1.27343e-05
1.27343e-05
1.25824e-05
1.25824e-05
1.25824e-05
1.25436e-05
1.25436e-05
1.25436e-05
1.34021e-05
1.34021e-05
1.34021e-05
1.23951e-05
1.23951e-05
1.23951e-05
6.58312e-07
6.58312e-07
6.58312e-07
8.66149e-06
8.66149e-06
8.66149e-06
6.07854e-06
6.07854e-06
6.07854e-06
7.2208e-06
7.2208e-06
7.2208e-06
8.27572e-06
8.27572e-06
8.27572e-06
7.73666e-06
7.73666e-06
7.73666e-06
8.26164e-06
8.26164e-06
8.26164e-06
6.92233e-06
6.92233e-06
6.92233e-06
7.93353e-06
7.93353e-06
7.93353e-06
7.43922e-06
7.43922e-06
7.43922e-06
6.96413e-06
6.96413e-06
6.96413e-06
7.98146e-06
7.98146e-06
7.98146e-06
7.46165e-06
7.46165e-06
7.46165e-06
8.22583e-06
8.22583e-06
8.22583e-06
7.71331e-06
7.71331e-06
7.71331e-06
6.32512e-06
6.32512e-06
6.32512e-06
6.34419e-06
6.34419e-06
6.34419e-06
0
0
0
0
0
0
0
0
0
0
0
0
1.32405e-05
1.32405e-05
1.32405e-05
1.31215e-05
1.31215e-05
1.31215e-05
1.06957e-05
1.06957e-05
1.06957e-05
1.27936e-05
1.27936e-05
1.27936e-05
1.2811e-05
1.2811e-05
1.2811e-05
1.2738e-05
1.2738e-05
1.2738e-05
1.26962e-05
1.26962e-05
1.26962e-05
1.2657e-05
1.2657e-05
1.2657e-05
1.26202e-05
1.26202e-05
1.26202e-05
1.33839e-05
1.33839e-05
1.33839e-05
1.3202e-05
1.3202e-05
1.3202e-05
1.31623e-05
1.31623e-05
1.31623e-05
1.10564e-05
1.10564e-05
1.10564e-05
1.27909e-05
1.27909e-05
1.27909e-05
1.22454e-05
1.22454e-05
1.22454e-05
1.31048e-05
1.31048e-05
1.31048e-05
1.31443e-05
1.31443e-05
1.31443e-05
1.24527e-05
1.24527e-05
1.24527e-05
1.24154e-05
1.24154e-05
1.24154e-05
1.24733e-05
1.24733e-05
1.24733e-05
1.21239e-05
1.21239e-05
1.21239e-05
1.21971e-05
1.21971e-05
1.21971e-05
1.23579e-05
1.23579e-05
1.23579e-05
1.23411e-05
1.23411e-05
1.23411e-05
6.32944e-06
6.32944e-06
6.32944e-06
8.11004e-06
8.11004e-06
8.11004e-06
8.60502e-06
8.60502e-06
8.60502e-06
1.23076e-05
1.23076e-05
1.23076e-05
1.22338e-05
1.22338e-05
1.22338e-05
7.54218e-06
7.54218e-06
7.54218e-06
4.12132e-06
4.12132e-06
4.12132e-06
1.36258e-06
1.36258e-06
1.36258e-06
1.87249e-06
1.87249e-06
1.87249e-06
1.90094e-06
1.90094e-06
1.90094e-06
1.37912e-06
1.37912e-06
1.37912e-06
8.61483e-07
8.61483e-07
8.61483e-07
2.52053e-06
2.52053e-06
2.52053e-06
3.58918e-06
3.58918e-06
3.58918e-06
3.07117e-06
3.07117e-06
3.07117e-06
0
0
0
0
0
0
1.37496e-06
1.37496e-06
1.37496e-06
1.3667e-06
1.3667e-06
1.3667e-06
3.29001e-07
3.29001e-07
3.29001e-07
8.53725e-07
8.53725e-07
8.53725e-07
8.56302e-07
8.56302e-07
8.56302e-07
0
0
0
0
0
0
0
0
0
0
0
0
8.88456e-06
8.88456e-06
8.88456e-06
8.96576e-06
8.96576e-06
8.96576e-06
8.4534e-06
8.4534e-06
8.4534e-06
8.80343e-06
8.80343e-06
8.80343e-06
1.37729e-05
1.37729e-05
1.37729e-05
8.64429e-06
8.64429e-06
8.64429e-06
8.30081e-06
8.30081e-06
8.30081e-06
8.35126e-06
8.35126e-06
8.35126e-06
7.3088e-06
7.3088e-06
7.3088e-06
6.6178e-06
6.6178e-06
6.6178e-06
7.24268e-06
7.24268e-06
7.24268e-06
6.63786e-06
6.63786e-06
6.63786e-06
7.28668e-06
7.28668e-06
7.28668e-06
7.78363e-06
7.78363e-06
7.78363e-06
7.80725e-06
7.80725e-06
7.80725e-06
8.72335e-06
8.72335e-06
8.72335e-06
8.4277e-06
8.4277e-06
8.4277e-06
7.87864e-06
7.87864e-06
7.87864e-06
8.37664e-06
8.37664e-06
8.37664e-06
7.85475e-06
7.85475e-06
7.85475e-06
6.3825e-06
6.3825e-06
6.3825e-06
6.98513e-06
6.98513e-06
6.98513e-06
6.40175e-06
6.40175e-06
6.40175e-06
6.0602e-06
6.0602e-06
6.0602e-06
6.5779e-06
6.5779e-06
6.5779e-06
5.52424e-06
5.52424e-06
5.52424e-06
5.50759e-06
5.50759e-06
5.50759e-06
4.97487e-06
4.97487e-06
4.97487e-06
0
0
0
0
0
0
1.0618e-06
1.0618e-06
1.0618e-06
1.06499e-06
1.06499e-06
1.06499e-06
5.51161e-07
5.51161e-07
5.51161e-07
1.0714e-06
1.0714e-06
1.0714e-06
1.07461e-06
1.07461e-06
1.07461e-06
0
0
0
2.05597e-06
2.05597e-06
2.05597e-06
1.57215e-06
1.57215e-06
1.57215e-06
2.08703e-06
2.08703e-06
2.08703e-06
5.80984e-06
5.80984e-06
5.80984e-06
5.89793e-06
5.89793e-06
5.89793e-06
5.37641e-06
5.37641e-06
5.37641e-06
3.22289e-06
3.22289e-06
3.22289e-06
5.84491e-06
5.84491e-06
5.84491e-06
5.86253e-06
5.86253e-06
5.86253e-06
5.36025e-06
5.36025e-06
5.36025e-06
2.03144e-06
2.03144e-06
2.03144e-06
1.03202e-05
1.03202e-05
1.03202e-05
9.5427e-06
9.5427e-06
9.5427e-06
0
0
0
0
0
0
0
0
0
0
0
0
0
0
0
0
0
0
0
0
0
0
0
0
0
0
0
0
0
0
1.04289e-06
1.04289e-06
1.04289e-06
0
0
0
0
0
0
0
0
0
0
0
0
0
0
0
0
0
0
0
0
0
0
0
0
0
0
0
0
0
0
3.57944e-07
3.57944e-07
3.57944e-07
3.57734e-07
3.57734e-07
3.57734e-07
0
0
0
0
0
0
0
0
0
0
0
0
0
0
0
6.49124e-06
6.49124e-06
6.49124e-06
7.08925e-06
7.08925e-06
7.08925e-06
5.46999e-06
5.46999e-06
5.46999e-06
5.04473e-06
5.04473e-06
5.04473e-06
8.18075e-06
8.18075e-06
8.18075e-06
8.66329e-06
8.66329e-06
8.66329e-06
8.1796e-06
8.1796e-06
8.1796e-06
7.08827e-06
7.08827e-06
7.08827e-06
8.17841e-06
8.17841e-06
8.17841e-06
8.66205e-06
8.66205e-06
8.66205e-06
9.27398e-06
9.27398e-06
9.27398e-06
5.04405e-06
5.04405e-06
5.04405e-06
7.08725e-06
7.08725e-06
7.08725e-06
6.49033e-06
6.49033e-06
6.49033e-06
5.46923e-06
5.46923e-06
5.46923e-06
5.04333e-06
5.04333e-06
5.04333e-06
5.04016e-06
5.04016e-06
5.04016e-06
9.53601e-06
9.53601e-06
9.53601e-06
6.81451e-06
6.81451e-06
6.81451e-06
7.45628e-06
7.45628e-06
7.45628e-06
8.05624e-06
8.05624e-06
8.05624e-06
7.98999e-06
7.98999e-06
7.98999e-06
1.25897e-05
1.25897e-05
1.25897e-05
1.25313e-05
1.25313e-05
1.25313e-05
1.2569e-05
1.2569e-05
1.2569e-05
1.2044e-05
1.2044e-05
1.2044e-05
4.23482e-06
4.23482e-06
4.23482e-06
4.22204e-06
4.22204e-06
4.22204e-06
4.76589e-06
4.76589e-06
4.76589e-06
9.49288e-06
9.49288e-06
9.49288e-06
9.00281e-06
9.00281e-06
9.00281e-06
1.28495e-05
1.28495e-05
1.28495e-05
1.28706e-05
1.28706e-05
1.28706e-05
1.28869e-05
1.28869e-05
1.28869e-05
1.29269e-05
1.29269e-05
1.29269e-05
1.29093e-05
1.29093e-05
1.29093e-05
1.21165e-05
1.21165e-05
1.21165e-05
1.26275e-05
1.26275e-05
1.26275e-05
1.26239e-05
1.26239e-05
1.26239e-05
1.26999e-05
1.26999e-05
1.26999e-05
1.26446e-05
1.26446e-05
1.26446e-05
1.26826e-05
1.26826e-05
1.26826e-05
1.26409e-05
1.26409e-05
1.26409e-05
1.26789e-05
1.26789e-05
1.26789e-05
1.32817e-05
1.32817e-05
1.32817e-05
1.33217e-05
1.33217e-05
1.33217e-05
1.33437e-05
1.33437e-05
1.33437e-05
1.34424e-05
1.34424e-05
1.34424e-05
1.109e-05
1.109e-05
1.109e-05
1.16329e-05
1.16329e-05
1.16329e-05
1.31661e-05
1.31661e-05
1.31661e-05
1.32097e-05
1.32097e-05
1.32097e-05
1.31482e-05
1.31482e-05
1.31482e-05
1.31699e-05
1.31699e-05
1.31699e-05
1.23986e-05
1.23986e-05
1.23986e-05
1.23615e-05
1.23615e-05
1.23615e-05
1.23446e-05
1.23446e-05
1.23446e-05
1.20875e-05
1.20875e-05
1.20875e-05
1.04648e-05
1.04648e-05
1.04648e-05
1.02241e-05
1.02241e-05
1.02241e-05
1.68303e-06
1.68303e-06
1.68303e-06
8.03749e-07
8.03749e-07
8.03749e-07
8.01324e-07
8.01324e-07
8.01324e-07
8.08561e-06
8.08561e-06
8.08561e-06
8.03694e-06
8.03694e-06
8.03694e-06
1.05326e-05
1.05326e-05
1.05326e-05
1.05643e-05
1.05643e-05
1.05643e-05
6.23979e-06
6.23979e-06
6.23979e-06
8.48509e-06
8.48509e-06
8.48509e-06
7.37357e-06
7.37357e-06
7.37357e-06
7.89106e-06
7.89106e-06
7.89106e-06
7.77307e-06
7.77307e-06
7.77307e-06
7.28521e-06
7.28521e-06
7.28521e-06
6.67467e-06
6.67467e-06
6.67467e-06
1.22874e-05
1.22874e-05
1.22874e-05
1.22505e-05
1.22505e-05
1.22505e-05
1.23041e-05
1.23041e-05
1.23041e-05
1.21439e-05
1.21439e-05
1.21439e-05
1.16173e-05
1.16173e-05
1.16173e-05
1.21805e-05
1.21805e-05
1.21805e-05
1.16874e-05
1.16874e-05
1.16874e-05
1.11548e-05
1.11548e-05
1.11548e-05
1.11884e-05
1.11884e-05
1.11884e-05
6.25863e-06
6.25863e-06
6.25863e-06
6.79651e-06
6.79651e-06
6.79651e-06
6.77604e-06
6.77604e-06
6.77604e-06
4.14626e-06
4.14626e-06
4.14626e-06
8.48594e-07
8.48594e-07
8.48594e-07
3.28012e-07
3.28012e-07
3.28012e-07
1.86685e-06
1.86685e-06
1.86685e-06
0
0
0
0
0
0
0
0
0
0
0
0
0
0
0
0
0
0
0
0
0
0
0
0
0
0
0
0
0
0
0
0
0
0
0
0
0
0
0
0
0
0
2.4903e-06
2.4903e-06
2.4903e-06
2.99791e-06
2.99791e-06
2.99791e-06
3.51415e-06
3.51415e-06
3.51415e-06
3.52477e-06
3.52477e-06
3.52477e-06
0
0
0
0
0
0
0
0
0
8.64086e-07
8.64086e-07
8.64086e-07
8.69318e-07
8.69318e-07
8.69318e-07
3.33995e-07
3.33995e-07
3.33995e-07
3.35004e-07
3.35004e-07
3.35004e-07
1.91824e-06
1.91824e-06
1.91824e-06
1.39166e-06
1.39166e-06
1.39166e-06
1.38746e-06
1.38746e-06
1.38746e-06
1.90669e-06
1.90669e-06
1.90669e-06
2.53579e-06
2.53579e-06
2.53579e-06
2.54346e-06
2.54346e-06
2.54346e-06
3.5461e-06
3.5461e-06
3.5461e-06
4.15879e-06
4.15879e-06
4.15879e-06
0
0
0
0
0
0
0
0
0
0
0
0
0
0
0
0
0
0
0
0
0
0
0
0
0
0
0
0
0
0
0
0
0
0
0
0
0
0
0
0
0
0
0
0
0
0
0
0
0
0
0
0
0
0
0
0
0
0
0
0
0
0
0
0
0
0
0
0
0
0
0
0
0
0
0
0
0
0
0
0
0
0
0
0
0
0
0
0
0
0
0
0
0
0
0
0
0
0
0
0
0
0
0
0
0
0
0
0
5.00498e-06
5.00498e-06
5.00498e-06
5.55773e-06
5.55773e-06
5.55773e-06
5.02012e-06
5.02012e-06
5.02012e-06
0
0
0
0
0
0
0
0
0
0
0
0
0
0
0
0
0
0
0
0
0
0
0
0
1.17922e-05
1.17922e-05
1.17922e-05
1.37535e-05
1.37535e-05
1.37535e-05
1.3777e-05
1.3777e-05
1.3777e-05
8.96196e-06
8.96196e-06
8.96196e-06
1.13624e-05
1.13624e-05
1.13624e-05
1.13963e-05
1.13963e-05
1.13963e-05
7.71532e-06
7.71532e-06
7.71532e-06
7.76224e-06
7.76224e-06
7.76224e-06
8.18733e-06
8.18733e-06
8.18733e-06
7.90968e-06
7.90968e-06
7.90968e-06
8.33665e-06
8.33665e-06
8.33665e-06
8.00554e-06
8.00554e-06
8.00554e-06
7.50674e-06
7.50674e-06
7.50674e-06
8.41237e-06
8.41237e-06
8.41237e-06
8.1271e-06
8.1271e-06
8.1271e-06
7.09116e-06
7.09116e-06
7.09116e-06
7.59777e-06
7.59777e-06
7.59777e-06
8.20102e-06
8.20102e-06
8.20102e-06
8.48886e-06
8.48886e-06
8.48886e-06
8.15165e-06
8.15165e-06
8.15165e-06
7.66685e-06
7.66685e-06
7.66685e-06
7.64375e-06
7.64375e-06
7.64375e-06
7.11258e-06
7.11258e-06
7.11258e-06
6.49894e-06
6.49894e-06
6.49894e-06
5.47446e-06
5.47446e-06
5.47446e-06
4.95989e-06
4.95989e-06
4.95989e-06
7.17728e-06
7.17728e-06
7.17728e-06
6.55805e-06
6.55805e-06
6.55805e-06
7.15564e-06
7.15564e-06
7.15564e-06
6.51857e-06
6.51857e-06
6.51857e-06
6.0237e-06
6.0237e-06
6.0237e-06
6.00555e-06
6.00555e-06
6.00555e-06
6.45986e-06
6.45986e-06
6.45986e-06
6.44043e-06
6.44043e-06
6.44043e-06
5.91572e-06
5.91572e-06
5.91572e-06
5.40887e-06
5.40887e-06
5.40887e-06
0
0
0
0
0
0
0
0
0
0
0
0
0
0
0
0
0
0
0
0
0
0
0
0
0
0
0
0
0
0
2.09331e-06
2.09331e-06
2.09331e-06
2.10591e-06
2.10591e-06
2.10591e-06
1.5816e-06
1.5816e-06
1.5816e-06
1.58636e-06
1.58636e-06
1.58636e-06
2.69628e-06
2.69628e-06
2.69628e-06
2.70439e-06
2.70439e-06
2.70439e-06
1.05546e-06
1.05546e-06
1.05546e-06
1.56744e-06
1.56744e-06
1.56744e-06
5.38111e-07
5.38111e-07
5.38111e-07
1.55341e-06
1.55341e-06
1.55341e-06
1.55807e-06
1.55807e-06
1.55807e-06
1.0523e-06
1.0523e-06
1.0523e-06
1.04602e-06
1.04602e-06
1.04602e-06
5.36502e-07
5.36502e-07
5.36502e-07
2.03755e-06
2.03755e-06
2.03755e-06
1.5395e-06
1.5395e-06
1.5395e-06
1.54412e-06
1.54412e-06
1.54412e-06
2.04981e-06
2.04981e-06
2.04981e-06
2.5728e-06
2.5728e-06
2.5728e-06
3.13694e-06
3.13694e-06
3.13694e-06
2.54134e-06
2.54134e-06
2.54134e-06
2.62265e-06
2.62265e-06
2.62265e-06
4.88575e-06
4.88575e-06
4.88575e-06
3.7415e-06
3.7415e-06
3.7415e-06
4.87107e-06
4.87107e-06
4.87107e-06
4.24867e-06
4.24867e-06
4.24867e-06
5.31209e-06
5.31209e-06
5.31209e-06
5.3281e-06
5.3281e-06
5.3281e-06
4.21052e-06
4.21052e-06
4.21052e-06
4.82731e-06
4.82731e-06
4.82731e-06
4.23591e-06
4.23591e-06
4.23591e-06
4.84185e-06
4.84185e-06
4.84185e-06
3.12754e-06
3.12754e-06
3.12754e-06
3.61986e-06
3.61986e-06
3.61986e-06
2.52613e-06
2.52613e-06
2.52613e-06
4.12286e-06
4.12286e-06
4.12286e-06
4.61337e-06
4.61337e-06
4.61337e-06
3.60899e-06
3.60899e-06
3.60899e-06
0
0
0
1.53029e-06
1.53029e-06
1.53029e-06
1.52571e-06
1.52571e-06
1.52571e-06
1.02738e-06
1.02738e-06
1.02738e-06
5.26949e-07
5.26949e-07
5.26949e-07
1.00183e-05
1.00183e-05
1.00183e-05
8.72922e-06
8.72922e-06
8.72922e-06
9.22607e-06
9.22607e-06
9.22607e-06
8.13961e-06
8.13961e-06
8.13961e-06
8.29909e-06
8.29909e-06
8.29909e-06
7.63415e-06
7.63415e-06
7.63415e-06
9.82743e-06
9.82743e-06
9.82743e-06
9.28064e-06
9.28064e-06
9.28064e-06
9.47069e-06
9.47069e-06
9.47069e-06
9.03813e-06
9.03813e-06
9.03813e-06
8.7094e-06
8.7094e-06
8.7094e-06
8.54792e-06
8.54792e-06
8.54792e-06
7.42898e-06
7.42898e-06
7.42898e-06
7.94205e-06
7.94205e-06
7.94205e-06
0
0
0
0
0
0
0
0
0
0
0
0
5.42966e-07
5.42966e-07
5.42966e-07
5.41343e-07
5.41343e-07
5.41343e-07
0
0
0
5.33299e-07
5.33299e-07
5.33299e-07
0
0
0
0
0
0
0
0
0
0
0
0
0
0
0
0
0
0
0
0
0
0
0
0
0
0
0
0
0
0
0
0
0
0
0
0
0
0
0
0
0
0
0
0
0
0
0
0
0
0
0
0
0
0
2.08768e-06
2.08768e-06
2.08768e-06
3.23515e-06
3.23515e-06
3.23515e-06
2.0873e-06
2.0873e-06
2.0873e-06
1.4113e-06
1.4113e-06
1.4113e-06
0
0
0
0
0
0
1.41104e-06
1.41104e-06
1.41104e-06
3.57876e-07
3.57876e-07
3.57876e-07
3.57806e-07
3.57806e-07
3.57806e-07
0
0
0
0
0
0
0
0
0
0
0
0
0
0
0
0
0
0
0
0
0
0
0
0
0
0
0
0
0
0
0
0
0
0
0
0
0
0
0
0
0
0
0
0
0
0
0
0
0
0
0
0
0
0
0
0
0
0
0
0
0
0
0
3.10695e-07
3.10695e-07
3.10695e-07
3.11635e-07
3.11635e-07
3.11635e-07
0
0
0
0
0
0
0
0
0
0
0
0
0
0
0
0
0
0
0
0
0
0
0
0
0
0
0
0
0
0
0
0
0
6.39628e-06
6.39628e-06
6.39628e-06
6.49374e-06
6.49374e-06
6.49374e-06
8.66448e-06
8.66448e-06
8.66448e-06
9.30944e-06
9.30944e-06
9.30944e-06
9.27663e-06
9.27663e-06
9.27663e-06
3.23458e-06
3.23458e-06
3.23458e-06
3.71075e-06
3.71075e-06
3.71075e-06
1.51658e-06
1.51658e-06
1.51658e-06
1.0243e-06
1.0243e-06
1.0243e-06
7.09193e-06
7.09193e-06
7.09193e-06
5.39068e-06
5.39068e-06
5.39068e-06
0
0
0
3.23938e-06
3.23938e-06
3.23938e-06
6.95758e-06
6.95758e-06
6.95758e-06
0
0
0
0
0
0
3.58245e-07
3.58245e-07
3.58245e-07
0
0
0
0
0
0
0
0
0
5.3887e-06
5.3887e-06
5.3887e-06
9.67047e-06
9.67047e-06
9.67047e-06
9.30682e-06
9.30682e-06
9.30682e-06
9.30816e-06
9.30816e-06
9.30816e-06
9.27534e-06
9.27534e-06
9.27534e-06
3.23724e-06
3.23724e-06
3.23724e-06
1.41245e-06
1.41245e-06
1.41245e-06
2.08903e-06
2.08903e-06
2.08903e-06
4.94396e-06
4.94396e-06
4.94396e-06
5.38797e-06
5.38797e-06
5.38797e-06
4.94465e-06
4.94465e-06
4.94465e-06
3.71374e-06
3.71374e-06
3.71374e-06
3.58009e-07
3.58009e-07
3.58009e-07
1.41155e-06
1.41155e-06
1.41155e-06
5.03929e-06
5.03929e-06
5.03929e-06
5.46492e-06
5.46492e-06
5.46492e-06
6.48938e-06
6.48938e-06
6.48938e-06
5.04258e-06
5.04258e-06
5.04258e-06
5.46843e-06
5.46843e-06
5.46843e-06
5.041e-06
5.041e-06
5.041e-06
5.46585e-06
5.46585e-06
5.46585e-06
6.48628e-06
6.48628e-06
6.48628e-06
7.08392e-06
7.08392e-06
7.08392e-06
6.88593e-06
6.88593e-06
6.88593e-06
6.29744e-06
6.29744e-06
6.29744e-06
1.03407e-05
1.03407e-05
1.03407e-05
9.0255e-06
9.0255e-06
9.0255e-06
9.43737e-06
9.43737e-06
9.43737e-06
8.70661e-06
8.70661e-06
8.70661e-06
9.29346e-06
9.29346e-06
9.29346e-06
9.13351e-06
9.13351e-06
9.13351e-06
8.5754e-06
8.5754e-06
8.5754e-06
8.14097e-06
8.14097e-06
8.14097e-06
7.4723e-06
7.4723e-06
7.4723e-06
1.05819e-05
1.05819e-05
1.05819e-05
1.03005e-05
1.03005e-05
1.03005e-05
1.14821e-05
1.14821e-05
1.14821e-05
1.14802e-05
1.14802e-05
1.14802e-05
1.14993e-05
1.14993e-05
1.14993e-05
1.15011e-05
1.15011e-05
1.15011e-05
1.14881e-05
1.14881e-05
1.14881e-05
1.25143e-05
1.25143e-05
1.25143e-05
1.20079e-05
1.20079e-05
1.20079e-05
9.96105e-06
9.96105e-06
9.96105e-06
9.93112e-06
9.93112e-06
9.93112e-06
9.46435e-06
9.46435e-06
9.46435e-06
1.17751e-05
1.17751e-05
1.17751e-05
1.05678e-05
1.05678e-05
1.05678e-05
1.00514e-05
1.00514e-05
1.00514e-05
1.00212e-05
1.00212e-05
1.00212e-05
1.1052e-05
1.1052e-05
1.1052e-05
1.05996e-05
1.05996e-05
1.05996e-05
1.01425e-05
1.01425e-05
1.01425e-05
1.0112e-05
1.0112e-05
1.0112e-05
1.06636e-05
1.06636e-05
1.06636e-05
1.11522e-05
1.11522e-05
1.11522e-05
1.11187e-05
1.11187e-05
1.11187e-05
9.55022e-06
9.55022e-06
9.55022e-06
9.02996e-06
9.02996e-06
9.02996e-06
1.02038e-05
1.02038e-05
1.02038e-05
9.57903e-06
9.57903e-06
9.57903e-06
9.08453e-06
9.08453e-06
9.08453e-06
7.41816e-06
7.41816e-06
7.41816e-06
7.91488e-06
7.91488e-06
7.91488e-06
8.53637e-06
8.53637e-06
8.53637e-06
8.56213e-06
8.56213e-06
8.56213e-06
1.28533e-05
1.28533e-05
1.28533e-05
1.28147e-05
1.28147e-05
1.28147e-05
1.02964e-05
1.02964e-05
1.02964e-05
1.02345e-05
1.02345e-05
1.02345e-05
1.29307e-05
1.29307e-05
1.29307e-05
1.18105e-05
1.18105e-05
1.18105e-05
1.12195e-05
1.12195e-05
1.12195e-05
1.35869e-05
1.35869e-05
1.35869e-05
1.34647e-05
1.34647e-05
1.34647e-05
1.35053e-05
1.35053e-05
1.35053e-05
1.35641e-05
1.35641e-05
1.35641e-05
1.35234e-05
1.35234e-05
1.35234e-05
1.34814e-05
1.34814e-05
1.34814e-05
1.36035e-05
1.36035e-05
1.36035e-05
1.28296e-05
1.28296e-05
1.28296e-05
1.29075e-05
1.29075e-05
1.29075e-05
1.23505e-05
1.23505e-05
1.23505e-05
1.29466e-05
1.29466e-05
1.29466e-05
1.33296e-05
1.33296e-05
1.33296e-05
1.32895e-05
1.32895e-05
1.32895e-05
1.33477e-05
1.33477e-05
1.33477e-05
1.33256e-05
1.33256e-05
1.33256e-05
1.32058e-05
1.32058e-05
1.32058e-05
1.32237e-05
1.32237e-05
1.32237e-05
1.32636e-05
1.32636e-05
1.32636e-05
1.32856e-05
1.32856e-05
1.32856e-05
1.32276e-05
1.32276e-05
1.32276e-05
1.32675e-05
1.32675e-05
1.32675e-05
1.20984e-05
1.20984e-05
1.20984e-05
1.25994e-05
1.25994e-05
1.25994e-05
1.15628e-05
1.15628e-05
1.15628e-05
1.15279e-05
1.15279e-05
1.15279e-05
1.22084e-05
1.22084e-05
1.22084e-05
1.21349e-05
1.21349e-05
1.21349e-05
1.27139e-05
1.27139e-05
1.27139e-05
1.26756e-05
1.26756e-05
1.26756e-05
1.10878e-05
1.10878e-05
1.10878e-05
1.15823e-05
1.15823e-05
1.15823e-05
1.2071e-05
1.2071e-05
1.2071e-05
1.08529e-05
1.08529e-05
1.08529e-05
1.21405e-05
1.21405e-05
1.21405e-05
1.21771e-05
1.21771e-05
1.21771e-05
9.41432e-06
9.41432e-06
9.41432e-06
9.84658e-06
9.84658e-06
9.84658e-06
1.03635e-05
1.03635e-05
1.03635e-05
1.04327e-05
1.04327e-05
1.04327e-05
2.08691e-06
2.08691e-06
2.08691e-06
1.41077e-06
1.41077e-06
1.41077e-06
1.41049e-06
1.41049e-06
1.41049e-06
2.08428e-06
2.08428e-06
2.08428e-06
2.08651e-06
2.08651e-06
2.08651e-06
3.23272e-06
3.23272e-06
3.23272e-06
3.70867e-06
3.70867e-06
3.70867e-06
3.23336e-06
3.23336e-06
3.23336e-06
3.92241e-06
3.92241e-06
3.92241e-06
5.67591e-06
5.67591e-06
5.67591e-06
1.01572e-05
1.01572e-05
1.01572e-05
1.03992e-05
1.03992e-05
1.03992e-05
1.60339e-06
1.60339e-06
1.60339e-06
1.76815e-06
1.76815e-06
1.76815e-06
5.30705e-06
5.30705e-06
5.30705e-06
6.84545e-06
6.84545e-06
6.84545e-06
5.9649e-06
5.9649e-06
5.9649e-06
5.27596e-06
5.27596e-06
5.27596e-06
6.28905e-06
6.28905e-06
6.28905e-06
6.90265e-06
6.90265e-06
6.90265e-06
4.50932e-06
4.50932e-06
4.50932e-06
4.58223e-06
4.58223e-06
4.58223e-06
3.81052e-06
3.81052e-06
3.81052e-06
2.7411e-06
2.7411e-06
2.7411e-06
2.53614e-06
2.53614e-06
2.53614e-06
3.53487e-06
3.53487e-06
3.53487e-06
6.07271e-06
6.07271e-06
6.07271e-06
4.95767e-06
4.95767e-06
4.95767e-06
5.57148e-06
5.57148e-06
5.57148e-06
5.55469e-06
5.55469e-06
5.55469e-06
2.93529e-06
2.93529e-06
2.93529e-06
3.43038e-06
3.43038e-06
3.43038e-06
3.42004e-06
3.42004e-06
3.42004e-06
2.91763e-06
2.91763e-06
2.91763e-06
4.91295e-06
4.91295e-06
4.91295e-06
4.94272e-06
4.94272e-06
4.94272e-06
5.5046e-06
5.5046e-06
5.5046e-06
5.52125e-06
5.52125e-06
5.52125e-06
3.9628e-06
3.9628e-06
3.9628e-06
4.44631e-06
4.44631e-06
4.44631e-06
4.4329e-06
4.4329e-06
4.4329e-06
3.93894e-06
3.93894e-06
3.93894e-06
3.97479e-06
3.97479e-06
3.97479e-06
4.47324e-06
4.47324e-06
4.47324e-06
2.90884e-06
2.90884e-06
2.90884e-06
2.89133e-06
2.89133e-06
2.89133e-06
3.39946e-06
3.39946e-06
3.39946e-06
3.38922e-06
3.38922e-06
3.38922e-06
1.01013e-05
1.01013e-05
1.01013e-05
9.07356e-06
9.07356e-06
9.07356e-06
9.44201e-06
9.44201e-06
9.44201e-06
9.78604e-06
9.78604e-06
9.78604e-06
8.01271e-06
8.01271e-06
8.01271e-06
8.58262e-06
8.58262e-06
8.58262e-06
8.86649e-06
8.86649e-06
8.86649e-06
7.49679e-06
7.49679e-06