<VTKFile type="UnstructuredGrid" version="1.0">
<UnstructuredGrid>
<Piece NumberOfPoints="10830" NumberOfCells="3610">
<Points>
<DataArray type="Float64" NumberOfComponents="3" format="ascii">
2.19217 2.20649 15.7007
2.19928 2.19938 15.675
2.19928 2.19938 15.7265
2.19928 2.19938 16.2301
2.19928 2.19938 16.281
2.19129 2.20737 16.2555
2.19928 2.19938 16.2301
2.19129 2.20737 16.2555
2.17928 2.21938 16.2301
1.30559 3.09307 16.7026
1.31816 3.0805 16.72
1.28831 3.11035 16.72
1.28831 3.11035 16.72
1.28831 3.11035 16.6898
1.30559 3.09307 16.7026
2.19928 2.19938 16.2301
2.17928 2.21938 16.2301
2.1913 2.20736 16.2047
1.29441 3.10425 15.9518
1.28831 3.11035 15.977
1.28831 3.11035 15.9266
2.19132 2.20734 15.9519
2.19928 2.19938 15.9771
2.17929 2.21937 15.9771
2.19117 2.20749 15.8513
2.19928 2.19938 15.8263
2.19928 2.19938 15.8764
2.17929 2.21937 15.9771
2.19928 2.19938 15.9771
2.19133 2.20733 16.0023
2.19928 2.19938 15.9771
2.19928 2.19938 16.0275
2.19133 2.20733 16.0023
2.17929 2.21937 16.0276
2.19133 2.20733 16.0023
2.19928 2.19938 16.0275
2.17928 2.21938 16.1793
2.1913 2.20736 16.2047
2.16946 2.22921 16.2047
2.16946 2.22921 16.2047
2.1913 2.20736 16.2047
2.17928 2.21938 16.2301
2.16946 2.22921 16.2047
2.15842 2.24024 16.1793
2.17928 2.21938 16.1793
2.16946 2.22921 16.2047
2.17928 2.21938 16.2301
2.15841 2.24025 16.2301
2.19928 2.19938 16.078
2.19928 2.19938 16.1286
2.19132 2.20734 16.1033
2.19132 2.20734 16.1033
2.17929 2.21937 16.1286
2.16947 2.22919 16.1033
2.19928 2.19938 16.1286
2.17929 2.21937 16.1286
2.19132 2.20734 16.1033
2.19928 2.19938 16.1793
2.1913 2.20736 16.2047
2.17928 2.21938 16.1793
2.19928 2.19938 16.2301
2.1913 2.20736 16.2047
2.19928 2.19938 16.1793
2.17913 2.21954 15.8263
2.19928 2.19938 15.8263
2.19117 2.20749 15.8513
2.17927 2.21939 16.281
2.19129 2.20737 16.2555
2.19928 2.19938 16.281
1.8956 2.50306 16.4607
1.90602 2.49264 16.435
1.91643 2.48223 16.4607
1.28831 3.11035 15.675
1.30792 3.09074 15.675
1.29529 3.10337 15.6997
1.34771 3.05096 15.9266
1.32717 3.07149 15.9266
1.33709 3.06157 15.9014
1.30704 3.09162 15.9266
1.32717 3.07149 15.9266
1.31607 3.08259 15.9518
1.30704 3.09162 15.9266
1.29441 3.10425 15.9518
1.28831 3.11035 15.9266
1.31607 3.08259 15.9518
1.29441 3.10425 15.9518
1.30704 3.09162 15.9266
1.2945 3.10417 16.1539
1.28831 3.11035 16.1793
1.28831 3.11035 16.1286
1.3071 3.09157 16.1793
1.31615 3.08252 16.1539
1.32724 3.07142 16.1793
1.28831 3.11035 16.1793
1.2945 3.10417 16.1539
1.3071 3.09157 16.1793
1.3071 3.09157 16.1793
1.2945 3.10417 16.1539
1.31615 3.08252 16.1539
1.30708 3.09158 16.1286
1.32723 3.07143 16.1286
1.31615 3.08252 16.1539
1.30708 3.09158 16.1286
1.2945 3.10417 16.1539
1.28831 3.11035 16.1286
1.31615 3.08252 16.1539
1.2945 3.10417 16.1539
1.30708 3.09158 16.1286
1.28831 3.11035 15.977
1.29441 3.10425 15.9518
1.30705 3.09161 15.977
1.30705 3.09161 15.977
1.29441 3.10425 15.9518
1.31607 3.08259 15.9518
1.32724 3.07142 16.1793
1.31615 3.08252 16.1539
1.33718 3.06148 16.1539
1.31615 3.08252 16.1539
1.32723 3.07143 16.1286
1.33718 3.06148 16.1539
1.49256 2.90611 16.1287
1.50289 2.89577 16.154
1.48223 2.91643 16.154
1.48223 2.91643 16.154
1.50289 2.89577 16.154
1.49257 2.90609 16.1794
1.49257 2.90609 16.1794
1.50289 2.89577 16.154
1.51323 2.88543 16.1794
1.88521 2.51346 16.435
1.90602 2.49264 16.435
1.8956 2.50306 16.4607
2.19127 2.20739 15.9016
2.19928 2.19938 15.8764
2.19928 2.19938 15.9267
2.19928 2.19938 15.9771
2.19132 2.20734 15.9519
2.19928 2.19938 15.9267
2.11618 2.28248 16.0781
2.09503 2.30363 16.0781
2.10562 2.29304 16.0528
2.17929 2.21937 16.0781
2.19132 2.20734 16.1033
2.16947 2.22919 16.1033
2.19928 2.19938 16.078
2.19132 2.20734 16.1033
2.17929 2.21937 16.0781
2.16947 2.22919 16.1033
2.17929 2.21937 16.1286
2.15843 2.24024 16.1286
2.19131 2.20735 16.1539
2.17929 2.21937 16.1286
2.19928 2.19938 16.1286
2.19928 2.19938 16.1286
2.19928 2.19938 16.1793
2.19131 2.20735 16.1539
2.19131 2.20735 16.1539
2.19928 2.19938 16.1793
2.17928 2.21938 16.1793
2.1693 2.22936 15.8514
2.17913 2.21954 15.8263
2.19117 2.20749 15.8513
2.19127 2.20739 15.9016
2.19928 2.19938 15.9267
2.17927 2.21939 15.9267
2.17927 2.21939 15.9267
2.19928 2.19938 15.9267
2.19132 2.20734 15.9519
2.10553 2.29313 15.9016
2.09491 2.30375 15.8764
2.11605 2.28261 15.8764
2.1372 2.26147 15.8765
2.12662 2.27204 15.8513
2.14787 2.25079 15.8513
2.1372 2.26147 15.8765
2.11605 2.28261 15.8764
2.12662 2.27204 15.8513
2.16946 2.2292 15.9519
2.19132 2.20734 15.9519
2.17929 2.21937 15.9771
2.16946 2.2292 15.9519
2.17927 2.21939 15.9267
2.19132 2.20734 15.9519
2.16945 2.22921 16.2556
2.17928 2.21938 16.2301
2.19129 2.20737 16.2555
2.19129 2.20737 16.2555
2.17927 2.21939 16.281
2.16945 2.22921 16.2556
2.15841 2.24025 16.2301
2.17928 2.21938 16.2301
2.16945 2.22921 16.2556
2.16944 2.22922 16.4091
2.14804 2.25062 16.4091
2.15841 2.24025 16.3834
2.14804 2.25063 16.3577
2.16944 2.22922 16.3577
2.15841 2.24025 16.3834
2.19128 2.20738 16.3065
2.17927 2.21939 16.281
2.19928 2.19938 16.281
2.16944 2.22922 16.3066
2.17927 2.21939 16.281
2.19128 2.20738 16.3065
1.93725 2.46141 16.5123
1.94766 2.451 16.5382
1.92679 2.47187 16.5382
2.05276 2.34591 16.3834
2.06331 2.33535 16.3578
2.07386 2.3248 16.3834
2.07386 2.3248 16.3834
2.06331 2.33535 16.3578
2.08443 2.31423 16.3578
2.15841 2.24026 16.3321
2.14804 2.25062 16.3066
2.16944 2.22922 16.3066
2.15841 2.24026 16.3321
2.16944 2.22922 16.3577
2.14804 2.25063 16.3577
2.04222 2.35644 16.3578
2.06331 2.33535 16.3578
2.05276 2.34591 16.3834
1.9897 2.40896 16.1287
1.96874 2.42992 16.1287
1.97921 2.41945 16.1034
1.93736 2.4613 16.1034
1.92692 2.47174 16.1287
1.91649 2.48217 16.1034
1.94781 2.45085 16.1287
1.92692 2.47174 16.1287
1.93736 2.4613 16.1034
1.92691 2.47175 16.0277
1.9478 2.45086 16.0277
1.93736 2.46131 16.0529
1.93736 2.46131 16.0529
1.91648 2.48218 16.0529
1.92691 2.47175 16.0277
1.92691 2.47175 16.0277
1.91648 2.48218 16.0529
1.90605 2.49261 16.0276
1.93736 2.46131 16.0529
1.9478 2.45086 16.0277
1.95826 2.4404 16.0529
1.96871 2.42995 15.9772
1.9792 2.41946 16.0024
1.95825 2.44041 16.0024
1.95825 2.44041 16.0024
1.94778 2.45088 15.9772
1.96871 2.42995 15.9772
1.8126 2.58607 16.1541
1.82295 2.57571 16.1287
1.83332 2.56534 16.1541
1.82295 2.57571 16.1287
1.84369 2.55497 16.1287
1.83332 2.56534 16.1541
1.92692 2.47174 16.0782
1.91648 2.48218 16.0529
1.93736 2.46131 16.0529
1.92692 2.47174 16.0782
1.93736 2.4613 16.1034
1.91649 2.48217 16.1034
1.91649 2.48217 16.1034
1.89565 2.50301 16.1034
1.90606 2.4926 16.0782
1.90606 2.4926 16.0782
1.92692 2.47174 16.0782
1.91649 2.48217 16.1034
1.91648 2.48218 16.0529
1.92692 2.47174 16.0782
1.90606 2.4926 16.0782
1.90605 2.49261 16.0276
1.88523 2.51343 16.0276
1.89563 2.50303 16.0024
1.88521 2.51345 15.9772
1.90603 2.49263 15.9772
1.89563 2.50303 16.0024
1.51322 2.88545 16.1287
1.50289 2.89577 16.154
1.49256 2.90611 16.1287
1.49256 2.90611 16.1287
1.50288 2.89578 16.1034
1.51322 2.88545 16.1287
1.29442 3.10424 15.7499
1.28831 3.11035 15.7751
1.28831 3.11035 15.7244
1.28831 3.11035 15.675
1.29529 3.10337 15.6997
1.28831 3.11035 15.7244
1.307 3.09167 15.8257
1.28831 3.11035 15.8257
1.29431 3.10435 15.8004
1.28831 3.11035 15.8257
1.28831 3.11035 15.7751
1.29431 3.10435 15.8004
2.19928 2.19938 15.675
2.19217 2.20649 15.7007
2.18013 2.21854 15.675
1.28831 3.11035 15.9266
1.28831 3.11035 15.8761
1.29438 3.10428 15.9014
1.29438 3.10428 15.9014
1.30704 3.09162 15.9266
1.28831 3.11035 15.9266
1.30702 3.09164 15.8761
1.29438 3.10428 15.9014
1.28831 3.11035 15.8761
1.30702 3.09164 15.8761
1.31601 3.08265 15.8509
1.32714 3.07152 15.8762
1.31605 3.08262 15.9014
1.33709 3.06157 15.9014
1.32717 3.07149 15.9266
1.32717 3.07149 15.9266
1.30704 3.09162 15.9266
1.31605 3.08262 15.9014
1.32714 3.07152 15.8762
1.33709 3.06157 15.9014
1.31605 3.08262 15.9014
1.31605 3.08262 15.9014
1.30702 3.09164 15.8761
1.32714 3.07152 15.8762
1.30704 3.09162 15.9266
1.29438 3.10428 15.9014
1.31605 3.08262 15.9014
1.29438 3.10428 15.9014
1.30702 3.09164 15.8761
1.31605 3.08262 15.9014
1.29435 3.10432 15.8509
1.28831 3.11035 15.8761
1.28831 3.11035 15.8257
1.29435 3.10432 15.8509
1.28831 3.11035 15.8257
1.307 3.09167 15.8257
1.307 3.09167 15.8257
1.31601 3.08265 15.8509
1.29435 3.10432 15.8509
1.29435 3.10432 15.8509
1.30702 3.09164 15.8761
1.28831 3.11035 15.8761
1.31601 3.08265 15.8509
1.30702 3.09164 15.8761
1.29435 3.10432 15.8509
1.33717 3.06149 16.1033
1.32723 3.07143 16.1286
1.31613 3.08254 16.1033
1.32723 3.07143 16.1286
1.30708 3.09158 16.1286
1.31613 3.08254 16.1033
1.31613 3.08254 16.1033
1.32722 3.07145 16.078
1.33717 3.06149 16.1033
1.33711 3.06155 15.9518
1.32717 3.07149 15.9266
1.34771 3.05096 15.9266
1.31607 3.08259 15.9518
1.32717 3.07149 15.9266
1.33711 3.06155 15.9518
1.35794 3.04072 15.9518
1.33711 3.06155 15.9518
1.34771 3.05096 15.9266
1.34773 3.05094 15.977
1.33711 3.06155 15.9518
1.35794 3.04072 15.9518
1.34773 3.05094 15.977
1.35794 3.04072 15.9518
1.36839 3.03027 15.977
1.50287 2.89579 16.0528
1.51321 2.88546 16.0781
1.49255 2.90612 16.0781
1.49255 2.90612 16.0781
1.51321 2.88546 16.0781
1.50288 2.89578 16.1034
1.42017 2.9785 16.1033
1.44086 2.9578 16.1033
1.43052 2.96814 16.1286
1.43051 2.96815 16.078
1.44086 2.9578 16.1033
1.42017 2.9785 16.1033
1.44085 2.95782 16.0528
1.4305 2.96817 16.0275
1.45119 2.94748 16.0275
1.43051 2.96815 16.078
1.42015 2.97851 16.0528
1.44085 2.95782 16.0528
1.44085 2.95782 16.0528
1.42015 2.97851 16.0528
1.4305 2.96817 16.0275
1.44087 2.95779 16.154
1.46156 2.9371 16.154
1.45123 2.94744 16.1793
1.3995 2.99917 16.2047
1.40985 2.98882 16.1793
1.4202 2.97846 16.2047
1.40983 2.98883 16.1286
1.42017 2.9785 16.1033
1.43052 2.96814 16.1286
1.39946 2.9992 16.1033
1.42017 2.9785 16.1033
1.40983 2.98883 16.1286
1.32724 3.07142 16.1793
1.33718 3.06148 16.1539
1.34779 3.05087 16.1793
1.33717 3.06149 16.1033
1.32722 3.07145 16.078
1.34776 3.0509 16.078
1.34776 3.0509 16.078
1.35799 3.04067 16.1033
1.33717 3.06149 16.1033
1.38911 3.00955 16.078
1.39946 2.9992 16.1033
1.37874 3.01992 16.1033
1.34777 3.05089 16.1286
[...]
<PointData Scalars="View Factor" >
<DataArray type="Float64" Name="View Factor" NumberOfComponents="1" format="ascii">
3.8473e-05
3.8473e-05
3.8473e-05
7.67688e-05
7.67688e-05
7.67688e-05
8.01248e-05
8.01248e-05
8.01248e-05
0.000698936
0.000698936
0.000698936
0.000707497
0.000707497
0.000707497
8.56156e-05
8.56156e-05
8.56156e-05
0.000975849
0.000975849
0.000975849
0.000196061
0.000196061
0.000196061
3.62728e-05
3.62728e-05
3.62728e-05
0.000213618
0.000213618
0.000213618
0.000225991
0.000225991
0.000225991
0.000223967
0.000223967
0.000223967
0.000107469
0.000107469
0.000107469
0.000100358
0.000100358
0.000100358
0.000176062
0.000176062
0.000176062
0.000165845
0.000165845
0.000165845
0.000150249
0.000150249
0.000150249
0.000155262
0.000155262
0.000155262
0.000135796
0.000135796
0.000135796
9.84891e-05
9.84891e-05
9.84891e-05
9.31074e-05
9.31074e-05
9.31074e-05
3.02573e-05
3.02573e-05
3.02573e-05
7.09202e-05
7.09202e-05
7.09202e-05
2.4812e-05
2.4812e-05
2.4812e-05
0.00109402
0.00109402
0.00109402
0.000948505
0.000948505
0.000948505
0.000961314
0.000961314
0.000961314
0.000978168
0.000978168
0.000978168
0.000967229
0.000967229
0.000967229
0.000893617
0.000893617
0.000893617
0.000867483
0.000867483
0.000867483
0.000882642
0.000882642
0.000882642
0.000879223
0.000879223
0.000879223
0.000880194
0.000880194
0.000880194
0.000895643
0.000895643
0.000895643
0.000885658
0.000885658
0.000885658
0.000963781
0.000963781
0.000963781
0.000960117
0.000960117
0.000960117
0.000861931
0.000861931
0.000861931
0.000868245
0.000868245
0.000868245
0.000684516
0.000684516
0.000684516
0.000679365
0.000679365
0.000679365
0.000652049
0.000652049
0.000652049
2.60034e-05
2.60034e-05
2.60034e-05
9.95468e-05
9.95468e-05
9.95468e-05
0.000177374
0.000177374
0.000177374
0.000195683
0.000195683
0.000195683
0.000169012
0.000169012
0.000169012
0.000163401
0.000163401
0.000163401
0.000204252
0.000204252
0.000204252
0.000124712
0.000124712
0.000124712
0.000116182
0.000116182
0.000116182
0.000106148
0.000106148
0.000106148
4.88246e-05
4.88246e-05
4.88246e-05
0.000126632
0.000126632
0.000126632
0.00015296
0.00015296
0.00015296
0.000125639
0.000125639
0.000125639
0.000133627
0.000133627
0.000133627
0.000132971
0.000132971
0.000132971
0.00020198
0.00020198
0.00020198
0.000180782
0.000180782
0.000180782
8.8091e-05
8.8091e-05
8.8091e-05
8.25874e-05
8.25874e-05
8.25874e-05
0.000161363
0.000161363
0.000161363
0.000126823
0.000126823
0.000126823
0.000131285
0.000131285
0.000131285
6.71429e-05
6.71429e-05
6.71429e-05
7.27815e-05
7.27815e-05
7.27815e-05
1.7591e-05
1.7591e-05
1.7591e-05
3.07369e-05
3.07369e-05
3.07369e-05
3.1903e-05
3.1903e-05
3.1903e-05
0.000139181
0.000139181
0.000139181
0.000133803
0.000133803
0.000133803
3.19447e-05
3.19447e-05
3.19447e-05
0.000115238
0.000115238
0.000115238
0.000128957
0.000128957
0.000128957
0.000120078
0.000120078
0.000120078
0.00020964
0.00020964
0.00020964
0.000203328
0.000203328
0.000203328
0.000217201
0.000217201
0.000217201
0.000196244
0.000196244
0.000196244
0.000217859
0.000217859
0.000217859
0.000213278
0.000213278
0.000213278
0.000122166
0.000122166
0.000122166
0.000126851
0.000126851
0.000126851
0.000181129
0.000181129
0.000181129
0.000143804
0.000143804
0.000143804
0.000148766
0.000148766
0.000148766
0.000155054
0.000155054
0.000155054
0.000173814
0.000173814
0.000173814
0.000239964
0.000239964
0.000239964
0.000237115
0.000237115
0.000237115
0.000661858
0.000661858
0.000661858
0.000666927
0.000666927
0.000666927
0.00106755
0.00106755
0.00106755
0.00109166
0.00109166
0.00109166
0.00103059
0.00103059
0.00103059
0.00104364
0.00104364
0.00104364
3.48865e-05
3.48865e-05
3.48865e-05
0.000997808
0.000997808
0.000997808
0.000985449
0.000985449
0.000985449
0.00100021
0.00100021
0.00100021
0.000990354
0.000990354
0.000990354
0.000962363
0.000962363
0.000962363
0.000968491
0.000968491
0.000968491
0.000969529
0.000969529
0.000969529
0.000982979
0.000982979
0.000982979
0.000981717
0.000981717
0.000981717
0.000989015
0.000989015
0.000989015
0.00102039
0.00102039
0.00102039
0.00102291
0.00102291
0.00102291
0.00101146
0.00101146
0.00101146
0.00100769
0.00100769
0.00100769
0.0010039
0.0010039
0.0010039
0.00088101
0.00088101
0.00088101
0.000886668
0.000886668
0.000886668
0.00088747
0.00088747
0.00088747
0.000941451
0.000941451
0.000941451
0.0009482
0.0009482
0.0009482
0.000928332
0.000928332
0.000928332
0.000921464
0.000921464
0.000921464
0.000909299
0.000909299
0.000909299
0.00068207
0.00068207
0.00068207
0.000676874
0.000676874
0.000676874
0.000787664
0.000787664
0.000787664
0.000793323
0.000793323
0.000793323
0.0008024
0.0008024
0.0008024
0.000805227
0.000805227
0.000805227
0.000811197
0.000811197
0.000811197
0.000745022
0.000745022
0.000745022
0.000779631
0.000779631
0.000779631
0.000796294
0.000796294
0.000796294
0.000808346
0.000808346
0.000808346
0.000849538
0.000849538
0.000849538
0.00088112
0.00088112
0.00088112
0.000868879
0.000868879
0.000868879
0.000833083
0.000833083
0.000833083
0.000862046
0.000862046
0.000862046
0.000868327
0.000868327
0.000868327
0.000862557
0.000862557
0.000862557
0.000757314
0.000757314
0.000757314
0.000751127
0.000751127
0.000751127
0.000708732
0.000708732
0.000708732
0.000707703
0.000707703
0.000707703
0.000721637
0.000721637
0.000721637
0.000724139
0.000724139
0.000724139
0.000697195
0.000697195
0.000697195
0.000729535
0.000729535
0.000729535
0.000716193
0.000716193
0.000716193
0.000692055
0.000692055
0.000692055
0.00070575
0.00070575
0.00070575
0.000681868
0.000681868
0.000681868
0.000700567
0.000700567
0.000700567
0.000753118
0.000753118
0.000753118
0.00073409
0.00073409
0.00073409
0.000598026
0.000598026
0.000598026
0.000155919
0.000155919
0.000155919
0.000376178
0.000376178
0.000376178
0.000143481
0.000143481
0.000143481
0.000368672
0.000368672
0.000368672
0.000664559
0.000664559
0.000664559
0.000647244
0.000647244
0.000647244
0.000669458
0.000669458
0.000669458
2.92516e-05
2.92516e-05
2.92516e-05
2.79622e-05
2.79622e-05
2.79622e-05
2.56011e-05
2.56011e-05
2.56011e-05
2.68181e-05
2.68181e-05
2.68181e-05
3.12429e-05
3.12429e-05
3.12429e-05
3.18677e-05
3.18677e-05
3.18677e-05
3.8529e-05
3.8529e-05
3.8529e-05
2.86426e-05
2.86426e-05
2.86426e-05
1.34198e-05
1.34198e-05
1.34198e-05
1.39021e-05
1.39021e-05
1.39021e-05
1.27408e-05
1.27408e-05
1.27408e-05
1.25031e-05
1.25031e-05
1.25031e-05
1.47563e-05
1.47563e-05
1.47563e-05
1.50623e-05
1.50623e-05
1.50623e-05
1.43912e-05
1.43912e-05
1.43912e-05
1.35588e-05
1.35588e-05
1.35588e-05
1.40251e-05
1.40251e-05
1.40251e-05
1.4684e-05
1.4684e-05
1.4684e-05
1.55788e-05
1.55788e-05
1.55788e-05
1.21949e-05
1.21949e-05
1.21949e-05
1.32145e-05
1.32145e-05
1.32145e-05
1.30842e-05
1.30842e-05
1.30842e-05
1.24223e-05
1.24223e-05
1.24223e-05
1.18861e-05
1.18861e-05
1.18861e-05
1.064e-05
1.064e-05
1.064e-05
9.15333e-06
9.15333e-06
9.15333e-06
9.186e-06
9.186e-06
9.186e-06
1.75185e-05
1.75185e-05
1.75185e-05
1.75048e-05
1.75048e-05
1.75048e-05
1.6928e-05
1.6928e-05
1.6928e-05
0.0001635
0.0001635
0.0001635
0.000161869
0.000161869
0.000161869
0.000167157
0.000167157
0.000167157
0.000154528
0.000154528
0.000154528
0.000192572
0.000192572
0.000192572
0.000210396
0.000210396
0.000210396
0.000181729
0.000181729
0.000181729
0.000113607
0.000113607
0.000113607
0.000119833
0.000119833
0.000119833
0.000180086
0.000180086
0.000180086
0.000202596
0.000202596
0.000202596
0.000199636
0.000199636
0.000199636
0.000214198
0.000214198
0.000214198
0.000220547
0.000220547
0.000220547
0.000166963
0.000166963
0.000166963
0.000169479
0.000169479
0.000169479
0.00018191
0.00018191
0.00018191
0.000195947
0.000195947
0.000195947
0.000179369
0.000179369
0.000179369
0.000186306
0.000186306
0.000186306
0.000123497
0.000123497
0.000123497
0.00013263
0.00013263
0.00013263
7.06064e-05
7.06064e-05
7.06064e-05
4.79874e-05
4.79874e-05
4.79874e-05
5.7585e-05
5.7585e-05
5.7585e-05
3.05495e-05
3.05495e-05
3.05495e-05
0.00010541
0.00010541
0.00010541
0.000116303
0.000116303
0.000116303
0.000236922
0.000236922
0.000236922
0.00020679
0.00020679
0.00020679
0.000238483
0.000238483
0.000238483
0.000224209
0.000224209
0.000224209
0.000153682
0.000153682
0.000153682
0.000150429
0.000150429
0.000150429
0.000142195
0.000142195
0.000142195
0.000124768
0.000124768
0.000124768
8.0324e-05
8.0324e-05
8.0324e-05
1.18649e-05
1.18649e-05
1.18649e-05
2.30369e-05
2.30369e-05
2.30369e-05
2.6897e-05
2.6897e-05
2.6897e-05
2.51879e-05
2.51879e-05
2.51879e-05
2.86422e-05
2.86422e-05
2.86422e-05
2.4874e-05
2.4874e-05
2.4874e-05
9.88956e-05
9.88956e-05
9.88956e-05
0.000100868
0.000100868
0.000100868
0.00010302
0.00010302
0.00010302
0.000113781
0.000113781
0.000113781
0.00011415
0.00011415
0.00011415
0.000120165
0.000120165
0.000120165
7.29177e-05
7.29177e-05
7.29177e-05
7.64116e-05
7.64116e-05
7.64116e-05
7.30908e-05
7.30908e-05
7.30908e-05
0.000144351
0.000144351
0.000144351
0.000141634
0.000141634
0.000141634
6.84327e-05
6.84327e-05
6.84327e-05
0.000121419
0.000121419
0.000121419
0.000114195
0.000114195
0.000114195
0.00012361
0.00012361
0.00012361
0.0001186
0.0001186
0.0001186
0.000109247
0.000109247
0.000109247
0.000111349
0.000111349
0.000111349
0.000114476
0.000114476
0.000114476
0.000134385
0.000134385
0.000134385
0.00012052
0.00012052
0.00012052
0.000143552
0.000143552
0.000143552
0.000124264
0.000124264
0.000124264
0.000133386
0.000133386
0.000133386
0.000108061
0.000108061
0.000108061
9.12743e-05
9.12743e-05
9.12743e-05
8.57432e-05
8.57432e-05
8.57432e-05
0.000111487
0.000111487
0.000111487
0.00011558
0.00011558
0.00011558
0.000128454
0.000128454
0.000128454
0.000137815
0.000137815
0.000137815
0.000119339
0.000119339
0.000119339
0.000132641
0.000132641
0.000132641
0.000101102
0.000101102
0.000101102
9.43582e-05
9.43582e-05
9.43582e-05
8.57507e-05
8.57507e-05
8.57507e-05
8.31114e-05
8.31114e-05
8.31114e-05
8.85124e-05
8.85124e-05
8.85124e-05
9.74074e-05
9.74074e-05
9.74074e-05
0.000124531
0.000124531
0.000124531
0.000115886
0.000115886
0.000115886
0.000121749
0.000121749
0.000121749
0.000135741
0.000135741
0.000135741
5.21481e-05
5.21481e-05
5.21481e-05
7.574e-05
7.574e-05
7.574e-05
5.36433e-05
5.36433e-05
5.36433e-05
0.000231957
0.000231957
0.000231957
0.000229152
0.000229152
0.000229152
0.000240673
0.000240673
0.000240673
0.000239804
0.000239804
0.000239804
0.000221205
0.000221205
0.000221205
0.00023177
0.00023177
0.00023177
0.000232498
0.000232498
0.000232498
0.000223961
0.000223961
0.000223961
0.000224334
0.000224334
0.000224334
0.000223609
0.000223609
0.000223609
0.000170843
0.000170843
0.000170843
0.000160845
0.000160845
0.000160845
0.000177771
0.000177771
0.000177771
0.000198606
0.000198606
0.000198606
0.000104106
0.000104106
0.000104106
0.000110552
0.000110552
0.000110552
0.000173172
0.000173172
0.000173172
0.0001663
0.0001663
0.0001663
8.93382e-05
8.93382e-05
8.93382e-05
9.4675e-05
9.4675e-05
9.4675e-05
9.16009e-05
9.16009e-05
9.16009e-05
8.13937e-05
8.13937e-05
8.13937e-05
7.92825e-05
7.92825e-05
7.92825e-05
8.34489e-05
8.34489e-05
8.34489e-05
0.000141023
0.000141023
0.000141023
0.00017614
0.00017614
0.00017614
0.00016862
0.00016862
0.00016862
0.000151117
0.000151117
0.000151117
0.000103415
0.000103415
0.000103415
0.000110755
0.000110755
0.000110755
0.000181415
0.000181415
0.000181415
0.000130608
0.000130608
0.000130608
0.000145221
0.000145221
0.000145221
0.000197551
0.000197551
0.000197551
0.000245094
0.000245094
0.000245094
0.000247994
0.000247994
0.000247994
0.000248864
0.000248864
0.000248864
0.000160322
0.000160322
0.000160322
0.000153729
0.000153729
0.000153729
0.000185672
0.000185672
0.000185672
0.000165593
0.000165593
0.000165593
0.000635747
0.000635747
0.000635747
0.000780702
0.000780702
0.000780702
0.000774716
0.000774716
0.000774716
0.00078549
0.00078549
0.00078549
0.000708375
0.000708375
0.000708375
0.000667758
0.000667758
0.000667758
0.000672882
0.000672882
0.000672882
0.000922862
0.000922862
0.000922862
0.000942179
0.000942179
0.000942179
0.000929723
0.000929723
0.000929723
0.000657844
0.000657844
0.000657844
0.000652849
0.000652849
0.000652849
0.000182215
0.000182215
0.000182215
0.000170498
0.000170498
0.000170498
0.000153135
0.000153135
0.000153135
0.000147056
0.000147056
0.000147056
0.00012478
0.00012478
0.00012478
0.000133327
0.000133327
0.000133327
0.000110668
0.000110668
0.000110668
5.08447e-05
5.08447e-05
5.08447e-05
0.000166782
0.000166782
0.000166782
1.02581e-05
1.02581e-05
1.02581e-05
9.25402e-05
9.25402e-05
9.25402e-05
9.35508e-05
9.35508e-05
9.35508e-05
2.94543e-05
2.94543e-05
2.94543e-05
6.61752e-06
6.61752e-06
6.61752e-06
0.000874334
0.000874334
0.000874334
0.000876286
0.000876286
0.000876286
0.000913388
0.000913388
0.000913388
0.000902169
0.000902169
0.000902169
0.000898689
0.000898689
0.000898689
0.000933667
0.000933667
0.000933667
0.00093582
0.00093582
0.00093582
0.000919711
0.000919711
0.000919711
0.000925387
0.000925387
0.000925387
0.000956711
0.000956711
0.000956711
0.000954479
0.000954479
0.000954479
0.000942704
0.000942704
0.000942704
0.000946033
0.000946033
0.000946033
0.000939092
0.000939092
0.000939092
0.000926482
0.000926482
0.000926482
0.000920593
0.000920593
0.000920593
0.000907998
0.000907998
0.000907998
0.000902646
0.000902646
0.000902646
0.000947211
0.000947211
0.000947211
0.000941196
0.000941196
0.000941196
0.000940242
0.000940242
0.000940242
0.000927426
0.000927426
0.000927426
0.000927598
0.000927598
0.000927598
0.000920808
0.000920808
0.000920808
0.000907184
0.000907184
0.000907184
0.000900543
0.000900543
0.000900543
0.000887591
0.000887591
0.000887591
0.000881701
0.000881701
0.000881701
0.000729357
0.000729357
0.000729357
0.000749358
0.000749358
0.000749358
0.000755086
0.000755086
0.000755086
0.000710767
0.000710767
0.000710767
0.000694986
0.000694986
0.000694986
0.000700069
0.000700069
0.000700069
0.000713118
0.000713118
0.000713118
0.000723776
0.000723776
0.000723776
0.000738041
0.000738041
0.000738041
0.00073269
0.00073269
0.00073269
0.000813943
0.000813943
0.000813943
0.000825731
0.000825731
0.000825731
0.000807706
0.000807706
0.000807706
0.000813586
0.000813586
0.000813586
0.000827154
0.000827154
0.000827154
0.00083306
0.00083306
0.00083306
0.000775816
0.000775816
0.000775816
0.000790405
0.000790405
0.000790405
0.000755648
0.000755648
0.000755648
0.000773317
0.000773317
0.000773317
0.000779008
0.000779008
0.000779008
0.000769944
0.000769944
0.000769944
0.000758701
0.000758701
0.000758701
0.000749994
0.000749994
0.000749994
0.000762961
0.000762961
0.000762961
0.000756553
0.000756553
0.000756553
0.000762111
0.000762111
0.000762111
0.000774074
0.000774074
0.000774074
0.000781484
0.000781484
0.000781484
0.000781714
0.000781714
0.000781714
0.000775945
0.000775945
0.000775945
0.000792708
0.000792708
0.000792708
0.000870089
0.000870089
0.000870089
0.000844897
0.000844897
0.000844897
0.000863733
0.000863733
0.000863733
0.000851055
0.000851055
0.000851055
0.000843899
0.000843899
0.000843899
0.000850091
0.000850091
0.000850091
0.000832986
0.000832986
0.000832986
0.000845043
0.000845043
0.000845043
0.000845086
0.000845086
0.000845086
0.000851225
0.000851225
0.000851225
0.000776095
0.000776095
0.000776095
0.000781598
0.000781598
0.000781598
0.000764851
0.000764851
0.000764851
0.000792672
0.000792672
0.000792672
0.000797988
0.000797988
0.000797988
0.000776012
0.000776012
0.000776012
0.00069774
0.00069774
0.00069774
0.000745251
0.000745251
0.000745251
0.000739844
0.000739844
0.000739844
0.000725602
0.000725602
0.000725602
0.000717255
0.000717255
0.000717255
0.000716203
0.000716203
0.000716203
0.000693737
0.000693737
0.000693737
0.00070079
0.00070079
0.00070079
0.000784576
0.000784576
0.000784576
0.000775024
0.000775024
0.000775024
0.000771983
0.000771983
0.000771983
0.000752975
0.000752975
0.000752975
0.000767789
0.000767789
0.000767789
0.000758466
0.000758466
0.000758466
0.000755546
0.000755546
0.000755546
0.000769496
0.000769496
0.000769496
0.000760981
0.000760981
0.000760981
0.000761973
0.000761973
0.000761973
0.000756554
0.000756554
0.000756554
0.000750678
0.000750678
0.000750678
0.000740537
0.000740537
0.000740537
0.000746228
0.000746228
0.000746228
0.000762205
0.000762205
0.000762205
0.000772962
0.000772962
0.000772962
0.000767076
0.000767076
0.000767076
0.000713489
0.000713489
0.000713489
0.000738932
0.000738932
0.000738932
0.000728704
0.000728704
0.000728704
0.000708284
0.000708284
0.000708284
8.07192e-05
8.07192e-05
8.07192e-05
9.16459e-05
9.16459e-05
9.16459e-05
8.71599e-05
8.71599e-05
8.71599e-05
0.000563911
0.000563911
0.000563911
0.000502225
0.000502225
0.000502225
0.000511611
0.000511611
0.000511611
0.00057617
0.00057617
0.00057617
0.000564978
0.000564978
0.000564978
0.000637755
0.000637755
0.000637755
0.000633123
0.000633123
0.000633123
0.000576878
0.000576878
0.000576878
0.000601792
0.000601792
0.000601792
0.000615013
0.000615013
0.000615013
0.00061051
0.00061051
0.00061051
0.00055729
0.00055729
0.00055729
0.000577713
0.000577713
0.000577713
2.55923e-05
2.55923e-05
2.55923e-05
2.39638e-05
2.39638e-05
2.39638e-05
2.49527e-05
2.49527e-05
2.49527e-05
2.59571e-05
2.59571e-05
2.59571e-05
2.84437e-05
2.84437e-05
2.84437e-05
3.0378e-05
3.0378e-05
3.0378e-05
2.52304e-05
2.52304e-05
2.52304e-05
2.71776e-05
2.71776e-05
2.71776e-05
2.639e-05
2.639e-05
2.639e-05
2.76316e-05
2.76316e-05
2.76316e-05
4.26274e-05
4.26274e-05
4.26274e-05
3.76108e-05
3.76108e-05
3.76108e-05
3.49051e-05
3.49051e-05
3.49051e-05
3.86875e-05
3.86875e-05
3.86875e-05
3.96497e-05
3.96497e-05
3.96497e-05
3.59037e-05
3.59037e-05
3.59037e-05
3.42071e-05
3.42071e-05
3.42071e-05
4.35364e-05
4.35364e-05
4.35364e-05
4.14205e-05
4.14205e-05
4.14205e-05
4.71619e-05
4.71619e-05
4.71619e-05
4.84626e-05
4.84626e-05
4.84626e-05
3.32428e-05
3.32428e-05
3.32428e-05
3.00735e-05
3.00735e-05
3.00735e-05
2.95111e-05
2.95111e-05
2.95111e-05
3.09714e-05
3.09714e-05
3.09714e-05
3.65332e-05
3.65332e-05
3.65332e-05
3.39058e-05
3.39058e-05
3.39058e-05
3.22769e-05
3.22769e-05
3.22769e-05
2.77705e-05
2.77705e-05
2.77705e-05
2.91732e-05
2.91732e-05
2.91732e-05
2.82693e-05
2.82693e-05
2.82693e-05
3.03396e-05
3.03396e-05
3.03396e-05
7.13662e-05
7.13662e-05
7.13662e-05
6.54852e-05
6.54852e-05
6.54852e-05
4.98801e-05
4.98801e-05
4.98801e-05
5.52409e-05
5.52409e-05
5.52409e-05
5.99466e-05
5.99466e-05
5.99466e-05
5.68364e-05
5.68364e-05
5.68364e-05
5.36766e-05
5.36766e-05
5.36766e-05
6.36663e-05
6.36663e-05
6.36663e-05
6.15843e-05
6.15843e-05
6.15843e-05
4.50169e-05
4.50169e-05
4.50169e-05
4.74318e-05
4.74318e-05
4.74318e-05
2.25936e-05
2.25936e-05
2.25936e-05
1.44219e-05
1.44219e-05
1.44219e-05
1.54382e-05
1.54382e-05
1.54382e-05
1.69569e-05
1.69569e-05
1.69569e-05
1.63795e-05
1.63795e-05
1.63795e-05
2.3304e-05
2.3304e-05
2.3304e-05
2.27841e-05
2.27841e-05
2.27841e-05
0.000729074
0.000729074
0.000729074
0.000720547
0.000720547
0.000720547
1.49261e-05
1.49261e-05
1.49261e-05
2.62466e-05
2.62466e-05
2.62466e-05
0.000137948
0.000137948
0.000137948
2.98334e-05
2.98334e-05
2.98334e-05
0.000471474
0.000471474
0.000471474
5.9764e-05
5.9764e-05
5.9764e-05
4.29977e-05
4.29977e-05
4.29977e-05
3.18567e-05
3.18567e-05
3.18567e-05
3.24692e-05
3.24692e-05
3.24692e-05
3.63214e-05
3.63214e-05
3.63214e-05
3.46839e-05
3.46839e-05
3.46839e-05
2.4542e-05
2.4542e-05
2.4542e-05
1.77552e-05
1.77552e-05
1.77552e-05
1.61387e-05
1.61387e-05
1.61387e-05
1.6548e-05
1.6548e-05
1.6548e-05
1.59798e-05
1.59798e-05
1.59798e-05
2.6589e-05
2.6589e-05
2.6589e-05
2.95689e-05
2.95689e-05
2.95689e-05
2.83997e-05
2.83997e-05
2.83997e-05
2.45625e-05
2.45625e-05
2.45625e-05
2.39717e-05
2.39717e-05
2.39717e-05
2.51575e-05
2.51575e-05
2.51575e-05
2.59443e-05
2.59443e-05
2.59443e-05
2.87441e-05
2.87441e-05
2.87441e-05
2.66835e-05
2.66835e-05
2.66835e-05
1.03267e-05
1.03267e-05
1.03267e-05
1.08153e-05
1.08153e-05
1.08153e-05
1.27478e-05
1.27478e-05
1.27478e-05
1.15755e-05
1.15755e-05
1.15755e-05
1.21027e-05
1.21027e-05
1.21027e-05
1.09524e-05
1.09524e-05
1.09524e-05
1.11379e-05
1.11379e-05
1.11379e-05
1.17311e-05
1.17311e-05
1.17311e-05
1.21762e-05
1.21762e-05
1.21762e-05
9.51376e-06
9.51376e-06
9.51376e-06
9.38066e-06
9.38066e-06
9.38066e-06
1.11548e-05
1.11548e-05