<VTKFile type="UnstructuredGrid" version="1.0">
<UnstructuredGrid>
<Piece NumberOfPoints="10830" NumberOfCells="3610">
<Points>
<DataArray type="Float64" NumberOfComponents="3" format="ascii">
3.10314 1.29552 3.16075
3.11025 1.28841 3.135
3.11025 1.28841 3.18646
3.11025 1.28841 3.69008
3.11025 1.28841 3.741
3.10226 1.2964 3.71553
3.11025 1.28841 3.69008
3.10226 1.2964 3.71553
3.09025 1.30841 3.6901
2.21656 2.1821 4.16259
2.22913 2.16953 4.18
2.19928 2.19938 4.18
2.19928 2.19938 4.18
2.19928 2.19938 4.14984
2.21656 2.1821 4.16259
3.11025 1.28841 3.69008
3.09025 1.30841 3.6901
3.10227 1.29639 3.66468
2.20538 2.19328 3.41179
2.19928 2.19938 3.43701
2.19928 2.19938 3.38657
3.10229 1.29637 3.4119
3.11025 1.28841 3.43709
3.09026 1.3084 3.43711
3.10214 1.29652 3.31134
3.11025 1.28841 3.28628
3.11025 1.28841 3.33639
3.09026 1.3084 3.43711
3.11025 1.28841 3.43709
3.1023 1.29636 3.46231
3.11025 1.28841 3.43709
3.11025 1.28841 3.48754
3.1023 1.29636 3.46231
3.09026 1.3084 3.48755
3.1023 1.29636 3.46231
3.11025 1.28841 3.48754
3.09025 1.30841 3.63931
3.10227 1.29639 3.66468
3.08043 1.31823 3.6647
3.08043 1.31823 3.6647
3.10227 1.29639 3.66468
3.09025 1.30841 3.6901
3.08043 1.31823 3.6647
3.06939 1.32927 3.63932
3.09025 1.30841 3.63931
3.08043 1.31823 3.6647
3.09025 1.30841 3.6901
3.06938 1.32928 3.69012
3.11025 1.28841 3.53804
3.11025 1.28841 3.58862
3.10229 1.29637 3.56333
3.10229 1.29637 3.56333
3.09026 1.3084 3.58863
3.08044 1.31822 3.56334
3.11025 1.28841 3.58862
3.09026 1.3084 3.58863
3.10229 1.29637 3.56333
3.11025 1.28841 3.63929
3.10227 1.29639 3.66468
3.09025 1.30841 3.63931
3.11025 1.28841 3.69008
3.10227 1.29639 3.66468
3.11025 1.28841 3.63929
3.0901 1.30856 3.28632
3.11025 1.28841 3.28628
3.10214 1.29652 3.31134
3.09024 1.30842 3.74102
3.10226 1.2964 3.71553
3.11025 1.28841 3.741
2.80657 1.59209 3.92075
2.81699 1.58167 3.89498
2.8274 1.57126 3.92072
2.19928 2.19938 3.135
2.21889 2.17977 3.135
2.20626 2.1924 3.1597
2.25868 2.13998 3.38659
2.23814 2.16052 3.38657
2.24806 2.1506 3.36137
2.21801 2.18065 3.38656
2.23814 2.16052 3.38657
2.22704 2.17162 3.41178
2.21801 2.18065 3.38656
2.20538 2.19328 3.41179
2.19928 2.19938 3.38657
2.22704 2.17162 3.41178
2.20538 2.19328 3.41179
2.21801 2.18065 3.38656
2.20547 2.19319 3.61394
2.19928 2.19938 3.6393
2.19928 2.19938 3.58861
2.21807 2.1806 3.6393
2.22712 2.17155 3.61393
2.23821 2.16045 3.63929
2.19928 2.19938 3.6393
2.20547 2.19319 3.61394
2.21807 2.1806 3.6393
2.21807 2.1806 3.6393
2.20547 2.19319 3.61394
2.22712 2.17155 3.61393
2.21805 2.18061 3.5886
2.2382 2.16046 3.5886
2.22712 2.17155 3.61393
2.21805 2.18061 3.5886
2.20547 2.19319 3.61394
2.19928 2.19938 3.58861
2.22712 2.17155 3.61393
2.20547 2.19319 3.61394
2.21805 2.18061 3.5886
2.19928 2.19938 3.43701
2.20538 2.19328 3.41179
2.21802 2.18064 3.437
2.21802 2.18064 3.437
2.20538 2.19328 3.41179
2.22704 2.17162 3.41178
2.23821 2.16045 3.63929
2.22712 2.17155 3.61393
2.24816 2.15051 3.61393
2.22712 2.17155 3.61393
2.2382 2.16046 3.5886
2.24816 2.15051 3.61393
2.40353 1.99513 3.58867
2.41386 1.9848 3.61401
2.3932 2.00546 3.614
2.3932 2.00546 3.614
2.41386 1.9848 3.61401
2.40354 1.99512 3.63937
2.40354 1.99512 3.63937
2.41386 1.9848 3.61401
2.4242 1.97446 3.63938
2.79618 1.60248 3.895
2.81699 1.58167 3.89498
2.80657 1.59209 3.92075
3.10224 1.29642 3.36156
3.11025 1.28841 3.33639
3.11025 1.28841 3.3867
3.11025 1.28841 3.43709
3.10229 1.29637 3.4119
3.11025 1.28841 3.3867
3.02715 1.37151 3.5381
3.006 1.39266 3.53811
3.01659 1.38207 3.51285
3.09026 1.3084 3.53805
3.10229 1.29637 3.56333
3.08044 1.31822 3.56334
3.11025 1.28841 3.53804
3.10229 1.29637 3.56333
3.09026 1.3084 3.53805
3.08044 1.31822 3.56334
3.09026 1.3084 3.58863
3.0694 1.32926 3.58865
3.10228 1.29638 3.61395
3.09026 1.3084 3.58863
3.11025 1.28841 3.58862
3.11025 1.28841 3.58862
3.11025 1.28841 3.63929
3.10228 1.29638 3.61395
3.10228 1.29638 3.61395
3.11025 1.28841 3.63929
3.09025 1.30841 3.63931
3.08027 1.31839 3.31137
3.0901 1.30856 3.28632
3.10214 1.29652 3.31134
3.10224 1.29642 3.36156
3.11025 1.28841 3.3867
3.09024 1.30842 3.38674
3.09024 1.30842 3.38674
3.11025 1.28841 3.3867
3.10229 1.29637 3.4119
3.0165 1.38216 3.36161
3.00588 1.39278 3.33643
3.02702 1.37164 3.33643
3.04817 1.35049 3.33645
3.03759 1.36107 3.31126
3.05884 1.33982 3.31131
3.04817 1.35049 3.33645
3.02702 1.37164 3.33643
3.03759 1.36107 3.31126
3.08043 1.31823 3.41193
3.10229 1.29637 3.4119
3.09026 1.3084 3.43711
3.08043 1.31823 3.41193
3.09024 1.30842 3.38674
3.10229 1.29637 3.4119
3.08042 1.31824 3.71555
3.09025 1.30841 3.6901
3.10226 1.2964 3.71553
3.10226 1.2964 3.71553
3.09024 1.30842 3.74102
3.08042 1.31824 3.71555
3.06938 1.32928 3.69012
3.09025 1.30841 3.6901
3.08042 1.31824 3.71555
3.08041 1.31825 3.86905
3.05901 1.33965 3.86906
3.06938 1.32928 3.84337
3.05901 1.33966 3.81774
3.08041 1.31825 3.81772
3.06938 1.32928 3.84337
3.10225 1.29641 3.76653
3.09024 1.30842 3.74102
3.11025 1.28841 3.741
3.08041 1.31825 3.76656
3.09024 1.30842 3.74102
3.10225 1.29641 3.76653
2.84822 1.55044 3.97232
2.85863 1.54003 3.99816
2.83776 1.5609 3.9982
2.96373 1.43493 3.84343
2.97428 1.42438 3.81779
2.98483 1.41383 3.84341
2.98483 1.41383 3.84341
2.97428 1.42438 3.81779
2.9954 1.40326 3.81778
3.06938 1.32929 3.79213
3.05901 1.33965 3.76658
3.08041 1.31825 3.76656
3.06938 1.32929 3.79213
3.08041 1.31825 3.81772
3.05901 1.33966 3.81774
2.95319 1.44547 3.81781
2.97428 1.42438 3.81779
2.96373 1.43493 3.84343
2.90067 1.49799 3.58874
2.87971 1.51895 3.58874
2.89018 1.50848 3.56344
2.84833 1.55033 3.56344
2.83789 1.56077 3.58875
2.82746 1.5712 3.56344
2.85878 1.53988 3.58875
2.83789 1.56077 3.58875
2.84833 1.55033 3.56344
2.83788 1.56078 3.48765
2.85877 1.53989 3.48765
2.84833 1.55034 3.51289
2.84833 1.55034 3.51289
2.82745 1.57121 3.51289
2.83788 1.56078 3.48765
2.83788 1.56078 3.48765
2.82745 1.57121 3.51289
2.81702 1.58164 3.48764
2.84833 1.55034 3.51289
2.85877 1.53989 3.48765
2.86924 1.52943 3.5129
2.87968 1.51898 3.43723
2.89017 1.50849 3.46244
2.86922 1.52944 3.46243
2.86922 1.52944 3.46243
2.85875 1.53991 3.43723
2.87968 1.51898 3.43723
2.72357 1.6751 3.61409
2.73392 1.66474 3.58875
2.74429 1.65437 3.61409
2.73392 1.66474 3.58875
2.75466 1.644 3.58875
2.74429 1.65437 3.61409
2.83789 1.56077 3.53816
2.82745 1.57121 3.51289
2.84833 1.55034 3.51289
2.83789 1.56077 3.53816
2.84833 1.55033 3.56344
2.82746 1.5712 3.56344
2.82746 1.5712 3.56344
2.80662 1.59204 3.56344
2.81703 1.58163 3.53815
2.81703 1.58163 3.53815
2.83789 1.56077 3.53816
2.82746 1.5712 3.56344
2.82745 1.57121 3.51289
2.83789 1.56077 3.53816
2.81703 1.58163 3.53815
2.81702 1.58164 3.48764
2.7962 1.60246 3.48764
2.8066 1.59206 3.46241
2.79618 1.60248 3.43719
2.81701 1.58166 3.43721
2.8066 1.59206 3.46241
2.42419 1.97447 3.58868
2.41386 1.9848 3.61401
2.40353 1.99513 3.58867
2.40353 1.99513 3.58867
2.41385 1.98481 3.56336
2.42419 1.97447 3.58868
2.20539 2.19327 3.20987
2.19928 2.19938 3.23509
2.19928 2.19938 3.18442
2.19928 2.19938 3.135
2.20626 2.1924 3.1597
2.19928 2.19938 3.18442
2.21797 2.1807 3.2857
2.19928 2.19938 3.28567
2.20528 2.19338 3.26042
2.19928 2.19938 3.28567
2.19928 2.19938 3.23509
2.20528 2.19338 3.26042
3.11025 1.28841 3.135
3.10314 1.29552 3.16075
3.0911 1.30756 3.135
2.19928 2.19938 3.38657
2.19928 2.19938 3.33614
2.20536 2.19331 3.36136
2.20536 2.19331 3.36136
2.21801 2.18065 3.38656
2.19928 2.19938 3.38657
2.21799 2.18067 3.33613
2.20536 2.19331 3.36136
2.19928 2.19938 3.33614
2.21799 2.18067 3.33613
2.22698 2.17168 3.31094
2.23811 2.16055 3.33616
2.22702 2.17165 3.36135
2.24806 2.1506 3.36137
2.23814 2.16052 3.38657
2.23814 2.16052 3.38657
2.21801 2.18065 3.38656
2.22702 2.17165 3.36135
2.23811 2.16055 3.33616
2.24806 2.1506 3.36137
2.22702 2.17165 3.36135
2.22702 2.17165 3.36135
2.21799 2.18067 3.33613
2.23811 2.16055 3.33616
2.21801 2.18065 3.38656
2.20536 2.19331 3.36136
2.22702 2.17165 3.36135
2.20536 2.19331 3.36136
2.21799 2.18067 3.33613
2.22702 2.17165 3.36135
2.20532 2.19334 3.31091
2.19928 2.19938 3.33614
2.19928 2.19938 3.28567
2.20532 2.19334 3.31091
2.19928 2.19938 3.28567
2.21797 2.1807 3.2857
2.21797 2.1807 3.2857
2.22698 2.17168 3.31094
2.20532 2.19334 3.31091
2.20532 2.19334 3.31091
2.21799 2.18067 3.33613
2.19928 2.19938 3.33614
2.22698 2.17168 3.31094
2.21799 2.18067 3.33613
2.20532 2.19334 3.31091
2.24814 2.15052 3.56329
2.2382 2.16046 3.5886
2.2271 2.17156 3.56329
2.2382 2.16046 3.5886
2.21805 2.18061 3.5886
2.2271 2.17156 3.56329
2.2271 2.17156 3.56329
2.23819 2.16048 3.538
2.24814 2.15052 3.56329
2.24809 2.15058 3.41179
2.23814 2.16052 3.38657
2.25868 2.13998 3.38659
2.22704 2.17162 3.41178
2.23814 2.16052 3.38657
2.24809 2.15058 3.41179
2.26891 2.12975 3.4118
2.24809 2.15058 3.41179
2.25868 2.13998 3.38659
2.2587 2.13996 3.43701
2.24809 2.15058 3.41179
2.26891 2.12975 3.4118
2.2587 2.13996 3.43701
2.26891 2.12975 3.4118
2.27936 2.1193 3.43702
2.41384 1.98482 3.5128
2.42418 1.97448 3.53807
2.40352 1.99515 3.53807
2.40352 1.99515 3.53807
2.42418 1.97448 3.53807
2.41385 1.98481 3.56336
2.33114 2.06753 3.56332
2.35183 2.04683 3.56333
2.34149 2.05717 3.58863
2.34148 2.05718 3.53804
2.35183 2.04683 3.56333
2.33114 2.06753 3.56332
2.35182 2.04684 3.51277
2.34147 2.05719 3.48752
2.36216 2.03651 3.48753
2.34148 2.05718 3.53804
2.33112 2.06754 3.51276
2.35182 2.04684 3.51277
2.35182 2.04684 3.51277
2.33112 2.06754 3.51276
2.34147 2.05719 3.48752
2.35184 2.04682 3.61398
2.37253 2.02613 3.61399
2.3622 2.03646 3.63934
2.31047 2.08819 3.6647
2.32082 2.07785 3.63932
2.33117 2.06749 3.66471
2.3208 2.07786 3.58862
2.33114 2.06753 3.56332
2.34149 2.05717 3.58863
2.31043 2.08823 3.56331
2.33114 2.06753 3.56332
2.3208 2.07786 3.58862
2.23821 2.16045 3.63929
2.24816 2.15051 3.61393
2.25876 2.1399 3.63929
2.24814 2.15052 3.56329
2.23819 2.16048 3.538
2.25873 2.13993 3.538
2.25873 2.13993 3.538
2.26896 2.1297 3.56329
2.24814 2.15052 3.56329
2.30008 2.09858 3.53801
2.31043 2.08823 3.56331
2.28971 2.10895 3.5633
2.25874 2.13992 3.5886
2.24816 2.15051 3.61393
2.2382 2.16046 3.5886
2.25874 2.13992 3.5886
[...]
<PointData Scalars="View Factor" >
<DataArray type="Float64" Name="View Factor" NumberOfComponents="1" format="ascii">
0.00260743
0.00260743
0.00260743
0.00190499
0.00190499
0.00190499
0.00191106
0.00191106
0.00191106
0.000171922
0.000171922
0.000171922
9.001e-05
9.001e-05
9.001e-05
0.00192892
0.00192892
0.00192892
0.000716778
0.000716778
0.000716778
0.00222045
0.00222045
0.00222045
0.00238844
0.00238844
0.00238844
0.00219941
0.00219941
0.00219941
0.00219196
0.00219196
0.00219196
0.00215819
0.00215819
0.00215819
0.00193815
0.00193815
0.00193815
0.00192026
0.00192026
0.00192026
0.00192746
0.00192746
0.00192746
0.00189202
0.00189202
0.00189202
0.0020715
0.0020715
0.0020715
0.00203072
0.00203072
0.00203072
0.00203978
0.00203978
0.00203978
0.00196502
0.00196502
0.00196502
0.00195872
0.00195872
0.00195872
0.00239673
0.00239673
0.00239673
0.00187606
0.00187606
0.00187606
5.06512e-05
5.06512e-05
5.06512e-05
0.000188547
0.000188547
0.000188547
0.000879723
0.000879723
0.000879723
0.000922217
0.000922217
0.000922217
0.000774043
0.000774043
0.000774043
0.000891221
0.000891221
0.000891221
0.000251619
0.000251619
0.000251619
0.000650352
0.000650352
0.000650352
0.00024512
0.00024512
0.00024512
0.000328044
0.000328044
0.000328044
0.000674849
0.000674849
0.000674849
0.000289286
0.000289286
0.000289286
0.000338072
0.000338072
0.000338072
0.000715669
0.000715669
0.000715669
0.000844432
0.000844432
0.000844432
0.000637296
0.000637296
0.000637296
0.000650195
0.000650195
0.000650195
0.000167592
0.000167592
0.000167592
0.000150657
0.000150657
0.000150657
0.000144044
0.000144044
0.000144044
5.21129e-05
5.21129e-05
5.21129e-05
0.00232081
0.00232081
0.00232081
0.00225531
0.00225531
0.00225531
0.00192421
0.00192421
0.00192421
0.00204981
0.00204981
0.00204981
0.00207834
0.00207834
0.00207834
0.00200076
0.00200076
0.00200076
0.00202077
0.00202077
0.00202077
0.00201419
0.00201419
0.00201419
0.00198344
0.00198344
0.00198344
0.00236341
0.00236341
0.00236341
0.00228476
0.00228476
0.00228476
0.00226305
0.00226305
0.00226305
0.00213651
0.00213651
0.00213651
0.00224693
0.00224693
0.00224693
0.00220982
0.00220982
0.00220982
0.00221068
0.00221068
0.00221068
0.00223181
0.00223181
0.00223181
0.00188496
0.00188496
0.00188496
0.0018676
0.0018676
0.0018676
0.00187454
0.00187454
0.00187454
0.00170077
0.00170077
0.00170077
0.00173227
0.00173227
0.00173227
0.00185875
0.00185875
0.00185875
0.0018334
0.0018334
0.0018334
0.000759091
0.000759091
0.000759091
0.00153869
0.00153869
0.00153869
0.0015678
0.0015678
0.0015678
0.00178072
0.00178072
0.00178072
0.00174828
0.00174828
0.00174828
0.00151851
0.00151851
0.00151851
0.00145198
0.00145198
0.00145198
0.000846259
0.000846259
0.000846259
0.00118175
0.00118175
0.00118175
0.001199
0.001199
0.001199
0.00103895
0.00103895
0.00103895
0.000536517
0.000536517
0.000536517
0.0012418
0.0012418
0.0012418
0.0014779
0.0014779
0.0014779
0.001373
0.001373
0.001373
0.000221704
0.000221704
0.000221704
0.000236333
0.000236333
0.000236333
0.00099016
0.00099016
0.00099016
0.000889408
0.000889408
0.000889408
0.000344003
0.000344003
0.000344003
0.000369841
0.000369841
0.000369841
0.000417062
0.000417062
0.000417062
0.000598883
0.000598883
0.000598883
0.00077409
0.00077409
0.00077409
0.000176604
0.000176604
0.000176604
0.000196911
0.000196911
0.000196911
0.000125322
0.000125322
0.000125322
0.000135025
0.000135025
0.000135025
0.000311871
0.000311871
0.000311871
0.000187976
0.000187976
0.000187976
0.00261846
0.00261846
0.00261846
0.000655637
0.000655637
0.000655637
0.000747833
0.000747833
0.000747833
0.000640716
0.000640716
0.000640716
0.000849702
0.000849702
0.000849702
0.000888769
0.000888769
0.000888769
0.000910661
0.000910661
0.000910661
0.000869433
0.000869433
0.000869433
0.000874321
0.000874321
0.000874321
0.000870473
0.000870473
0.000870473
0.000824427
0.000824427
0.000824427
0.000448514
0.000448514
0.000448514
0.000401501
0.000401501
0.000401501
0.000601013
0.000601013
0.000601013
0.000572763
0.000572763
0.000572763
0.000684728
0.000684728
0.000684728
0.000678714
0.000678714
0.000678714
0.00068912
0.00068912
0.00068912
0.000694966
0.000694966
0.000694966
0.000893049
0.000893049
0.000893049
0.00090935
0.00090935
0.00090935
0.000874994
0.000874994
0.000874994
0.000861909
0.000861909
0.000861909
0.000820785
0.000820785
0.000820785
0.000276478
0.000276478
0.000276478
0.000246257
0.000246257
0.000246257
0.000206608
0.000206608
0.000206608
0.000230943
0.000230943
0.000230943
0.000350693
0.000350693
0.000350693
0.00029153
0.00029153
0.00029153
0.000329316
0.000329316
0.000329316
0.000150171
0.000150171
0.000150171
0.000123242
0.000123242
0.000123242
0.000195581
0.000195581
0.000195581
0.000206432
0.000206432
0.000206432
0.000609386
0.000609386
0.000609386
0.000682423
0.000682423
0.000682423
0.000650478
0.000650478
0.000650478
0.000230715
0.000230715
0.000230715
0.000634422
0.000634422
0.000634422
0.000649068
0.000649068
0.000649068
0.000633764
0.000633764
0.000633764
8.52987e-05
8.52987e-05
8.52987e-05
8.5154e-05
8.5154e-05
8.5154e-05
0.000124726
0.000124726
0.000124726
0.000176271
0.000176271
0.000176271
0.000167285
0.000167285
0.000167285
0.000129433
0.000129433
0.000129433
0.000143845
0.000143845
0.000143845
0.000143591
0.000143591
0.000143591
0.000150357
0.000150357
0.000150357
0.000129608
0.000129608
0.000129608
0.000123471
0.000123471
0.000123471
0.000107107
0.000107107
0.000107107
0.000112214
0.000112214
0.000112214
0.000111964
0.000111964
0.000111964
0.000123297
0.000123297
0.000123297
8.55089e-05
8.55089e-05
8.55089e-05
7.53273e-05
7.53273e-05
7.53273e-05
7.21554e-05
7.21554e-05
7.21554e-05
6.40278e-05
6.40278e-05
6.40278e-05
6.64686e-05
6.64686e-05
6.64686e-05
0.000112409
0.000112409
0.000112409
0.000129808
0.000129808
0.000129808
0.000123529
0.000123529
0.000123529
4.70715e-05
4.70715e-05
4.70715e-05
4.59948e-05
4.59948e-05
4.59948e-05
4.96061e-05
4.96061e-05
4.96061e-05
5.08668e-05
5.08668e-05
5.08668e-05
5.06971e-05
5.06971e-05
5.06971e-05
5.314e-05
5.314e-05
5.314e-05
6.87595e-05
6.87595e-05
6.87595e-05
5.47446e-05
5.47446e-05
5.47446e-05
1.77826e-05
1.77826e-05
1.77826e-05
1.8099e-05
1.8099e-05
1.8099e-05
1.66111e-05
1.66111e-05
1.66111e-05
1.6082e-05
1.6082e-05
1.6082e-05
1.88596e-05
1.88596e-05
1.88596e-05
1.98271e-05
1.98271e-05
1.98271e-05
1.94115e-05
1.94115e-05
1.94115e-05
1.86276e-05
1.86276e-05
1.86276e-05
1.99612e-05
1.99612e-05
1.99612e-05
2.03987e-05
2.03987e-05
2.03987e-05
2.15683e-05
2.15683e-05
2.15683e-05
1.65512e-05
1.65512e-05
1.65512e-05
1.91552e-05
1.91552e-05
1.91552e-05
1.82932e-05
1.82932e-05
1.82932e-05
1.70877e-05
1.70877e-05
1.70877e-05
1.7018e-05
1.7018e-05
1.7018e-05
1.88723e-05
1.88723e-05
1.88723e-05
0.00130528
0.00130528
0.00130528
0.00101897
0.00101897
0.00101897
0.0012501
0.0012501
0.0012501
0.00130401
0.00130401
0.00130401
0.00127512
0.00127512
0.00127512
0.0018894
0.0018894
0.0018894
0.00188233
0.00188233
0.00188233
0.00189984
0.00189984
0.00189984
0.00186051
0.00186051
0.00186051
0.00158325
0.00158325
0.00158325
0.00156806
0.00156806
0.00156806
0.0016511
0.0016511
0.0016511
0.0018217
0.0018217
0.0018217
0.00180509
0.00180509
0.00180509
0.002098
0.002098
0.002098
0.00208872
0.00208872
0.00208872
0.00213072
0.00213072
0.00213072
0.00213786
0.00213786
0.00213786
0.00210846
0.00210846
0.00210846
0.00189547
0.00189547
0.00189547
0.00190709
0.00190709
0.00190709
0.0019455
0.0019455
0.0019455
0.00198211
0.00198211
0.00198211
0.00193559
0.00193559
0.00193559
0.0019537
0.0019537
0.0019537
0.00197457
0.00197457
0.00197457
0.00199307
0.00199307
0.00199307
0.00232884
0.00232884
0.00232884
0.00235123
0.00235123
0.00235123
0.00234086
0.00234086
0.00234086
0.00241976
0.00241976
0.00241976
0.00215723
0.00215723
0.00215723
0.00219403
0.00219403
0.00219403
0.00221968
0.00221968
0.00221968
0.00219651
0.00219651
0.00219651
0.00218758
0.00218758
0.00218758
0.00217572
0.00217572
0.00217572
0.00184018
0.00184018
0.00184018
0.00182324
0.00182324
0.00182324
0.00179718
0.00179718
0.00179718
0.00168527
0.00168527
0.00168527
0.00152414
0.00152414
0.00152414
0.00120868
0.00120868
0.00120868
4.77315e-05
4.77315e-05
4.77315e-05
5.76143e-05
5.76143e-05
5.76143e-05
5.33541e-05
5.33541e-05
5.33541e-05
0.00152448
0.00152448
0.00152448
0.00149662
0.00149662
0.00149662
0.0016098
0.0016098
0.0016098
0.00162473
0.00162473
0.00162473
0.00162652
0.00162652
0.00162652
0.00177117
0.00177117
0.00177117
0.00170924
0.00170924
0.00170924
0.00174803
0.00174803
0.00174803
0.001667
0.001667
0.001667
0.00164561
0.00164561
0.00164561
0.00160715
0.00160715
0.00160715
0.00178993
0.00178993
0.00178993
0.00177358
0.00177358
0.00177358
0.0018166
0.0018166
0.0018166
0.00169135
0.00169135
0.00169135
0.00166549
0.00166549
0.00166549
0.00170695
0.00170695
0.00170695
0.00169635
0.00169635
0.00169635
0.00165293
0.00165293
0.00165293
0.00166824
0.00166824
0.00166824
0.00164205
0.00164205
0.00164205
0.00170171
0.00170171
0.00170171
0.00168524
0.00168524
0.00168524
0.0014798
0.0014798
0.0014798
0.000293459
0.000293459
0.000293459
0.00030641
0.00030641
0.00030641
0.00115504
0.00115504
0.00115504
0.0001771
0.0001771
0.0001771
0.000171584
0.000171584
0.000171584
0.000240063
0.000240063
0.000240063
0.000255689
0.000255689
0.000255689
0.000286202
0.000286202
0.000286202
0.000298713
0.000298713
0.000298713
0.000249238
0.000249238
0.000249238
0.000278942
0.000278942
0.000278942
0.000214914
0.000214914
0.000214914
0.000207783
0.000207783
0.000207783
0.000186377
0.000186377
0.000186377
0.000176012
0.000176012
0.000176012
0.000181746
0.000181746
0.000181746
0.00020259
0.00020259
0.00020259
0.0012821
0.0012821
0.0012821
0.001318
0.001318
0.001318
0.00138371
0.00138371
0.00138371
0.00139534
0.00139534
0.00139534
9.60329e-05
9.60329e-05
9.60329e-05
0.000159601
0.000159601
0.000159601
0.000101341
0.000101341
0.000101341
0.000614378
0.000614378
0.000614378
0.000795017
0.000795017
0.000795017
0.000646609
0.000646609
0.000646609
0.000740753
0.000740753
0.000740753
0.00111917
0.00111917
0.00111917
0.0011072
0.0011072
0.0011072
0.0011043
0.0011043
0.0011043
0.00117495
0.00117495
0.00117495
0.00122632
0.00122632
0.00122632
0.00122243
0.00122243
0.00122243
0.00142184
0.00142184
0.00142184
0.00149415
0.00149415
0.00149415
0.000229616
0.000229616
0.000229616
0.000257611
0.000257611
0.000257611
0.000140509
0.000140509
0.000140509
0.000144544
0.000144544
0.000144544
0.000237266
0.000237266
0.000237266
0.000221232
0.000221232
0.000221232
0.000122953
0.000122953
0.000122953
0.00012751
0.00012751
0.00012751
0.000119141
0.000119141
0.000119141
0.000112917
0.000112917
0.000112917
0.000105655
0.000105655
0.000105655
0.000109427
0.000109427
0.000109427
0.000264426
0.000264426
0.000264426
0.000332819
0.000332819
0.000332819
0.000309263
0.000309263
0.000309263
0.000275626
0.000275626
0.000275626
0.000192197
0.000192197
0.000192197
0.000198551
0.000198551
0.000198551
0.000323594
0.000323594
0.000323594
0.000229886
0.000229886
0.000229886
0.000257165
0.000257165
0.000257165
0.000375062
0.000375062
0.000375062
0.000753231
0.000753231
0.000753231
0.000721103
0.000721103
0.000721103
0.000629622
0.000629622
0.000629622
0.000360568
0.000360568
0.000360568
0.000335306
0.000335306
0.000335306
0.000396036
0.000396036
0.000396036
0.000351309
0.000351309
0.000351309
0.000518612
0.000518612
0.000518612
0.000399472
0.000399472
0.000399472
0.000351467
0.000351467
0.000351467
0.000329913
0.000329913
0.000329913
0.000516898
0.000516898
0.000516898
0.000428676
0.000428676
0.000428676
0.000488095
0.000488095
0.000488095
0.000845282
0.000845282
0.000845282
0.000851354
0.000851354
0.000851354
0.000829944
0.000829944
0.000829944
0.000332513
0.000332513
0.000332513
0.000293733
0.000293733
0.000293733
0.000222159
0.000222159
0.000222159
0.000213999
0.000213999
0.000213999
0.000191226
0.000191226
0.000191226
0.000178894
0.000178894
0.000178894
0.000155995
0.000155995
0.000155995
0.000160353
0.000160353
0.000160353
0.00241351
0.00241351
0.00241351
0.00258228
0.00258228
0.00258228
0.00256996
0.00256996
0.00256996
0.00226565
0.00226565
0.00226565
0.00232588
0.00232588
0.00232588
0.00234766
0.00234766
0.00234766
0.00197723
0.00197723
0.00197723
0.0020168
0.0020168
0.0020168
0.00020414
0.00020414
0.00020414
0.00022564
0.00022564
0.00022564
0.00031454
0.00031454
0.00031454
0.000314386
0.000314386
0.000314386
0.000366627
0.000366627
0.000366627
0.000407638
0.000407638
0.000407638
0.000489007
0.000489007
0.000489007
0.0007843
0.0007843
0.0007843
0.000495348
0.000495348
0.000495348
0.000656679
0.000656679
0.000656679
0.000552555
0.000552555
0.000552555
0.000537189
0.000537189
0.000537189
0.000695657
0.000695657
0.000695657
0.000620104
0.000620104
0.000620104
0.000811209
0.000811209
0.000811209
0.000810015
0.000810015
0.000810015
0.000804624
0.000804624
0.000804624
0.000790894
0.000790894
0.000790894
0.000898285
0.000898285
0.000898285
0.000896375
0.000896375
0.000896375
0.000871196
0.000871196
0.000871196
0.000842138
0.000842138
0.000842138
0.000868688
0.000868688
0.000868688
0.00084019
0.00084019
0.00084019
0.000755991
0.000755991
0.000755991
0.000733401
0.000733401
0.000733401
0.000701787
0.000701787
0.000701787
0.000690437
0.000690437
0.000690437
0.000275955
0.000275955
0.000275955
0.000292132
0.000292132
0.000292132
0.00033065
0.00033065
0.00033065
0.000292921
0.000292921
0.000292921
0.000207721
0.000207721
0.000207721
0.000232196
0.000232196
0.000232196
0.00019649
0.00019649
0.00019649
0.000245677
0.000245677
0.000245677
0.00023164
0.00023164
0.00023164
0.000207288
0.000207288
0.000207288
0.000230882
0.000230882
0.000230882
0.000291146
0.000291146
0.000291146
0.000244562
0.000244562
0.000244562
0.000274545
0.000274545
0.000274545
0.000244334
0.000244334
0.000244334
0.000274283
0.000274283
0.000274283
0.000166805
0.000166805
0.000166805
0.000175575
0.000175575
0.000175575
0.000143374
0.000143374
0.000143374
0.000129244
0.000129244
0.000129244
0.000143254
0.000143254
0.000143254
0.000150022
0.000150022
0.000150022
0.000123337
0.000123337
0.000123337
0.000129363
0.000129363
0.000129363
9.34682e-05
9.34682e-05
9.34682e-05
9.7861e-05
9.7861e-05
9.7861e-05
0.000106723
0.000106723
0.000106723
0.000111875
0.000111875
0.000111875
0.00010665
0.00010665
0.00010665
9.34272e-05
9.34272e-05
9.34272e-05
9.78027e-05
9.78027e-05
9.78027e-05
0.0001293
0.0001293
0.0001293
0.000647075
0.000647075
0.000647075
0.000523347
0.000523347
0.000523347
0.000627238
0.000627238
0.000627238
0.000569035
0.000569035
0.000569035
0.000591112
0.000591112
0.000591112
0.000604407
0.000604407
0.000604407
0.000523628
0.000523628
0.000523628
0.000578571
0.000578571
0.000578571
0.000552384
0.000552384
0.000552384
0.000593343
0.000593343
0.000593343
8.52717e-05
8.52717e-05
8.52717e-05
0.000371752
0.000371752
0.000371752
8.1495e-05
8.1495e-05
8.1495e-05
0.000463714
0.000463714
0.000463714
0.000496845
0.000496845
0.000496845
0.000362706
0.000362706
0.000362706
8.15962e-05
8.15962e-05
8.15962e-05
8.15417e-05
8.15417e-05
8.15417e-05
7.48441e-05
7.48441e-05
7.48441e-05
7.19179e-05
7.19179e-05
7.19179e-05
7.48782e-05
7.48782e-05
7.48782e-05
9.21205e-05
9.21205e-05
9.21205e-05
0.00045362
0.00045362
0.00045362
0.000407764
0.000407764
0.000407764
9.49142e-05
9.49142e-05
9.49142e-05
0.000123998
0.000123998
0.000123998
0.000237393
0.000237393
0.000237393
0.000116727
0.000116727
0.000116727
8.93992e-05
8.93992e-05
8.93992e-05
0.000118492
0.000118492
0.000118492
0.000228672
0.000228672
0.000228672
0.000121987
0.000121987
0.000121987
0.000231475
0.000231475
0.000231475
0.000515218
0.000515218
0.000515218
0.000509793
0.000509793
0.000509793
0.000167023
0.000167023
0.000167023
0.000175991
0.000175991
0.000175991
0.000196134
0.000196134
0.000196134
0.000206918
0.000206918
0.000206918
0.000195825
0.000195825
0.000195825
0.000175761
0.000175761
0.000175761
0.000106947
0.000106947
0.000106947
0.000106836
0.000106836
0.000106836
0.000112077
0.000112077
0.000112077
9.80487e-05
9.80487e-05
9.80487e-05
8.22944e-05
8.22944e-05
8.22944e-05
9.96496e-05
9.96496e-05
9.96496e-05
9.48554e-05
9.48554e-05
9.48554e-05
9.40092e-05
9.40092e-05
9.40092e-05
7.52474e-05
7.52474e-05
7.52474e-05
8.20269e-05
8.20269e-05
8.20269e-05
8.19102e-05
8.19102e-05
8.19102e-05
8.56271e-05
8.56271e-05
8.56271e-05
0.000107153
0.000107153
0.000107153
9.82605e-05
9.82605e-05
9.82605e-05
9.84219e-05
9.84219e-05
9.84219e-05
9.38654e-05
9.38654e-05
9.38654e-05
0.000123735
0.000123735
0.000123735
0.000112662
0.000112662
0.000112662
0.000112991
0.000112991
0.000112991
0.000107322
0.000107322
0.000107322
4.08254e-05
4.08254e-05
4.08254e-05
3.76436e-05
3.76436e-05
3.76436e-05
4.19113e-05
4.19113e-05
4.19113e-05
4.3222e-05
4.3222e-05
4.3222e-05
4.83234e-05
4.83234e-05
4.83234e-05
5.20502e-05
5.20502e-05
5.20502e-05
4.4354e-05
4.4354e-05
4.4354e-05
4.71988e-05
4.71988e-05
4.71988e-05
4.84049e-05
4.84049e-05
4.84049e-05
4.96167e-05
4.96167e-05
4.96167e-05
7.38103e-05
7.38103e-05
7.38103e-05
6.53805e-05
6.53805e-05
6.53805e-05
6.03147e-05
6.03147e-05
6.03147e-05
6.3671e-05
6.3671e-05
6.3671e-05
6.69856e-05
6.69856e-05
6.69856e-05
5.89213e-05
5.89213e-05
5.89213e-05
5.71957e-05
5.71957e-05
5.71957e-05
7.66785e-05
7.66785e-05
7.66785e-05
7.5767e-05
7.5767e-05
7.5767e-05
8.38835e-05
8.38835e-05
8.38835e-05
8.82513e-05
8.82513e-05
8.82513e-05
5.87058e-05
5.87058e-05
5.87058e-05
5.59349e-05
5.59349e-05
5.59349e-05
5.3401e-05
5.3401e-05
5.3401e-05
5.45417e-05
5.45417e-05
5.45417e-05
6.70863e-05
6.70863e-05
6.70863e-05
6.18838e-05
6.18838e-05
6.18838e-05
6.02111e-05
6.02111e-05
6.02111e-05
5.62718e-05
5.62718e-05
5.62718e-05
5.74388e-05
5.74388e-05
5.74388e-05
5.88322e-05
5.88322e-05
5.88322e-05
6.33742e-05
6.33742e-05
6.33742e-05
0.000118881
0.000118881
0.000118881
0.000108227
0.000108227
0.000108227
8.59594e-05
8.59594e-05
8.59594e-05
9.84285e-05
9.84285e-05
9.84285e-05
0.000107829
0.000107829
0.000107829
9.58256e-05
9.58256e-05
9.58256e-05
9.35308e-05
9.35308e-05
9.35308e-05
0.00011122
0.00011122
0.00011122
0.000104974
0.000104974
0.000104974
5.33488e-05
5.33488e-05
5.33488e-05
5.44733e-05
5.44733e-05
5.44733e-05
2.70346e-05
2.70346e-05
2.70346e-05
1.62406e-05
1.62406e-05
1.62406e-05
1.92551e-05
1.92551e-05
1.92551e-05
2.07792e-05
2.07792e-05
2.07792e-05
2.03588e-05
2.03588e-05
2.03588e-05
3.86415e-05
3.86415e-05
3.86415e-05
3.75336e-05
3.75336e-05
3.75336e-05
6.34494e-05
6.34494e-05
6.34494e-05
6.60072e-05
6.60072e-05
6.60072e-05
1.65044e-05
1.65044e-05
1.65044e-05
2.628e-05
2.628e-05
2.628e-05
5.86649e-05
5.86649e-05
5.86649e-05
2.98531e-05
2.98531e-05
2.98531e-05
2.38116e-05
2.38116e-05
2.38116e-05
8.34923e-05
8.34923e-05
8.34923e-05
6.16434e-05
6.16434e-05
6.16434e-05
3.9915e-05
3.9915e-05
3.9915e-05
4.20235e-05
4.20235e-05
4.20235e-05
4.60986e-05
4.60986e-05
4.60986e-05
4.52561e-05
4.52561e-05
4.52561e-05
2.78075e-05
2.78075e-05
2.78075e-05
2.24109e-05
2.24109e-05
2.24109e-05
2.2035e-05
2.2035e-05
2.2035e-05
2.14084e-05
2.14084e-05
2.14084e-05
2.09654e-05
2.09654e-05
2.09654e-05
3.36247e-05
3.36247e-05
3.36247e-05
3.7516e-05
3.7516e-05
3.7516e-05
3.64598e-05
3.64598e-05
3.64598e-05
3.0633e-05
3.0633e-05
3.0633e-05
2.86972e-05
2.86972e-05
2.86972e-05
2.9698e-05
2.9698e-05
2.9698e-05
3.25929e-05
3.25929e-05
3.25929e-05
4.47848e-05
4.47848e-05
4.47848e-05
4.20844e-05
4.20844e-05
4.20844e-05
1.9332e-05
1.9332e-05
1.9332e-05
1.95255e-05
1.95255e-05
1.95255e-05
1.88033e-05
1.88033e-05
1.88033e-05
1.74841e-05
1.74841e-05
1.74841e-05
1.75622e-05
1.75622e-05
1.75622e-05
1.84114e-05
1.84114e-05
1.84114e-05
1.90549e-05
1.90549e-05
1.90549e-05
2.03215e-05
2.03215e-05
2.03215e-05
2.0726e-05
2.0726e-05
2.0726e-05
0.000948613
0.000948613
0.000948613
0.000845786
0.000845786
0.000845786
0.00128599
0.00128599
0.00128599
0.00126714
0.00126714
0.00126714
0.00129174
0.00129174
0.00129174
0.00122556
0.00122556
0.00122556
0.00121367
0.00121367
0.00121367
0.0012834
0.0012834
0.0012834
0.00126466
0.00126466
0.00126466
0.00119118
0.00119118
0.00119118
0.00120392
0.00120392
0.00120392
0.00140432
0.00140432
0.00140432
0.00153824
0.00153824
0.00153824
0.0014661
0.0014661
0.0014661
0.00149261
0.00149261
0.00149261
0.00148971
0.00148971
0.00148971