<VTKFile type="UnstructuredGrid" version="1.0">
<UnstructuredGrid>
<Piece NumberOfPoints="10830" NumberOfCells="3610">
<Points>
<DataArray type="Float64" NumberOfComponents="3" format="ascii">
2.19217 2.20649 13.6107
2.19928 2.19938 13.585
2.19928 2.19938 13.6365
2.19928 2.19938 14.1401
2.19928 2.19938 14.191
2.19129 2.20737 14.1655
2.19928 2.19938 14.1401
2.19129 2.20737 14.1655
2.17928 2.21938 14.1401
1.30559 3.09307 14.6126
1.31816 3.0805 14.63
1.28831 3.11035 14.63
1.28831 3.11035 14.63
1.28831 3.11035 14.5998
1.30559 3.09307 14.6126
2.19928 2.19938 14.1401
2.17928 2.21938 14.1401
2.1913 2.20736 14.1147
1.29441 3.10425 13.8618
1.28831 3.11035 13.887
1.28831 3.11035 13.8366
2.19132 2.20734 13.8619
2.19928 2.19938 13.8871
2.17929 2.21937 13.8871
2.19117 2.20749 13.7613
2.19928 2.19938 13.7363
2.19928 2.19938 13.7864
2.17929 2.21937 13.8871
2.19928 2.19938 13.8871
2.19133 2.20733 13.9123
2.19928 2.19938 13.8871
2.19928 2.19938 13.9375
2.19133 2.20733 13.9123
2.17929 2.21937 13.9376
2.19133 2.20733 13.9123
2.19928 2.19938 13.9375
2.17928 2.21938 14.0893
2.1913 2.20736 14.1147
2.16946 2.22921 14.1147
2.16946 2.22921 14.1147
2.1913 2.20736 14.1147
2.17928 2.21938 14.1401
2.16946 2.22921 14.1147
2.15842 2.24024 14.0893
2.17928 2.21938 14.0893
2.16946 2.22921 14.1147
2.17928 2.21938 14.1401
2.15841 2.24025 14.1401
2.19928 2.19938 13.988
2.19928 2.19938 14.0386
2.19132 2.20734 14.0133
2.19132 2.20734 14.0133
2.17929 2.21937 14.0386
2.16947 2.22919 14.0133
2.19928 2.19938 14.0386
2.17929 2.21937 14.0386
2.19132 2.20734 14.0133
2.19928 2.19938 14.0893
2.1913 2.20736 14.1147
2.17928 2.21938 14.0893
2.19928 2.19938 14.1401
2.1913 2.20736 14.1147
2.19928 2.19938 14.0893
2.17913 2.21954 13.7363
2.19928 2.19938 13.7363
2.19117 2.20749 13.7613
2.17927 2.21939 14.191
2.19129 2.20737 14.1655
2.19928 2.19938 14.191
1.8956 2.50306 14.3707
1.90602 2.49264 14.345
1.91643 2.48223 14.3707
1.28831 3.11035 13.585
1.30792 3.09074 13.585
1.29529 3.10337 13.6097
1.34771 3.05096 13.8366
1.32717 3.07149 13.8366
1.33709 3.06157 13.8114
1.30704 3.09162 13.8366
1.32717 3.07149 13.8366
1.31607 3.08259 13.8618
1.30704 3.09162 13.8366
1.29441 3.10425 13.8618
1.28831 3.11035 13.8366
1.31607 3.08259 13.8618
1.29441 3.10425 13.8618
1.30704 3.09162 13.8366
1.2945 3.10417 14.0639
1.28831 3.11035 14.0893
1.28831 3.11035 14.0386
1.3071 3.09157 14.0893
1.31615 3.08252 14.0639
1.32724 3.07142 14.0893
1.28831 3.11035 14.0893
1.2945 3.10417 14.0639
1.3071 3.09157 14.0893
1.3071 3.09157 14.0893
1.2945 3.10417 14.0639
1.31615 3.08252 14.0639
1.30708 3.09158 14.0386
1.32723 3.07143 14.0386
1.31615 3.08252 14.0639
1.30708 3.09158 14.0386
1.2945 3.10417 14.0639
1.28831 3.11035 14.0386
1.31615 3.08252 14.0639
1.2945 3.10417 14.0639
1.30708 3.09158 14.0386
1.28831 3.11035 13.887
1.29441 3.10425 13.8618
1.30705 3.09161 13.887
1.30705 3.09161 13.887
1.29441 3.10425 13.8618
1.31607 3.08259 13.8618
1.32724 3.07142 14.0893
1.31615 3.08252 14.0639
1.33718 3.06148 14.0639
1.31615 3.08252 14.0639
1.32723 3.07143 14.0386
1.33718 3.06148 14.0639
1.49256 2.90611 14.0387
1.50289 2.89577 14.064
1.48223 2.91643 14.064
1.48223 2.91643 14.064
1.50289 2.89577 14.064
1.49257 2.90609 14.0894
1.49257 2.90609 14.0894
1.50289 2.89577 14.064
1.51323 2.88543 14.0894
1.88521 2.51346 14.345
1.90602 2.49264 14.345
1.8956 2.50306 14.3707
2.19127 2.20739 13.8116
2.19928 2.19938 13.7864
2.19928 2.19938 13.8367
2.19928 2.19938 13.8871
2.19132 2.20734 13.8619
2.19928 2.19938 13.8367
2.11618 2.28248 13.9881
2.09503 2.30363 13.9881
2.10562 2.29304 13.9628
2.17929 2.21937 13.9881
2.19132 2.20734 14.0133
2.16947 2.22919 14.0133
2.19928 2.19938 13.988
2.19132 2.20734 14.0133
2.17929 2.21937 13.9881
2.16947 2.22919 14.0133
2.17929 2.21937 14.0386
2.15843 2.24024 14.0386
2.19131 2.20735 14.0639
2.17929 2.21937 14.0386
2.19928 2.19938 14.0386
2.19928 2.19938 14.0386
2.19928 2.19938 14.0893
2.19131 2.20735 14.0639
2.19131 2.20735 14.0639
2.19928 2.19938 14.0893
2.17928 2.21938 14.0893
2.1693 2.22936 13.7614
2.17913 2.21954 13.7363
2.19117 2.20749 13.7613
2.19127 2.20739 13.8116
2.19928 2.19938 13.8367
2.17927 2.21939 13.8367
2.17927 2.21939 13.8367
2.19928 2.19938 13.8367
2.19132 2.20734 13.8619
2.10553 2.29313 13.8116
2.09491 2.30375 13.7864
2.11605 2.28261 13.7864
2.1372 2.26147 13.7865
2.12662 2.27204 13.7613
2.14787 2.25079 13.7613
2.1372 2.26147 13.7865
2.11605 2.28261 13.7864
2.12662 2.27204 13.7613
2.16946 2.2292 13.8619
2.19132 2.20734 13.8619
2.17929 2.21937 13.8871
2.16946 2.2292 13.8619
2.17927 2.21939 13.8367
2.19132 2.20734 13.8619
2.16945 2.22921 14.1656
2.17928 2.21938 14.1401
2.19129 2.20737 14.1655
2.19129 2.20737 14.1655
2.17927 2.21939 14.191
2.16945 2.22921 14.1656
2.15841 2.24025 14.1401
2.17928 2.21938 14.1401
2.16945 2.22921 14.1656
2.16944 2.22922 14.3191
2.14804 2.25062 14.3191
2.15841 2.24025 14.2934
2.14804 2.25063 14.2677
2.16944 2.22922 14.2677
2.15841 2.24025 14.2934
2.19128 2.20738 14.2165
2.17927 2.21939 14.191
2.19928 2.19938 14.191
2.16944 2.22922 14.2166
2.17927 2.21939 14.191
2.19128 2.20738 14.2165
1.93725 2.46141 14.4223
1.94766 2.451 14.4482
1.92679 2.47187 14.4482
2.05276 2.34591 14.2934
2.06331 2.33535 14.2678
2.07386 2.3248 14.2934
2.07386 2.3248 14.2934
2.06331 2.33535 14.2678
2.08443 2.31423 14.2678
2.15841 2.24026 14.2421
2.14804 2.25062 14.2166
2.16944 2.22922 14.2166
2.15841 2.24026 14.2421
2.16944 2.22922 14.2677
2.14804 2.25063 14.2677
2.04222 2.35644 14.2678
2.06331 2.33535 14.2678
2.05276 2.34591 14.2934
1.9897 2.40896 14.0387
1.96874 2.42992 14.0387
1.97921 2.41945 14.0134
1.93736 2.4613 14.0134
1.92692 2.47174 14.0387
1.91649 2.48217 14.0134
1.94781 2.45085 14.0387
1.92692 2.47174 14.0387
1.93736 2.4613 14.0134
1.92691 2.47175 13.9377
1.9478 2.45086 13.9377
1.93736 2.46131 13.9629
1.93736 2.46131 13.9629
1.91648 2.48218 13.9629
1.92691 2.47175 13.9377
1.92691 2.47175 13.9377
1.91648 2.48218 13.9629
1.90605 2.49261 13.9376
1.93736 2.46131 13.9629
1.9478 2.45086 13.9377
1.95826 2.4404 13.9629
1.96871 2.42995 13.8872
1.9792 2.41946 13.9124
1.95825 2.44041 13.9124
1.95825 2.44041 13.9124
1.94778 2.45088 13.8872
1.96871 2.42995 13.8872
1.8126 2.58607 14.0641
1.82295 2.57571 14.0387
1.83332 2.56534 14.0641
1.82295 2.57571 14.0387
1.84369 2.55497 14.0388
1.83332 2.56534 14.0641
1.92692 2.47174 13.9882
1.91648 2.48218 13.9629
1.93736 2.46131 13.9629
1.92692 2.47174 13.9882
1.93736 2.4613 14.0134
1.91649 2.48217 14.0134
1.91649 2.48217 14.0134
1.89565 2.50301 14.0134
1.90606 2.4926 13.9882
1.90606 2.4926 13.9882
1.92692 2.47174 13.9882
1.91649 2.48217 14.0134
1.91648 2.48218 13.9629
1.92692 2.47174 13.9882
1.90606 2.4926 13.9882
1.90605 2.49261 13.9376
1.88523 2.51343 13.9376
1.89563 2.50303 13.9124
1.88521 2.51345 13.8872
1.90603 2.49263 13.8872
1.89563 2.50303 13.9124
1.51322 2.88545 14.0387
1.50289 2.89577 14.064
1.49256 2.90611 14.0387
1.49256 2.90611 14.0387
1.50288 2.89578 14.0134
1.51322 2.88545 14.0387
1.29442 3.10424 13.6599
1.28831 3.11035 13.6851
1.28831 3.11035 13.6344
1.28831 3.11035 13.585
1.29529 3.10337 13.6097
1.28831 3.11035 13.6344
1.307 3.09167 13.7357
1.28831 3.11035 13.7357
1.29431 3.10435 13.7104
1.28831 3.11035 13.7357
1.28831 3.11035 13.6851
1.29431 3.10435 13.7104
2.19928 2.19938 13.585
2.19217 2.20649 13.6107
2.18013 2.21854 13.585
1.28831 3.11035 13.8366
1.28831 3.11035 13.7861
1.29438 3.10428 13.8114
1.29438 3.10428 13.8114
1.30704 3.09162 13.8366
1.28831 3.11035 13.8366
1.30702 3.09164 13.7861
1.29438 3.10428 13.8114
1.28831 3.11035 13.7861
1.30702 3.09164 13.7861
1.31601 3.08265 13.7609
1.32714 3.07152 13.7862
1.31605 3.08262 13.8114
1.33709 3.06157 13.8114
1.32717 3.07149 13.8366
1.32717 3.07149 13.8366
1.30704 3.09162 13.8366
1.31605 3.08262 13.8114
1.32714 3.07152 13.7862
1.33709 3.06157 13.8114
1.31605 3.08262 13.8114
1.31605 3.08262 13.8114
1.30702 3.09164 13.7861
1.32714 3.07152 13.7862
1.30704 3.09162 13.8366
1.29438 3.10428 13.8114
1.31605 3.08262 13.8114
1.29438 3.10428 13.8114
1.30702 3.09164 13.7861
1.31605 3.08262 13.8114
1.29435 3.10432 13.7609
1.28831 3.11035 13.7861
1.28831 3.11035 13.7357
1.29435 3.10432 13.7609
1.28831 3.11035 13.7357
1.307 3.09167 13.7357
1.307 3.09167 13.7357
1.31601 3.08265 13.7609
1.29435 3.10432 13.7609
1.29435 3.10432 13.7609
1.30702 3.09164 13.7861
1.28831 3.11035 13.7861
1.31601 3.08265 13.7609
1.30702 3.09164 13.7861
1.29435 3.10432 13.7609
1.33717 3.06149 14.0133
1.32723 3.07143 14.0386
1.31613 3.08254 14.0133
1.32723 3.07143 14.0386
1.30708 3.09158 14.0386
1.31613 3.08254 14.0133
1.31613 3.08254 14.0133
1.32722 3.07145 13.988
1.33717 3.06149 14.0133
1.33711 3.06155 13.8618
1.32717 3.07149 13.8366
1.34771 3.05096 13.8366
1.31607 3.08259 13.8618
1.32717 3.07149 13.8366
1.33711 3.06155 13.8618
1.35794 3.04072 13.8618
1.33711 3.06155 13.8618
1.34771 3.05096 13.8366
1.34773 3.05094 13.887
1.33711 3.06155 13.8618
1.35794 3.04072 13.8618
1.34773 3.05094 13.887
1.35794 3.04072 13.8618
1.36839 3.03027 13.887
1.50287 2.89579 13.9628
1.51321 2.88546 13.9881
1.49255 2.90612 13.9881
1.49255 2.90612 13.9881
1.51321 2.88546 13.9881
1.50288 2.89578 14.0134
1.42017 2.9785 14.0133
1.44086 2.9578 14.0133
1.43052 2.96814 14.0386
1.43051 2.96815 13.988
1.44086 2.9578 14.0133
1.42017 2.9785 14.0133
1.44085 2.95782 13.9628
1.4305 2.96817 13.9375
1.45119 2.94748 13.9375
1.43051 2.96815 13.988
1.42015 2.97851 13.9628
1.44085 2.95782 13.9628
1.44085 2.95782 13.9628
1.42015 2.97851 13.9628
1.4305 2.96817 13.9375
1.44087 2.95779 14.064
1.46156 2.9371 14.064
1.45123 2.94744 14.0893
1.3995 2.99917 14.1147
1.40985 2.98882 14.0893
1.4202 2.97846 14.1147
1.40983 2.98883 14.0386
1.42017 2.9785 14.0133
1.43052 2.96814 14.0386
1.39946 2.9992 14.0133
1.42017 2.9785 14.0133
1.40983 2.98883 14.0386
1.32724 3.07142 14.0893
1.33718 3.06148 14.0639
1.34779 3.05087 14.0893
1.33717 3.06149 14.0133
1.32722 3.07145 13.988
1.34776 3.0509 13.988
1.34776 3.0509 13.988
1.35799 3.04067 14.0133
1.33717 3.06149 14.0133
1.38911 3.00955 13.988
1.39946 2.9992 14.0133
1.37874 3.01992 14.0133
1.34777 3.05089 14.0386
[...]
<PointData Scalars="View Factor" >
<DataArray type="Float64" Name="View Factor" NumberOfComponents="1" format="ascii">
8.70948e-07
8.70948e-07
8.70948e-07
3.93075e-07
3.93075e-07
3.93075e-07
3.96519e-07
3.96519e-07
3.96519e-07
5.37532e-06
5.37532e-06
5.37532e-06
5.42504e-06
5.42504e-06
5.42504e-06
4.04675e-07
4.04675e-07
4.04675e-07
5.97528e-06
5.97528e-06
5.97528e-06
5.75418e-07
5.75418e-07
5.75418e-07
7.05686e-07
7.05686e-07
7.05686e-07
5.61062e-07
5.61062e-07
5.61062e-07
5.45382e-07
5.45382e-07
5.45382e-07
5.32467e-07
5.32467e-07
5.32467e-07
4.78315e-07
4.78315e-07
4.78315e-07
4.70732e-07
4.70732e-07
4.70732e-07
1.0612e-06
1.0612e-06
1.0612e-06
1.04757e-06
1.04757e-06
1.04757e-06
4.70969e-07
4.70969e-07
4.70969e-07
5.248e-07
5.248e-07
5.248e-07
4.60602e-07
4.60602e-07
4.60602e-07
4.21672e-07
4.21672e-07
4.21672e-07
4.16183e-07
4.16183e-07
4.16183e-07
7.22304e-07
7.22304e-07
7.22304e-07
3.80742e-07
3.80742e-07
3.80742e-07
2.10431e-07
2.10431e-07
2.10431e-07
6.14841e-06
6.14841e-06
6.14841e-06
5.75538e-06
5.75538e-06
5.75538e-06
5.85932e-06
5.85932e-06
5.85932e-06
5.95877e-06
5.95877e-06
5.95877e-06
5.90847e-06
5.90847e-06
5.90847e-06
5.82538e-06
5.82538e-06
5.82538e-06
5.68772e-06
5.68772e-06
5.68772e-06
5.78375e-06
5.78375e-06
5.78375e-06
5.74778e-06
5.74778e-06
5.74778e-06
5.71154e-06
5.71154e-06
5.71154e-06
5.80954e-06
5.80954e-06
5.80954e-06
5.7602e-06
5.7602e-06
5.7602e-06
5.93309e-06
5.93309e-06
5.93309e-06
5.89635e-06
5.89635e-06
5.89635e-06
5.63833e-06
5.63833e-06
5.63833e-06
5.65066e-06
5.65066e-06
5.65066e-06
4.5483e-06
4.5483e-06
4.5483e-06
4.53786e-06
4.53786e-06
4.53786e-06
4.38134e-06
4.38134e-06
4.38134e-06
2.17169e-07
2.17169e-07
2.17169e-07
6.43324e-07
6.43324e-07
6.43324e-07
5.89991e-07
5.89991e-07
5.89991e-07
7.93216e-07
7.93216e-07
7.93216e-07
5.36024e-07
5.36024e-07
5.36024e-07
4.82422e-07
4.82422e-07
4.82422e-07
1.09273e-06
1.09273e-06
1.09273e-06
4.50467e-07
4.50467e-07
4.50467e-07
4.41946e-07
4.41946e-07
4.41946e-07
4.30399e-07
4.30399e-07
4.30399e-07
7.83093e-07
7.83093e-07
7.83093e-07
6.24373e-07
6.24373e-07
6.24373e-07
6.07693e-07
6.07693e-07
6.07693e-07
9.30772e-07
9.30772e-07
9.30772e-07
1.13664e-06
1.13664e-06
1.13664e-06
1.08813e-06
1.08813e-06
1.08813e-06
6.39626e-07
6.39626e-07
6.39626e-07
6.57068e-07
6.57068e-07
6.57068e-07
4.5542e-07
4.5542e-07
4.5542e-07
4.47286e-07
4.47286e-07
4.47286e-07
1.04025e-06
1.04025e-06
1.04025e-06
9.35308e-07
9.35308e-07
9.35308e-07
9.46869e-07
9.46869e-07
9.46869e-07
3.73575e-07
3.73575e-07
3.73575e-07
4.34305e-07
4.34305e-07
4.34305e-07
1.80223e-07
1.80223e-07
1.80223e-07
2.15548e-07
2.15548e-07
2.15548e-07
2.18867e-07
2.18867e-07
2.18867e-07
9.62902e-07
9.62902e-07
9.62902e-07
9.51745e-07
9.51745e-07
9.51745e-07
2.18874e-07
2.18874e-07
2.18874e-07
3.30622e-07
3.30622e-07
3.30622e-07
3.53341e-07
3.53341e-07
3.53341e-07
3.43248e-07
3.43248e-07
3.43248e-07
4.00184e-07
4.00184e-07
4.00184e-07
3.97944e-07
3.97944e-07
3.97944e-07
4.13553e-07
4.13553e-07
4.13553e-07
3.8487e-07
3.8487e-07
3.8487e-07
4.19658e-07
4.19658e-07
4.19658e-07
4.25746e-07
4.25746e-07
4.25746e-07
3.86742e-07
3.86742e-07
3.86742e-07
3.88143e-07
3.88143e-07
3.88143e-07
3.86979e-07
3.86979e-07
3.86979e-07
3.63752e-07
3.63752e-07
3.63752e-07
3.75727e-07
3.75727e-07
3.75727e-07
3.74597e-07
3.74597e-07
3.74597e-07
3.86507e-07
3.86507e-07
3.86507e-07
4.41036e-07
4.41036e-07
4.41036e-07
4.69919e-07
4.69919e-07
4.69919e-07
4.40301e-06
4.40301e-06
4.40301e-06
4.41408e-06
4.41408e-06
4.41408e-06
6.12975e-06
6.12975e-06
6.12975e-06
6.16742e-06
6.16742e-06
6.16742e-06
6.04764e-06
6.04764e-06
6.04764e-06
6.09076e-06
6.09076e-06
6.09076e-06
8.36204e-07
8.36204e-07
8.36204e-07
6.01343e-06
6.01343e-06
6.01343e-06
5.97133e-06
5.97133e-06
5.97133e-06
5.99652e-06
5.99652e-06
5.99652e-06
5.90989e-06
5.90989e-06
5.90989e-06
5.82142e-06
5.82142e-06
5.82142e-06
5.87217e-06
5.87217e-06
5.87217e-06
5.83362e-06
5.83362e-06
5.83362e-06
5.89681e-06
5.89681e-06
5.89681e-06
5.9342e-06
5.9342e-06
5.9342e-06
5.94614e-06
5.94614e-06
5.94614e-06
6.05192e-06
6.05192e-06
6.05192e-06
6.03542e-06
6.03542e-06
6.03542e-06
5.98498e-06
5.98498e-06
5.98498e-06
6.0092e-06
6.0092e-06
6.0092e-06
5.97189e-06
5.97189e-06
5.97189e-06
5.6748e-06
5.6748e-06
5.6748e-06
5.72433e-06
5.72433e-06
5.72433e-06
5.68685e-06
5.68685e-06
5.68685e-06
5.7435e-06
5.7435e-06
5.7435e-06
5.79676e-06
5.79676e-06
5.79676e-06
5.68424e-06
5.68424e-06
5.68424e-06
5.67133e-06
5.67133e-06
5.67133e-06
5.61336e-06
5.61336e-06
5.61336e-06
4.43988e-06
4.43988e-06
4.43988e-06
4.4297e-06
4.4297e-06
4.4297e-06
5.08193e-06
5.08193e-06
5.08193e-06
5.09123e-06
5.09123e-06
5.09123e-06
5.06746e-06
5.06746e-06
5.06746e-06
5.11148e-06
5.11148e-06
5.11148e-06
5.12262e-06
5.12262e-06
5.12262e-06
4.90669e-06
4.90669e-06
4.90669e-06
5.15619e-06
5.15619e-06
5.15619e-06
5.14806e-06
5.14806e-06
5.14806e-06
5.21352e-06
5.21352e-06
5.21352e-06
5.5772e-06
5.5772e-06
5.5772e-06
5.63568e-06
5.63568e-06
5.63568e-06
5.57642e-06
5.57642e-06
5.57642e-06
5.35189e-06
5.35189e-06
5.35189e-06
5.60145e-06
5.60145e-06
5.60145e-06
5.61241e-06
5.61241e-06
5.61241e-06
5.56466e-06
5.56466e-06
5.56466e-06
5.11232e-06
5.11232e-06
5.11232e-06
5.53453e-06
5.53453e-06
5.53453e-06
5.41164e-06
5.41164e-06
5.41164e-06
4.67791e-06
4.67791e-06
4.67791e-06
4.74812e-06
4.74812e-06
4.74812e-06
4.81109e-06
4.81109e-06
4.81109e-06
4.65492e-06
4.65492e-06
4.65492e-06
4.82238e-06
4.82238e-06
4.82238e-06
4.73892e-06
4.73892e-06
4.73892e-06
4.64461e-06
4.64461e-06
4.64461e-06
4.72065e-06
4.72065e-06
4.72065e-06
4.62337e-06
4.62337e-06
4.62337e-06
4.71332e-06
4.71332e-06
4.71332e-06
5.02025e-06
5.02025e-06
5.02025e-06
4.88287e-06
4.88287e-06
4.88287e-06
4.21192e-06
4.21192e-06
4.21192e-06
1.03271e-06
1.03271e-06
1.03271e-06
2.64766e-06
2.64766e-06
2.64766e-06
1.0104e-06
1.0104e-06
1.0104e-06
2.6307e-06
2.6307e-06
2.6307e-06
4.50717e-06
4.50717e-06
4.50717e-06
4.3714e-06
4.3714e-06
4.3714e-06
4.51537e-06
4.51537e-06
4.51537e-06
2.44342e-07
2.44342e-07
2.44342e-07
2.37046e-07
2.37046e-07
2.37046e-07
2.17068e-07
2.17068e-07
2.17068e-07
2.23934e-07
2.23934e-07
2.23934e-07
2.5176e-07
2.5176e-07
2.5176e-07
2.50288e-07
2.50288e-07
2.50288e-07
2.60418e-07
2.60418e-07
2.60418e-07
2.30925e-07
2.30925e-07
2.30925e-07
6.31508e-07
6.31508e-07
6.31508e-07
5.9286e-07
5.9286e-07
5.9286e-07
7.19005e-07
7.19005e-07
7.19005e-07
7.68283e-07
7.68283e-07
7.68283e-07
4.98401e-07
4.98401e-07
4.98401e-07
4.40754e-07
4.40754e-07
4.40754e-07
4.85826e-07
4.85826e-07
4.85826e-07
5.77926e-07
5.77926e-07
5.77926e-07
4.73247e-07
4.73247e-07
4.73247e-07
4.2948e-07
4.2948e-07
4.2948e-07
3.363e-07
3.363e-07
3.363e-07
7.48942e-07
7.48942e-07
7.48942e-07
5.62987e-07
5.62987e-07
5.62987e-07
6.15409e-07
6.15409e-07
6.15409e-07
7.0067e-07
7.0067e-07
7.0067e-07
7.29609e-07
7.29609e-07
7.29609e-07
6.52008e-07
6.52008e-07
6.52008e-07
5.08855e-07
5.08855e-07
5.08855e-07
5.58502e-07
5.58502e-07
5.58502e-07
1.75833e-07
1.75833e-07
1.75833e-07
1.75774e-07
1.75774e-07
1.75774e-07
1.72813e-07
1.72813e-07
1.72813e-07
9.65666e-07
9.65666e-07
9.65666e-07
1.00462e-06
1.00462e-06
1.00462e-06
1.01127e-06
1.01127e-06
1.01127e-06
9.1879e-07
9.1879e-07
9.1879e-07
4.38456e-07
4.38456e-07
4.38456e-07
4.24391e-07
4.24391e-07
4.24391e-07
4.44756e-07
4.44756e-07
4.44756e-07
3.29914e-07
3.29914e-07
3.29914e-07
3.34211e-07
3.34211e-07
3.34211e-07
4.94827e-07
4.94827e-07
4.94827e-07
5.5735e-07
5.5735e-07
5.5735e-07
5.05484e-07
5.05484e-07
5.05484e-07
5.19493e-07
5.19493e-07
5.19493e-07
5.68786e-07
5.68786e-07
5.68786e-07
9.34507e-07
9.34507e-07
9.34507e-07
9.73249e-07
9.73249e-07
9.73249e-07
1.06827e-06
1.06827e-06
1.06827e-06
1.08469e-06
1.08469e-06
1.08469e-06
1.02666e-06
1.02666e-06
1.02666e-06
1.03415e-06
1.03415e-06
1.03415e-06
4.9529e-07
4.9529e-07
4.9529e-07
5.04058e-07
5.04058e-07
5.04058e-07
6.61383e-07
6.61383e-07
6.61383e-07
6.80534e-07
6.80534e-07
6.80534e-07
7.59307e-07
7.59307e-07
7.59307e-07
7.45535e-07
7.45535e-07
7.45535e-07
9.4281e-07
9.4281e-07
9.4281e-07
1.04753e-06
1.04753e-06
1.04753e-06
1.20487e-06
1.20487e-06
1.20487e-06
1.12717e-06
1.12717e-06
1.12717e-06
1.15346e-06
1.15346e-06
1.15346e-06
1.11318e-06
1.11318e-06
1.11318e-06
1.0265e-06
1.0265e-06
1.0265e-06
1.02035e-06
1.02035e-06
1.02035e-06
9.69506e-07
9.69506e-07
9.69506e-07
9.31428e-07
9.31428e-07
9.31428e-07
6.35382e-07
6.35382e-07
6.35382e-07
2.48779e-07
2.48779e-07
2.48779e-07
2.04801e-07
2.04801e-07
2.04801e-07
2.16936e-07
2.16936e-07
2.16936e-07
2.1042e-07
2.1042e-07
2.1042e-07
2.10745e-07
2.10745e-07
2.10745e-07
2.01423e-07
2.01423e-07
2.01423e-07
7.47062e-07
7.47062e-07
7.47062e-07
7.50603e-07
7.50603e-07
7.50603e-07
3.20343e-07
3.20343e-07
3.20343e-07
3.29951e-07
3.29951e-07
3.29951e-07
3.30036e-07
3.30036e-07
3.30036e-07
3.34315e-07
3.34315e-07
3.34315e-07
2.87748e-07
2.87748e-07
2.87748e-07
2.91639e-07
2.91639e-07
2.91639e-07
2.87917e-07
2.87917e-07
2.87917e-07
1.0097e-06
1.0097e-06
1.0097e-06
1.00266e-06
1.00266e-06
1.00266e-06
4.27234e-07
4.27234e-07
4.27234e-07
8.90311e-07
8.90311e-07
8.90311e-07
8.43945e-07
8.43945e-07
8.43945e-07
8.95507e-07
8.95507e-07
8.95507e-07
8.54946e-07
8.54946e-07
8.54946e-07
8.03872e-07
8.03872e-07
8.03872e-07
8.08877e-07
8.08877e-07
8.08877e-07
3.30378e-07
3.30378e-07
3.30378e-07
3.44343e-07
3.44343e-07
3.44343e-07
3.34446e-07
3.34446e-07
3.34446e-07
3.48786e-07
3.48786e-07
3.48786e-07
3.54673e-07
3.54673e-07
3.54673e-07
3.64926e-07
3.64926e-07
3.64926e-07
3.32723e-07
3.32723e-07
3.32723e-07
3.43181e-07
3.43181e-07
3.43181e-07
3.33799e-07
3.33799e-07
3.33799e-07
3.54172e-07
3.54172e-07
3.54172e-07
3.54957e-07
3.54957e-07
3.54957e-07
3.66116e-07
3.66116e-07
3.66116e-07
3.76492e-07
3.76492e-07
3.76492e-07
3.66046e-07
3.66046e-07
3.66046e-07
3.77505e-07
3.77505e-07
3.77505e-07
3.44896e-07
3.44896e-07
3.44896e-07
3.327e-07
3.327e-07
3.327e-07
3.23049e-07
3.23049e-07
3.23049e-07
3.23848e-07
3.23848e-07
3.23848e-07
3.33106e-07
3.33106e-07
3.33106e-07
3.43081e-07
3.43081e-07
3.43081e-07
3.41751e-07
3.41751e-07
3.41751e-07
3.31736e-07
3.31736e-07
3.31736e-07
3.34847e-07
3.34847e-07
3.34847e-07
3.44799e-07
3.44799e-07
3.44799e-07
2.89175e-07
2.89175e-07
2.89175e-07
3.15012e-07
3.15012e-07
3.15012e-07
2.89184e-07
2.89184e-07
2.89184e-07
4.27257e-07
4.27257e-07
4.27257e-07
4.55208e-07
4.55208e-07
4.55208e-07
4.41329e-07
4.41329e-07
4.41329e-07
4.57352e-07
4.57352e-07
4.57352e-07
4.40475e-07
4.40475e-07
4.40475e-07
4.42784e-07
4.42784e-07
4.42784e-07
4.27323e-07
4.27323e-07
4.27323e-07
4.13443e-07
4.13443e-07
4.13443e-07
4.13245e-07
4.13245e-07
4.13245e-07
4.28221e-07
4.28221e-07
4.28221e-07
3.66776e-07
3.66776e-07
3.66776e-07
3.60376e-07
3.60376e-07
3.60376e-07
4.8012e-07
4.8012e-07
4.8012e-07
4.94408e-07
4.94408e-07
4.94408e-07
4.03118e-07
4.03118e-07
4.03118e-07
4.13376e-07
4.13376e-07
4.13376e-07
4.68638e-07
4.68638e-07
4.68638e-07
4.68482e-07
4.68482e-07
4.68482e-07
3.82328e-07
3.82328e-07
3.82328e-07
3.92057e-07
3.92057e-07
3.92057e-07
3.91806e-07
3.91806e-07
3.91806e-07
3.69955e-07
3.69955e-07
3.69955e-07
3.70474e-07
3.70474e-07
3.70474e-07
3.79126e-07
3.79126e-07
3.79126e-07
4.00322e-07
4.00322e-07
4.00322e-07
4.2218e-07
4.2218e-07
4.2218e-07
4.23325e-07
4.23325e-07
4.23325e-07
4.11176e-07
4.11176e-07
4.11176e-07
3.638e-07
3.638e-07
3.638e-07
3.76609e-07
3.76609e-07
3.76609e-07
4.34148e-07
4.34148e-07
4.34148e-07
3.9918e-07
3.9918e-07
3.9918e-07
4.11786e-07
4.11786e-07
4.11786e-07
4.36312e-07
4.36312e-07
4.36312e-07
4.85681e-07
4.85681e-07
4.85681e-07
4.71873e-07
4.71873e-07
4.71873e-07
4.55339e-07
4.55339e-07
4.55339e-07
3.86709e-07
3.86709e-07
3.86709e-07
3.87686e-07
3.87686e-07
3.87686e-07
4.11435e-07
4.11435e-07
4.11435e-07
3.98136e-07
3.98136e-07
3.98136e-07
4.177e-06
4.177e-06
4.177e-06
4.91535e-06
4.91535e-06
4.91535e-06
4.90605e-06
4.90605e-06
4.90605e-06
4.98054e-06
4.98054e-06
4.98054e-06
4.49108e-06
4.49108e-06
4.49108e-06
4.29088e-06
4.29088e-06
4.29088e-06
4.29992e-06
4.29992e-06
4.29992e-06
5.63803e-06
5.63803e-06
5.63803e-06
5.70869e-06
5.70869e-06
5.70869e-06
5.65039e-06
5.65039e-06
5.65039e-06
4.27487e-06
4.27487e-06
4.27487e-06
4.26764e-06
4.26764e-06
4.26764e-06
4.91631e-07
4.91631e-07
4.91631e-07
4.79834e-07
4.79834e-07
4.79834e-07
4.65197e-07
4.65197e-07
4.65197e-07
4.62412e-07
4.62412e-07
4.62412e-07
4.3605e-07
4.3605e-07
4.3605e-07
4.50349e-07
4.50349e-07
4.50349e-07
1.21579e-06
1.21579e-06
1.21579e-06
9.16578e-07
9.16578e-07
9.16578e-07
1.45523e-06
1.45523e-06
1.45523e-06
7.54672e-07
7.54672e-07
7.54672e-07
1.10019e-06
1.10019e-06
1.10019e-06
1.1282e-06
1.1282e-06
1.1282e-06
5.43603e-07
5.43603e-07
5.43603e-07
5.85964e-07
5.85964e-07
5.85964e-07
5.78847e-06
5.78847e-06
5.78847e-06
5.7725e-06
5.7725e-06
5.7725e-06
5.86249e-06
5.86249e-06
5.86249e-06
5.82107e-06
5.82107e-06
5.82107e-06
5.78493e-06
5.78493e-06
5.78493e-06
5.89983e-06
5.89983e-06
5.89983e-06
5.88347e-06
5.88347e-06
5.88347e-06
5.78508e-06
5.78508e-06
5.78508e-06
5.83396e-06
5.83396e-06
5.83396e-06
5.92098e-06
5.92098e-06
5.92098e-06
5.93742e-06
5.93742e-06
5.93742e-06
5.8955e-06
5.8955e-06
5.8955e-06
5.87118e-06
5.87118e-06
5.87118e-06
5.85875e-06
5.85875e-06
5.85875e-06
5.79706e-06
5.79706e-06
5.79706e-06
5.74692e-06
5.74692e-06
5.74692e-06
5.64748e-06
5.64748e-06
5.64748e-06
5.60209e-06
5.60209e-06
5.60209e-06
5.83439e-06
5.83439e-06
5.83439e-06
5.78392e-06
5.78392e-06
5.78392e-06
5.82198e-06
5.82198e-06
5.82198e-06
5.75978e-06
5.75978e-06
5.75978e-06
5.71802e-06
5.71802e-06
5.71802e-06
5.70656e-06
5.70656e-06
5.70656e-06
5.7231e-06
5.7231e-06
5.7231e-06
5.71067e-06
5.71067e-06
5.71067e-06
5.64819e-06
5.64819e-06
5.64819e-06
5.60117e-06
5.60117e-06
5.60117e-06
4.7143e-06
4.7143e-06
4.7143e-06
4.79146e-06
4.79146e-06
4.79146e-06
4.8021e-06
4.8021e-06
4.8021e-06
4.59753e-06
4.59753e-06
4.59753e-06
4.56822e-06
4.56822e-06
4.56822e-06
4.57753e-06
4.57753e-06
4.57753e-06
4.68935e-06
4.68935e-06
4.68935e-06
4.70432e-06
4.70432e-06
4.70432e-06
4.77353e-06
4.77353e-06
4.77353e-06
4.76495e-06
4.76495e-06
4.76495e-06
5.22374e-06
5.22374e-06
5.22374e-06
5.24537e-06
5.24537e-06
5.24537e-06
5.16714e-06
5.16714e-06
5.16714e-06
5.17829e-06
5.17829e-06
5.17829e-06
5.30182e-06
5.30182e-06
5.30182e-06
5.31326e-06
5.31326e-06
5.31326e-06
5.06336e-06
5.06336e-06
5.06336e-06
5.13667e-06
5.13667e-06
5.13667e-06
4.98239e-06
4.98239e-06
4.98239e-06
5.10216e-06
5.10216e-06
5.10216e-06
5.11406e-06
5.11406e-06
5.11406e-06
5.05158e-06
5.05158e-06
5.05158e-06
5.02974e-06
5.02974e-06
5.02974e-06
4.97087e-06
4.97087e-06
4.97087e-06
5.12294e-06
5.12294e-06
5.12294e-06
5.06861e-06
5.06861e-06
5.06861e-06
5.07928e-06
5.07928e-06
5.07928e-06
5.14597e-06
5.14597e-06
5.14597e-06
5.21139e-06
5.21139e-06
5.21139e-06
5.2506e-06
5.2506e-06
5.2506e-06
5.20043e-06
5.20043e-06
5.20043e-06
5.23483e-06
5.23483e-06
5.23483e-06
5.54495e-06
5.54495e-06
5.54495e-06
5.41358e-06
5.41358e-06
5.41358e-06
5.53208e-06
5.53208e-06
5.53208e-06
5.46721e-06
5.46721e-06
5.46721e-06
5.52937e-06
5.52937e-06
5.52937e-06
5.54194e-06
5.54194e-06
5.54194e-06
5.43302e-06
5.43302e-06
5.43302e-06
5.49749e-06
5.49749e-06
5.49749e-06
5.45599e-06
5.45599e-06
5.45599e-06
5.50937e-06
5.50937e-06
5.50937e-06
5.24055e-06
5.24055e-06
5.24055e-06
5.28896e-06
5.28896e-06
5.28896e-06
5.1786e-06
5.1786e-06
5.1786e-06
5.35117e-06
5.35117e-06
5.35117e-06
5.40336e-06
5.40336e-06
5.40336e-06
5.2785e-06
5.2785e-06
5.2785e-06
4.75872e-06
4.75872e-06
4.75872e-06
5.04678e-06
5.04678e-06
5.04678e-06
5.03656e-06
5.03656e-06
5.03656e-06
4.96793e-06
4.96793e-06
4.96793e-06
4.90493e-06
4.90493e-06
4.90493e-06
5.44565e-06
5.44565e-06
5.44565e-06
5.3232e-06
5.3232e-06
5.3232e-06
5.3535e-06
5.3535e-06
5.3535e-06
5.60678e-06
5.60678e-06
5.60678e-06
5.56702e-06
5.56702e-06
5.56702e-06
5.53234e-06
5.53234e-06
5.53234e-06
5.51957e-06
5.51957e-06
5.51957e-06
5.57093e-06
5.57093e-06
5.57093e-06
5.53149e-06
5.53149e-06
5.53149e-06
5.49703e-06
5.49703e-06
5.49703e-06
5.55568e-06
5.55568e-06
5.55568e-06
5.50873e-06
5.50873e-06
5.50873e-06
5.47573e-06
5.47573e-06
5.47573e-06
5.4635e-06
5.4635e-06
5.4635e-06
4.91832e-06
4.91832e-06
4.91832e-06
4.8445e-06
4.8445e-06
4.8445e-06
4.85525e-06
4.85525e-06
4.85525e-06
4.93824e-06
4.93824e-06
4.93824e-06
5.01497e-06
5.01497e-06
5.01497e-06
5.00414e-06
5.00414e-06
5.00414e-06
4.78907e-06
4.78907e-06
4.78907e-06
4.94761e-06
4.94761e-06
4.94761e-06
4.87325e-06
4.87325e-06
4.87325e-06
4.77871e-06
4.77871e-06
4.77871e-06
4.09426e-07
4.09426e-07
4.09426e-07
4.1577e-07
4.1577e-07
4.1577e-07
4.06722e-07
4.06722e-07
4.06722e-07
3.68495e-06
3.68495e-06
3.68495e-06
3.22531e-06
3.22531e-06
3.22531e-06
3.21176e-06
3.21176e-06
3.21176e-06
3.99372e-06
3.99372e-06
3.99372e-06
3.67343e-06
3.67343e-06
3.67343e-06
4.35181e-06
4.35181e-06
4.35181e-06
4.34062e-06
4.34062e-06
4.34062e-06
4.01514e-06
4.01514e-06
4.01514e-06
4.22088e-06
4.22088e-06
4.22088e-06
4.2389e-06
4.2389e-06
4.2389e-06
4.23631e-06
4.23631e-06
4.23631e-06
3.70746e-06
3.70746e-06
3.70746e-06
4.02785e-06
4.02785e-06
4.02785e-06
2.29968e-07
2.29968e-07
2.29968e-07
2.24826e-07
2.24826e-07
2.24826e-07
2.23606e-07
2.23606e-07
2.23606e-07
2.31286e-07
2.31286e-07
2.31286e-07
2.37627e-07
2.37627e-07
2.37627e-07
2.44821e-07
2.44821e-07
2.44821e-07
2.24829e-07
2.24829e-07
2.24829e-07
2.30409e-07
2.30409e-07
2.30409e-07
2.23738e-07
2.23738e-07
2.23738e-07
2.30707e-07
2.30707e-07
2.30707e-07
2.75044e-07
2.75044e-07
2.75044e-07
2.60642e-07
2.60642e-07
2.60642e-07
2.55588e-07
2.55588e-07
2.55588e-07
2.68053e-07
2.68053e-07
2.68053e-07
2.67924e-07
2.67924e-07
2.67924e-07
2.62874e-07
2.62874e-07
2.62874e-07
2.5499e-07
2.5499e-07
2.5499e-07
2.7405e-07
2.7405e-07
2.7405e-07
2.67338e-07
2.67338e-07
2.67338e-07
2.83347e-07
2.83347e-07
2.83347e-07
2.81675e-07
2.81675e-07
2.81675e-07
2.47839e-07
2.47839e-07
2.47839e-07
2.36289e-07
2.36289e-07
2.36289e-07
2.37873e-07
2.37873e-07
2.37873e-07
2.43289e-07
2.43289e-07
2.43289e-07
2.53252e-07
2.53252e-07
2.53252e-07
2.48323e-07
2.48323e-07
2.48323e-07
2.4069e-07
2.4069e-07
2.4069e-07
2.23931e-07
2.23931e-07
2.23931e-07
2.29271e-07
2.29271e-07
2.29271e-07
2.22206e-07
2.22206e-07
2.22206e-07
2.26378e-07
2.26378e-07
2.26378e-07
3.34143e-07
3.34143e-07
3.34143e-07
3.23152e-07
3.23152e-07
3.23152e-07
2.89806e-07
2.89806e-07
2.89806e-07
2.97639e-07
2.97639e-07
2.97639e-07
3.0531e-07
3.0531e-07
3.0531e-07
3.06093e-07
3.06093e-07
3.06093e-07
2.97523e-07
2.97523e-07
2.97523e-07
3.14327e-07
3.14327e-07
3.14327e-07
3.13939e-07
3.13939e-07
3.13939e-07
3.118e-07
3.118e-07
3.118e-07
3.20268e-07
3.20268e-07
3.20268e-07
2.38526e-07
2.38526e-07
2.38526e-07
6.79834e-07
6.79834e-07
6.79834e-07
4.51959e-07
4.51959e-07
4.51959e-07
3.18267e-07
3.18267e-07
3.18267e-07
3.53889e-07
3.53889e-07
3.53889e-07
2.18642e-07
2.18642e-07
2.18642e-07
2.18634e-07
2.18634e-07
2.18634e-07
5.01398e-06
5.01398e-06
5.01398e-06
4.95827e-06
4.95827e-06
4.95827e-06
6.37627e-07
6.37627e-07
6.37627e-07
2.69537e-07
2.69537e-07
2.69537e-07
9.96338e-07
9.96338e-07
9.96338e-07
2.80406e-07
2.80406e-07
2.80406e-07
3.50665e-06
3.50665e-06
3.50665e-06
3.30781e-07
3.30781e-07
3.30781e-07
2.90383e-07
2.90383e-07
2.90383e-07
2.70112e-07
2.70112e-07
2.70112e-07
2.71252e-07
2.71252e-07
2.71252e-07
2.85232e-07
2.85232e-07
2.85232e-07
2.79467e-07
2.79467e-07
2.79467e-07
2.51741e-07
2.51741e-07
2.51741e-07
2.50522e-07
2.50522e-07
2.50522e-07
3.02655e-07
3.02655e-07
3.02655e-07
3.10447e-07
3.10447e-07
3.10447e-07
3.45103e-07
3.45103e-07
3.45103e-07
2.49569e-07
2.49569e-07
2.49569e-07
2.6336e-07
2.6336e-07
2.6336e-07
2.553e-07
2.553e-07
2.553e-07
2.4596e-07
2.4596e-07
2.4596e-07
2.45828e-07
2.45828e-07
2.45828e-07
2.52012e-07
2.52012e-07
2.52012e-07
2.48909e-07
2.48909e-07
2.48909e-07
2.43655e-07
2.43655e-07
2.43655e-07
2.37772e-07
2.37772e-07
2.37772e-07
6.32608e-07
6.32608e-07
6.32608e-07
6.08772e-07
6.08772e-07
6.08772e-07
5.99318e-07
5.99318e-07
5.99318e-07
7.10197e-07
7.10197e-07
7.10197e-07
6.82313e-07
6.82313e-07
6.82313e-07
6.7139e-07
6.7139e-07
6.7139e-07
6.27135e-07
6.27135e-07
6.27135e-07
5.50857e-07
5.50857e-07
5.50857e-07
5.18143e-07
5.18143e-07
5.18143e-07
5.34963e-07
5.34963e-07
5.34963e-07
5.74188e-07
5.74188e-07