<VTKFile type="UnstructuredGrid" version="1.0">
<UnstructuredGrid>
<Piece NumberOfPoints="10830" NumberOfCells="3610">
<Points>
<DataArray type="Float64" NumberOfComponents="3" format="ascii">
3.10314 1.29552 8.38575
3.11025 1.28841 8.36
3.11025 1.28841 8.41146
3.11025 1.28841 8.91508
3.11025 1.28841 8.966
3.10226 1.2964 8.94053
3.11025 1.28841 8.91508
3.10226 1.2964 8.94053
3.09025 1.30841 8.9151
2.21656 2.1821 9.38759
2.22913 2.16953 9.405
2.19928 2.19938 9.405
2.19928 2.19938 9.405
2.19928 2.19938 9.37484
2.21656 2.1821 9.38759
3.11025 1.28841 8.91508
3.09025 1.30841 8.9151
3.10227 1.29639 8.88968
2.20538 2.19328 8.63679
2.19928 2.19938 8.66201
2.19928 2.19938 8.61157
3.10229 1.29637 8.6369
3.11025 1.28841 8.66209
3.09026 1.3084 8.66211
3.10214 1.29652 8.53634
3.11025 1.28841 8.51128
3.11025 1.28841 8.56139
3.09026 1.3084 8.66211
3.11025 1.28841 8.66209
3.1023 1.29636 8.68731
3.11025 1.28841 8.66209
3.11025 1.28841 8.71254
3.1023 1.29636 8.68731
3.09026 1.3084 8.71255
3.1023 1.29636 8.68731
3.11025 1.28841 8.71254
3.09025 1.30841 8.86431
3.10227 1.29639 8.88968
3.08043 1.31823 8.8897
3.08043 1.31823 8.8897
3.10227 1.29639 8.88968
3.09025 1.30841 8.9151
3.08043 1.31823 8.8897
3.06939 1.32927 8.86432
3.09025 1.30841 8.86431
3.08043 1.31823 8.8897
3.09025 1.30841 8.9151
3.06938 1.32928 8.91512
3.11025 1.28841 8.76304
3.11025 1.28841 8.81362
3.10229 1.29637 8.78833
3.10229 1.29637 8.78833
3.09026 1.3084 8.81363
3.08044 1.31822 8.78834
3.11025 1.28841 8.81362
3.09026 1.3084 8.81363
3.10229 1.29637 8.78833
3.11025 1.28841 8.86429
3.10227 1.29639 8.88968
3.09025 1.30841 8.86431
3.11025 1.28841 8.91508
3.10227 1.29639 8.88968
3.11025 1.28841 8.86429
3.0901 1.30856 8.51132
3.11025 1.28841 8.51128
3.10214 1.29652 8.53634
3.09024 1.30842 8.96603
3.10226 1.2964 8.94053
3.11025 1.28841 8.966
2.80657 1.59209 9.14575
2.81699 1.58167 9.11998
2.8274 1.57126 9.14572
2.19928 2.19938 8.36
2.21889 2.17977 8.36
2.20626 2.1924 8.3847
2.25868 2.13998 8.61159
2.23814 2.16052 8.61157
2.24806 2.1506 8.58637
2.21801 2.18065 8.61156
2.23814 2.16052 8.61157
2.22704 2.17162 8.63678
2.21801 2.18065 8.61156
2.20538 2.19328 8.63679
2.19928 2.19938 8.61157
2.22704 2.17162 8.63678
2.20538 2.19328 8.63679
2.21801 2.18065 8.61156
2.20547 2.19319 8.83894
2.19928 2.19938 8.8643
2.19928 2.19938 8.81361
2.21807 2.1806 8.8643
2.22712 2.17155 8.83893
2.23821 2.16045 8.86429
2.19928 2.19938 8.8643
2.20547 2.19319 8.83894
2.21807 2.1806 8.8643
2.21807 2.1806 8.8643
2.20547 2.19319 8.83894
2.22712 2.17155 8.83893
2.21805 2.18061 8.8136
2.2382 2.16046 8.8136
2.22712 2.17155 8.83893
2.21805 2.18061 8.8136
2.20547 2.19319 8.83894
2.19928 2.19938 8.81361
2.22712 2.17155 8.83893
2.20547 2.19319 8.83894
2.21805 2.18061 8.8136
2.19928 2.19938 8.66201
2.20538 2.19328 8.63679
2.21802 2.18064 8.662
2.21802 2.18064 8.662
2.20538 2.19328 8.63679
2.22704 2.17162 8.63678
2.23821 2.16045 8.86429
2.22712 2.17155 8.83893
2.24816 2.15051 8.83893
2.22712 2.17155 8.83893
2.2382 2.16046 8.8136
2.24816 2.15051 8.83893
2.40353 1.99513 8.81367
2.41386 1.9848 8.83901
2.3932 2.00546 8.839
2.3932 2.00546 8.839
2.41386 1.9848 8.83901
2.40354 1.99512 8.86437
2.40354 1.99512 8.86437
2.41386 1.9848 8.83901
2.4242 1.97446 8.86438
2.79618 1.60248 9.12
2.81699 1.58167 9.11998
2.80657 1.59209 9.14575
3.10224 1.29642 8.58656
3.11025 1.28841 8.56139
3.11025 1.28841 8.6117
3.11025 1.28841 8.66209
3.10229 1.29637 8.6369
3.11025 1.28841 8.6117
3.02715 1.37151 8.7631
3.006 1.39266 8.76311
3.01659 1.38207 8.73785
3.09026 1.3084 8.76305
3.10229 1.29637 8.78833
3.08044 1.31822 8.78834
3.11025 1.28841 8.76304
3.10229 1.29637 8.78833
3.09026 1.3084 8.76305
3.08044 1.31822 8.78834
3.09026 1.3084 8.81363
3.0694 1.32926 8.81365
3.10228 1.29638 8.83895
3.09026 1.3084 8.81363
3.11025 1.28841 8.81362
3.11025 1.28841 8.81362
3.11025 1.28841 8.86429
3.10228 1.29638 8.83895
3.10228 1.29638 8.83895
3.11025 1.28841 8.86429
3.09025 1.30841 8.86431
3.08027 1.31839 8.53637
3.0901 1.30856 8.51132
3.10214 1.29652 8.53634
3.10224 1.29642 8.58656
3.11025 1.28841 8.6117
3.09024 1.30842 8.61174
3.09024 1.30842 8.61174
3.11025 1.28841 8.6117
3.10229 1.29637 8.6369
3.0165 1.38216 8.58661
3.00588 1.39278 8.56143
3.02702 1.37164 8.56143
3.04817 1.35049 8.56145
3.03759 1.36107 8.53626
3.05884 1.33982 8.53631
3.04817 1.35049 8.56145
3.02702 1.37164 8.56143
3.03759 1.36107 8.53626
3.08043 1.31823 8.63693
3.10229 1.29637 8.6369
3.09026 1.3084 8.66211
3.08043 1.31823 8.63693
3.09024 1.30842 8.61174
3.10229 1.29637 8.6369
3.08042 1.31824 8.94055
3.09025 1.30841 8.9151
3.10226 1.2964 8.94053
3.10226 1.2964 8.94053
3.09024 1.30842 8.96603
3.08042 1.31824 8.94055
3.06938 1.32928 8.91512
3.09025 1.30841 8.9151
3.08042 1.31824 8.94055
3.08041 1.31825 9.09406
3.05901 1.33965 9.09406
3.06938 1.32928 9.06837
3.05901 1.33966 9.04274
3.08041 1.31825 9.04272
3.06938 1.32928 9.06837
3.10225 1.29641 8.99153
3.09024 1.30842 8.96603
3.11025 1.28841 8.966
3.08041 1.31825 8.99156
3.09024 1.30842 8.96603
3.10225 1.29641 8.99153
2.84822 1.55044 9.19732
2.85863 1.54003 9.22316
2.83776 1.5609 9.2232
2.96373 1.43493 9.06843
2.97428 1.42438 9.04279
2.98483 1.41383 9.06841
2.98483 1.41383 9.06841
2.97428 1.42438 9.04279
2.9954 1.40326 9.04278
3.06938 1.32929 9.01713
3.05901 1.33965 8.99158
3.08041 1.31825 8.99156
3.06938 1.32929 9.01713
3.08041 1.31825 9.04272
3.05901 1.33966 9.04274
2.95319 1.44547 9.04281
2.97428 1.42438 9.04279
2.96373 1.43493 9.06843
2.90067 1.49799 8.81374
2.87971 1.51895 8.81374
2.89018 1.50848 8.78843
2.84833 1.55033 8.78844
2.83789 1.56077 8.81375
2.82746 1.5712 8.78844
2.85878 1.53988 8.81375
2.83789 1.56077 8.81375
2.84833 1.55033 8.78844
2.83788 1.56078 8.71265
2.85877 1.53989 8.71266
2.84833 1.55034 8.7379
2.84833 1.55034 8.7379
2.82745 1.57121 8.73789
2.83788 1.56078 8.71265
2.83788 1.56078 8.71265
2.82745 1.57121 8.73789
2.81702 1.58164 8.71264
2.84833 1.55034 8.7379
2.85877 1.53989 8.71266
2.86924 1.52943 8.7379
2.87968 1.51898 8.66223
2.89017 1.50849 8.68744
2.86922 1.52944 8.68744
2.86922 1.52944 8.68744
2.85875 1.53991 8.66223
2.87968 1.51898 8.66223
2.72357 1.6751 8.83909
2.73392 1.66474 8.81375
2.74429 1.65437 8.83909
2.73392 1.66474 8.81375
2.75466 1.644 8.81375
2.74429 1.65437 8.83909
2.83789 1.56077 8.76316
2.82745 1.57121 8.73789
2.84833 1.55034 8.7379
2.83789 1.56077 8.76316
2.84833 1.55033 8.78844
2.82746 1.5712 8.78844
2.82746 1.5712 8.78844
2.80662 1.59204 8.78844
2.81703 1.58163 8.76315
2.81703 1.58163 8.76315
2.83789 1.56077 8.76316
2.82746 1.5712 8.78844
2.82745 1.57121 8.73789
2.83789 1.56077 8.76316
2.81703 1.58163 8.76315
2.81702 1.58164 8.71264
2.7962 1.60246 8.71264
2.8066 1.59206 8.68741
2.79618 1.60248 8.66219
2.81701 1.58166 8.66221
2.8066 1.59206 8.68741
2.42419 1.97447 8.81368
2.41386 1.9848 8.83901
2.40353 1.99513 8.81367
2.40353 1.99513 8.81367
2.41385 1.98481 8.78836
2.42419 1.97447 8.81368
2.20539 2.19327 8.43487
2.19928 2.19938 8.46009
2.19928 2.19938 8.40942
2.19928 2.19938 8.36
2.20626 2.1924 8.3847
2.19928 2.19938 8.40942
2.21797 2.1807 8.5107
2.19928 2.19938 8.51067
2.20528 2.19338 8.48542
2.19928 2.19938 8.51067
2.19928 2.19938 8.46009
2.20528 2.19338 8.48542
3.11025 1.28841 8.36
3.10314 1.29552 8.38575
3.0911 1.30756 8.36
2.19928 2.19938 8.61157
2.19928 2.19938 8.56114
2.20536 2.19331 8.58636
2.20536 2.19331 8.58636
2.21801 2.18065 8.61156
2.19928 2.19938 8.61157
2.21799 2.18067 8.56113
2.20536 2.19331 8.58636
2.19928 2.19938 8.56114
2.21799 2.18067 8.56113
2.22698 2.17168 8.53594
2.23811 2.16055 8.56116
2.22702 2.17165 8.58635
2.24806 2.1506 8.58637
2.23814 2.16052 8.61157
2.23814 2.16052 8.61157
2.21801 2.18065 8.61156
2.22702 2.17165 8.58635
2.23811 2.16055 8.56116
2.24806 2.1506 8.58637
2.22702 2.17165 8.58635
2.22702 2.17165 8.58635
2.21799 2.18067 8.56113
2.23811 2.16055 8.56116
2.21801 2.18065 8.61156
2.20536 2.19331 8.58636
2.22702 2.17165 8.58635
2.20536 2.19331 8.58636
2.21799 2.18067 8.56113
2.22702 2.17165 8.58635
2.20532 2.19334 8.53591
2.19928 2.19938 8.56114
2.19928 2.19938 8.51067
2.20532 2.19334 8.53591
2.19928 2.19938 8.51067
2.21797 2.1807 8.5107
2.21797 2.1807 8.5107
2.22698 2.17168 8.53594
2.20532 2.19334 8.53591
2.20532 2.19334 8.53591
2.21799 2.18067 8.56113
2.19928 2.19938 8.56114
2.22698 2.17168 8.53594
2.21799 2.18067 8.56113
2.20532 2.19334 8.53591
2.24814 2.15052 8.78829
2.2382 2.16046 8.8136
2.2271 2.17156 8.78829
2.2382 2.16046 8.8136
2.21805 2.18061 8.8136
2.2271 2.17156 8.78829
2.2271 2.17156 8.78829
2.23819 2.16048 8.763
2.24814 2.15052 8.78829
2.24809 2.15058 8.63679
2.23814 2.16052 8.61157
2.25868 2.13998 8.61159
2.22704 2.17162 8.63678
2.23814 2.16052 8.61157
2.24809 2.15058 8.63679
2.26891 2.12975 8.6368
2.24809 2.15058 8.63679
2.25868 2.13998 8.61159
2.2587 2.13996 8.66201
2.24809 2.15058 8.63679
2.26891 2.12975 8.6368
2.2587 2.13996 8.66201
2.26891 2.12975 8.6368
2.27936 2.1193 8.66202
2.41384 1.98482 8.7378
2.42418 1.97448 8.76307
2.40352 1.99515 8.76307
2.40352 1.99515 8.76307
2.42418 1.97448 8.76307
2.41385 1.98481 8.78836
2.33114 2.06753 8.78832
2.35183 2.04683 8.78833
2.34149 2.05717 8.81363
2.34148 2.05718 8.76304
2.35183 2.04683 8.78833
2.33114 2.06753 8.78832
2.35182 2.04684 8.73777
2.34147 2.05719 8.71252
2.36216 2.03651 8.71253
2.34148 2.05718 8.76304
2.33112 2.06754 8.73776
2.35182 2.04684 8.73777
2.35182 2.04684 8.73777
2.33112 2.06754 8.73776
2.34147 2.05719 8.71252
2.35184 2.04682 8.83897
2.37253 2.02613 8.83899
2.3622 2.03646 8.86434
2.31047 2.08819 8.8897
2.32082 2.07785 8.86432
2.33117 2.06749 8.88971
2.3208 2.07786 8.81362
2.33114 2.06753 8.78832
2.34149 2.05717 8.81363
2.31043 2.08823 8.78831
2.33114 2.06753 8.78832
2.3208 2.07786 8.81362
2.23821 2.16045 8.86429
2.24816 2.15051 8.83893
2.25876 2.1399 8.86429
2.24814 2.15052 8.78829
2.23819 2.16048 8.763
2.25873 2.13993 8.763
2.25873 2.13993 8.763
2.26896 2.1297 8.78829
2.24814 2.15052 8.78829
2.30008 2.09858 8.76301
2.31043 2.08823 8.78831
2.28971 2.10895 8.7883
2.25874 2.13992 8.8136
2.24816 2.15051 8.83893
2.2382 2.16046 8.8136
2.25874 2.13992 8.8136
2.2382 2.16046 8.8136
[...]
<PointData Scalars="View Factor" >
<DataArray type="Float64" Name="View Factor" NumberOfComponents="1" format="ascii">
1.42407e-05
1.42407e-05
1.42407e-05
1.30032e-05
1.30032e-05
1.30032e-05
1.29624e-05
1.29624e-05
1.29624e-05
2.45576e-06
2.45576e-06
2.45576e-06
1.91096e-06
1.91096e-06
1.91096e-06
1.29994e-05
1.29994e-05
1.29994e-05
1.21338e-06
1.21338e-06
1.21338e-06
1.35453e-05
1.35453e-05
1.35453e-05
1.38877e-05
1.38877e-05
1.38877e-05
1.35068e-05
1.35068e-05
1.35068e-05
1.35492e-05
1.35492e-05
1.35492e-05
1.34337e-05
1.34337e-05
1.34337e-05
1.29377e-05
1.29377e-05
1.29377e-05
1.29029e-05
1.29029e-05
1.29029e-05
1.28291e-05
1.28291e-05
1.28291e-05
1.27598e-05
1.27598e-05
1.27598e-05
1.33281e-05
1.33281e-05
1.33281e-05
1.31167e-05
1.31167e-05
1.31167e-05
1.32144e-05
1.32144e-05
1.32144e-05
1.30692e-05
1.30692e-05
1.30692e-05
1.31106e-05
1.31106e-05
1.31106e-05
1.38438e-05
1.38438e-05
1.38438e-05
1.28922e-05
1.28922e-05
1.28922e-05
1.0832e-06
1.0832e-06
1.0832e-06
2.11908e-06
2.11908e-06
2.11908e-06
4.55563e-06
4.55563e-06
4.55563e-06
4.82413e-06
4.82413e-06
4.82413e-06
1.46622e-06
1.46622e-06
1.46622e-06
2.05914e-06
2.05914e-06
2.05914e-06
9.62988e-07
9.62988e-07
9.62988e-07
4.52206e-06
4.52206e-06
4.52206e-06
1.16686e-06
1.16686e-06
1.16686e-06
1.8093e-06
1.8093e-06
1.8093e-06
4.56044e-06
4.56044e-06
4.56044e-06
1.19972e-06
1.19972e-06
1.19972e-06
1.81822e-06
1.81822e-06
1.81822e-06
1.40838e-06
1.40838e-06
1.40838e-06
2.01458e-06
2.01458e-06
2.01458e-06
4.39776e-06
4.39776e-06
4.39776e-06
4.41396e-06
4.41396e-06
4.41396e-06
5.22077e-07
5.22077e-07
5.22077e-07
5.0956e-07
5.0956e-07
5.0956e-07
4.9853e-07
4.9853e-07
4.9853e-07
9.27213e-07
9.27213e-07
9.27213e-07
1.37742e-05
1.37742e-05
1.37742e-05
1.36613e-05
1.36613e-05
1.36613e-05
1.22541e-05
1.22541e-05
1.22541e-05
1.31521e-05
1.31521e-05
1.31521e-05
1.32863e-05
1.32863e-05
1.32863e-05
1.29712e-05
1.29712e-05
1.29712e-05
1.31775e-05
1.31775e-05
1.31775e-05
1.32189e-05
1.32189e-05
1.32189e-05
1.31059e-05
1.31059e-05
1.31059e-05
1.37039e-05
1.37039e-05
1.37039e-05
1.36563e-05
1.36563e-05
1.36563e-05
1.36181e-05
1.36181e-05
1.36181e-05
1.26345e-05
1.26345e-05
1.26345e-05
1.31402e-05
1.31402e-05
1.31402e-05
1.29772e-05
1.29772e-05
1.29772e-05
1.34445e-05
1.34445e-05
1.34445e-05
1.34815e-05
1.34815e-05
1.34815e-05
1.28317e-05
1.28317e-05
1.28317e-05
1.27965e-05
1.27965e-05
1.27965e-05
1.27242e-05
1.27242e-05
1.27242e-05
1.22804e-05
1.22804e-05
1.22804e-05
1.23484e-05
1.23484e-05
1.23484e-05
1.28555e-05
1.28555e-05
1.28555e-05
1.27262e-05
1.27262e-05
1.27262e-05
6.40069e-06
6.40069e-06
6.40069e-06
1.10948e-05
1.10948e-05
1.10948e-05
1.12571e-05
1.12571e-05
1.12571e-05
1.24503e-05
1.24503e-05
1.24503e-05
1.23829e-05
1.23829e-05
1.23829e-05
1.09334e-05
1.09334e-05
1.09334e-05
9.89065e-06
9.89065e-06
9.89065e-06
4.87127e-06
4.87127e-06
4.87127e-06
7.29856e-06
7.29856e-06
7.29856e-06
7.48587e-06
7.48587e-06
7.48587e-06
5.02672e-06
5.02672e-06
5.02672e-06
9.26647e-07
9.26647e-07
9.26647e-07
8.10709e-06
8.10709e-06
8.10709e-06
9.67349e-06
9.67349e-06
9.67349e-06
9.0829e-06
9.0829e-06
9.0829e-06
6.68522e-07
6.68522e-07
6.68522e-07
6.92904e-07
6.92904e-07
6.92904e-07
4.98211e-06
4.98211e-06
4.98211e-06
4.90714e-06
4.90714e-06
4.90714e-06
8.18807e-07
8.18807e-07
8.18807e-07
8.37536e-07
8.37536e-07
8.37536e-07
8.64052e-07
8.64052e-07
8.64052e-07
9.33377e-07
9.33377e-07
9.33377e-07
1.00455e-06
1.00455e-06
1.00455e-06
5.31893e-07
5.31893e-07
5.31893e-07
5.50404e-07
5.50404e-07
5.50404e-07
1.7154e-06
1.7154e-06
1.7154e-06
1.90138e-06
1.90138e-06
1.90138e-06
1.697e-06
1.697e-06
1.697e-06
1.5564e-06
1.5564e-06
1.5564e-06
1.42003e-05
1.42003e-05
1.42003e-05
1.30784e-06
1.30784e-06
1.30784e-06
1.49199e-06
1.49199e-06
1.49199e-06
1.55471e-06
1.55471e-06
1.55471e-06
4.92467e-06
4.92467e-06
4.92467e-06
4.72355e-06
4.72355e-06
4.72355e-06
4.84648e-06
4.84648e-06
4.84648e-06
4.75127e-06
4.75127e-06
4.75127e-06
4.89958e-06
4.89958e-06
4.89958e-06
2.18401e-06
2.18401e-06
2.18401e-06
2.25234e-06
2.25234e-06
2.25234e-06
1.42281e-06
1.42281e-06
1.42281e-06
1.65991e-06
1.65991e-06
1.65991e-06
2.45552e-06
2.45552e-06
2.45552e-06
1.58805e-06
1.58805e-06
1.58805e-06
2.38784e-06
2.38784e-06
2.38784e-06
4.45473e-06
4.45473e-06
4.45473e-06
4.58057e-06
4.58057e-06
4.58057e-06
4.47488e-06
4.47488e-06
4.47488e-06
4.53277e-06
4.53277e-06
4.53277e-06
4.66919e-06
4.66919e-06
4.66919e-06
4.35194e-06
4.35194e-06
4.35194e-06
4.32784e-06
4.32784e-06
4.32784e-06
4.11996e-06
4.11996e-06
4.11996e-06
6.01325e-07
6.01325e-07
6.01325e-07
5.82539e-07
5.82539e-07
5.82539e-07
5.57982e-07
5.57982e-07
5.57982e-07
5.76271e-07
5.76271e-07
5.76271e-07
6.44067e-07
6.44067e-07
6.44067e-07
6.12546e-07
6.12546e-07
6.12546e-07
6.361e-07
6.361e-07
6.361e-07
5.09337e-07
5.09337e-07
5.09337e-07
4.75165e-07
4.75165e-07
4.75165e-07
5.50123e-07
5.50123e-07
5.50123e-07
5.57906e-07
5.57906e-07
5.57906e-07
4.2325e-06
4.2325e-06
4.2325e-06
4.32871e-06
4.32871e-06
4.32871e-06
4.15831e-06
4.15831e-06
4.15831e-06
5.77059e-07
5.77059e-07
5.77059e-07
4.27031e-06
4.27031e-06
4.27031e-06
4.29071e-06
4.29071e-06
4.29071e-06
4.13845e-06
4.13845e-06
4.13845e-06
4.21135e-07
4.21135e-07
4.21135e-07
2.45798e-06
2.45798e-06
2.45798e-06
2.16367e-06
2.16367e-06
2.16367e-06
5.31826e-07
5.31826e-07
5.31826e-07
5.22125e-07
5.22125e-07
5.22125e-07
4.82699e-07
4.82699e-07
4.82699e-07
4.98464e-07
4.98464e-07
4.98464e-07
4.98815e-07
4.98815e-07
4.98815e-07
5.09386e-07
5.09386e-07
5.09386e-07
4.82817e-07
4.82817e-07
4.82817e-07
4.75007e-07
4.75007e-07
4.75007e-07
4.533e-07
4.533e-07
4.533e-07
4.61587e-07
4.61587e-07
4.61587e-07
4.61266e-07
4.61266e-07
4.61266e-07
4.75009e-07
4.75009e-07
4.75009e-07
4.21835e-07
4.21835e-07
4.21835e-07
4.05434e-07
4.05434e-07
4.05434e-07
3.96827e-07
3.96827e-07
3.96827e-07
3.85585e-07
3.85585e-07
3.85585e-07
3.8995e-07
3.8995e-07
3.8995e-07
4.62019e-07
4.62019e-07
4.62019e-07
4.82882e-07
4.82882e-07
4.82882e-07
4.74875e-07
4.74875e-07
4.74875e-07
8.35666e-07
8.35666e-07
8.35666e-07
9.75858e-07
9.75858e-07
9.75858e-07
1.0567e-06
1.0567e-06
1.0567e-06
9.04247e-07
9.04247e-07
9.04247e-07
6.22329e-07
6.22329e-07
6.22329e-07
5.55378e-07
5.55378e-07
5.55378e-07
4.6957e-07
4.6957e-07
4.6957e-07
6.73288e-07
6.73288e-07
6.73288e-07
1.7206e-06
1.7206e-06
1.7206e-06
1.73495e-06
1.73495e-06
1.73495e-06
1.6393e-06
1.6393e-06
1.6393e-06
1.57729e-06
1.57729e-06
1.57729e-06
1.82193e-06
1.82193e-06
1.82193e-06
1.89726e-06
1.89726e-06
1.89726e-06
1.87688e-06
1.87688e-06
1.87688e-06
1.78719e-06
1.78719e-06
1.78719e-06
1.93182e-06
1.93182e-06
1.93182e-06
1.95371e-06
1.95371e-06
1.95371e-06
2.04523e-06
2.04523e-06
2.04523e-06
1.62479e-06
1.62479e-06
1.62479e-06
1.83956e-06
1.83956e-06
1.83956e-06
1.77162e-06
1.77162e-06
1.77162e-06
1.6879e-06
1.6879e-06
1.6879e-06
1.67221e-06
1.67221e-06
1.67221e-06
1.86494e-06
1.86494e-06
1.86494e-06
1.06309e-05
1.06309e-05
1.06309e-05
8.50665e-06
8.50665e-06
8.50665e-06
9.50022e-06
9.50022e-06
9.50022e-06
9.92998e-06
9.92998e-06
9.92998e-06
9.74945e-06
9.74945e-06
9.74945e-06
1.25859e-05
1.25859e-05
1.25859e-05
1.26579e-05
1.26579e-05
1.26579e-05
1.26915e-05
1.26915e-05
1.26915e-05
1.24413e-05
1.24413e-05
1.24413e-05
1.01114e-05
1.01114e-05
1.01114e-05
1.00909e-05
1.00909e-05
1.00909e-05
1.03468e-05
1.03468e-05
1.03468e-05
1.18666e-05
1.18666e-05
1.18666e-05
1.17409e-05
1.17409e-05
1.17409e-05
1.33236e-05
1.33236e-05
1.33236e-05
1.32251e-05
1.32251e-05
1.32251e-05
1.34382e-05
1.34382e-05
1.34382e-05
1.33961e-05
1.33961e-05
1.33961e-05
1.32608e-05
1.32608e-05
1.32608e-05
1.25095e-05
1.25095e-05
1.25095e-05
1.26211e-05
1.26211e-05
1.26211e-05
1.28649e-05
1.28649e-05
1.28649e-05
1.2935e-05
1.2935e-05
1.2935e-05
1.27625e-05
1.27625e-05
1.27625e-05
1.2797e-05
1.2797e-05
1.2797e-05
1.30086e-05
1.30086e-05
1.30086e-05
1.30443e-05
1.30443e-05
1.30443e-05
1.37308e-05
1.37308e-05
1.37308e-05
1.37689e-05
1.37689e-05
1.37689e-05
1.3666e-05
1.3666e-05
1.3666e-05
1.38809e-05
1.38809e-05
1.38809e-05
1.26711e-05
1.26711e-05
1.26711e-05
1.28469e-05
1.28469e-05
1.28469e-05
1.33683e-05
1.33683e-05
1.33683e-05
1.31499e-05
1.31499e-05
1.31499e-05
1.32249e-05
1.32249e-05
1.32249e-05
1.31147e-05
1.31147e-05
1.31147e-05
1.26548e-05
1.26548e-05
1.26548e-05
1.26196e-05
1.26196e-05
1.26196e-05
1.24839e-05
1.24839e-05
1.24839e-05
1.22466e-05
1.22466e-05
1.22466e-05
1.14406e-05
1.14406e-05
1.14406e-05
9.59102e-06
9.59102e-06
9.59102e-06
1.38358e-06
1.38358e-06
1.38358e-06
7.07488e-07
7.07488e-07
7.07488e-07
9.50172e-07
9.50172e-07
9.50172e-07
1.10632e-05
1.10632e-05
1.10632e-05
1.10021e-05
1.10021e-05
1.10021e-05
1.17211e-05
1.17211e-05
1.17211e-05
1.17537e-05
1.17537e-05
1.17537e-05
1.08274e-05
1.08274e-05
1.08274e-05
1.15703e-05
1.15703e-05
1.15703e-05
1.12008e-05
1.12008e-05
1.12008e-05
1.14006e-05
1.14006e-05
1.14006e-05
1.12412e-05
1.12412e-05
1.12412e-05
1.10832e-05
1.10832e-05
1.10832e-05
1.0915e-05
1.0915e-05
1.0915e-05
1.25504e-05
1.25504e-05
1.25504e-05
1.25172e-05
1.25172e-05
1.25172e-05
1.26918e-05
1.26918e-05
1.26918e-05
1.21782e-05
1.21782e-05
1.21782e-05
1.20369e-05
1.20369e-05
1.20369e-05
1.22124e-05
1.22124e-05
1.22124e-05
1.21045e-05
1.21045e-05
1.21045e-05
1.19122e-05
1.19122e-05
1.19122e-05
1.19455e-05
1.19455e-05
1.19455e-05
1.08576e-05
1.08576e-05
1.08576e-05
1.10955e-05
1.10955e-05
1.10955e-05
1.10683e-05
1.10683e-05
1.10683e-05
9.94342e-06
9.94342e-06
9.94342e-06
7.91859e-07
7.91859e-07
7.91859e-07
7.94805e-07
7.94805e-07
7.94805e-07
7.25348e-06
7.25348e-06
7.25348e-06
6.45048e-07
6.45048e-07
6.45048e-07
6.40783e-07
6.40783e-07
6.40783e-07
7.22405e-07
7.22405e-07
7.22405e-07
7.48097e-07
7.48097e-07
7.48097e-07
7.72849e-07
7.72849e-07
7.72849e-07
7.75479e-07
7.75479e-07
7.75479e-07
7.29676e-07
7.29676e-07
7.29676e-07
7.53816e-07
7.53816e-07
7.53816e-07
7.07165e-07
7.07165e-07
7.07165e-07
6.99783e-07
6.99783e-07
6.99783e-07
6.78403e-07
6.78403e-07
6.78403e-07
6.57171e-07
6.57171e-07
6.57171e-07
6.6179e-07
6.6179e-07
6.6179e-07
6.82556e-07
6.82556e-07
6.82556e-07
8.02625e-06
8.02625e-06
8.02625e-06
8.85822e-06
8.85822e-06
8.85822e-06
9.46639e-06
9.46639e-06
9.46639e-06
9.49431e-06
9.49431e-06
9.49431e-06
5.23348e-07
5.23348e-07
5.23348e-07
6.43836e-07
6.43836e-07
6.43836e-07
5.40651e-07
5.40651e-07
5.40651e-07
9.57443e-07
9.57443e-07
9.57443e-07
1.02938e-06
1.02938e-06
1.02938e-06
9.60679e-07
9.60679e-07
9.60679e-07
9.93713e-07
9.93713e-07
9.93713e-07
7.4768e-06
7.4768e-06
7.4768e-06
5.15307e-06
5.15307e-06
5.15307e-06
5.10782e-06
5.10782e-06
5.10782e-06
7.49516e-06
7.49516e-06
7.49516e-06
8.15438e-06
8.15438e-06
8.15438e-06
8.18386e-06
8.18386e-06
8.18386e-06
9.54948e-06
9.54948e-06
9.54948e-06
9.97081e-06
9.97081e-06
9.97081e-06
6.02261e-07
6.02261e-07
6.02261e-07
6.19662e-07
6.19662e-07
6.19662e-07
5.26638e-07
5.26638e-07
5.26638e-07
5.28737e-07
5.28737e-07
5.28737e-07
6.21431e-07
6.21431e-07
6.21431e-07
6.02277e-07
6.02277e-07
6.02277e-07
5.09185e-07
5.09185e-07
5.09185e-07
5.14741e-07
5.14741e-07
5.14741e-07
4.93693e-07
4.93693e-07
4.93693e-07
5.01801e-07
5.01801e-07
5.01801e-07
4.8169e-07
4.8169e-07
4.8169e-07
4.86567e-07
4.86567e-07
4.86567e-07
7.15823e-07
7.15823e-07
7.15823e-07
7.56464e-07
7.56464e-07
7.56464e-07
7.3926e-07
7.3926e-07
7.3926e-07
7.17511e-07
7.17511e-07
7.17511e-07
6.48167e-07
6.48167e-07
6.48167e-07
6.54384e-07
6.54384e-07
6.54384e-07
7.36486e-07
7.36486e-07
7.36486e-07
6.74593e-07
6.74593e-07
6.74593e-07
6.96772e-07
6.96772e-07
6.96772e-07
7.81049e-07
7.81049e-07
7.81049e-07
9.79754e-07
9.79754e-07
9.79754e-07
9.69385e-07
9.69385e-07
9.69385e-07
9.37216e-07
9.37216e-07
9.37216e-07
8.16719e-07
8.16719e-07
8.16719e-07
7.98845e-07
7.98845e-07
7.98845e-07
8.22496e-07
8.22496e-07
8.22496e-07
7.966e-07
7.966e-07
7.966e-07
7.14623e-07
7.14623e-07
7.14623e-07
6.64128e-07
6.64128e-07
6.64128e-07
6.44168e-07
6.44168e-07
6.44168e-07
6.36229e-07
6.36229e-07
6.36229e-07
7.1443e-07
7.1443e-07
7.1443e-07
6.74693e-07
6.74693e-07
6.74693e-07
6.99573e-07
6.99573e-07
6.99573e-07
4.17104e-06
4.17104e-06
4.17104e-06
4.40564e-06
4.40564e-06
4.40564e-06
4.19519e-06
4.19519e-06
4.19519e-06
6.36727e-07
6.36727e-07
6.36727e-07
6.12558e-07
6.12558e-07
6.12558e-07
5.83041e-07
5.83041e-07
5.83041e-07
5.83373e-07
5.83373e-07
5.83373e-07
5.63269e-07
5.63269e-07
5.63269e-07
5.43258e-07
5.43258e-07
5.43258e-07
5.28305e-07
5.28305e-07
5.28305e-07
5.31783e-07
5.31783e-07
5.31783e-07
1.31634e-05
1.31634e-05
1.31634e-05
1.40603e-05
1.40603e-05
1.40603e-05
1.39483e-05
1.39483e-05
1.39483e-05
1.23715e-05
1.23715e-05
1.23715e-05
1.29508e-05
1.29508e-05
1.29508e-05
1.29855e-05
1.29855e-05
1.29855e-05
1.16736e-05
1.16736e-05
1.16736e-05
1.17388e-05
1.17388e-05
1.17388e-05
9.17087e-07
9.17087e-07
9.17087e-07
1.1525e-06
1.1525e-06
1.1525e-06
1.01163e-06
1.01163e-06
1.01163e-06
1.21849e-06
1.21849e-06
1.21849e-06
1.84274e-06
1.84274e-06
1.84274e-06
1.06841e-06
1.06841e-06
1.06841e-06
1.31533e-06
1.31533e-06
1.31533e-06
4.68176e-06
4.68176e-06
4.68176e-06
1.89392e-06
1.89392e-06
1.89392e-06
1.38497e-06
1.38497e-06
1.38497e-06
1.13322e-06
1.13322e-06
1.13322e-06
1.33686e-06
1.33686e-06
1.33686e-06
1.947e-06
1.947e-06
1.947e-06
1.92292e-06
1.92292e-06
1.92292e-06
4.70334e-06
4.70334e-06
4.70334e-06
4.57809e-06
4.57809e-06
4.57809e-06
4.2831e-06
4.2831e-06
4.2831e-06
4.09623e-06
4.09623e-06
4.09623e-06
4.77362e-06
4.77362e-06
4.77362e-06
4.64526e-06
4.64526e-06
4.64526e-06
4.75022e-06
4.75022e-06
4.75022e-06
4.60073e-06
4.60073e-06
4.60073e-06
4.48243e-06
4.48243e-06
4.48243e-06
4.45896e-06
4.45896e-06
4.45896e-06
4.53712e-06
4.53712e-06
4.53712e-06
4.51383e-06
4.51383e-06
4.51383e-06
4.34888e-06
4.34888e-06
4.34888e-06
4.19786e-06
4.19786e-06
4.19786e-06
6.01346e-07
6.01346e-07
6.01346e-07
6.12246e-07
6.12246e-07
6.12246e-07
6.36411e-07
6.36411e-07
6.36411e-07
6.12349e-07
6.12349e-07
6.12349e-07
5.58722e-07
5.58722e-07
5.58722e-07
5.76199e-07
5.76199e-07
5.76199e-07
5.50316e-07
5.50316e-07
5.50316e-07
5.82932e-07
5.82932e-07
5.82932e-07
5.7615e-07
5.7615e-07
5.7615e-07
5.58623e-07
5.58623e-07
5.58623e-07
5.76825e-07
5.76825e-07
5.76825e-07
6.12422e-07
6.12422e-07
6.12422e-07
5.83239e-07
5.83239e-07
5.83239e-07
6.01945e-07
6.01945e-07
6.01945e-07
5.82748e-07
5.82748e-07
5.82748e-07
6.02099e-07
6.02099e-07
6.02099e-07
5.22253e-07
5.22253e-07
5.22253e-07
5.31727e-07
5.31727e-07
5.31727e-07
4.98845e-07
4.98845e-07
4.98845e-07
4.82911e-07
4.82911e-07
4.82911e-07
4.98918e-07
4.98918e-07
4.98918e-07
5.09265e-07
5.09265e-07
5.09265e-07
4.75082e-07
4.75082e-07
4.75082e-07
4.83035e-07
4.83035e-07
4.83035e-07
4.3581e-07
4.3581e-07
4.3581e-07
4.42838e-07
4.42838e-07
4.42838e-07
4.53391e-07
4.53391e-07
4.53391e-07
4.61118e-07
4.61118e-07
4.61118e-07
4.54164e-07
4.54164e-07
4.54164e-07
4.35834e-07
4.35834e-07
4.35834e-07
4.42533e-07
4.42533e-07
4.42533e-07
4.82795e-07
4.82795e-07
4.82795e-07
3.98477e-06
3.98477e-06
3.98477e-06
3.07753e-06
3.07753e-06
3.07753e-06
3.96491e-06
3.96491e-06
3.96491e-06
3.69124e-06
3.69124e-06
3.69124e-06
4.08007e-06
4.08007e-06
4.08007e-06
4.09617e-06
4.09617e-06
4.09617e-06
3.63074e-06
3.63074e-06
3.63074e-06
3.90876e-06
3.90876e-06
3.90876e-06
3.67057e-06
3.67057e-06
3.67057e-06
3.92889e-06
3.92889e-06
3.92889e-06
4.21244e-07
4.21244e-07
4.21244e-07
2.87743e-06
2.87743e-06
2.87743e-06
4.14139e-07
4.14139e-07
4.14139e-07
3.48932e-06
3.48932e-06
3.48932e-06
3.7647e-06
3.7647e-06
3.7647e-06
2.86173e-06
2.86173e-06
2.86173e-06
4.13647e-07
4.13647e-07
4.13647e-07
4.14014e-07
4.14014e-07
4.14014e-07
4.05524e-07
4.05524e-07
4.05524e-07
3.97288e-07
3.97288e-07
3.97288e-07
4.05548e-07
4.05548e-07
4.05548e-07
2.04164e-06
2.04164e-06
2.04164e-06
4.56669e-06
4.56669e-06
4.56669e-06
4.01587e-06
4.01587e-06
4.01587e-06
1.77831e-06
1.77831e-06
1.77831e-06
2.17872e-06
2.17872e-06
2.17872e-06
2.76378e-06
2.76378e-06
2.76378e-06
2.63931e-06
2.63931e-06
2.63931e-06
2.35026e-06
2.35026e-06
2.35026e-06
2.61106e-06
2.61106e-06
2.61106e-06
3.28425e-06
3.28425e-06
3.28425e-06
2.3779e-06
2.3779e-06
2.3779e-06
3.15599e-06
3.15599e-06
3.15599e-06
4.5696e-06
4.5696e-06
4.5696e-06
4.64751e-06
4.64751e-06
4.64751e-06
5.222e-07
5.222e-07
5.222e-07
5.31804e-07
5.31804e-07
5.31804e-07
5.50309e-07
5.50309e-07
5.50309e-07
5.58105e-07
5.58105e-07
5.58105e-07
5.50176e-07
5.50176e-07
5.50176e-07
5.31794e-07
5.31794e-07
5.31794e-07
4.53332e-07
4.53332e-07
4.53332e-07
4.53357e-07
4.53357e-07
4.53357e-07
4.61422e-07
4.61422e-07
4.61422e-07
4.4401e-07
4.4401e-07
4.4401e-07
4.12712e-07
4.12712e-07
4.12712e-07
4.45111e-07
4.45111e-07
4.45111e-07
4.34156e-07
4.34156e-07
4.34156e-07
4.34845e-07
4.34845e-07
4.34845e-07
4.05363e-07
4.05363e-07
4.05363e-07
4.12925e-07
4.12925e-07
4.12925e-07
4.13035e-07
4.13035e-07
4.13035e-07
4.21858e-07
4.21858e-07
4.21858e-07
4.53322e-07
4.53322e-07
4.53322e-07
4.43867e-07
4.43867e-07
4.43867e-07
4.44025e-07
4.44025e-07
4.44025e-07
4.34577e-07
4.34577e-07
4.34577e-07
4.74815e-07
4.74815e-07
4.74815e-07
4.62212e-07
4.62212e-07
4.62212e-07
4.62368e-07
4.62368e-07
4.62368e-07
4.53337e-07
4.53337e-07
4.53337e-07
1.36876e-06
1.36876e-06
1.36876e-06
1.63335e-06
1.63335e-06
1.63335e-06
1.40634e-06
1.40634e-06
1.40634e-06
1.24835e-06
1.24835e-06
1.24835e-06
8.58422e-07
8.58422e-07
8.58422e-07
6.39305e-07
6.39305e-07
6.39305e-07
1.28207e-06
1.28207e-06
1.28207e-06
1.00209e-06
1.00209e-06
1.00209e-06
1.0302e-06
1.0302e-06
1.0302e-06
8.81297e-07
8.81297e-07
8.81297e-07
4.70218e-07
4.70218e-07
4.70218e-07
4.61488e-07
4.61488e-07
4.61488e-07
4.47658e-07
4.47658e-07
4.47658e-07
4.49267e-07
4.49267e-07
4.49267e-07
4.57306e-07
4.57306e-07
4.57306e-07
4.35773e-07
4.35773e-07
4.35773e-07
4.57647e-07
4.57647e-07
4.57647e-07
4.77547e-07
4.77547e-07
4.77547e-07
4.82796e-07
4.82796e-07
4.82796e-07
5.01139e-07
5.01139e-07
5.01139e-07
5.1328e-07
5.1328e-07
5.1328e-07
4.69959e-07
4.69959e-07
4.69959e-07
5.85272e-07
5.85272e-07
5.85272e-07
6.56343e-07
6.56343e-07
6.56343e-07
5.70387e-07
5.70387e-07
5.70387e-07
4.73723e-07
4.73723e-07
4.73723e-07
4.59492e-07
4.59492e-07
4.59492e-07
4.82253e-07
4.82253e-07
4.82253e-07
6.90433e-07
6.90433e-07
6.90433e-07
6.00268e-07
6.00268e-07
6.00268e-07
6.15324e-07
6.15324e-07
6.15324e-07
5.06815e-07
5.06815e-07
5.06815e-07
5.41181e-07
5.41181e-07
5.41181e-07
5.26059e-07
5.26059e-07
5.26059e-07
4.9987e-07
4.9987e-07
4.9987e-07
5.26681e-07
5.26681e-07
5.26681e-07
5.35281e-07
5.35281e-07
5.35281e-07
5.12726e-07
5.12726e-07
5.12726e-07
5.09638e-07
5.09638e-07
5.09638e-07
5.40532e-07
5.40532e-07
5.40532e-07
5.21167e-07
5.21167e-07
5.21167e-07
3.76251e-07
3.76251e-07
3.76251e-07
3.71743e-07
3.71743e-07
3.71743e-07
1.98631e-06
1.98631e-06
1.98631e-06
1.56765e-06
1.56765e-06
1.56765e-06
1.84101e-06
1.84101e-06
1.84101e-06
1.95412e-06
1.95412e-06
1.95412e-06
1.92728e-06
1.92728e-06
1.92728e-06
1.67809e-06
1.67809e-06
1.67809e-06
1.77051e-06
1.77051e-06
1.77051e-06
3.8449e-07
3.8449e-07
3.8449e-07
3.89209e-07
3.89209e-07
3.89209e-07
1.5785e-06
1.5785e-06
1.5785e-06
1.68498e-06
1.68498e-06
1.68498e-06
3.69665e-07
3.69665e-07
3.69665e-07
1.32445e-06
1.32445e-06
1.32445e-06
1.9316e-06
1.9316e-06
1.9316e-06
4.5508e-07
4.5508e-07
4.5508e-07
4.20612e-07
4.20612e-07
4.20612e-07
8.44515e-07
8.44515e-07
8.44515e-07
7.44515e-07
7.44515e-07
7.44515e-07
4.80968e-07
4.80968e-07
4.80968e-07
5.54657e-07
5.54657e-07
5.54657e-07
1.75756e-06
1.75756e-06
1.75756e-06
2.12191e-06
2.12191e-06
2.12191e-06
2.07556e-06
2.07556e-06
2.07556e-06
2.01487e-06
2.01487e-06
2.01487e-06
1.98634e-06
1.98634e-06
1.98634e-06
1.45496e-06
1.45496e-06
1.45496e-06
1.08255e-06
1.08255e-06
1.08255e-06
1.21922e-06
1.21922e-06
1.21922e-06
1.74253e-06
1.74253e-06
1.74253e-06
1.81478e-06
1.81478e-06
1.81478e-06
1.68838e-06
1.68838e-06
1.68838e-06
1.53199e-06
1.53199e-06
1.53199e-06
9.49537e-07
9.49537e-07
9.49537e-07
1.21454e-06
1.21454e-06
1.21454e-06
1.91281e-06
1.91281e-06
1.91281e-06
1.93175e-06
1.93175e-06
1.93175e-06
1.82284e-06
1.82284e-06
1.82284e-06
1.71976e-06
1.71976e-06
1.71976e-06
1.73648e-06
1.73648e-06
1.73648e-06
1.81721e-06
1.81721e-06
1.81721e-06
1.88285e-06
1.88285e-06
1.88285e-06
1.97655e-06
1.97655e-06
1.97655e-06
1.99679e-06
1.99679e-06
1.99679e-06
8.14392e-06