<VTKFile type="UnstructuredGrid" version="1.0">
<UnstructuredGrid>
<Piece NumberOfPoints="10830" NumberOfCells="3610">
<Points>
<DataArray type="Float64" NumberOfComponents="3" format="ascii">
3.10314 1.29552 9.43075
3.11025 1.28841 9.405
3.11025 1.28841 9.45646
3.11025 1.28841 9.96008
3.11025 1.28841 10.011
3.10226 1.2964 9.98553
3.11025 1.28841 9.96008
3.10226 1.2964 9.98553
3.09025 1.30841 9.9601
2.21656 2.1821 10.4326
2.22913 2.16953 10.45
2.19928 2.19938 10.45
2.19928 2.19938 10.45
2.19928 2.19938 10.4198
2.21656 2.1821 10.4326
3.11025 1.28841 9.96008
3.09025 1.30841 9.9601
3.10227 1.29639 9.93468
2.20538 2.19328 9.68179
2.19928 2.19938 9.70701
2.19928 2.19938 9.65657
3.10229 1.29637 9.6819
3.11025 1.28841 9.70709
3.09026 1.3084 9.70711
3.10214 1.29652 9.58134
3.11025 1.28841 9.55628
3.11025 1.28841 9.60639
3.09026 1.3084 9.70711
3.11025 1.28841 9.70709
3.1023 1.29636 9.73232
3.11025 1.28841 9.70709
3.11025 1.28841 9.75754
3.1023 1.29636 9.73232
3.09026 1.3084 9.75755
3.1023 1.29636 9.73232
3.11025 1.28841 9.75754
3.09025 1.30841 9.90931
3.10227 1.29639 9.93468
3.08043 1.31823 9.9347
3.08043 1.31823 9.9347
3.10227 1.29639 9.93468
3.09025 1.30841 9.9601
3.08043 1.31823 9.9347
3.06939 1.32927 9.90932
3.09025 1.30841 9.90931
3.08043 1.31823 9.9347
3.09025 1.30841 9.9601
3.06938 1.32928 9.96012
3.11025 1.28841 9.80804
3.11025 1.28841 9.85862
3.10229 1.29637 9.83333
3.10229 1.29637 9.83333
3.09026 1.3084 9.85863
3.08044 1.31822 9.83334
3.11025 1.28841 9.85862
3.09026 1.3084 9.85863
3.10229 1.29637 9.83333
3.11025 1.28841 9.90929
3.10227 1.29639 9.93468
3.09025 1.30841 9.90931
3.11025 1.28841 9.96008
3.10227 1.29639 9.93468
3.11025 1.28841 9.90929
3.0901 1.30856 9.55632
3.11025 1.28841 9.55628
3.10214 1.29652 9.58134
3.09024 1.30842 10.011
3.10226 1.2964 9.98553
3.11025 1.28841 10.011
2.80657 1.59209 10.1907
2.81699 1.58167 10.165
2.8274 1.57126 10.1907
2.19928 2.19938 9.405
2.21889 2.17977 9.405
2.20626 2.1924 9.4297
2.25868 2.13998 9.65659
2.23814 2.16052 9.65657
2.24806 2.1506 9.63137
2.21801 2.18065 9.65656
2.23814 2.16052 9.65657
2.22704 2.17162 9.68178
2.21801 2.18065 9.65656
2.20538 2.19328 9.68179
2.19928 2.19938 9.65657
2.22704 2.17162 9.68178
2.20538 2.19328 9.68179
2.21801 2.18065 9.65656
2.20547 2.19319 9.88394
2.19928 2.19938 9.9093
2.19928 2.19938 9.85861
2.21807 2.1806 9.9093
2.22712 2.17155 9.88393
2.23821 2.16045 9.90929
2.19928 2.19938 9.9093
2.20547 2.19319 9.88394
2.21807 2.1806 9.9093
2.21807 2.1806 9.9093
2.20547 2.19319 9.88394
2.22712 2.17155 9.88393
2.21805 2.18061 9.8586
2.2382 2.16046 9.8586
2.22712 2.17155 9.88393
2.21805 2.18061 9.8586
2.20547 2.19319 9.88394
2.19928 2.19938 9.85861
2.22712 2.17155 9.88393
2.20547 2.19319 9.88394
2.21805 2.18061 9.8586
2.19928 2.19938 9.70701
2.20538 2.19328 9.68179
2.21802 2.18064 9.707
2.21802 2.18064 9.707
2.20538 2.19328 9.68179
2.22704 2.17162 9.68178
2.23821 2.16045 9.90929
2.22712 2.17155 9.88393
2.24816 2.15051 9.88393
2.22712 2.17155 9.88393
2.2382 2.16046 9.8586
2.24816 2.15051 9.88393
2.40353 1.99513 9.85867
2.41386 1.9848 9.88401
2.3932 2.00546 9.884
2.3932 2.00546 9.884
2.41386 1.9848 9.88401
2.40354 1.99512 9.90937
2.40354 1.99512 9.90937
2.41386 1.9848 9.88401
2.4242 1.97446 9.90938
2.79618 1.60248 10.165
2.81699 1.58167 10.165
2.80657 1.59209 10.1907
3.10224 1.29642 9.63156
3.11025 1.28841 9.60639
3.11025 1.28841 9.6567
3.11025 1.28841 9.70709
3.10229 1.29637 9.6819
3.11025 1.28841 9.6567
3.02715 1.37151 9.8081
3.006 1.39266 9.80811
3.01659 1.38207 9.78285
3.09026 1.3084 9.80805
3.10229 1.29637 9.83333
3.08044 1.31822 9.83334
3.11025 1.28841 9.80804
3.10229 1.29637 9.83333
3.09026 1.3084 9.80805
3.08044 1.31822 9.83334
3.09026 1.3084 9.85863
3.0694 1.32926 9.85865
3.10228 1.29638 9.88395
3.09026 1.3084 9.85863
3.11025 1.28841 9.85862
3.11025 1.28841 9.85862
3.11025 1.28841 9.90929
3.10228 1.29638 9.88395
3.10228 1.29638 9.88395
3.11025 1.28841 9.90929
3.09025 1.30841 9.90931
3.08027 1.31839 9.58137
3.0901 1.30856 9.55632
3.10214 1.29652 9.58134
3.10224 1.29642 9.63156
3.11025 1.28841 9.6567
3.09024 1.30842 9.65674
3.09024 1.30842 9.65674
3.11025 1.28841 9.6567
3.10229 1.29637 9.6819
3.0165 1.38216 9.63161
3.00588 1.39278 9.60643
3.02702 1.37164 9.60643
3.04817 1.35049 9.60645
3.03759 1.36107 9.58126
3.05884 1.33982 9.58132
3.04817 1.35049 9.60645
3.02702 1.37164 9.60643
3.03759 1.36107 9.58126
3.08043 1.31823 9.68193
3.10229 1.29637 9.6819
3.09026 1.3084 9.70711
3.08043 1.31823 9.68193
3.09024 1.30842 9.65674
3.10229 1.29637 9.6819
3.08042 1.31824 9.98555
3.09025 1.30841 9.9601
3.10226 1.2964 9.98553
3.10226 1.2964 9.98553
3.09024 1.30842 10.011
3.08042 1.31824 9.98555
3.06938 1.32928 9.96012
3.09025 1.30841 9.9601
3.08042 1.31824 9.98555
3.08041 1.31825 10.1391
3.05901 1.33965 10.1391
3.06938 1.32928 10.1134
3.05901 1.33966 10.0877
3.08041 1.31825 10.0877
3.06938 1.32928 10.1134
3.10225 1.29641 10.0365
3.09024 1.30842 10.011
3.11025 1.28841 10.011
3.08041 1.31825 10.0366
3.09024 1.30842 10.011
3.10225 1.29641 10.0365
2.84822 1.55044 10.2423
2.85863 1.54003 10.2682
2.83776 1.5609 10.2682
2.96373 1.43493 10.1134
2.97428 1.42438 10.0878
2.98483 1.41383 10.1134
2.98483 1.41383 10.1134
2.97428 1.42438 10.0878
2.9954 1.40326 10.0878
3.06938 1.32929 10.0621
3.05901 1.33965 10.0366
3.08041 1.31825 10.0366
3.06938 1.32929 10.0621
3.08041 1.31825 10.0877
3.05901 1.33966 10.0877
2.95319 1.44547 10.0878
2.97428 1.42438 10.0878
2.96373 1.43493 10.1134
2.90067 1.49799 9.85874
2.87971 1.51895 9.85874
2.89018 1.50848 9.83344
2.84833 1.55033 9.83344
2.83789 1.56077 9.85875
2.82746 1.5712 9.83344
2.85878 1.53988 9.85875
2.83789 1.56077 9.85875
2.84833 1.55033 9.83344
2.83788 1.56078 9.75765
2.85877 1.53989 9.75766
2.84833 1.55034 9.78289
2.84833 1.55034 9.78289
2.82745 1.57121 9.78289
2.83788 1.56078 9.75765
2.83788 1.56078 9.75765
2.82745 1.57121 9.78289
2.81702 1.58164 9.75764
2.84833 1.55034 9.78289
2.85877 1.53989 9.75766
2.86924 1.52943 9.7829
2.87968 1.51898 9.70723
2.89017 1.50849 9.73244
2.86922 1.52944 9.73244
2.86922 1.52944 9.73244
2.85875 1.53991 9.70723
2.87968 1.51898 9.70723
2.72357 1.6751 9.88409
2.73392 1.66474 9.85875
2.74429 1.65437 9.88409
2.73392 1.66474 9.85875
2.75466 1.644 9.85875
2.74429 1.65437 9.88409
2.83789 1.56077 9.80816
2.82745 1.57121 9.78289
2.84833 1.55034 9.78289
2.83789 1.56077 9.80816
2.84833 1.55033 9.83344
2.82746 1.5712 9.83344
2.82746 1.5712 9.83344
2.80662 1.59204 9.83344
2.81703 1.58163 9.80815
2.81703 1.58163 9.80815
2.83789 1.56077 9.80816
2.82746 1.5712 9.83344
2.82745 1.57121 9.78289
2.83789 1.56077 9.80816
2.81703 1.58163 9.80815
2.81702 1.58164 9.75764
2.7962 1.60246 9.75764
2.8066 1.59206 9.73241
2.79618 1.60248 9.70719
2.81701 1.58166 9.70721
2.8066 1.59206 9.73241
2.42419 1.97447 9.85868
2.41386 1.9848 9.88401
2.40353 1.99513 9.85867
2.40353 1.99513 9.85867
2.41385 1.98481 9.83336
2.42419 1.97447 9.85868
2.20539 2.19327 9.47987
2.19928 2.19938 9.50508
2.19928 2.19938 9.45442
2.19928 2.19938 9.405
2.20626 2.1924 9.4297
2.19928 2.19938 9.45442
2.21797 2.1807 9.5557
2.19928 2.19938 9.55567
2.20528 2.19338 9.53042
2.19928 2.19938 9.55567
2.19928 2.19938 9.50508
2.20528 2.19338 9.53042
3.11025 1.28841 9.405
3.10314 1.29552 9.43075
3.0911 1.30756 9.405
2.19928 2.19938 9.65657
2.19928 2.19938 9.60614
2.20536 2.19331 9.63136
2.20536 2.19331 9.63136
2.21801 2.18065 9.65656
2.19928 2.19938 9.65657
2.21799 2.18067 9.60613
2.20536 2.19331 9.63136
2.19928 2.19938 9.60614
2.21799 2.18067 9.60613
2.22698 2.17168 9.58094
2.23811 2.16055 9.60616
2.22702 2.17165 9.63135
2.24806 2.1506 9.63137
2.23814 2.16052 9.65657
2.23814 2.16052 9.65657
2.21801 2.18065 9.65656
2.22702 2.17165 9.63135
2.23811 2.16055 9.60616
2.24806 2.1506 9.63137
2.22702 2.17165 9.63135
2.22702 2.17165 9.63135
2.21799 2.18067 9.60613
2.23811 2.16055 9.60616
2.21801 2.18065 9.65656
2.20536 2.19331 9.63136
2.22702 2.17165 9.63135
2.20536 2.19331 9.63136
2.21799 2.18067 9.60613
2.22702 2.17165 9.63135
2.20532 2.19334 9.58091
2.19928 2.19938 9.60614
2.19928 2.19938 9.55567
2.20532 2.19334 9.58091
2.19928 2.19938 9.55567
2.21797 2.1807 9.5557
2.21797 2.1807 9.5557
2.22698 2.17168 9.58094
2.20532 2.19334 9.58091
2.20532 2.19334 9.58091
2.21799 2.18067 9.60613
2.19928 2.19938 9.60614
2.22698 2.17168 9.58094
2.21799 2.18067 9.60613
2.20532 2.19334 9.58091
2.24814 2.15052 9.83329
2.2382 2.16046 9.8586
2.2271 2.17156 9.83329
2.2382 2.16046 9.8586
2.21805 2.18061 9.8586
2.2271 2.17156 9.83329
2.2271 2.17156 9.83329
2.23819 2.16048 9.808
2.24814 2.15052 9.83329
2.24809 2.15058 9.68179
2.23814 2.16052 9.65657
2.25868 2.13998 9.65659
2.22704 2.17162 9.68178
2.23814 2.16052 9.65657
2.24809 2.15058 9.68179
2.26891 2.12975 9.6818
2.24809 2.15058 9.68179
2.25868 2.13998 9.65659
2.2587 2.13996 9.70701
2.24809 2.15058 9.68179
2.26891 2.12975 9.6818
2.2587 2.13996 9.70701
2.26891 2.12975 9.6818
2.27936 2.1193 9.70702
2.41384 1.98482 9.7828
2.42418 1.97448 9.80807
2.40352 1.99515 9.80807
2.40352 1.99515 9.80807
2.42418 1.97448 9.80807
2.41385 1.98481 9.83336
2.33114 2.06753 9.83332
2.35183 2.04683 9.83333
2.34149 2.05717 9.85863
2.34148 2.05718 9.80803
2.35183 2.04683 9.83333
2.33114 2.06753 9.83332
2.35182 2.04684 9.78277
2.34147 2.05719 9.75752
2.36216 2.03651 9.75753
2.34148 2.05718 9.80803
2.33112 2.06754 9.78276
2.35182 2.04684 9.78277
2.35182 2.04684 9.78277
2.33112 2.06754 9.78276
2.34147 2.05719 9.75752
2.35184 2.04682 9.88398
2.37253 2.02613 9.88399
2.3622 2.03646 9.90934
2.31047 2.08819 9.9347
2.32082 2.07785 9.90932
2.33117 2.06749 9.93471
2.3208 2.07786 9.85862
2.33114 2.06753 9.83332
2.34149 2.05717 9.85863
2.31043 2.08823 9.83331
2.33114 2.06753 9.83332
2.3208 2.07786 9.85862
2.23821 2.16045 9.90929
2.24816 2.15051 9.88393
2.25876 2.1399 9.90929
2.24814 2.15052 9.83329
2.23819 2.16048 9.808
2.25873 2.13993 9.808
2.25873 2.13993 9.808
2.26896 2.1297 9.83329
2.24814 2.15052 9.83329
2.30008 2.09858 9.80801
2.31043 2.08823 9.83331
2.28971 2.10895 9.8333
2.25874 2.13992 9.8586
2.24816 2.15051 9.88393
2.2382 2.16046 9.8586
2.25874 2.13992 9.8586
[...]
<PointData Scalars="View Factor" >
<DataArray type="Float64" Name="View Factor" NumberOfComponents="1" format="ascii">
0.0945752
0.0945752
0.0945752
0.186253
0.186253
0.186253
0.182384
0.182384
0.182384
0.279989
0.279989
0.279989
0.283197
0.283197
0.283197
0.178721
0.178721
0.178721
0.0272062
0.0272062
0.0272062
0.131124
0.131124
0.131124
0.113727
0.113727
0.113727
0.133882
0.133882
0.133882
0.137003
0.137003
0.137003
0.139567
0.139567
0.139567
0.173032
0.173032
0.173032
0.176622
0.176622
0.176622
0.170881
0.170881
0.170881
0.178107
0.178107
0.178107
0.155078
0.155078
0.155078
0.156024
0.156024
0.156024
0.158046
0.158046
0.158046
0.171584
0.171584
0.171584
0.175315
0.175315
0.175315
0.111069
0.111069
0.111069
0.189889
0.189889
0.189889
0.0096999
0.0096999
0.0096999
0.0203105
0.0203105
0.0203105
0.0291492
0.0291492
0.0291492
0.0365277
0.0365277
0.0365277
0.0291115
0.0291115
0.0291115
0.0344981
0.0344981
0.0344981
0.0459875
0.0459875
0.0459875
0.0560193
0.0560193
0.0560193
0.051489
0.051489
0.051489
0.05458
0.05458
0.05458
0.0524574
0.0524574
0.0524574
0.0472438
0.0472438
0.0472438
0.0525604
0.0525604
0.0525604
0.0314432
0.0314432
0.0314432
0.0356596
0.0356596
0.0356596
0.049873
0.049873
0.049873
0.0483448
0.0483448
0.0483448
8.12794e-05
8.12794e-05
8.12794e-05
0.000115735
0.000115735
0.000115735
0.000127404
0.000127404
0.000127404
0.00838246
0.00838246
0.00838246
0.120992
0.120992
0.120992
0.128747
0.128747
0.128747
0.14131
0.14131
0.14131
0.15281
0.15281
0.15281
0.151646
0.151646
0.151646
0.157199
0.157199
0.157199
0.161338
0.161338
0.161338
0.164923
0.164923
0.164923
0.168107
0.168107
0.168107
0.111698
0.111698
0.111698
0.123192
0.123192
0.123192
0.125781
0.125781
0.125781
0.111152
0.111152
0.111152
0.111461
0.111461
0.111461
0.111461
0.111461
0.111461
0.129276
0.129276
0.129276
0.126599
0.126599
0.126599
0.183991
0.183991
0.183991
0.187769
0.187769
0.187769
0.181817
0.181817
0.181817
0.220124
0.220124
0.220124
0.211537
0.211537
0.211537
0.193734
0.193734
0.193734
0.19551
0.19551
0.19551
0.0703987
0.0703987
0.0703987
0.200017
0.200017
0.200017
0.200264
0.200264
0.200264
0.199099
0.199099
0.199099
0.20733
0.20733
0.20733
0.192658
0.192658
0.192658
0.0903765
0.0903765
0.0903765
0.0108251
0.0108251
0.0108251
0.0266682
0.0266682
0.0266682
0.0251913
0.0251913
0.0251913
0.0104156
0.0104156
0.0104156
5.25572e-06
5.25572e-06
5.25572e-06
0.0407149
0.0407149
0.0407149
0.0671139
0.0671139
0.0671139
0.0534416
0.0534416
0.0534416
9.22479e-05
9.22479e-05
9.22479e-05
8.34446e-05
8.34446e-05
8.34446e-05
0.0105145
0.0105145
0.0105145
0.0107153
0.0107153
0.0107153
3.37697e-05
3.37697e-05
3.37697e-05
2.43155e-05
2.43155e-05
2.43155e-05
2.06656e-05
2.06656e-05
2.06656e-05
2.48802e-06
2.48802e-06
2.48802e-06
0
0
0
7.18402e-05
7.18402e-05
7.18402e-05
5.01116e-05
5.01116e-05
5.01116e-05
0.0169446
0.0169446
0.0169446
0.0163817
0.0163817
0.0163817
0.0224647
0.0224647
0.0224647
0.0190776
0.0190776
0.0190776
0.0922964
0.0922964
0.0922964
0.0240615
0.0240615
0.0240615
0.0280265
0.0280265
0.0280265
0.0260013
0.0260013
0.0260013
0.0327203
0.0327203
0.0327203
0.0323855
0.0323855
0.0323855
0.0355206
0.0355206
0.0355206
0.0315398
0.0315398
0.0315398
0.0336184
0.0336184
0.0336184
0.0323196
0.0323196
0.0323196
0.0312983
0.0312983
0.0312983
0.0213467
0.0213467
0.0213467
0.0232898
0.0232898
0.0232898
0.0283099
0.0283099
0.0283099
0.0250569
0.0250569
0.0250569
0.0292125
0.0292125
0.0292125
0.0454773
0.0454773
0.0454773
0.0507922
0.0507922
0.0507922
0.044132
0.044132
0.044132
0.0298875
0.0298875
0.0298875
0.0341717
0.0341717
0.0341717
0.0262908
0.0262908
0.0262908
0.0269042
0.0269042
0.0269042
0.0211892
0.0211892
0.0211892
1.63798e-05
1.63798e-05
1.63798e-05
2.09452e-05
2.09452e-05
2.09452e-05
4.21742e-05
4.21742e-05
4.21742e-05
2.87413e-05
2.87413e-05
2.87413e-05
4.32387e-06
4.32387e-06
4.32387e-06
1.10201e-05
1.10201e-05
1.10201e-05
4.38264e-06
4.38264e-06
4.38264e-06
0.000115639
0.000115639
0.000115639
0.000200173
0.000200173
0.000200173
5.05243e-05
5.05243e-05
5.05243e-05
4.20948e-05
4.20948e-05
4.20948e-05
0.0432941
0.0432941
0.0432941
0.0376773
0.0376773
0.0376773
0.0325305
0.0325305
0.0325305
2.89721e-05
2.89721e-05
2.89721e-05
0.0409191
0.0409191
0.0409191
0.0397966
0.0397966
0.0397966
0.0333377
0.0333377
0.0333377
0.000543466
0.000543466
0.000543466
0.170282
0.170282
0.170282
0.278403
0.278403
0.278403
7.20071e-05
7.20071e-05
7.20071e-05
8.15945e-05
8.15945e-05
8.15945e-05
0.000171551
0.000171551
0.000171551
0.000127917
0.000127917
0.000127917
0.000128373
0.000128373
0.000128373
0.000115718
0.000115718
0.000115718
0.000171102
0.000171102
0.000171102
0.000201343
0.000201343
0.000201343
0.000297008
0.000297008
0.000297008
0.000259421
0.000259421
0.000259421
0.000260636
0.000260636
0.000260636
0.000200217
0.000200217
0.000200217
0.00053611
0.00053611
0.00053611
0.000764118
0.000764118
0.000764118
0.000853396
0.000853396
0.000853396
0.00122445
0.00122445
0.00122445
0.0011127
0.0011127
0.0011127
0.000258635
0.000258635
0.000258635
0.000170578
0.000170578
0.000170578
0.000200984
0.000200984
0.000200984
0.00823829
0.00823829
0.00823829
0.00956819
0.00956819
0.00956819
0.00968552
0.00968552
0.00968552
0.00836053
0.00836053
0.00836053
0.00635443
0.00635443
0.00635443
0.00553087
0.00553087
0.00553087
0.00255358
0.00255358
0.00255358
0.0064654
0.0064654
0.0064654
0.255041
0.255041
0.255041
0.257854
0.257854
0.257854
0.242991
0.242991
0.242991
0.23114
0.23114
0.23114
0.261861
0.261861
0.261861
0.26345
0.26345
0.26345
0.263714
0.263714
0.263714
0.259508
0.259508
0.259508
0.265261
0.265261
0.265261
0.265236
0.265236
0.265236
0.247206
0.247206
0.247206
0.23233
0.23233
0.23233
0.260868
0.260868
0.260868
0.256444
0.256444
0.256444
0.244159
0.244159
0.244159
0.233278
0.233278
0.233278
0.235133
0.235133
0.235133
0.300888
0.300888
0.300888
0.253584
0.253584
0.253584
0.17922
0.17922
0.17922
0.207946
0.207946
0.207946
0.199507
0.199507
0.199507
0.170077
0.170077
0.170077
0.175924
0.175924
0.175924
0.17229
0.17229
0.17229
0.171167
0.171167
0.171167
0.0761243
0.0761243
0.0761243
0.0775883
0.0775883
0.0775883
0.083048
0.083048
0.083048
0.147187
0.147187
0.147187
0.143521
0.143521
0.143521
0.148536
0.148536
0.148536
0.146566
0.146566
0.146566
0.145776
0.145776
0.145776
0.142498
0.142498
0.142498
0.143536
0.143536
0.143536
0.164026
0.164026
0.164026
0.166521
0.166521
0.166521
0.167364
0.167364
0.167364
0.160524
0.160524
0.160524
0.165216
0.165216
0.165216
0.161779
0.161779
0.161779
0.166041
0.166041
0.166041
0.162639
0.162639
0.162639
0.118181
0.118181
0.118181
0.115755
0.115755
0.115755
0.114046
0.114046
0.114046
0.108805
0.108805
0.108805
0.108765
0.108765
0.108765
0.108952
0.108952
0.108952
0.124712
0.124712
0.124712
0.120949
0.120949
0.120949
0.125475
0.125475
0.125475
0.123556
0.123556
0.123556
0.189427
0.189427
0.189427
0.193327
0.193327
0.193327
0.195077
0.195077
0.195077
0.224502
0.224502
0.224502
0.241566
0.241566
0.241566
0.273496
0.273496
0.273496
0.0127828
0.0127828
0.0127828
0.00649799
0.00649799
0.00649799
0.00839419
0.00839419
0.00839419
0.204474
0.204474
0.204474
0.213843
0.213843
0.213843
0.221604
0.221604
0.221604
0.217104
0.217104
0.217104
0.128141
0.128141
0.128141
0.14294
0.14294
0.14294
0.134866
0.134866
0.134866
0.137527
0.137527
0.137527
0.153808
0.153808
0.153808
0.147445
0.147445
0.147445
0.143986
0.143986
0.143986
0.201312
0.201312
0.201312
0.205395
0.205395
0.205395
0.199471
0.199471
0.199471
0.217886
0.217886
0.217886
0.21967
0.21967
0.21967
0.213554
0.213554
0.213554
0.210918
0.210918
0.210918
0.216286
0.216286
0.216286
0.211894
0.211894
0.211894
0.125359
0.125359
0.125359
0.126059
0.126059
0.126059
0.128875
0.128875
0.128875
0.0869849
0.0869849
0.0869849
6.14428e-05
6.14428e-05
6.14428e-05
5.27404e-05
5.27404e-05
5.27404e-05
0.0269834
0.0269834
0.0269834
0.000198498
0.000198498
0.000198498
0.000236535
0.000236535
0.000236535
9.62168e-05
9.62168e-05
9.62168e-05
8.69124e-05
8.69124e-05
8.69124e-05
6.07115e-05
6.07115e-05
6.07115e-05
5.20807e-05
5.20807e-05
5.20807e-05
8.58311e-05
8.58311e-05
8.58311e-05
5.99303e-05
5.99303e-05
5.99303e-05
0.000140641
0.000140641
0.000140641
0.000157779
0.000157779
0.000157779
0.000203373
0.000203373
0.000203373
0.00023937
0.00023937
0.00023937
0.000201022
0.000201022
0.000201022
0.000155908
0.000155908
0.000155908
0.0429888
0.0429888
0.0429888
0.0606197
0.0606197
0.0606197
0.0759218
0.0759218
0.0759218
0.0745933
0.0745933
0.0745933
0.000971035
0.000971035
0.000971035
0.000304306
0.000304306
0.000304306
0.000880567
0.000880567
0.000880567
2.52177e-06
2.52177e-06
2.52177e-06
0
0
0
0
0
0
0
0
0
0.0243536
0.0243536
0.0243536
0.0101412
0.0101412
0.0101412
0.0102307
0.0102307
0.0102307
0.0249095
0.0249095
0.0249095
0.0396276
0.0396276
0.0396276
0.039094
0.039094
0.039094
0.0720133
0.0720133
0.0720133
0.0853476
0.0853476
0.0853476
4.42248e-05
4.42248e-05
4.42248e-05
2.82522e-05
2.82522e-05
2.82522e-05
0.000210416
0.000210416
0.000210416
0.000175602
0.000175602
0.000175602
4.52642e-05
4.52642e-05
4.52642e-05
5.18795e-05
5.18795e-05
5.18795e-05
0.000312492
0.000312492
0.000312492
0.000268105
0.000268105
0.000268105
0.000306048
0.000306048
0.000306048
0.000395695
0.000395695
0.000395695
0.000450634
0.000450634
0.000450634
0.000387541
0.000387541
0.000387541
5.8216e-05
5.8216e-05
5.8216e-05
2.30002e-05
2.30002e-05
2.30002e-05
3.18798e-05
3.18798e-05
3.18798e-05
4.98444e-05
4.98444e-05
4.98444e-05
0.000151744
0.000151744
0.000151744
0.000135018
0.000135018
0.000135018
2.26224e-05
2.26224e-05
2.26224e-05
8.2137e-05
8.2137e-05
8.2137e-05
5.72847e-05
5.72847e-05
5.72847e-05
1.9531e-05
1.9531e-05
1.9531e-05
0
0
0
0
0
0
0
0
0
2.40164e-05
2.40164e-05
2.40164e-05
3.33384e-05
3.33384e-05
3.33384e-05
2.01307e-05
2.01307e-05
2.01307e-05
2.36971e-05
2.36971e-05
2.36971e-05
0
0
0
2.05533e-06
2.05533e-06
2.05533e-06
4.30989e-06
4.30989e-06
4.30989e-06
4.36954e-06
4.36954e-06
4.36954e-06
0
0
0
0
0
0
0
0
0
0.0203819
0.0203819
0.0203819
0.0251153
0.0251153
0.0251153
0.0199912
0.0199912
0.0199912
4.3193e-06
4.3193e-06
4.3193e-06
1.10645e-05
1.10645e-05
1.10645e-05
4.31475e-05
4.31475e-05
4.31475e-05
5.06567e-05
5.06567e-05
5.06567e-05
7.27805e-05
7.27805e-05
7.27805e-05
8.01194e-05
8.01194e-05
8.01194e-05
0.000132768
0.000132768
0.000132768
0.000117551
0.000117551
0.000117551
0.0868253
0.0868253
0.0868253
0.0927639
0.0927639
0.0927639
0.0912325
0.0912325
0.0912325
0.079988
0.079988
0.079988
0.0915766
0.0915766
0.0915766
0.0896837
0.0896837
0.0896837
0.0969167
0.0969167
0.0969167
0.0927982
0.0927982
0.0927982
0.052888
0.052888
0.052888
0.0537815
0.0537815
0.0537815
0.0401238
0.0401238
0.0401238
0.0452817
0.0452817
0.0452817
0.0488086
0.0488086
0.0488086
0.0351292
0.0351292
0.0351292
0.036837
0.036837
0.036837
0.0434901
0.0434901
0.0434901
0.0422959
0.0422959
0.0422959
0.0326943
0.0326943
0.0326943
0.0308627
0.0308627
0.0308627
0.0353886
0.0353886
0.0353886
0.0381391
0.0381391
0.0381391
0.0394624
0.0394624
0.0394624
0.0422085
0.0422085
0.0422085
0.0381676
0.0381676
0.0381676
0.0281851
0.0281851
0.0281851
0.0216061
0.0216061
0.0216061
0.0386645
0.0386645
0.0386645
0.0351154
0.0351154
0.0351154
0.039798
0.039798
0.039798
0.0371114
0.0371114
0.0371114
0.0314396
0.0314396
0.0314396
0.0322551
0.0322551
0.0322551
0.0404091
0.0404091
0.0404091
0.0416013
0.0416013
0.0416013
0.0366782
0.0366782
0.0366782
0.0309899
0.0309899
0.0309899
1.6374e-05
1.6374e-05
1.6374e-05
1.10521e-05
1.10521e-05
1.10521e-05
4.35451e-06
4.35451e-06
4.35451e-06
1.1061e-05
1.1061e-05
1.1061e-05
4.22969e-05
4.22969e-05
4.22969e-05
2.8302e-05
2.8302e-05
2.8302e-05
5.02481e-05
5.02481e-05
5.02481e-05
2.11682e-05
2.11682e-05
2.11682e-05
2.84612e-05
2.84612e-05
2.84612e-05
4.22746e-05
4.22746e-05
4.22746e-05
2.88624e-05
2.88624e-05
2.88624e-05
1.09974e-05
1.09974e-05
1.09974e-05
2.17875e-05
2.17875e-05
2.17875e-05
1.63131e-05
1.63131e-05
1.63131e-05
2.19759e-05
2.19759e-05
2.19759e-05
1.62779e-05
1.62779e-05
1.62779e-05
8.21164e-05
8.21164e-05
8.21164e-05
7.23096e-05
7.23096e-05
7.23096e-05
0.00012877
0.00012877
0.00012877
0.000172215
0.000172215
0.000172215
0.000129107
0.000129107
0.000129107
0.000115506
0.000115506
0.000115506
0.000200243
0.000200243
0.000200243
0.000171925
0.000171925
0.000171925
0.000435104
0.000435104
0.000435104
0.00038019
0.00038019
0.00038019
0.000298207
0.000298207
0.000298207
0.000261061
0.000261061
0.000261061
0.000298322
0.000298322
0.000298322
0.000435148
0.000435148
0.000435148
0.000380582
0.000380582
0.000380582
0.000172425
0.000172425
0.000172425
0.0238445
0.0238445
0.0238445
0.00631116
0.00631116
0.00631116
0.0243236
0.0243236
0.0243236
0.0160107
0.0160107
0.0160107
0.0356982
0.0356982
0.0356982
0.0348759
0.0348759
0.0348759
0.0167853
0.0167853
0.0167853
0.0258521
0.0258521
0.0258521
0.016261
0.016261
0.016261
0.0253275
0.0253275
0.0253275
0.000544481
0.000544481
0.000544481
0.00734138
0.00734138
0.00734138
0.000618663
0.000618663
0.000618663
0.0186305
0.0186305
0.0186305
0.0307893
0.0307893
0.0307893
0.00756047
0.00756047
0.00756047
0.000616635
0.000616635
0.000616635
0.000617749
0.000617749
0.000617749
0.000780792
0.000780792
0.000780792
0.000876922
0.000876922
0.000876922
0.000779429
0.000779429
0.000779429
0.27553
0.27553
0.27553
0.270875
0.270875
0.270875
0.273559
0.273559
0.273559
0.112256
0.112256
0.112256
0.12154
0.12154
0.12154
0.118414
0.118414
0.118414
0.15746
0.15746
0.15746
0.134537
0.134537
0.134537
0.146119
0.146119
0.146119
0.140493
0.140493
0.140493
0.128699
0.128699
0.128699
0.132231
0.132231
0.132231
0.113687
0.113687
0.113687
0.120079
0.120079
0.120079
8.18729e-05
8.18729e-05
8.18729e-05
7.214e-05
7.214e-05
7.214e-05
5.03606e-05
5.03606e-05
5.03606e-05
4.22336e-05
4.22336e-05
4.22336e-05
5.04546e-05
5.04546e-05
5.04546e-05
7.224e-05
7.224e-05
7.224e-05
0.000297551
0.000297551
0.000297551
0.000297951
0.000297951
0.000297951
0.000260088
0.000260088
0.000260088
0.00037882
0.00037882
0.00037882
0.000600768
0.000600768
0.000600768
0.000366508
0.000366508
0.000366508
0.000420672
0.000420672
0.000420672
0.000430298
0.000430298
0.000430298
0.000767884
0.000767884
0.000767884
0.000607142
0.000607142
0.000607142
0.000609932
0.000609932
0.000609932
0.000533329
0.000533329
0.000533329
0.000296315
0.000296315
0.000296315
0.000376751
0.000376751
0.000376751
0.000375465
0.000375465
0.000375465
0.000431619
0.000431619
0.000431619
0.000200525
0.000200525
0.000200525
0.000257724
0.000257724
0.000257724
0.000256703
0.000256703
0.000256703
0.000295481
0.000295481
0.000295481
0.0147259
0.0147259
0.0147259
0.0199896
0.0199896
0.0199896
0.0148007
0.0148007
0.0148007
0.0126501
0.0126501
0.0126501
0.00829387
0.00829387
0.00829387
0.00640006
0.00640006
0.00640006
0.0126951
0.0126951
0.0126951
0.00962037
0.00962037
0.00962037
0.00965914
0.00965914
0.00965914
0.00832796
0.00832796
0.00832796
0.0019912
0.0019912
0.0019912
0.00293236
0.00293236
0.00293236
0.00368348
0.00368348
0.00368348
0.00290523
0.00290523
0.00290523
0.00252938
0.00252938
0.00252938
0.00365144
0.00365144
0.00365144
0.00446329
0.00446329
0.00446329
0.00180311
0.00180311
0.00180311
0.00201098
0.00201098
0.00201098
0.00139253
0.00139253
0.00139253
0.00126888
0.00126888
0.00126888
0.00449727
0.00449727
0.00449727
0.00560188
0.00560188
0.00560188
0.00643682
0.00643682
0.00643682
0.00556996
0.00556996
0.00556996
0.0029557
0.0029557
0.0029557
0.00371074
0.00371074
0.00371074
0.00452543
0.00452543
0.00452543
0.00648555
0.00648555
0.00648555
0.0056264
0.0056264
0.0056264
0.00564399
0.00564399
0.00564399
0.00456472
0.00456472
0.00456472
0.000483462
0.000483462
0.000483462
0.000591405
0.000591405
0.000591405
0.001255
0.001255
0.001255
0.000870729
0.000870729
0.000870729
0.000691196
0.000691196
0.000691196
0.000859918
0.000859918
0.000859918
0.000959646
0.000959646
0.000959646
0.000599718
0.000599718
0.000599718
0.000682177
0.000682177
0.000682177
0.00265983
0.00265983
0.00265983
0.00226813
0.00226813
0.00226813
0.0510295
0.0510295
0.0510295
0.248883
0.248883
0.248883
0.261338
0.261338
0.261338
0.216107
0.216107
0.216107
0.244307
0.244307
0.244307
0.0200799
0.0200799
0.0200799
0.0233252
0.0233252
0.0233252
0.00125892
0.00125892
0.00125892
0.00112965
0.00112965
0.00112965
0.250783
0.250783
0.250783
0.0350075
0.0350075
0.0350075
0.00159691
0.00159691
0.00159691
0.0183692
0.0183692
0.0183692
0.0588909
0.0588909
0.0588909
0.00090306
0.00090306
0.00090306
0.00243721
0.00243721
0.00243721
0.00909688
0.00909688
0.00909688
0.00789512
0.00789512
0.00789512
0.00521698
0.00521698
0.00521698
0.00608001
0.00608001
0.00608001
0.0357694
0.0357694
0.0357694
0.163812
0.163812
0.163812
0.218769
0.218769
0.218769
0.217581
0.217581
0.217581
0.245914
0.245914
0.245914
0.0193262
0.0193262
0.0193262
0.0120511
0.0120511
0.0120511
0.0142034
0.0142034
0.0142034
0.0310303
0.0310303
0.0310303
0.0362544
0.0362544
0.0362544
0.0306387
0.0306387
0.0306387
0.0223923
0.0223923
0.0223923
0.00950273
0.00950273
0.00950273
0.0125691
0.0125691
0.0125691
0.235213
0.235213
0.235213
0.246805
0.246805
0.246805
0.257578
0.257578
0.257578
0.234009
0.234009
0.234009
0.24508
0.24508
0.24508
0.234917
0.234917
0.234917
0.246617
0.246617
0.246617
0.259633
0.259633
0.259633
0.2635
0.2635
0.2635
0.254886
0.254886
0.254886
0.241594
0.241594
0.241594
0.283223
0.283223
0.283223
0.296217
0.296217
0.296217
0.296999
0.296999
0.296999
0.197937
0.197937
0.197937
0.210323
0.210323
0.210323
0.223855
0.223855
0.223855
0.208256
0.208256
0.208256
0.177231
0.177231
0.177231
0.166868
0.166868
0.166868
0.261477
0.261477
0.261477
0.236668
0.236668
0.236668
0.303288
0.303288
0.303288
0.301547
0.301547
0.301547
0.299704
0.299704
0.299704
0.301513
0.301513
0.301513
0.298107
0.298107
0.298107
0.177389
0.177389
0.177389
0.174833
0.174833
0.174833
0.164668
0.164668
0.164668
0.168325
0.168325
0.168325
0.15049
0.15049
0.15049
0.147607
0.147607
0.147607
0.154266
0.154266
0.154266
0.154127
0.154127
0.154127
0.157568
0.157568
0.157568
0.157622
0.157622
0.157622
0.150914
0.150914
0.150914
0.144257
0.144257
0.144257
0.147476
0.147476
0.147476
0.144435
0.144435
0.144435
0.147656
0.147656
0.147656
0.150909
0.150909
0.150909
0.140803
0.140803
0.140803
0.140361
0.140361
0.140361
0.13804
0.13804
0.13804
0.137729
0.137729
0.137729
0.134263
0.134263
0.134263
0.129003
0.129003
0.129003
0.134492
0.134492
0.134492
0.136694
0.136694
0.136694
0.133688
0.133688
0.133688
0.147605
0.147605
0.147605
0.15074
0.15074
0.15074
0.129228
0.129228
0.129228
0.135033
0.135033
0.135033
0.141521
0.141521
0.141521
0.144448
0.144448
0.144448
0.141363
0.141363
0.141363
0.100731
0.100731
0.100731
0.10716
0.10716
0.10716
0.104966
0.104966
0.104966
0.102315
0.102315
0.102315
0.104429
0.104429
0.104429
0.106944
0.106944
0.106944
0.100598
0.100598
0.100598
0.109104
0.109104
0.109104
0.10455
0.10455
0.10455
0.100141
0.100141
0.100141
0.102351
0.102351
0.102351
0.113464
0.113464
0.113464
0.115904
0.115904
0.115904
0.112878
0.112878
0.112878
0.114653
0.114653
0.114653
0.122114
0.122114
0.122114
0.121413
0.121413
0.121413
0.118903
0.118903
0.118903
0.117085
0.117085
0.117085
0.120269
0.120269
0.120269
0.117751
0.117751
0.117751
0.121492
0.121492
0.121492
0.124067
0.124067
0.124067
0.113765
0.113765
0.113765
0.116254
0.116254
0.116254
0.113886
0.113886
0.113886
0.1189
0.1189
0.1189
0.116335
0.116335
0.116335
0.118856
0.118856
0.118856
0.225266
0.225266
0.225266
0.224109
0.224109
0.224109
0.226719
0.226719
0.226719
0.245243
0.245243
0.245243
0.217999
0.217999
0.217999
0.213741
0.213741
0.213741
0.275692
0.275692
0.275692
0.277172
0.277172
0.277172
0.269319
0.269319
0.269319
0.27717
0.27717
0.27717
0.0148552
0.0148552
0.0148552
0.0127406
0.0127406
0.0127406
0.0127697
0.0127697
0.0127697
0.0149063
0.0149063
0.0149063
0.01489
0.01489
0.01489
0.0202043
0.0202043
0.0202043
0.0234805
0.0234805
0.0234805
0.0201922
0.0201922
0.0201922
0.0234752
0.0234752
0.0234752
0.0446274
0.0446274
0.0446274
0.261233
0.261233
0.261233
0.242346
0.242346
0.242346
0.0223004
0.0223004
0.0223004
0.0406708
0.0406708
0.0406708
0.0803097
0.0803097
0.0803097
0.140134
0.140134
0.140134
0.132063
0.132063
0.132063
0.103114
0.103114
0.103114
0.089271