<VTKFile type="UnstructuredGrid" version="1.0">
<UnstructuredGrid>
<Piece NumberOfPoints="10830" NumberOfCells="3610">
<Points>
<DataArray type="Float64" NumberOfComponents="3" format="ascii">
1.27826 3.11035 8.38575
1.28831 3.11035 8.36
1.28831 3.11035 8.41146
1.28831 3.11035 8.91508
1.28831 3.11035 8.966
1.27701 3.11035 8.94053
1.28831 3.11035 8.91508
1.27701 3.11035 8.94053
1.26002 3.11035 8.9151
0.0244388 3.11035 9.38759
0.0422213 3.11035 9.405
0 3.11035 9.405
0 3.11035 9.405
-7.89601e-14 3.11035 9.37484
0.0244388 3.11035 9.38759
1.28831 3.11035 8.91508
1.26002 3.11035 8.9151
1.27702 3.11035 8.88968
0.00863377 3.11035 8.63679
1.49469e-13 3.11035 8.66201
1.49791e-13 3.11035 8.61157
1.27705 3.11035 8.6369
1.28831 3.11035 8.66209
1.26004 3.11035 8.66211
1.27684 3.11035 8.53634
1.28831 3.11035 8.51128
1.28831 3.11035 8.56139
1.26004 3.11035 8.66211
1.28831 3.11035 8.66209
1.27707 3.11035 8.68731
1.28831 3.11035 8.66209
1.28831 3.11035 8.71254
1.27707 3.11035 8.68731
1.26005 3.11035 8.71255
1.27707 3.11035 8.68731
1.28831 3.11035 8.71254
1.26003 3.11035 8.86431
1.27702 3.11035 8.88968
1.24613 3.11035 8.8897
1.24613 3.11035 8.8897
1.27702 3.11035 8.88968
1.26002 3.11035 8.9151
1.24613 3.11035 8.8897
1.23052 3.11035 8.86432
1.26003 3.11035 8.86431
1.24613 3.11035 8.8897
1.26002 3.11035 8.9151
1.23052 3.11035 8.91512
1.28831 3.11035 8.76304
1.28831 3.11035 8.81362
1.27705 3.11035 8.78833
1.27705 3.11035 8.78833
1.26004 3.11035 8.81363
1.24616 3.11035 8.78834
1.28831 3.11035 8.81362
1.26004 3.11035 8.81363
1.27705 3.11035 8.78833
1.28831 3.11035 8.86429
1.27702 3.11035 8.88968
1.26003 3.11035 8.86431
1.28831 3.11035 8.91508
1.27702 3.11035 8.88968
1.28831 3.11035 8.86429
1.25981 3.11035 8.51132
1.28831 3.11035 8.51128
1.27684 3.11035 8.53634
1.26002 3.11035 8.96603
1.27701 3.11035 8.94053
1.28831 3.11035 8.966
0.85884 3.11035 9.14575
0.873578 3.11035 9.11998
0.888295 3.11035 9.14572
0 3.11035 8.36
0.0277369 3.11035 8.36
0.00987207 3.11035 8.3847
0.0840033 3.11035 8.61159
0.0549577 3.11035 8.61157
0.0689903 3.11035 8.58637
0.0264927 3.11035 8.61156
0.0549577 3.11035 8.61157
0.0392653 3.11035 8.63678
0.0264927 3.11035 8.61156
0.00863377 3.11035 8.63679
1.49791e-13 3.11035 8.61157
0.0392653 3.11035 8.63678
0.00863377 3.11035 8.63679
0.0264927 3.11035 8.61156
0.0087521 3.11035 8.83894
-9.63464e-14 3.11035 8.8643
1.47962e-13 3.11035 8.81361
0.0265703 3.11035 8.8643
0.0393699 3.11035 8.83893
0.0550657 3.11035 8.86429
-9.63464e-14 3.11035 8.8643
0.0087521 3.11035 8.83894
0.0265703 3.11035 8.8643
0.0265703 3.11035 8.8643
0.0087521 3.11035 8.83894
0.0393699 3.11035 8.83893
0.0265544 3.11035 8.8136
0.0550443 3.11035 8.8136
0.0393699 3.11035 8.83893
0.0265544 3.11035 8.8136
0.0087521 3.11035 8.83894
1.47962e-13 3.11035 8.81361
0.0393699 3.11035 8.83893
0.0087521 3.11035 8.83894
0.0265544 3.11035 8.8136
1.49469e-13 3.11035 8.66201
0.00863377 3.11035 8.63679
0.0265126 3.11035 8.662
0.0265126 3.11035 8.662
0.00863377 3.11035 8.63679
0.0392653 3.11035 8.63678
0.0550657 3.11035 8.86429
0.0393699 3.11035 8.83893
0.0691236 3.11035 8.83893
0.0393699 3.11035 8.83893
0.0550443 3.11035 8.8136
0.0691236 3.11035 8.83893
0.288852 3.11035 8.81367
0.303471 3.11035 8.83901
0.274248 3.11035 8.839
0.274248 3.11035 8.839
0.303471 3.11035 8.83901
0.288872 3.11035 8.86437
0.288872 3.11035 8.86437
0.303471 3.11035 8.83901
0.318088 3.11035 8.86438
0.844143 3.11035 9.12
0.873578 3.11035 9.11998
0.85884 3.11035 9.14575
1.27699 3.11035 8.58656
1.28831 3.11035 8.56139
1.28831 3.11035 8.6117
1.28831 3.11035 8.66209
1.27705 3.11035 8.6369
1.28831 3.11035 8.6117
1.17079 3.11035 8.7631
1.14088 3.11035 8.76311
1.15586 3.11035 8.73785
1.26004 3.11035 8.76305
1.27705 3.11035 8.78833
1.24616 3.11035 8.78834
1.28831 3.11035 8.76304
1.27705 3.11035 8.78833
1.26004 3.11035 8.76305
1.24616 3.11035 8.78834
1.26004 3.11035 8.81363
1.23053 3.11035 8.81365
1.27704 3.11035 8.83895
1.26004 3.11035 8.81363
1.28831 3.11035 8.81362
1.28831 3.11035 8.81362
1.28831 3.11035 8.86429
1.27704 3.11035 8.83895
1.27704 3.11035 8.83895
1.28831 3.11035 8.86429
1.26003 3.11035 8.86431
1.24591 3.11035 8.53637
1.25981 3.11035 8.51132
1.27684 3.11035 8.53634
1.27699 3.11035 8.58656
1.28831 3.11035 8.6117
1.26001 3.11035 8.61174
1.26001 3.11035 8.61174
1.28831 3.11035 8.6117
1.27705 3.11035 8.6369
1.15573 3.11035 8.58661
1.1407 3.11035 8.56143
1.1706 3.11035 8.56143
1.20051 3.11035 8.56145
1.18556 3.11035 8.53626
1.21561 3.11035 8.53631
1.20051 3.11035 8.56145
1.1706 3.11035 8.56143
1.18556 3.11035 8.53626
1.24614 3.11035 8.63693
1.27705 3.11035 8.6369
1.26004 3.11035 8.66211
1.24614 3.11035 8.63693
1.26001 3.11035 8.61174
1.27705 3.11035 8.6369
1.24612 3.11035 8.94055
1.26002 3.11035 8.9151
1.27701 3.11035 8.94053
1.27701 3.11035 8.94053
1.26002 3.11035 8.96603
1.24612 3.11035 8.94055
1.23052 3.11035 8.91512
1.26002 3.11035 8.9151
1.24612 3.11035 8.94055
1.24611 3.11035 9.09406
1.21584 3.11035 9.09406
1.23051 3.11035 9.06837
1.21584 3.11035 9.04274
1.24611 3.11035 9.04272
1.23051 3.11035 9.06837
1.27699 3.11035 8.99153
1.26002 3.11035 8.96603
1.28831 3.11035 8.966
1.24611 3.11035 8.99156
1.26002 3.11035 8.96603
1.27699 3.11035 8.99153
0.917741 3.11035 9.19732
0.932465 3.11035 9.22316
0.902954 3.11035 9.2232
1.08109 3.11035 9.06843
1.09602 3.11035 9.04279
1.11094 3.11035 9.06841
1.11094 3.11035 9.06841
1.09602 3.11035 9.04279
1.12589 3.11035 9.04278
1.2305 3.11035 9.01713
1.21584 3.11035 8.99158
1.24611 3.11035 8.99156
1.2305 3.11035 9.01713
1.24611 3.11035 9.04272
1.21584 3.11035 9.04274
1.0662 3.11035 9.04281
1.09602 3.11035 9.04279
1.08109 3.11035 9.06843
0.991917 3.11035 8.81374
0.962274 3.11035 8.81374
0.977089 3.11035 8.78843
0.917902 3.11035 8.78844
0.903138 3.11035 8.81375
0.888384 3.11035 8.78844
0.932681 3.11035 8.81375
0.903138 3.11035 8.81375
0.917902 3.11035 8.78844
0.903119 3.11035 8.71265
0.932664 3.11035 8.71266
0.917893 3.11035 8.7379
0.917893 3.11035 8.7379
0.888374 3.11035 8.73789
0.903119 3.11035 8.71265
0.903119 3.11035 8.71265
0.888374 3.11035 8.73789
0.873625 3.11035 8.71264
0.917893 3.11035 8.7379
0.932664 3.11035 8.71266
0.947463 3.11035 8.7379
0.962233 3.11035 8.66223
0.977066 3.11035 8.68744
0.947444 3.11035 8.68744
0.947444 3.11035 8.68744
0.932637 3.11035 8.66223
0.962233 3.11035 8.66223
0.741456 3.11035 8.83909
0.756104 3.11035 8.81375
0.770765 3.11035 8.83909
0.756104 3.11035 8.81375
0.785431 3.11035 8.81375
0.770765 3.11035 8.83909
0.903133 3.11035 8.76316
0.888374 3.11035 8.73789
0.917893 3.11035 8.7379
0.903133 3.11035 8.76316
0.917902 3.11035 8.78844
0.888384 3.11035 8.78844
0.888384 3.11035 8.78844
0.858913 3.11035 8.78844
0.873639 3.11035 8.76315
0.873639 3.11035 8.76315
0.903133 3.11035 8.76316
0.888384 3.11035 8.78844
0.888374 3.11035 8.73789
0.903133 3.11035 8.76316
0.873639 3.11035 8.76315
0.873625 3.11035 8.71264
0.844177 3.11035 8.71264
0.858884 3.11035 8.68741
0.844153 3.11035 8.66219
0.873599 3.11035 8.66221
0.858884 3.11035 8.68741
0.318069 3.11035 8.81368
0.303471 3.11035 8.83901
0.288852 3.11035 8.81367
0.288852 3.11035 8.81367
0.303454 3.11035 8.78836
0.318069 3.11035 8.81368
0.00864568 3.11035 8.43487
1.4958e-13 3.11035 8.46009
-9.64495e-14 3.11035 8.40942
0 3.11035 8.36
0.00987207 3.11035 8.3847
-9.64495e-14 3.11035 8.40942
0.0264295 3.11035 8.5107
1.50097e-13 3.11035 8.51067
0.00849117 3.11035 8.48542
1.50097e-13 3.11035 8.51067
1.4958e-13 3.11035 8.46009
0.00849117 3.11035 8.48542
1.28831 3.11035 8.36
1.27826 3.11035 8.38575
1.26122 3.11035 8.36
1.49791e-13 3.11035 8.61157
1.50032e-13 3.11035 8.56114
0.00859461 3.11035 8.58636
0.00859461 3.11035 8.58636
0.0264927 3.11035 8.61156
1.49791e-13 3.11035 8.61157
0.0264637 3.11035 8.56113
0.00859461 3.11035 8.58636
1.50032e-13 3.11035 8.56114
0.0264637 3.11035 8.56113
0.0391815 3.11035 8.53594
0.0549232 3.11035 8.56116
0.0392276 3.11035 8.58635
0.0689903 3.11035 8.58637
0.0549577 3.11035 8.61157
0.0549577 3.11035 8.61157
0.0264927 3.11035 8.61156
0.0392276 3.11035 8.58635
0.0549232 3.11035 8.56116
0.0689903 3.11035 8.58637
0.0392276 3.11035 8.58635
0.0392276 3.11035 8.58635
0.0264637 3.11035 8.56113
0.0549232 3.11035 8.56116
0.0264927 3.11035 8.61156
0.00859461 3.11035 8.58636
0.0392276 3.11035 8.58635
0.00859461 3.11035 8.58636
0.0264637 3.11035 8.56113
0.0392276 3.11035 8.58635
0.00854014 3.11035 8.53591
1.50032e-13 3.11035 8.56114
1.50097e-13 3.11035 8.51067
0.00854014 3.11035 8.53591
1.50097e-13 3.11035 8.51067
0.0264295 3.11035 8.5107
0.0264295 3.11035 8.5107
0.0391815 3.11035 8.53594
0.00854014 3.11035 8.53591
0.00854014 3.11035 8.53591
0.0264637 3.11035 8.56113
1.50032e-13 3.11035 8.56114
0.0391815 3.11035 8.53594
0.0264637 3.11035 8.56113
0.00854014 3.11035 8.53591
0.0690987 3.11035 8.78829
0.0550443 3.11035 8.8136
0.0393425 3.11035 8.78829
0.0550443 3.11035 8.8136
0.0265544 3.11035 8.8136
0.0393425 3.11035 8.78829
0.0393425 3.11035 8.78829
0.0550252 3.11035 8.763
0.0690987 3.11035 8.78829
0.0690242 3.11035 8.63679
0.0549577 3.11035 8.61157
0.0840033 3.11035 8.61159
0.0392653 3.11035 8.63678
0.0549577 3.11035 8.61157
0.0690242 3.11035 8.63679
0.0984777 3.11035 8.6368
0.0690242 3.11035 8.63679
0.0840033 3.11035 8.61159
0.0840313 3.11035 8.66201
0.0690242 3.11035 8.63679
0.0984777 3.11035 8.6368
0.0840313 3.11035 8.66201
0.0984777 3.11035 8.6368
0.113251 3.11035 8.66202
0.303441 3.11035 8.7378
0.318055 3.11035 8.76307
0.288836 3.11035 8.76307
0.288836 3.11035 8.76307
0.318055 3.11035 8.76307
0.303454 3.11035 8.78836
0.186476 3.11035 8.78832
0.215741 3.11035 8.78833
0.201123 3.11035 8.81363
0.201103 3.11035 8.76304
0.215741 3.11035 8.78833
0.186476 3.11035 8.78832
0.215723 3.11035 8.73777
0.201085 3.11035 8.71252
0.230345 3.11035 8.71253
0.201103 3.11035 8.76304
0.186456 3.11035 8.73776
0.215723 3.11035 8.73777
0.215723 3.11035 8.73777
0.186456 3.11035 8.73776
0.201085 3.11035 8.71252
0.215762 3.11035 8.83897
0.245012 3.11035 8.83899
0.230402 3.11035 8.86434
0.157245 3.11035 8.8897
0.171881 3.11035 8.86432
0.186525 3.11035 8.88971
0.171857 3.11035 8.81362
0.186476 3.11035 8.78832
[...]
<PointData Scalars="View Factor" >
<DataArray type="Float64" Name="View Factor" NumberOfComponents="1" format="ascii">
6.83906e-05
6.83906e-05
6.83906e-05
5.96085e-05
5.96085e-05
5.96085e-05
5.98661e-05
5.98661e-05
5.98661e-05
3.22349e-05
3.22349e-05
3.22349e-05
3.47441e-05
3.47441e-05
3.47441e-05
6.01142e-05
6.01142e-05
6.01142e-05
5.31483e-05
5.31483e-05
5.31483e-05
6.39727e-05
6.39727e-05
6.39727e-05
6.5856e-05
6.5856e-05
6.5856e-05
6.37069e-05
6.37069e-05
6.37069e-05
6.34309e-05
6.34309e-05
6.34309e-05
6.31792e-05
6.31792e-05
6.31792e-05
6.05041e-05
6.05041e-05
6.05041e-05
6.02543e-05
6.02543e-05
6.02543e-05
6.06467e-05
6.06467e-05
6.06467e-05
6.01469e-05
6.01469e-05
6.01469e-05
6.18705e-05
6.18705e-05
6.18705e-05
6.17698e-05
6.17698e-05
6.17698e-05
6.16257e-05
6.16257e-05
6.16257e-05
6.06136e-05
6.06136e-05
6.06136e-05
6.03526e-05
6.03526e-05
6.03526e-05
6.61435e-05
6.61435e-05
6.61435e-05
5.93731e-05
5.93731e-05
5.93731e-05
1.78488e-06
1.78488e-06
1.78488e-06
4.36326e-05
4.36326e-05
4.36326e-05
5.34316e-05
5.34316e-05
5.34316e-05
5.24429e-05
5.24429e-05
5.24429e-05
5.47755e-05
5.47755e-05
5.47755e-05
5.22406e-05
5.22406e-05
5.22406e-05
4.06342e-05
4.06342e-05
4.06342e-05
3.35392e-05
3.35392e-05
3.35392e-05
3.86203e-05
3.86203e-05
3.86203e-05
3.63872e-05
3.63872e-05
3.63872e-05
3.38198e-05
3.38198e-05
3.38198e-05
3.89437e-05
3.89437e-05
3.89437e-05
3.65392e-05
3.65392e-05
3.65392e-05
4.96028e-05
4.96028e-05
4.96028e-05
4.94196e-05
4.94196e-05
4.94196e-05
3.08307e-05
3.08307e-05
3.08307e-05
3.09593e-05
3.09593e-05
3.09593e-05
0
0
0
0
0
0
0
0
0
0
0
0
6.50368e-05
6.50368e-05
6.50368e-05
6.42281e-05
6.42281e-05
6.42281e-05
5.48726e-05
5.48726e-05
5.48726e-05
6.20264e-05
6.20264e-05
6.20264e-05
6.21387e-05
6.21387e-05
6.21387e-05
6.16597e-05
6.16597e-05
6.16597e-05
6.1371e-05
6.1371e-05
6.1371e-05
6.11064e-05
6.11064e-05
6.11064e-05
6.08649e-05
6.08649e-05
6.08649e-05
6.60237e-05
6.60237e-05
6.60237e-05
6.47778e-05
6.47778e-05
6.47778e-05
6.45082e-05
6.45082e-05
6.45082e-05
6.43149e-05
6.43149e-05
6.43149e-05
6.58247e-05
6.58247e-05
6.58247e-05
6.54805e-05
6.54805e-05
6.54805e-05
6.41233e-05
6.41233e-05
6.41233e-05
6.4391e-05
6.4391e-05
6.4391e-05
5.97579e-05
5.97579e-05
5.97579e-05
5.95113e-05
5.95113e-05
5.95113e-05
5.98986e-05
5.98986e-05
5.98986e-05
5.76055e-05
5.76055e-05
5.76055e-05
5.80842e-05
5.80842e-05
5.80842e-05
5.91281e-05
5.91281e-05
5.91281e-05
5.90212e-05
5.90212e-05
5.90212e-05
9.01183e-06
9.01183e-06
9.01183e-06
4.07413e-05
4.07413e-05
4.07413e-05
4.33934e-05
4.33934e-05
4.33934e-05
5.88095e-05
5.88095e-05
5.88095e-05
5.8325e-05
5.8325e-05
5.8325e-05
3.82481e-05
3.82481e-05
3.82481e-05
2.11947e-05
2.11947e-05
2.11947e-05
7.16716e-06
7.16716e-06
7.16716e-06
9.96086e-06
9.96086e-06
9.96086e-06
1.26689e-05
1.26689e-05
1.26689e-05
7.8098e-06
7.8098e-06
7.8098e-06
7.53592e-06
7.53592e-06
7.53592e-06
1.34827e-05
1.34827e-05
1.34827e-05
2.9712e-05
2.9712e-05
2.9712e-05
2.96444e-05
2.96444e-05
2.96444e-05
0
0
0
0
0
0
7.25764e-06
7.25764e-06
7.25764e-06
7.19718e-06
7.19718e-06
7.19718e-06
1.94801e-06
1.94801e-06
1.94801e-06
4.72369e-06
4.72369e-06
4.72369e-06
4.74347e-06
4.74347e-06
4.74347e-06
7.3686e-06
7.3686e-06
7.3686e-06
1.80959e-05
1.80959e-05
1.80959e-05
0
0
0
0
0
0
5.1315e-05
5.1315e-05
5.1315e-05
4.55273e-05
4.55273e-05
4.55273e-05
5.88084e-05
5.88084e-05
5.88084e-05
5.75839e-05
5.75839e-05
5.75839e-05
6.86995e-05
6.86995e-05
6.86995e-05
6.07126e-05
6.07126e-05
6.07126e-05
5.72748e-05
5.72748e-05
5.72748e-05
6.26181e-05
6.26181e-05
6.26181e-05
6.35466e-05
6.35466e-05
6.35466e-05
5.63641e-05
5.63641e-05
5.63641e-05
5.5441e-05
5.5441e-05
5.5441e-05
6.04044e-05
6.04044e-05
6.04044e-05
6.18357e-05
6.18357e-05
6.18357e-05
5.80508e-05
5.80508e-05
5.80508e-05
6.14138e-05
6.14138e-05
6.14138e-05
6.2692e-05
6.2692e-05
6.2692e-05
6.04983e-05
6.04983e-05
6.04983e-05
6.08919e-05
6.08919e-05
6.08919e-05
6.40677e-05
6.40677e-05
6.40677e-05
6.28829e-05
6.28829e-05
6.28829e-05
3.12184e-05
3.12184e-05
3.12184e-05
3.39611e-05
3.39611e-05
3.39611e-05
3.13489e-05
3.13489e-05
3.13489e-05
4.98966e-05
4.98966e-05
4.98966e-05
4.94011e-05
4.94011e-05
4.94011e-05
4.65617e-05
4.65617e-05
4.65617e-05
4.26231e-05
4.26231e-05
4.26231e-05
3.89183e-05
3.89183e-05
3.89183e-05
0
0
0
0
0
0
3.69027e-06
3.69027e-06
3.69027e-06
3.70552e-06
3.70552e-06
3.70552e-06
3.89917e-06
3.89917e-06
3.89917e-06
3.73624e-06
3.73624e-06
3.73624e-06
4.31082e-06
4.31082e-06
4.31082e-06
0
0
0
9.05805e-06
9.05805e-06
9.05805e-06
6.45039e-06
6.45039e-06
6.45039e-06
9.24717e-06
9.24717e-06
9.24717e-06
2.79938e-05
2.79938e-05
2.79938e-05
2.85828e-05
2.85828e-05
2.85828e-05
2.5699e-05
2.5699e-05
2.5699e-05
1.44287e-05
1.44287e-05
1.44287e-05
2.82278e-05
2.82278e-05
2.82278e-05
2.83455e-05
2.83455e-05
2.83455e-05
2.55922e-05
2.55922e-05
2.55922e-05
8.90972e-06
8.90972e-06
8.90972e-06
3.67553e-05
3.67553e-05
3.67553e-05
3.32446e-05
3.32446e-05
3.32446e-05
0
0
0
0
0
0
0
0
0
0
0
0
0
0
0
0
0
0
0
0
0
0
0
0
0
0
0
0
0
0
3.60015e-06
3.60015e-06
3.60015e-06
0
0
0
0
0
0
0
0
0
0
0
0
0
0
0
0
0
0
0
0
0
0
0
0
0
0
0
0
0
0
0
0
0
0
0
0
0
0
0
0
0
0
0
0
0
0
0
0
0
0
0
0
0
0
0
0
0
0
0
0
0
0
0
0
0
0
0
0
0
0
0
0
0
0
0
0
0
0
0
0
0
0
0
0
0
0
0
0
0
0
0
0
0
0
0
0
0
0
0
0
0
0
3.95375e-05
3.95375e-05
3.95375e-05
1.59242e-05
1.59242e-05
1.59242e-05
2.17518e-05
2.17518e-05
2.17518e-05
2.68121e-05
2.68121e-05
2.68121e-05
2.42345e-05
2.42345e-05
2.42345e-05
6.06795e-05
6.06795e-05
6.06795e-05
6.02875e-05
6.02875e-05
6.02875e-05
6.05376e-05
6.05376e-05
6.05376e-05
6.057e-05
6.057e-05
6.057e-05
3.77621e-05
3.77621e-05
3.77621e-05
3.38071e-05
3.38071e-05
3.38071e-05
4.15175e-05
4.15175e-05
4.15175e-05
4.88073e-05
4.88073e-05
4.88073e-05
4.61909e-05
4.61909e-05
4.61909e-05
6.2397e-05
6.2397e-05
6.2397e-05
6.25432e-05
6.25432e-05
6.25432e-05
6.26451e-05
6.26451e-05
6.26451e-05
6.29172e-05
6.29172e-05
6.29172e-05
6.28034e-05
6.28034e-05
6.28034e-05
6.10738e-05
6.10738e-05
6.10738e-05
6.09313e-05
6.09313e-05
6.09313e-05
6.08983e-05
6.08983e-05
6.08983e-05
6.14048e-05
6.14048e-05
6.14048e-05
6.10409e-05
6.10409e-05
6.10409e-05
6.12942e-05
6.12942e-05
6.12942e-05
6.1007e-05
6.1007e-05
6.1007e-05
6.12602e-05
6.12602e-05
6.12602e-05
6.53206e-05
6.53206e-05
6.53206e-05
6.55938e-05
6.55938e-05
6.55938e-05
6.57486e-05
6.57486e-05
6.57486e-05
6.64198e-05
6.64198e-05
6.64198e-05
6.49734e-05
6.49734e-05
6.49734e-05
6.51689e-05
6.51689e-05
6.51689e-05
6.45443e-05
6.45443e-05
6.45443e-05
6.48502e-05
6.48502e-05
6.48502e-05
6.44276e-05
6.44276e-05
6.44276e-05
6.45801e-05
6.45801e-05
6.45801e-05
5.94051e-05
5.94051e-05
5.94051e-05
5.91599e-05
5.91599e-05
5.91599e-05
5.90533e-05
5.90533e-05
5.90533e-05
5.73676e-05
5.73676e-05
5.73676e-05
4.94612e-05
4.94612e-05
4.94612e-05
2.36358e-05
2.36358e-05
2.36358e-05
1.77747e-06
1.77747e-06
1.77747e-06
4.32089e-06
4.32089e-06
4.32089e-06
4.30294e-06
4.30294e-06
4.30294e-06
4.0572e-05
4.0572e-05
4.0572e-05
4.02356e-05
4.02356e-05
4.02356e-05
5.28785e-05
5.28785e-05
5.28785e-05
5.30981e-05
5.30981e-05
5.30981e-05
3.22199e-05
3.22199e-05
3.22199e-05
4.33695e-05
4.33695e-05
4.33695e-05
3.78839e-05
3.78839e-05
3.78839e-05
4.07174e-05
4.07174e-05
4.07174e-05
3.98763e-05
3.98763e-05
3.98763e-05
3.72562e-05
3.72562e-05
3.72562e-05
3.44702e-05
3.44702e-05
3.44702e-05
5.86726e-05
5.86726e-05
5.86726e-05
5.84304e-05
5.84304e-05
5.84304e-05
5.87776e-05
5.87776e-05
5.87776e-05
5.77402e-05
5.77402e-05
5.77402e-05
5.76357e-05
5.76357e-05
5.76357e-05
5.79796e-05
5.79796e-05
5.79796e-05
5.81147e-05
5.81147e-05
5.81147e-05
5.56935e-05
5.56935e-05
5.56935e-05
5.59246e-05
5.59246e-05
5.59246e-05
3.23549e-05
3.23549e-05
3.23549e-05
3.53456e-05
3.53456e-05
3.53456e-05
3.5198e-05
3.5198e-05
3.5198e-05
2.1373e-05
2.1373e-05
2.1373e-05
4.69903e-06
4.69903e-06
4.69903e-06
1.9399e-06
1.9399e-06
1.9399e-06
9.91932e-06
9.91932e-06
9.91932e-06
0
0
0
0
0
0
0
0
0
0
0
0
0
0
0
0
0
0
0
0
0
0
0
0
0
0
0
0
0
0
0
0
0
0
0
0
0
0
0
0
0
0
1.2798e-05
1.2798e-05
1.2798e-05
1.55815e-05
1.55815e-05
1.55815e-05
1.84284e-05
1.84284e-05
1.84284e-05
1.85057e-05
1.85057e-05
1.85057e-05
0
0
0
0
0
0
0
0
0
1.16162e-05
1.16162e-05
1.16162e-05
2.15432e-05
2.15432e-05
2.15432e-05
1.1595e-05
1.1595e-05
1.1595e-05
1.68042e-05
1.68042e-05
1.68042e-05
2.54759e-05
2.54759e-05
2.54759e-05
2.08909e-05
2.08909e-05
2.08909e-05
1.61075e-05
1.61075e-05
1.61075e-05
1.63874e-05
1.63874e-05
1.63874e-05
2.09835e-05
2.09835e-05
2.09835e-05
2.53017e-05
2.53017e-05
2.53017e-05
1.86614e-05
1.86614e-05
1.86614e-05
2.14627e-05
2.14627e-05
2.14627e-05
0
0
0
0
0
0
0
0
0
0
0
0
0
0
0
0
0
0
0
0
0
0
0
0
0
0
0
0
0
0
0
0
0
0
0
0
0
0
0
0
0
0
0
0
0
0
0
0
0
0
0
0
0
0
0
0
0
0
0
0
0
0
0
0
0
0
1.81022e-05
1.81022e-05
1.81022e-05
1.52871e-05
1.52871e-05
1.52871e-05
9.91142e-06
9.91142e-06
9.91142e-06
0
0
0
0
0
0
0
0
0
0
0
0
1.81751e-05
1.81751e-05
1.81751e-05
7.4313e-06
7.4313e-06
7.4313e-06
2.99155e-06
2.99155e-06
2.99155e-06
5.92216e-07
5.92216e-07
5.92216e-07
1.81774e-05
1.81774e-05
1.81774e-05
9.97196e-06
9.97196e-06
9.97196e-06
1.53517e-05
1.53517e-05
1.53517e-05
4.73523e-05
4.73523e-05
4.73523e-05
5.46768e-05
5.46768e-05
5.46768e-05
5.14237e-05
5.14237e-05
5.14237e-05
5.92028e-07
5.92028e-07
5.92028e-07
0
0
0
0
0
0
0
0
0
0
0
0
0
0
0
0
0
0
0
0
0
6.19561e-05
6.19561e-05
6.19561e-05
6.85696e-05
6.85696e-05
6.85696e-05
6.87385e-05
6.87385e-05
6.87385e-05
4.75685e-05
4.75685e-05
4.75685e-05
6.09792e-05
6.09792e-05
6.09792e-05
6.03199e-05
6.03199e-05
6.03199e-05
6.34097e-05
6.34097e-05
6.34097e-05
5.99327e-05
5.99327e-05
5.99327e-05
4.01291e-05
4.01291e-05
4.01291e-05
3.84596e-05
3.84596e-05
3.84596e-05
4.11461e-05
4.11461e-05
4.11461e-05
3.91065e-05
3.91065e-05
3.91065e-05
3.68453e-05
3.68453e-05
3.68453e-05
4.16652e-05
4.16652e-05
4.16652e-05
4.10537e-05
4.10537e-05
4.10537e-05
3.60409e-05
3.60409e-05
3.60409e-05
3.77082e-05
3.77082e-05
3.77082e-05
4.72279e-05
4.72279e-05
4.72279e-05
4.6527e-05
4.6527e-05
4.6527e-05
4.30124e-05
4.30124e-05
4.30124e-05
4.42513e-05
4.42513e-05
4.42513e-05
4.18712e-05
4.18712e-05
4.18712e-05
3.83989e-05
3.83989e-05
3.83989e-05
3.6995e-05
3.6995e-05
3.6995e-05
3.54239e-05
3.54239e-05
3.54239e-05
3.5064e-05
3.5064e-05
3.5064e-05
4.62451e-05
4.62451e-05
4.62451e-05
4.60212e-05
4.60212e-05
4.60212e-05
4.34052e-05
4.34052e-05
4.34052e-05
3.98374e-05
3.98374e-05
3.98374e-05
4.25802e-05
4.25802e-05
4.25802e-05
3.92328e-05
3.92328e-05
3.92328e-05
3.20391e-05
3.20391e-05
3.20391e-05
3.16116e-05
3.16116e-05
3.16116e-05
2.87022e-05
2.87022e-05
2.87022e-05
2.59141e-05
2.59141e-05
2.59141e-05
0
0
0
0
0
0
5.9216e-07
5.9216e-07
5.9216e-07
0
0
0
0
0
0
0
0
0
0
0
0
0
0
0
0
0
0
0
0
0
9.2855e-06
9.2855e-06
9.2855e-06
9.36271e-06
9.36271e-06
9.36271e-06
6.50391e-06
6.50391e-06
6.50391e-06
6.53086e-06
6.53086e-06
6.53086e-06
1.21131e-05
1.21131e-05
1.21131e-05
1.21634e-05
1.21634e-05
1.21634e-05
3.65996e-06
3.65996e-06
3.65996e-06
6.42381e-06
6.42381e-06
6.42381e-06
9.21944e-07
9.21944e-07
9.21944e-07
6.34479e-06
6.34479e-06
6.34479e-06
6.37101e-06
6.37101e-06
6.37101e-06
3.64491e-06
3.64491e-06
3.64491e-06
3.61501e-06
3.61501e-06
3.61501e-06
9.18161e-07
9.18161e-07
9.18161e-07
8.94657e-06
8.94657e-06
8.94657e-06
6.26679e-06
6.26679e-06
6.26679e-06
6.29268e-06
6.29268e-06
6.29268e-06
9.02073e-06
9.02073e-06
9.02073e-06
1.17186e-05
1.17186e-05
1.17186e-05
1.39008e-05
1.39008e-05
1.39008e-05
1.16703e-05
1.16703e-05
1.16703e-05
1.18159e-05
1.18159e-05
1.18159e-05
2.302e-05
2.302e-05
2.302e-05
1.72768e-05
1.72768e-05
1.72768e-05
2.29244e-05
2.29244e-05
2.29244e-05
2.00572e-05
2.00572e-05
2.00572e-05
2.52748e-05
2.52748e-05
2.52748e-05
2.53801e-05
2.53801e-05
2.53801e-05
1.98088e-05
1.98088e-05
1.98088e-05
2.26401e-05
2.26401e-05
2.26401e-05
1.9974e-05
1.9974e-05
1.9974e-05
2.27344e-05
2.27344e-05
2.27344e-05
1.38435e-05
1.38435e-05
1.38435e-05
1.65067e-05
1.65067e-05
1.65067e-05
1.15742e-05
1.15742e-05
1.15742e-05
1.92419e-05
1.92419e-05
1.92419e-05
2.19004e-05
2.19004e-05
2.19004e-05
1.64385e-05
1.64385e-05
1.64385e-05
0
0
0
6.21535e-06
6.21535e-06
6.21535e-06
6.1898e-06
6.1898e-06
6.1898e-06
3.52683e-06
3.52683e-06
3.52683e-06
8.95801e-07
8.95801e-07
8.95801e-07
3.49906e-05
3.49906e-05
3.49906e-05
2.94642e-05
2.94642e-05
2.94642e-05
3.03864e-05
3.03864e-05
3.03864e-05
3.76983e-05
3.76983e-05
3.76983e-05
3.58303e-05
3.58303e-05
3.58303e-05
3.37595e-05
3.37595e-05
3.37595e-05
3.52336e-05
3.52336e-05
3.52336e-05
3.72273e-05
3.72273e-05
3.72273e-05
3.53828e-05
3.53828e-05
3.53828e-05
3.33396e-05
3.33396e-05
3.33396e-05
3.56807e-05
3.56807e-05
3.56807e-05
3.34789e-05
3.34789e-05
3.34789e-05
3.11186e-05
3.11186e-05
3.11186e-05
3.09894e-05
3.09894e-05
3.09894e-05
0
0
0
0
0
0
0
0
0
0
0
0
9.33394e-07
9.33394e-07
9.33394e-07
9.29561e-07
9.29561e-07
9.29561e-07
0
0
0
9.10644e-07
9.10644e-07
9.10644e-07
0
0
0
0
0
0
0
0
0
0
0
0
0
0
0
0
0
0
0
0
0
0
0
0
0
0
0
0
0
0
0
0
0
0
0
0
0
0
0
0
0
0
0
0
0
0
0
0
0
0
0
0
0
0
0
0
0
0
0
0
0
0
0
0
0
0
0
0
0
0
0
0
0
0
0
0
0
0
0
0
0
0
0
0
0
0
0
0
0
0
0
0
0
0
0
0
0
0
0
0
0
0
0
0
0
0
0
0
0
0
0
0
0
0
0
0
0
0
0
0
0
0
0
0
0
0
0
0
0
0
0
0
0
0
0
0
0
0
0
0
0
0
0
0
1.7998e-06
1.7998e-06
1.7998e-06
1.80731e-06
1.80731e-06
1.80731e-06
0
0
0
0
0
0
0
0
0
0
0
0
0
0
0
0
0
0
0
0
0
0
0
0
0
0
0
0
0
0
0
0
0
0
0
0
0
0
0
0
0
0
0
0
0
0
0
0
0
0
0
0
0
0
6.13901e-06
6.13901e-06
6.13901e-06
3.51235e-06
3.51235e-06
3.51235e-06
0
0
0
0
0
0
0
0
0
0
0
0
0
0
0
0
0
0
0
0
0
0
0
0
0
0
0
0
0
0
0
0
0
0
0
0
0
0
0
0
0
0
0
0
0
0
0
0
0
0
0
0
0
0
0
0
0
0
0
0
0
0
0
0
0
0
0
0
0
0
0
0
0
0
0
0
0
0
0
0
0
0
0
0
0
0
0
0
0
0
0
0
0
0
0
0
0
0
0
0
0
0
1.3521e-05
1.3521e-05
1.3521e-05
1.10599e-05
1.10599e-05
1.10599e-05
3.32916e-05
3.32916e-05
3.32916e-05
3.47958e-05
3.47958e-05
3.47958e-05
3.72489e-05
3.72489e-05
3.72489e-05
2.15712e-05
2.15712e-05
2.15712e-05
2.14814e-05
2.14814e-05
2.14814e-05
2.65895e-05
2.65895e-05
2.65895e-05
2.41336e-05
2.41336e-05
2.41336e-05
1.90936e-05
1.90936e-05
1.90936e-05
1.91734e-05
1.91734e-05
1.91734e-05
4.12822e-05
4.12822e-05
4.12822e-05
4.96666e-05
4.96666e-05
4.96666e-05
5.34596e-05
5.34596e-05
5.34596e-05
5.34404e-05
5.34404e-05
5.34404e-05
5.35647e-05
5.35647e-05
5.35647e-05
5.35836e-05
5.35836e-05
5.35836e-05
5.38304e-05
5.38304e-05
5.38304e-05
6.01792e-05
6.01792e-05
6.01792e-05
6.03198e-05
6.03198e-05
6.03198e-05
5.05512e-05
5.05512e-05
5.05512e-05
5.03414e-05
5.03414e-05
5.03414e-05
4.86044e-05
4.86044e-05
4.86044e-05
6.00074e-05
6.00074e-05
6.00074e-05
5.39666e-05
5.39666e-05
5.39666e-05
5.11861e-05
5.11861e-05
5.11861e-05
5.09735e-05
5.09735e-05
5.09735e-05
5.65068e-05
5.65068e-05
5.65068e-05
5.41915e-05
5.41915e-05
5.41915e-05
5.18296e-05
5.18296e-05
5.18296e-05
5.16141e-05
5.16141e-05
5.16141e-05
5.46445e-05
5.46445e-05
5.46445e-05
5.72157e-05
5.72157e-05
5.72157e-05
5.69783e-05
5.69783e-05
5.69783e-05
4.92161e-05
4.92161e-05
4.92161e-05
4.63841e-05
4.63841e-05
4.63841e-05
5.22635e-05
5.22635e-05
5.22635e-05
4.94219e-05
4.94219e-05
4.94219e-05
4.67731e-05
4.67731e-05
4.67731e-05
3.82021e-05
3.82021e-05
3.82021e-05
4.08879e-05
4.08879e-05
4.08879e-05
4.37333e-05
4.37333e-05
4.37333e-05
4.39165e-05
4.39165e-05
4.39165e-05
6.24317e-05
6.24317e-05
6.24317e-05
6.21732e-05
6.21732e-05
6.21732e-05
5.45819e-05
5.45819e-05
5.45819e-05
5.2582e-05
5.2582e-05
5.2582e-05
6.29523e-05
6.29523e-05
6.29523e-05
6.02573e-05
6.02573e-05
6.02573e-05
5.76937e-05
5.76937e-05
5.76937e-05
6.74181e-05
6.74181e-05
6.74181e-05
6.65774e-05
6.65774e-05
6.65774e-05
6.68564e-05
6.68564e-05
6.68564e-05
6.72561e-05
6.72561e-05
6.72561e-05
6.6976e-05
6.6976e-05
6.6976e-05
6.6684e-05
6.6684e-05
6.6684e-05
6.75241e-05
6.75241e-05
6.75241e-05
6.61012e-05
6.61012e-05
6.61012e-05
6.66587e-05
6.66587e-05
6.66587e-05
6.58532e-05
6.58532e-05
6.58532e-05
6.69395e-05
6.69395e-05
6.69395e-05
6.56685e-05
6.56685e-05
6.56685e-05
6.53943e-05
6.53943e-05
6.53943e-05
6.57869e-05
6.57869e-05
6.57869e-05
6.56309e-05
6.56309e-05
6.56309e-05
6.4814e-05
6.4814e-05
6.4814e-05
6.49304e-05
6.49304e-05
6.49304e-05
6.52019e-05
6.52019e-05
6.52019e-05
6.53574e-05
6.53574e-05
6.53574e-05
6.49674e-05
6.49674e-05
6.49674e-05
6.52392e-05
6.52392e-05
6.52392e-05
6.36092e-05
6.36092e-05
6.36092e-05
6.44632e-05
6.44632e-05
6.44632e-05
6.43714e-05
6.43714e-05
6.43714e-05
6.35699e-05
6.35699e-05
6.35699e-05
6.50804e-05
6.50804e-05
6.50804e-05
6.40952e-05
6.40952e-05
6.40952e-05
6.52759e-05
6.52759e-05
6.52759e-05
6.50036e-05
6.50036e-05
6.50036e-05
5.52341e-05
5.52341e-05
5.52341e-05
5.73978e-05
5.73978e-05
5.73978e-05
5.72643e-05
5.72643e-05
5.72643e-05
5.17943e-05
5.17943e-05
5.17943e-05
5.77097e-05
5.77097e-05
5.77097e-05
5.7949e-05
5.7949e-05
5.7949e-05
2.10384e-05
2.10384e-05
2.10384e-05
2.35375e-05
2.35375e-05
2.35375e-05
2.61499e-05
2.61499e-05
2.61499e-05
2.85483e-05
2.85483e-05
2.85483e-05
0
0
0
0
0
0
0
0
0
0
0
0
0
0
0
0
0
0
0
0
0
0
0
0
1.76275e-06
1.76275e-06
1.76275e-06
6.48459e-06
6.48459e-06
6.48459e-06
2.12144e-05
2.12144e-05
2.12144e-05
2.1303e-05
2.1303e-05
2.1303e-05
6.59356e-06
6.59356e-06
6.59356e-06
9.20163e-06
9.20163e-06
9.20163e-06
1.16265e-05
1.16265e-05
1.16265e-05
1.66709e-05
1.66709e-05
1.66709e-05
1.67406e-05
1.67406e-05
1.67406e-05
1.4214e-05
1.4214e-05
1.4214e-05
1.15781e-05
1.15781e-05
1.15781e-05
1.4096e-05
1.4096e-05
1.4096e-05
9.08726e-06
9.08726e-06
9.08726e-06
6.51166e-06
6.51166e-06
6.51166e-06
4.21714e-06
4.21714e-06
4.21714e-06
4.23473e-06
4.23473e-06
4.23473e-06
6.56615e-06
6.56615e-06
6.56615e-06
9.12522e-06
9.12522e-06
9.12522e-06
3.10311e-05
3.10311e-05
3.10311e-05
2.54789e-05
2.54789e-05
2.54789e-05
2.83065e-05
2.83065e-05
2.83065e-05
2.81886e-05
2.81886e-05
2.81886e-05
1.51323e-05
1.51323e-05
1.51323e-05
1.78223e-05
1.78223e-05
1.78223e-05
1.7748e-05
1.7748e-05
1.7748e-05
1.50064e-05
1.50064e-05
1.50064e-05
2.51618e-05
2.51618e-05
2.51618e-05
2.53727e-05
2.53727e-05
2.53727e-05
2.78378e-05
2.78378e-05
2.78378e-05
2.79543e-05
2.79543e-05
2.79543e-05
2.00741e-05
2.00741e-05
2.00741e-05
2.26788e-05
2.26788e-05
2.26788e-05
2.25843e-05
2.25843e-05
2.25843e-05
1.99072e-05
1.99072e-05
1.99072e-05
2.01581e-05
2.01581e-05
2.01581e-05
2.2869e-05
2.2869e-05
2.2869e-05
1.49439e-05
1.49439e-05
1.49439e-05
1.48197e-05
1.48197e-05
1.48197e-05
1.76004e-05
1.76004e-05
1.76004e-05
1.7527e-05
1.7527e-05
1.7527e-05
5.07076e-05
5.07076e-05
5.07076e-05
4.5854e-05
4.5854e-05
4.5854e-05
4.47248e-05
4.47248e-05
4.47248e-05
4.73001e-05
4.73001e-05
4.73001e-05
4.00685e-05
4.00685e-05
4.00685e-05
4.25002e-05
4.25002e-05
4.25002e-05
4.23239e-05
4.23239e-05
4.23239e-05
3.79308e-05
3.79308e-05
3.79308e-05
3.77731e-05
3.77731e-05
3.77731e-05
2.5057e-05
2.5057e-05
2.5057e-05
2.76065e-05
2.76065e-05
2.76065e-05
3.38994e-05
3.38994e-05
3.38994e-05
2.85439e-05
2.85439e-05
2.85439e-05
3.11609e-05
3.11609e-05
3.11609e-05
4.31889e-05
4.31889e-05
4.31889e-05
4.58072e-05
4.58072e-05
4.58072e-05
3.77259e-05
3.77259e-05
3.77259e-05
3.74121e-05
3.74121e-05
3.74121e-05
4.02105e-05
4.02105e-05
4.02105e-05
4.03787e-05
4.03787e-05
4.03787e-05
3.49049e-05
3.49049e-05
3.49049e-05
3.47594e-05
3.47594e-05
3.47594e-05
4.505e-05
4.505e-05
4.505e-05
4.76029e-05
4.76029e-05
4.76029e-05
4.74053e-05
4.74053e-05
4.74053e-05
4.46763e-05
4.46763e-05
4.46763e-05
3.31996e-05
3.31996e-05
3.31996e-05
3.07732e-05
3.07732e-05
3.07732e-05
3.0645e-05
3.0645e-05
3.0645e-05
3.84078e-05
3.84078e-05
3.84078e-05
3.58834e-05
3.58834e-05
3.58834e-05
5.86412e-05
5.86412e-05
5.86412e-05
5.88738e-05
5.88738e-05
5.88738e-05
5.35402e-05
5.35402e-05
5.35402e-05
4.84934e-05
4.84934e-05
4.84934e-05
5.09184e-05
5.09184e-05
5.09184e-05
1.55165e-05
1.55165e-05
1.55165e-05
1.26914e-05
1.26914e-05
1.26914e-05
1.51956e-05
1.51956e-05
1.51956e-05
1.24811e-05
1.24811e-05
1.24811e-05
3.26269e-05
3.26269e-05
3.26269e-05
2.40452e-05
2.40452e-05
2.40452e-05
2.41461e-05
2.41461e-05
2.41461e-05
2.67891e-05
2.67891e-05
2.67891e-05
2.70143e-05
2.70143e-05
2.70143e-05
2.96381e-05
2.96381e-05
2.96381e-05
2.97624e-05
2.97624e-05
2.97624e-05
4.67945e-06
4.67945e-06
4.67945e-06
7.07791e-06
7.07791e-06
7.07791e-06
7.10753e-06
7.10753e-06
7.10753e-06
4.64057e-06
4.64057e-06
4.64057e-06
1.91578e-06
1.91578e-06
1.91578e-06
1.92378e-06
1.92378e-06
1.92378e-06
0
0
0
0
0
0