<VTKFile type="UnstructuredGrid" version="1.0">
<UnstructuredGrid>
<Piece NumberOfPoints="10830" NumberOfCells="3610">
<Points>
<DataArray type="Float64" NumberOfComponents="3" format="ascii">
2.19217 2.20649 9.43075
2.19928 2.19938 9.405
2.19928 2.19938 9.45646
2.19928 2.19938 9.96008
2.19928 2.19938 10.011
2.19129 2.20737 9.98553
2.19928 2.19938 9.96008
2.19129 2.20737 9.98553
2.17928 2.21938 9.9601
1.30559 3.09307 10.4326
1.31816 3.0805 10.45
1.28831 3.11035 10.45
1.28831 3.11035 10.45
1.28831 3.11035 10.4198
1.30559 3.09307 10.4326
2.19928 2.19938 9.96008
2.17928 2.21938 9.9601
2.1913 2.20736 9.93468
1.29441 3.10425 9.68179
1.28831 3.11035 9.70701
1.28831 3.11035 9.65657
2.19132 2.20734 9.6819
2.19928 2.19938 9.70709
2.17929 2.21937 9.70711
2.19117 2.20749 9.58134
2.19928 2.19938 9.55628
2.19928 2.19938 9.60639
2.17929 2.21937 9.70711
2.19928 2.19938 9.70709
2.19133 2.20733 9.73232
2.19928 2.19938 9.70709
2.19928 2.19938 9.75754
2.19133 2.20733 9.73232
2.17929 2.21937 9.75755
2.19133 2.20733 9.73232
2.19928 2.19938 9.75754
2.17928 2.21938 9.90931
2.1913 2.20736 9.93468
2.16946 2.22921 9.9347
2.16946 2.22921 9.9347
2.1913 2.20736 9.93468
2.17928 2.21938 9.9601
2.16946 2.22921 9.9347
2.15842 2.24024 9.90932
2.17928 2.21938 9.90931
2.16946 2.22921 9.9347
2.17928 2.21938 9.9601
2.15841 2.24025 9.96012
2.19928 2.19938 9.80804
2.19928 2.19938 9.85862
2.19132 2.20734 9.83333
2.19132 2.20734 9.83333
2.17929 2.21937 9.85863
2.16947 2.22919 9.83334
2.19928 2.19938 9.85862
2.17929 2.21937 9.85863
2.19132 2.20734 9.83333
2.19928 2.19938 9.90929
2.1913 2.20736 9.93468
2.17928 2.21938 9.90931
2.19928 2.19938 9.96008
2.1913 2.20736 9.93468
2.19928 2.19938 9.90929
2.17913 2.21954 9.55632
2.19928 2.19938 9.55628
2.19117 2.20749 9.58134
2.17927 2.21939 10.011
2.19129 2.20737 9.98553
2.19928 2.19938 10.011
1.8956 2.50306 10.1907
1.90602 2.49264 10.165
1.91643 2.48223 10.1907
1.28831 3.11035 9.405
1.30792 3.09074 9.405
1.29529 3.10337 9.4297
1.34771 3.05096 9.65659
1.32717 3.07149 9.65657
1.33709 3.06157 9.63137
1.30704 3.09162 9.65656
1.32717 3.07149 9.65657
1.31607 3.08259 9.68178
1.30704 3.09162 9.65656
1.29441 3.10425 9.68179
1.28831 3.11035 9.65657
1.31607 3.08259 9.68178
1.29441 3.10425 9.68179
1.30704 3.09162 9.65656
1.2945 3.10417 9.88394
1.28831 3.11035 9.9093
1.28831 3.11035 9.85861
1.3071 3.09157 9.9093
1.31615 3.08252 9.88393
1.32724 3.07142 9.90929
1.28831 3.11035 9.9093
1.2945 3.10417 9.88394
1.3071 3.09157 9.9093
1.3071 3.09157 9.9093
1.2945 3.10417 9.88394
1.31615 3.08252 9.88393
1.30708 3.09158 9.8586
1.32723 3.07143 9.8586
1.31615 3.08252 9.88393
1.30708 3.09158 9.8586
1.2945 3.10417 9.88394
1.28831 3.11035 9.85861
1.31615 3.08252 9.88393
1.2945 3.10417 9.88394
1.30708 3.09158 9.8586
1.28831 3.11035 9.70701
1.29441 3.10425 9.68179
1.30705 3.09161 9.707
1.30705 3.09161 9.707
1.29441 3.10425 9.68179
1.31607 3.08259 9.68178
1.32724 3.07142 9.90929
1.31615 3.08252 9.88393
1.33718 3.06148 9.88393
1.31615 3.08252 9.88393
1.32723 3.07143 9.8586
1.33718 3.06148 9.88393
1.49256 2.90611 9.85867
1.50289 2.89577 9.88401
1.48223 2.91643 9.884
1.48223 2.91643 9.884
1.50289 2.89577 9.88401
1.49257 2.90609 9.90937
1.49257 2.90609 9.90937
1.50289 2.89577 9.88401
1.51323 2.88543 9.90938
1.88521 2.51346 10.165
1.90602 2.49264 10.165
1.8956 2.50306 10.1907
2.19127 2.20739 9.63156
2.19928 2.19938 9.60639
2.19928 2.19938 9.6567
2.19928 2.19938 9.70709
2.19132 2.20734 9.6819
2.19928 2.19938 9.6567
2.11618 2.28248 9.8081
2.09503 2.30363 9.80811
2.10562 2.29304 9.78285
2.17929 2.21937 9.80805
2.19132 2.20734 9.83333
2.16947 2.22919 9.83334
2.19928 2.19938 9.80804
2.19132 2.20734 9.83333
2.17929 2.21937 9.80805
2.16947 2.22919 9.83334
2.17929 2.21937 9.85863
2.15843 2.24024 9.85865
2.19131 2.20735 9.88395
2.17929 2.21937 9.85863
2.19928 2.19938 9.85862
2.19928 2.19938 9.85862
2.19928 2.19938 9.90929
2.19131 2.20735 9.88395
2.19131 2.20735 9.88395
2.19928 2.19938 9.90929
2.17928 2.21938 9.90931
2.1693 2.22936 9.58137
2.17913 2.21954 9.55632
2.19117 2.20749 9.58134
2.19127 2.20739 9.63156
2.19928 2.19938 9.6567
2.17927 2.21939 9.65674
2.17927 2.21939 9.65674
2.19928 2.19938 9.6567
2.19132 2.20734 9.6819
2.10553 2.29313 9.63161
2.09491 2.30375 9.60643
2.11605 2.28261 9.60643
2.1372 2.26147 9.60645
2.12662 2.27204 9.58126
2.14787 2.25079 9.58132
2.1372 2.26147 9.60645
2.11605 2.28261 9.60643
2.12662 2.27204 9.58126
2.16946 2.2292 9.68193
2.19132 2.20734 9.6819
2.17929 2.21937 9.70711
2.16946 2.2292 9.68193
2.17927 2.21939 9.65674
2.19132 2.20734 9.6819
2.16945 2.22921 9.98555
2.17928 2.21938 9.9601
2.19129 2.20737 9.98553
2.19129 2.20737 9.98553
2.17927 2.21939 10.011
2.16945 2.22921 9.98555
2.15841 2.24025 9.96012
2.17928 2.21938 9.9601
2.16945 2.22921 9.98555
2.16944 2.22922 10.1391
2.14804 2.25062 10.1391
2.15841 2.24025 10.1134
2.14804 2.25063 10.0877
2.16944 2.22922 10.0877
2.15841 2.24025 10.1134
2.19128 2.20738 10.0365
2.17927 2.21939 10.011
2.19928 2.19938 10.011
2.16944 2.22922 10.0366
2.17927 2.21939 10.011
2.19128 2.20738 10.0365
1.93725 2.46141 10.2423
1.94766 2.451 10.2682
1.92679 2.47187 10.2682
2.05276 2.34591 10.1134
2.06331 2.33535 10.0878
2.07386 2.3248 10.1134
2.07386 2.3248 10.1134
2.06331 2.33535 10.0878
2.08443 2.31423 10.0878
2.15841 2.24026 10.0621
2.14804 2.25062 10.0366
2.16944 2.22922 10.0366
2.15841 2.24026 10.0621
2.16944 2.22922 10.0877
2.14804 2.25063 10.0877
2.04222 2.35644 10.0878
2.06331 2.33535 10.0878
2.05276 2.34591 10.1134
1.9897 2.40896 9.85874
1.96874 2.42992 9.85874
1.97921 2.41945 9.83344
1.93736 2.4613 9.83344
1.92692 2.47174 9.85875
1.91649 2.48217 9.83344
1.94781 2.45085 9.85875
1.92692 2.47174 9.85875
1.93736 2.4613 9.83344
1.92691 2.47175 9.75765
1.9478 2.45086 9.75766
1.93736 2.46131 9.78289
1.93736 2.46131 9.78289
1.91648 2.48218 9.78289
1.92691 2.47175 9.75765
1.92691 2.47175 9.75765
1.91648 2.48218 9.78289
1.90605 2.49261 9.75764
1.93736 2.46131 9.78289
1.9478 2.45086 9.75766
1.95826 2.4404 9.7829
1.96871 2.42995 9.70723
1.9792 2.41946 9.73244
1.95825 2.44041 9.73244
1.95825 2.44041 9.73244
1.94778 2.45088 9.70723
1.96871 2.42995 9.70723
1.8126 2.58607 9.88409
1.82295 2.57571 9.85875
1.83332 2.56534 9.88409
1.82295 2.57571 9.85875
1.84369 2.55497 9.85875
1.83332 2.56534 9.88409
1.92692 2.47174 9.80816
1.91648 2.48218 9.78289
1.93736 2.46131 9.78289
1.92692 2.47174 9.80816
1.93736 2.4613 9.83344
1.91649 2.48217 9.83344
1.91649 2.48217 9.83344
1.89565 2.50301 9.83344
1.90606 2.4926 9.80815
1.90606 2.4926 9.80815
1.92692 2.47174 9.80816
1.91649 2.48217 9.83344
1.91648 2.48218 9.78289
1.92692 2.47174 9.80816
1.90606 2.4926 9.80815
1.90605 2.49261 9.75764
1.88523 2.51343 9.75764
1.89563 2.50303 9.73241
1.88521 2.51345 9.70719
1.90603 2.49263 9.70721
1.89563 2.50303 9.73241
1.51322 2.88545 9.85868
1.50289 2.89577 9.88401
1.49256 2.90611 9.85867
1.49256 2.90611 9.85867
1.50288 2.89578 9.83336
1.51322 2.88545 9.85868
1.29442 3.10424 9.47987
1.28831 3.11035 9.50508
1.28831 3.11035 9.45442
1.28831 3.11035 9.405
1.29529 3.10337 9.4297
1.28831 3.11035 9.45442
1.307 3.09167 9.5557
1.28831 3.11035 9.55567
1.29431 3.10435 9.53042
1.28831 3.11035 9.55567
1.28831 3.11035 9.50508
1.29431 3.10435 9.53042
2.19928 2.19938 9.405
2.19217 2.20649 9.43075
2.18013 2.21854 9.405
1.28831 3.11035 9.65657
1.28831 3.11035 9.60614
1.29438 3.10428 9.63136
1.29438 3.10428 9.63136
1.30704 3.09162 9.65656
1.28831 3.11035 9.65657
1.30702 3.09164 9.60613
1.29438 3.10428 9.63136
1.28831 3.11035 9.60614
1.30702 3.09164 9.60613
1.31601 3.08265 9.58094
1.32714 3.07152 9.60616
1.31605 3.08262 9.63135
1.33709 3.06157 9.63137
1.32717 3.07149 9.65657
1.32717 3.07149 9.65657
1.30704 3.09162 9.65656
1.31605 3.08262 9.63135
1.32714 3.07152 9.60616
1.33709 3.06157 9.63137
1.31605 3.08262 9.63135
1.31605 3.08262 9.63135
1.30702 3.09164 9.60613
1.32714 3.07152 9.60616
1.30704 3.09162 9.65656
1.29438 3.10428 9.63136
1.31605 3.08262 9.63135
1.29438 3.10428 9.63136
1.30702 3.09164 9.60613
1.31605 3.08262 9.63135
1.29435 3.10432 9.58091
1.28831 3.11035 9.60614
1.28831 3.11035 9.55567
1.29435 3.10432 9.58091
1.28831 3.11035 9.55567
1.307 3.09167 9.5557
1.307 3.09167 9.5557
1.31601 3.08265 9.58094
1.29435 3.10432 9.58091
1.29435 3.10432 9.58091
1.30702 3.09164 9.60613
1.28831 3.11035 9.60614
1.31601 3.08265 9.58094
1.30702 3.09164 9.60613
1.29435 3.10432 9.58091
1.33717 3.06149 9.83329
1.32723 3.07143 9.8586
1.31613 3.08254 9.83329
1.32723 3.07143 9.8586
1.30708 3.09158 9.8586
1.31613 3.08254 9.83329
1.31613 3.08254 9.83329
1.32722 3.07145 9.808
1.33717 3.06149 9.83329
1.33711 3.06155 9.68179
1.32717 3.07149 9.65657
1.34771 3.05096 9.65659
1.31607 3.08259 9.68178
1.32717 3.07149 9.65657
1.33711 3.06155 9.68179
1.35794 3.04072 9.6818
1.33711 3.06155 9.68179
1.34771 3.05096 9.65659
1.34773 3.05094 9.70701
1.33711 3.06155 9.68179
1.35794 3.04072 9.6818
1.34773 3.05094 9.70701
1.35794 3.04072 9.6818
1.36839 3.03027 9.70702
1.50287 2.89579 9.7828
1.51321 2.88546 9.80807
1.49255 2.90612 9.80807
1.49255 2.90612 9.80807
1.51321 2.88546 9.80807
1.50288 2.89578 9.83336
1.42017 2.9785 9.83332
1.44086 2.9578 9.83333
1.43052 2.96814 9.85863
1.43051 2.96815 9.80803
1.44086 2.9578 9.83333
1.42017 2.9785 9.83332
1.44085 2.95782 9.78277
1.4305 2.96817 9.75752
1.45119 2.94748 9.75753
1.43051 2.96815 9.80803
1.42015 2.97851 9.78276
1.44085 2.95782 9.78277
1.44085 2.95782 9.78277
1.42015 2.97851 9.78276
1.4305 2.96817 9.75752
1.44087 2.95779 9.88398
1.46156 2.9371 9.88399
1.45123 2.94744 9.90934
1.3995 2.99917 9.9347
1.40985 2.98882 9.90932
1.4202 2.97846 9.93471
1.40983 2.98883 9.85862
1.42017 2.9785 9.83332
1.43052 2.96814 9.85863
1.39946 2.9992 9.83331
1.42017 2.9785 9.83332
1.40983 2.98883 9.85862
1.32724 3.07142 9.90929
1.33718 3.06148 9.88393
1.34779 3.05087 9.90929
1.33717 3.06149 9.83329
1.32722 3.07145 9.808
1.34776 3.0509 9.808
1.34776 3.0509 9.808
1.35799 3.04067 9.83329
1.33717 3.06149 9.83329
1.38911 3.00955 9.80801
1.39946 2.9992 9.83331
1.37874 3.01992 9.8333
1.34777 3.05089 9.8586
1.33718 3.06148 9.88393
1.32723 3.07143 9.8586
[...]
<PointData Scalars="View Factor" >
<DataArray type="Float64" Name="View Factor" NumberOfComponents="1" format="ascii">
1.33542e-06
1.33542e-06
1.33542e-06
5.86815e-07
5.86815e-07
5.86815e-07
5.75164e-07
5.75164e-07
5.75164e-07
9.31935e-06
9.31935e-06
9.31935e-06
9.4072e-06
9.4072e-06
9.4072e-06
5.86831e-07
5.86831e-07
5.86831e-07
1.05068e-05
1.05068e-05
1.05068e-05
8.05915e-07
8.05915e-07
8.05915e-07
9.96478e-07
9.96478e-07
9.96478e-07
7.86681e-07
7.86681e-07
7.86681e-07
7.92899e-07
7.92899e-07
7.92899e-07
7.48773e-07
7.48773e-07
7.48773e-07
7.30539e-07
7.30539e-07
7.30539e-07
7.20105e-07
7.20105e-07
7.20105e-07
1.77136e-06
1.77136e-06
1.77136e-06
1.75116e-06
1.75116e-06
1.75116e-06
6.95588e-07
6.95588e-07
6.95588e-07
7.94837e-07
7.94837e-07
7.94837e-07
6.55976e-07
6.55976e-07
6.55976e-07
6.06625e-07
6.06625e-07
6.06625e-07
6.20653e-07
6.20653e-07
6.20653e-07
1.00926e-06
1.00926e-06
1.00926e-06
5.56795e-07
5.56795e-07
5.56795e-07
2.73681e-07
2.73681e-07
2.73681e-07
1.0867e-05
1.0867e-05
1.0867e-05
1.01267e-05
1.01267e-05
1.01267e-05
1.03071e-05
1.03071e-05
1.03071e-05
1.0481e-05
1.0481e-05
1.0481e-05
1.03909e-05
1.03909e-05
1.03909e-05
1.02042e-05
1.02042e-05
1.02042e-05
9.95972e-06
9.95972e-06
9.95972e-06
1.01282e-05
1.01282e-05
1.01282e-05
1.00667e-05
1.00667e-05
1.00667e-05
1.00078e-05
1.00078e-05
1.00078e-05
1.01795e-05
1.01795e-05
1.01795e-05
1.00916e-05
1.00916e-05
1.00916e-05
1.04293e-05
1.04293e-05
1.04293e-05
1.03662e-05
1.03662e-05
1.03662e-05
9.87479e-06
9.87479e-06
9.87479e-06
9.89942e-06
9.89942e-06
9.89942e-06
7.93112e-06
7.93112e-06
7.93112e-06
7.91106e-06
7.91106e-06
7.91106e-06
7.73684e-06
7.73684e-06
7.73684e-06
2.79618e-07
2.79618e-07
2.79618e-07
9.18048e-07
9.18048e-07
9.18048e-07
8.49102e-07
8.49102e-07
8.49102e-07
1.28315e-06
1.28315e-06
1.28315e-06
8.08953e-07
8.08953e-07
8.08953e-07
6.84311e-07
6.84311e-07
6.84311e-07
1.81905e-06
1.81905e-06
1.81905e-06
6.43073e-07
6.43073e-07
6.43073e-07
6.55359e-07
6.55359e-07
6.55359e-07
6.19127e-07
6.19127e-07
6.19127e-07
1.12389e-06
1.12389e-06
1.12389e-06
8.74348e-07
8.74348e-07
8.74348e-07
8.48941e-07
8.48941e-07
8.48941e-07
1.467e-06
1.467e-06
1.467e-06
1.82949e-06
1.82949e-06
1.82949e-06
1.74236e-06
1.74236e-06
1.74236e-06
9.47192e-07
9.47192e-07
9.47192e-07
9.63106e-07
9.63106e-07
9.63106e-07
6.99483e-07
6.99483e-07
6.99483e-07
6.90423e-07
6.90423e-07
6.90423e-07
1.73902e-06
1.73902e-06
1.73902e-06
1.57043e-06
1.57043e-06
1.57043e-06
1.58686e-06
1.58686e-06
1.58686e-06
5.43589e-07
5.43589e-07
5.43589e-07
6.71677e-07
6.71677e-07
6.71677e-07
7.4403e-07
7.4403e-07
7.4403e-07
2.82572e-07
2.82572e-07
2.82572e-07
2.86126e-07
2.86126e-07
2.86126e-07
1.6125e-06
1.6125e-06
1.6125e-06
1.59496e-06
1.59496e-06
1.59496e-06
2.86137e-07
2.86137e-07
2.86137e-07
4.30214e-07
4.30214e-07
4.30214e-07
4.64218e-07
4.64218e-07
4.64218e-07
4.46557e-07
4.46557e-07
4.46557e-07
5.28542e-07
5.28542e-07
5.28542e-07
5.26208e-07
5.26208e-07
5.26208e-07
5.46201e-07
5.46201e-07
5.46201e-07
5.0892e-07
5.0892e-07
5.0892e-07
5.52418e-07
5.52418e-07
5.52418e-07
5.63803e-07
5.63803e-07
5.63803e-07
5.06526e-07
5.06526e-07
5.06526e-07
5.08662e-07
5.08662e-07
5.08662e-07
5.10542e-07
5.10542e-07
5.10542e-07
4.78793e-07
4.78793e-07
4.78793e-07
4.94554e-07
4.94554e-07
4.94554e-07
4.9248e-07
4.9248e-07
4.9248e-07
5.1073e-07
5.1073e-07
5.1073e-07
5.82412e-07
5.82412e-07
5.82412e-07
6.23387e-07
6.23387e-07
6.23387e-07
7.77115e-06
7.77115e-06
7.77115e-06
7.78341e-06
7.78341e-06
7.78341e-06
1.08201e-05
1.08201e-05
1.08201e-05
1.08971e-05
1.08971e-05
1.08971e-05
1.06614e-05
1.06614e-05
1.06614e-05
1.07409e-05
1.07409e-05
1.07409e-05
1.37153e-06
1.37153e-06
1.37153e-06
1.0584e-05
1.0584e-05
1.0584e-05
1.05065e-05
1.05065e-05
1.05065e-05
1.05576e-05
1.05576e-05
1.05576e-05
1.04091e-05
1.04091e-05
1.04091e-05
1.02455e-05
1.02455e-05
1.02455e-05
1.0333e-05
1.0333e-05
1.0333e-05
1.02701e-05
1.02701e-05
1.02701e-05
1.03831e-05
1.03831e-05
1.03831e-05
1.04427e-05
1.04427e-05
1.04427e-05
1.04672e-05
1.04672e-05
1.04672e-05
1.0662e-05
1.0662e-05
1.0662e-05
1.06363e-05
1.06363e-05
1.06363e-05
1.05456e-05
1.05456e-05
1.05456e-05
1.05834e-05
1.05834e-05
1.05834e-05
1.05192e-05
1.05192e-05
1.05192e-05
9.94799e-06
9.94799e-06
9.94799e-06
1.00333e-05
1.00333e-05
1.00333e-05
9.97227e-06
9.97227e-06
9.97227e-06
1.0102e-05
1.0102e-05
1.0102e-05
1.01953e-05
1.01953e-05
1.01953e-05
9.99157e-06
9.99157e-06
9.99157e-06
9.96788e-06
9.96788e-06
9.96788e-06
9.8669e-06
9.8669e-06
9.8669e-06
7.8247e-06
7.8247e-06
7.8247e-06
7.81091e-06
7.81091e-06
7.81091e-06
8.90334e-06
8.90334e-06
8.90334e-06
8.92778e-06
8.92778e-06
8.92778e-06
8.87946e-06
8.87946e-06
8.87946e-06
8.97261e-06
8.97261e-06
8.97261e-06
8.99568e-06
8.99568e-06
8.99568e-06
8.58982e-06
8.58982e-06
8.58982e-06
9.02972e-06
9.02972e-06
9.02972e-06
9.02578e-06
9.02578e-06
9.02578e-06
9.14237e-06
9.14237e-06
9.14237e-06
9.76074e-06
9.76074e-06
9.76074e-06
9.88058e-06
9.88058e-06
9.88058e-06
9.7787e-06
9.7787e-06
9.7787e-06
9.38084e-06
9.38084e-06
9.38084e-06
9.81012e-06
9.81012e-06
9.81012e-06
9.83308e-06
9.83308e-06
9.83308e-06
9.75486e-06
9.75486e-06
9.75486e-06
8.94215e-06
8.94215e-06
8.94215e-06
9.62126e-06
9.62126e-06
9.62126e-06
9.38646e-06
9.38646e-06
9.38646e-06
8.15867e-06
8.15867e-06
8.15867e-06
8.32418e-06
8.32418e-06
8.32418e-06
8.43909e-06
8.43909e-06
8.43909e-06
8.11477e-06
8.11477e-06
8.11477e-06
8.46115e-06
8.46115e-06
8.46115e-06
8.30278e-06
8.30278e-06
8.30278e-06
8.09397e-06
8.09397e-06
8.09397e-06
8.25922e-06
8.25922e-06
8.25922e-06
8.05367e-06
8.05367e-06
8.05367e-06
8.23694e-06
8.23694e-06
8.23694e-06
8.77293e-06
8.77293e-06
8.77293e-06
8.55039e-06
8.55039e-06
8.55039e-06
7.31474e-06
7.31474e-06
7.31474e-06
1.62159e-06
1.62159e-06
1.62159e-06
4.44228e-06
4.44228e-06
4.44228e-06
1.58333e-06
1.58333e-06
1.58333e-06
4.41732e-06
4.41732e-06
4.41732e-06
7.85474e-06
7.85474e-06
7.85474e-06
7.71741e-06
7.71741e-06
7.71741e-06
7.87277e-06
7.87277e-06
7.87277e-06
3.15197e-07
3.15197e-07
3.15197e-07
3.08289e-07
3.08289e-07
3.08289e-07
2.82313e-07
2.82313e-07
2.82313e-07
2.88327e-07
2.88327e-07
2.88327e-07
3.23975e-07
3.23975e-07
3.23975e-07
3.27269e-07
3.27269e-07
3.27269e-07
3.40191e-07
3.40191e-07
3.40191e-07
2.97171e-07
2.97171e-07
2.97171e-07
1.58897e-06
1.58897e-06
1.58897e-06
1.64692e-06
1.64692e-06
1.64692e-06
1.51253e-06
1.51253e-06
1.51253e-06
1.49114e-06
1.49114e-06
1.49114e-06
1.73362e-06
1.73362e-06
1.73362e-06
1.74025e-06
1.74025e-06
1.74025e-06
1.68978e-06
1.68978e-06
1.68978e-06
1.60535e-06
1.60535e-06
1.60535e-06
1.64593e-06
1.64593e-06
1.64593e-06
1.69563e-06
1.69563e-06
1.69563e-06
1.72167e-06
1.72167e-06
1.72167e-06
1.45356e-06
1.45356e-06
1.45356e-06
1.56377e-06
1.56377e-06
1.56377e-06
1.54838e-06
1.54838e-06
1.54838e-06
1.47391e-06
1.47391e-06
1.47391e-06
1.41599e-06
1.41599e-06
1.41599e-06
1.26523e-06
1.26523e-06
1.26523e-06
1.08928e-06
1.08928e-06
1.08928e-06
1.09096e-06
1.09096e-06
1.09096e-06
6.23617e-07
6.23617e-07
6.23617e-07
6.10425e-07
6.10425e-07
6.10425e-07
6.87436e-07
6.87436e-07
6.87436e-07
1.60061e-06
1.60061e-06
1.60061e-06
1.67122e-06
1.67122e-06
1.67122e-06
1.68167e-06
1.68167e-06
1.68167e-06
1.51546e-06
1.51546e-06
1.51546e-06
5.78027e-07
5.78027e-07
5.78027e-07
5.61986e-07
5.61986e-07
5.61986e-07
5.95938e-07
5.95938e-07
5.95938e-07
4.30773e-07
4.30773e-07
4.30773e-07
4.39861e-07
4.39861e-07
4.39861e-07
6.99753e-07
6.99753e-07
6.99753e-07
8.38126e-07
8.38126e-07
8.38126e-07
7.41295e-07
7.41295e-07
7.41295e-07
7.31723e-07
7.31723e-07
7.31723e-07
8.52362e-07
8.52362e-07
8.52362e-07
1.539e-06
1.539e-06
1.539e-06
1.61289e-06
1.61289e-06
1.61289e-06
1.78401e-06
1.78401e-06
1.78401e-06
1.80806e-06
1.80806e-06
1.80806e-06
1.70643e-06
1.70643e-06
1.70643e-06
1.71779e-06
1.71779e-06
1.71779e-06
7.56085e-07
7.56085e-07
7.56085e-07
7.68434e-07
7.68434e-07
7.68434e-07
9.23209e-07
9.23209e-07
9.23209e-07
9.52224e-07
9.52224e-07
9.52224e-07
1.09618e-06
1.09618e-06
1.09618e-06
1.04022e-06
1.04022e-06
1.04022e-06
1.48832e-06
1.48832e-06
1.48832e-06
1.66557e-06
1.66557e-06
1.66557e-06
1.98699e-06
1.98699e-06
1.98699e-06
1.83749e-06
1.83749e-06
1.83749e-06
1.88768e-06
1.88768e-06
1.88768e-06
1.81622e-06
1.81622e-06
1.81622e-06
1.72029e-06
1.72029e-06
1.72029e-06
1.70729e-06
1.70729e-06
1.70729e-06
1.62207e-06
1.62207e-06
1.62207e-06
1.56357e-06
1.56357e-06
1.56357e-06
1.18534e-06
1.18534e-06
1.18534e-06
1.28127e-06
1.28127e-06
1.28127e-06
3.19172e-07
3.19172e-07
3.19172e-07
2.80067e-07
2.80067e-07
2.80067e-07
2.71476e-07
2.71476e-07
2.71476e-07
2.76725e-07
2.76725e-07
2.76725e-07
2.61077e-07
2.61077e-07
2.61077e-07
1.23181e-06
1.23181e-06
1.23181e-06
1.23834e-06
1.23834e-06
1.23834e-06
4.19849e-07
4.19849e-07
4.19849e-07
4.29933e-07
4.29933e-07
4.29933e-07
4.3e-07
4.3e-07
4.3e-07
4.39852e-07
4.39852e-07
4.39852e-07
3.75727e-07
3.75727e-07
3.75727e-07
3.81247e-07
3.81247e-07
3.81247e-07
3.75412e-07
3.75412e-07
3.75412e-07
1.689e-06
1.689e-06
1.689e-06
1.68179e-06
1.68179e-06
1.68179e-06
6.61599e-07
6.61599e-07
6.61599e-07
1.48869e-06
1.48869e-06
1.48869e-06
1.40632e-06
1.40632e-06
1.40632e-06
1.49578e-06
1.49578e-06
1.49578e-06
1.42216e-06
1.42216e-06
1.42216e-06
1.33447e-06
1.33447e-06
1.33447e-06
1.34185e-06
1.34185e-06
1.34185e-06
4.30075e-07
4.30075e-07
4.30075e-07
4.55037e-07
4.55037e-07
4.55037e-07
4.3988e-07
4.3988e-07
4.3988e-07
4.59246e-07
4.59246e-07
4.59246e-07
4.61424e-07
4.61424e-07
4.61424e-07
4.79439e-07
4.79439e-07
4.79439e-07
4.36039e-07
4.36039e-07
4.36039e-07
4.49183e-07
4.49183e-07
4.49183e-07
4.36107e-07
4.36107e-07
4.36107e-07
4.63874e-07
4.63874e-07
4.63874e-07
4.65175e-07
4.65175e-07
4.65175e-07
4.7631e-07
4.7631e-07
4.7631e-07
4.94634e-07
4.94634e-07
4.94634e-07
4.79707e-07
4.79707e-07
4.79707e-07
4.91129e-07
4.91129e-07
4.91129e-07
4.51396e-07
4.51396e-07
4.51396e-07
4.36179e-07
4.36179e-07
4.36179e-07
4.22836e-07
4.22836e-07
4.22836e-07
4.23107e-07
4.23107e-07
4.23107e-07
4.35998e-07
4.35998e-07
4.35998e-07
4.49787e-07
4.49787e-07
4.49787e-07
4.48989e-07
4.48989e-07
4.48989e-07
4.31581e-07
4.31581e-07
4.31581e-07
4.3999e-07
4.3999e-07
4.3999e-07
4.53873e-07
4.53873e-07
4.53873e-07
3.80998e-07
3.80998e-07
3.80998e-07
4.11155e-07
4.11155e-07
4.11155e-07
3.78655e-07
3.78655e-07
3.78655e-07
5.64215e-07
5.64215e-07
5.64215e-07
6.02824e-07
6.02824e-07
6.02824e-07
5.82805e-07
5.82805e-07
5.82805e-07
6.02027e-07
6.02027e-07
6.02027e-07
5.83312e-07
5.83312e-07
5.83312e-07
5.8285e-07
5.8285e-07
5.8285e-07
5.64308e-07
5.64308e-07
5.64308e-07
5.45972e-07
5.45972e-07
5.45972e-07
5.45715e-07
5.45715e-07
5.45715e-07
5.63678e-07
5.63678e-07
5.63678e-07
4.83918e-07
4.83918e-07
4.83918e-07
4.76205e-07
4.76205e-07
4.76205e-07
6.30747e-07
6.30747e-07
6.30747e-07
6.52419e-07
6.52419e-07
6.52419e-07
5.26639e-07
5.26639e-07
5.26639e-07
5.41028e-07
5.41028e-07
5.41028e-07
6.15668e-07
6.15668e-07
6.15668e-07
6.09459e-07
6.09459e-07
6.09459e-07
5.00195e-07
5.00195e-07
5.00195e-07
5.11683e-07
5.11683e-07
5.11683e-07
5.1259e-07
5.1259e-07
5.1259e-07
4.85384e-07
4.85384e-07
4.85384e-07
4.85068e-07
4.85068e-07
4.85068e-07
4.9741e-07
4.9741e-07
4.9741e-07
5.2081e-07
5.2081e-07
5.2081e-07
5.55964e-07
5.55964e-07
5.55964e-07
5.58292e-07
5.58292e-07
5.58292e-07
5.40196e-07
5.40196e-07
5.40196e-07
4.76947e-07
4.76947e-07
4.76947e-07
4.92896e-07
4.92896e-07
4.92896e-07
5.71722e-07
5.71722e-07
5.71722e-07
5.23123e-07
5.23123e-07
5.23123e-07
5.3572e-07
5.3572e-07
5.3572e-07
5.7654e-07
5.7654e-07
5.7654e-07
6.42857e-07
6.42857e-07
6.42857e-07
6.21142e-07
6.21142e-07
6.21142e-07
6.01308e-07
6.01308e-07
6.01308e-07
5.08403e-07
5.08403e-07
5.08403e-07
5.10294e-07
5.10294e-07
5.10294e-07
5.4367e-07
5.4367e-07
5.4367e-07
5.24304e-07
5.24304e-07
5.24304e-07
7.26411e-06
7.26411e-06
7.26411e-06
8.64919e-06
8.64919e-06
8.64919e-06
8.63051e-06
8.63051e-06
8.63051e-06
8.72877e-06
8.72877e-06
8.72877e-06
7.88081e-06
7.88081e-06
7.88081e-06
7.63193e-06
7.63193e-06
7.63193e-06
7.65348e-06
7.65348e-06
7.65348e-06
9.91565e-06
9.91565e-06
9.91565e-06
1.00395e-05
1.00395e-05
1.00395e-05
9.93884e-06
9.93884e-06
9.93884e-06
7.58918e-06
7.58918e-06
7.58918e-06
7.56538e-06
7.56538e-06
7.56538e-06
6.4586e-07
6.4586e-07
6.4586e-07
6.2422e-07
6.2422e-07
6.2422e-07
6.09607e-07
6.09607e-07
6.09607e-07
6.05595e-07
6.05595e-07
6.05595e-07
5.71631e-07
5.71631e-07
5.71631e-07
5.89362e-07
5.89362e-07
5.89362e-07
1.92748e-06
1.92748e-06
1.92748e-06
1.427e-06
1.427e-06
1.427e-06
2.38604e-06
2.38604e-06
2.38604e-06
1.12389e-06
1.12389e-06
1.12389e-06
1.69517e-06
1.69517e-06
1.69517e-06
1.72658e-06
1.72658e-06
1.72658e-06
7.20173e-07
7.20173e-07
7.20173e-07
7.76255e-07
7.76255e-07
7.76255e-07
1.013e-05
1.013e-05
1.013e-05
1.01051e-05
1.01051e-05
1.01051e-05
1.0279e-05
1.0279e-05
1.0279e-05
1.02032e-05
1.02032e-05
1.02032e-05
1.01413e-05
1.01413e-05
1.01413e-05
1.03543e-05
1.03543e-05
1.03543e-05
1.03288e-05
1.03288e-05
1.03288e-05
1.01565e-05
1.01565e-05
1.01565e-05
1.02402e-05
1.02402e-05
1.02402e-05
1.04046e-05
1.04046e-05
1.04046e-05
1.04302e-05
1.04302e-05
1.04302e-05
1.03533e-05
1.03533e-05
1.03533e-05
1.03154e-05
1.03154e-05
1.03154e-05
1.02903e-05
1.02903e-05
1.02903e-05
1.01811e-05
1.01811e-05
1.01811e-05
1.00946e-05
1.00946e-05
1.00946e-05
9.92075e-06
9.92075e-06
9.92075e-06
9.84376e-06
9.84376e-06
9.84376e-06
1.02572e-05
1.02572e-05
1.02572e-05
1.01699e-05
1.01699e-05
1.01699e-05
1.02316e-05
1.02316e-05
1.02316e-05
1.01205e-05
1.01205e-05
1.01205e-05
1.00516e-05
1.00516e-05
1.00516e-05
1.00275e-05
1.00275e-05
1.00275e-05
1.0046e-05
1.0046e-05
1.0046e-05
1.00205e-05
1.00205e-05
1.00205e-05
9.90466e-06
9.90466e-06
9.90466e-06
9.82555e-06
9.82555e-06
9.82555e-06
8.24326e-06
8.24326e-06
8.24326e-06
8.433e-06
8.433e-06
8.433e-06
8.45565e-06
8.45565e-06
8.45565e-06
8.03459e-06
8.03459e-06
8.03459e-06
7.96816e-06
7.96816e-06
7.96816e-06
7.99181e-06
7.99181e-06
7.99181e-06
8.17707e-06
8.17707e-06
8.17707e-06
8.21902e-06
8.21902e-06
8.21902e-06
8.38725e-06
8.38725e-06
8.38725e-06
8.3633e-06
8.3633e-06
8.3633e-06
9.1679e-06
9.1679e-06
9.1679e-06
9.21017e-06
9.21017e-06
9.21017e-06
9.07091e-06
9.07091e-06
9.07091e-06
9.09432e-06
9.09432e-06
9.09432e-06
9.28704e-06
9.28704e-06
9.28704e-06
9.3102e-06
9.3102e-06
9.3102e-06
8.85931e-06
8.85931e-06
8.85931e-06
9.00369e-06
9.00369e-06
9.00369e-06
8.69893e-06
8.69893e-06
8.69893e-06
8.93476e-06
8.93476e-06
8.93476e-06
8.95582e-06
8.95582e-06
8.95582e-06
8.83671e-06
8.83671e-06
8.83671e-06
8.79448e-06
8.79448e-06
8.79448e-06
8.67859e-06
8.67859e-06
8.67859e-06
8.96464e-06
8.96464e-06
8.96464e-06
8.87188e-06
8.87188e-06
8.87188e-06
8.89323e-06
8.89323e-06
8.89323e-06
9.00847e-06
9.00847e-06
9.00847e-06
9.11112e-06
9.11112e-06
9.11112e-06
9.17523e-06
9.17523e-06
9.17523e-06
9.08985e-06
9.08985e-06
9.08985e-06
9.15186e-06
9.15186e-06
9.15186e-06
9.72411e-06
9.72411e-06
9.72411e-06
9.49662e-06
9.49662e-06
9.49662e-06
9.69991e-06
9.69991e-06
9.69991e-06
9.58935e-06
9.58935e-06
9.58935e-06
9.68276e-06
9.68276e-06
9.68276e-06
9.70738e-06
9.70738e-06
9.70738e-06
9.51652e-06
9.51652e-06
9.51652e-06
9.63007e-06
9.63007e-06
9.63007e-06
9.56553e-06
9.56553e-06
9.56553e-06
9.65361e-06
9.65361e-06
9.65361e-06
9.15365e-06
9.15365e-06
9.15365e-06
9.24465e-06
9.24465e-06
9.24465e-06
9.04814e-06
9.04814e-06
9.04814e-06
9.35758e-06
9.35758e-06
9.35758e-06
9.44779e-06
9.44779e-06
9.44779e-06
9.22216e-06
9.22216e-06
9.22216e-06
8.33652e-06
8.33652e-06
8.33652e-06
8.82617e-06
8.82617e-06
8.82617e-06
8.80928e-06
8.80928e-06
8.80928e-06
8.6672e-06
8.6672e-06
8.6672e-06
8.55724e-06
8.55724e-06
8.55724e-06
9.44801e-06
9.44801e-06
9.44801e-06
9.23108e-06
9.23108e-06
9.23108e-06
9.28506e-06
9.28506e-06
9.28506e-06
9.76558e-06
9.76558e-06
9.76558e-06
9.69328e-06
9.69328e-06
9.69328e-06
9.63427e-06
9.63427e-06
9.63427e-06
9.59841e-06
9.59841e-06
9.59841e-06
9.69391e-06
9.69391e-06
9.69391e-06
9.62225e-06
9.62225e-06
9.62225e-06
9.56375e-06
9.56375e-06
9.56375e-06
9.67037e-06
9.67037e-06
9.67037e-06
9.58714e-06
9.58714e-06
9.58714e-06
9.53213e-06
9.53213e-06
9.53213e-06
9.50797e-06
9.50797e-06
9.50797e-06
8.61056e-06
8.61056e-06
8.61056e-06
8.50663e-06
8.50663e-06
8.50663e-06
8.52663e-06
8.52663e-06
8.52663e-06
8.64862e-06
8.64862e-06
8.64862e-06
8.76777e-06
8.76777e-06
8.76777e-06
8.74631e-06
8.74631e-06
8.74631e-06
8.39787e-06
8.39787e-06
8.39787e-06
8.63743e-06
8.63743e-06
8.63743e-06
8.53097e-06
8.53097e-06
8.53097e-06
8.37796e-06
8.37796e-06
8.37796e-06
5.42873e-07
5.42873e-07
5.42873e-07
5.44943e-07
5.44943e-07
5.44943e-07
5.32495e-07
5.32495e-07
5.32495e-07
6.37855e-06
6.37855e-06
6.37855e-06
5.86511e-06
5.86511e-06
5.86511e-06
5.89959e-06
5.89959e-06
5.89959e-06
6.92082e-06
6.92082e-06
6.92082e-06
6.36853e-06
6.36853e-06
6.36853e-06
7.68273e-06
7.68273e-06
7.68273e-06
7.6603e-06
7.6603e-06
7.6603e-06
6.95743e-06
6.95743e-06
6.95743e-06
7.33163e-06
7.33163e-06
7.33163e-06
7.39415e-06
7.39415e-06
7.39415e-06
7.3715e-06
7.3715e-06
7.3715e-06
6.41354e-06
6.41354e-06
6.41354e-06
6.97714e-06
6.97714e-06
6.97714e-06
4.12436e-07
4.12436e-07
4.12436e-07
5.39988e-07
5.39988e-07
5.39988e-07
4.01004e-07
4.01004e-07
4.01004e-07
3.59568e-07
3.59568e-07
3.59568e-07
3.05763e-07
3.05763e-07
3.05763e-07
3.15048e-07
3.15048e-07
3.15048e-07
3.49511e-07
3.49511e-07
3.49511e-07
2.99659e-07
2.99659e-07
2.99659e-07
2.90986e-07
2.90986e-07
2.90986e-07
2.97044e-07
2.97044e-07
2.97044e-07
3.61173e-07
3.61173e-07
3.61173e-07
3.42443e-07
3.42443e-07
3.42443e-07
3.35042e-07
3.35042e-07
3.35042e-07
3.52175e-07
3.52175e-07
3.52175e-07
3.49993e-07
3.49993e-07
3.49993e-07
3.44588e-07
3.44588e-07
3.44588e-07
3.35562e-07
3.35562e-07
3.35562e-07
3.6199e-07
3.6199e-07
3.6199e-07
3.51057e-07
3.51057e-07
3.51057e-07
3.66541e-07
3.66541e-07
3.66541e-07
3.70124e-07
3.70124e-07
3.70124e-07
3.26155e-07
3.26155e-07
3.26155e-07
3.08969e-07
3.08969e-07
3.08969e-07
3.0611e-07
3.0611e-07
3.0611e-07
3.1812e-07
3.1812e-07
3.1812e-07
3.32736e-07
3.32736e-07
3.32736e-07
3.25522e-07
3.25522e-07
3.25522e-07
3.16749e-07
3.16749e-07
3.16749e-07
2.88173e-07
2.88173e-07
2.88173e-07
2.99793e-07
2.99793e-07
2.99793e-07
2.90559e-07
2.90559e-07
2.90559e-07
2.97148e-07
2.97148e-07
2.97148e-07
4.37519e-07
4.37519e-07
4.37519e-07
4.25824e-07
4.25824e-07
4.25824e-07
3.80804e-07
3.80804e-07
3.80804e-07
3.89722e-07
3.89722e-07
3.89722e-07
4.05305e-07
4.05305e-07
4.05305e-07
4.00789e-07
4.00789e-07
4.00789e-07
3.91993e-07
3.91993e-07
3.91993e-07
4.142e-07
4.142e-07
4.142e-07
4.16758e-07
4.16758e-07
4.16758e-07
4.10291e-07
4.10291e-07
4.10291e-07
4.1833e-07
4.1833e-07
4.1833e-07
1.20948e-06
1.20948e-06
1.20948e-06
1.71079e-06
1.71079e-06
1.71079e-06
1.78467e-06
1.78467e-06
1.78467e-06
1.8226e-06
1.8226e-06
1.8226e-06
1.8121e-06
1.8121e-06
1.8121e-06
5.25059e-07
5.25059e-07
5.25059e-07
6.13277e-07
6.13277e-07
6.13277e-07
8.76264e-06
8.76264e-06
8.76264e-06
8.64606e-06
8.64606e-06
8.64606e-06
1.77156e-06
1.77156e-06
1.77156e-06
1.11885e-06
1.11885e-06
1.11885e-06
1.57556e-06
1.57556e-06
1.57556e-06
6.74197e-07
6.74197e-07
6.74197e-07
6.26851e-06
6.26851e-06
6.26851e-06
4.35792e-07
4.35792e-07
4.35792e-07
3.79318e-07
3.79318e-07
3.79318e-07
3.5128e-07
3.5128e-07
3.5128e-07
3.50818e-07
3.50818e-07
3.50818e-07
3.72939e-07
3.72939e-07
3.72939e-07
3.59612e-07
3.59612e-07
3.59612e-07
1.04447e-06
1.04447e-06
1.04447e-06
1.72047e-06
1.72047e-06
1.72047e-06
1.73277e-06
1.73277e-06
1.73277e-06
1.77764e-06
1.77764e-06
1.77764e-06
1.76691e-06
1.76691e-06
1.76691e-06
5.99702e-07
5.99702e-07
5.99702e-07
4.09859e-07
4.09859e-07
4.09859e-07
4.57982e-07
4.57982e-07
4.57982e-07
9.04155e-07
9.04155e-07
9.04155e-07
1.01973e-06
1.01973e-06
1.01973e-06
9.26483e-07
9.26483e-07
9.26483e-07
6.99257e-07
6.99257e-07
6.99257e-07
3.16884e-07
3.16884e-07
3.16884e-07
3.69662e-07
3.69662e-07
3.69662e-07
1.22753e-06
1.22753e-06
1.22753e-06
1.28035e-06
1.28035e-06
1.28035e-06
1.50781e-06
1.50781e-06
1.50781e-06
1.37828e-06
1.37828e-06
1.37828e-06
1.43524e-06
1.43524e-06
1.43524e-06
1.30289e-06
1.30289e-06
1.30289e-06
1.31903e-06
1.31903e-06
1.31903e-06
1.38569e-06
1.38569e-06
1.38569e-06
1.43895e-06
1.43895e-06
1.43895e-06
1.12494e-06
1.12494e-06
1.12494e-06