<VTKFile type="UnstructuredGrid" version="1.0">
<UnstructuredGrid>
<Piece NumberOfPoints="10830" NumberOfCells="3610">
<Points>
<DataArray type="Float64" NumberOfComponents="3" format="ascii">
3.10314 1.29552 1.07075
3.11025 1.28841 1.045
3.11025 1.28841 1.09646
3.11025 1.28841 1.60008
3.11025 1.28841 1.651
3.10226 1.2964 1.62553
3.11025 1.28841 1.60008
3.10226 1.2964 1.62553
3.09025 1.30841 1.6001
2.21656 2.1821 2.07259
2.22913 2.16953 2.09
2.19928 2.19938 2.09
2.19928 2.19938 2.09
2.19928 2.19938 2.05984
2.21656 2.1821 2.07259
3.11025 1.28841 1.60008
3.09025 1.30841 1.6001
3.10227 1.29639 1.57468
2.20538 2.19328 1.32179
2.19928 2.19938 1.34701
2.19928 2.19938 1.29657
3.10229 1.29637 1.3219
3.11025 1.28841 1.34709
3.09026 1.3084 1.34711
3.10214 1.29652 1.22134
3.11025 1.28841 1.19628
3.11025 1.28841 1.24639
3.09026 1.3084 1.34711
3.11025 1.28841 1.34709
3.1023 1.29636 1.37231
3.11025 1.28841 1.34709
3.11025 1.28841 1.39754
3.1023 1.29636 1.37231
3.09026 1.3084 1.39755
3.1023 1.29636 1.37231
3.11025 1.28841 1.39754
3.09025 1.30841 1.54931
3.10227 1.29639 1.57468
3.08043 1.31823 1.5747
3.08043 1.31823 1.5747
3.10227 1.29639 1.57468
3.09025 1.30841 1.6001
3.08043 1.31823 1.5747
3.06939 1.32927 1.54932
3.09025 1.30841 1.54931
3.08043 1.31823 1.5747
3.09025 1.30841 1.6001
3.06938 1.32928 1.60012
3.11025 1.28841 1.44804
3.11025 1.28841 1.49862
3.10229 1.29637 1.47333
3.10229 1.29637 1.47333
3.09026 1.3084 1.49863
3.08044 1.31822 1.47334
3.11025 1.28841 1.49862
3.09026 1.3084 1.49863
3.10229 1.29637 1.47333
3.11025 1.28841 1.54929
3.10227 1.29639 1.57468
3.09025 1.30841 1.54931
3.11025 1.28841 1.60008
3.10227 1.29639 1.57468
3.11025 1.28841 1.54929
3.0901 1.30856 1.19632
3.11025 1.28841 1.19628
3.10214 1.29652 1.22134
3.09024 1.30842 1.65102
3.10226 1.2964 1.62553
3.11025 1.28841 1.651
2.80657 1.59209 1.83075
2.81699 1.58167 1.80498
2.8274 1.57126 1.83072
2.19928 2.19938 1.045
2.21889 2.17977 1.045
2.20626 2.1924 1.06971
2.25868 2.13998 1.29659
2.23814 2.16052 1.29657
2.24806 2.1506 1.27137
2.21801 2.18065 1.29656
2.23814 2.16052 1.29657
2.22704 2.17162 1.32178
2.21801 2.18065 1.29656
2.20538 2.19328 1.32179
2.19928 2.19938 1.29657
2.22704 2.17162 1.32178
2.20538 2.19328 1.32179
2.21801 2.18065 1.29656
2.20547 2.19319 1.52394
2.19928 2.19938 1.5493
2.19928 2.19938 1.49861
2.21807 2.1806 1.5493
2.22712 2.17155 1.52393
2.23821 2.16045 1.54929
2.19928 2.19938 1.5493
2.20547 2.19319 1.52394
2.21807 2.1806 1.5493
2.21807 2.1806 1.5493
2.20547 2.19319 1.52394
2.22712 2.17155 1.52393
2.21805 2.18061 1.4986
2.2382 2.16046 1.4986
2.22712 2.17155 1.52393
2.21805 2.18061 1.4986
2.20547 2.19319 1.52394
2.19928 2.19938 1.49861
2.22712 2.17155 1.52393
2.20547 2.19319 1.52394
2.21805 2.18061 1.4986
2.19928 2.19938 1.34701
2.20538 2.19328 1.32179
2.21802 2.18064 1.347
2.21802 2.18064 1.347
2.20538 2.19328 1.32179
2.22704 2.17162 1.32178
2.23821 2.16045 1.54929
2.22712 2.17155 1.52393
2.24816 2.15051 1.52393
2.22712 2.17155 1.52393
2.2382 2.16046 1.4986
2.24816 2.15051 1.52393
2.40353 1.99513 1.49867
2.41386 1.9848 1.52401
2.3932 2.00546 1.524
2.3932 2.00546 1.524
2.41386 1.9848 1.52401
2.40354 1.99512 1.54937
2.40354 1.99512 1.54937
2.41386 1.9848 1.52401
2.4242 1.97446 1.54938
2.79618 1.60248 1.805
2.81699 1.58167 1.80498
2.80657 1.59209 1.83075
3.10224 1.29642 1.27156
3.11025 1.28841 1.24639
3.11025 1.28841 1.2967
3.11025 1.28841 1.34709
3.10229 1.29637 1.3219
3.11025 1.28841 1.2967
3.02715 1.37151 1.4481
3.006 1.39266 1.44811
3.01659 1.38207 1.42285
3.09026 1.3084 1.44805
3.10229 1.29637 1.47333
3.08044 1.31822 1.47334
3.11025 1.28841 1.44804
3.10229 1.29637 1.47333
3.09026 1.3084 1.44805
3.08044 1.31822 1.47334
3.09026 1.3084 1.49863
3.0694 1.32926 1.49865
3.10228 1.29638 1.52395
3.09026 1.3084 1.49863
3.11025 1.28841 1.49862
3.11025 1.28841 1.49862
3.11025 1.28841 1.54929
3.10228 1.29638 1.52395
3.10228 1.29638 1.52395
3.11025 1.28841 1.54929
3.09025 1.30841 1.54931
3.08027 1.31839 1.22137
3.0901 1.30856 1.19632
3.10214 1.29652 1.22134
3.10224 1.29642 1.27156
3.11025 1.28841 1.2967
3.09024 1.30842 1.29674
3.09024 1.30842 1.29674
3.11025 1.28841 1.2967
3.10229 1.29637 1.3219
3.0165 1.38216 1.27161
3.00588 1.39278 1.24643
3.02702 1.37164 1.24643
3.04817 1.35049 1.24645
3.03759 1.36107 1.22126
3.05884 1.33982 1.22131
3.04817 1.35049 1.24645
3.02702 1.37164 1.24643
3.03759 1.36107 1.22126
3.08043 1.31823 1.32193
3.10229 1.29637 1.3219
3.09026 1.3084 1.34711
3.08043 1.31823 1.32193
3.09024 1.30842 1.29674
3.10229 1.29637 1.3219
3.08042 1.31824 1.62555
3.09025 1.30841 1.6001
3.10226 1.2964 1.62553
3.10226 1.2964 1.62553
3.09024 1.30842 1.65102
3.08042 1.31824 1.62555
3.06938 1.32928 1.60012
3.09025 1.30841 1.6001
3.08042 1.31824 1.62555
3.08041 1.31825 1.77905
3.05901 1.33965 1.77906
3.06938 1.32928 1.75337
3.05901 1.33966 1.72774
3.08041 1.31825 1.72772
3.06938 1.32928 1.75337
3.10225 1.29641 1.67653
3.09024 1.30842 1.65102
3.11025 1.28841 1.651
3.08041 1.31825 1.67656
3.09024 1.30842 1.65102
3.10225 1.29641 1.67653
2.84822 1.55044 1.88232
2.85863 1.54003 1.90816
2.83776 1.5609 1.9082
2.96373 1.43493 1.75343
2.97428 1.42438 1.72779
2.98483 1.41383 1.75341
2.98483 1.41383 1.75341
2.97428 1.42438 1.72779
2.9954 1.40326 1.72778
3.06938 1.32929 1.70213
3.05901 1.33965 1.67658
3.08041 1.31825 1.67656
3.06938 1.32929 1.70213
3.08041 1.31825 1.72772
3.05901 1.33966 1.72774
2.95319 1.44547 1.72781
2.97428 1.42438 1.72779
2.96373 1.43493 1.75343
2.90067 1.49799 1.49874
2.87971 1.51895 1.49874
2.89018 1.50848 1.47344
2.84833 1.55033 1.47344
2.83789 1.56077 1.49875
2.82746 1.5712 1.47344
2.85878 1.53988 1.49875
2.83789 1.56077 1.49875
2.84833 1.55033 1.47344
2.83788 1.56078 1.39765
2.85877 1.53989 1.39765
2.84833 1.55034 1.42289
2.84833 1.55034 1.42289
2.82745 1.57121 1.42289
2.83788 1.56078 1.39765
2.83788 1.56078 1.39765
2.82745 1.57121 1.42289
2.81702 1.58164 1.39764
2.84833 1.55034 1.42289
2.85877 1.53989 1.39765
2.86924 1.52943 1.4229
2.87968 1.51898 1.34723
2.89017 1.50849 1.37244
2.86922 1.52944 1.37243
2.86922 1.52944 1.37243
2.85875 1.53991 1.34723
2.87968 1.51898 1.34723
2.72357 1.6751 1.52409
2.73392 1.66474 1.49875
2.74429 1.65437 1.52409
2.73392 1.66474 1.49875
2.75466 1.644 1.49875
2.74429 1.65437 1.52409
2.83789 1.56077 1.44816
2.82745 1.57121 1.42289
2.84833 1.55034 1.42289
2.83789 1.56077 1.44816
2.84833 1.55033 1.47344
2.82746 1.5712 1.47344
2.82746 1.5712 1.47344
2.80662 1.59204 1.47344
2.81703 1.58163 1.44815
2.81703 1.58163 1.44815
2.83789 1.56077 1.44816
2.82746 1.5712 1.47344
2.82745 1.57121 1.42289
2.83789 1.56077 1.44816
2.81703 1.58163 1.44815
2.81702 1.58164 1.39764
2.7962 1.60246 1.39764
2.8066 1.59206 1.37241
2.79618 1.60248 1.34719
2.81701 1.58166 1.34721
2.8066 1.59206 1.37241
2.42419 1.97447 1.49868
2.41386 1.9848 1.52401
2.40353 1.99513 1.49867
2.40353 1.99513 1.49867
2.41385 1.98481 1.47336
2.42419 1.97447 1.49868
2.20539 2.19327 1.11987
2.19928 2.19938 1.14509
2.19928 2.19938 1.09442
2.19928 2.19938 1.045
2.20626 2.1924 1.06971
2.19928 2.19938 1.09442
2.21797 2.1807 1.1957
2.19928 2.19938 1.19567
2.20528 2.19338 1.17042
2.19928 2.19938 1.19567
2.19928 2.19938 1.14509
2.20528 2.19338 1.17042
3.11025 1.28841 1.045
3.10314 1.29552 1.07075
3.0911 1.30756 1.045
2.19928 2.19938 1.29657
2.19928 2.19938 1.24614
2.20536 2.19331 1.27136
2.20536 2.19331 1.27136
2.21801 2.18065 1.29656
2.19928 2.19938 1.29657
2.21799 2.18067 1.24613
2.20536 2.19331 1.27136
2.19928 2.19938 1.24614
2.21799 2.18067 1.24613
2.22698 2.17168 1.22094
2.23811 2.16055 1.24616
2.22702 2.17165 1.27135
2.24806 2.1506 1.27137
2.23814 2.16052 1.29657
2.23814 2.16052 1.29657
2.21801 2.18065 1.29656
2.22702 2.17165 1.27135
2.23811 2.16055 1.24616
2.24806 2.1506 1.27137
2.22702 2.17165 1.27135
2.22702 2.17165 1.27135
2.21799 2.18067 1.24613
2.23811 2.16055 1.24616
2.21801 2.18065 1.29656
2.20536 2.19331 1.27136
2.22702 2.17165 1.27135
2.20536 2.19331 1.27136
2.21799 2.18067 1.24613
2.22702 2.17165 1.27135
2.20532 2.19334 1.22091
2.19928 2.19938 1.24614
2.19928 2.19938 1.19567
2.20532 2.19334 1.22091
2.19928 2.19938 1.19567
2.21797 2.1807 1.1957
2.21797 2.1807 1.1957
2.22698 2.17168 1.22094
2.20532 2.19334 1.22091
2.20532 2.19334 1.22091
2.21799 2.18067 1.24613
2.19928 2.19938 1.24614
2.22698 2.17168 1.22094
2.21799 2.18067 1.24613
2.20532 2.19334 1.22091
2.24814 2.15052 1.47329
2.2382 2.16046 1.4986
2.2271 2.17156 1.47329
2.2382 2.16046 1.4986
2.21805 2.18061 1.4986
2.2271 2.17156 1.47329
2.2271 2.17156 1.47329
2.23819 2.16048 1.448
2.24814 2.15052 1.47329
2.24809 2.15058 1.32179
2.23814 2.16052 1.29657
2.25868 2.13998 1.29659
2.22704 2.17162 1.32178
2.23814 2.16052 1.29657
2.24809 2.15058 1.32179
2.26891 2.12975 1.3218
2.24809 2.15058 1.32179
2.25868 2.13998 1.29659
2.2587 2.13996 1.34701
2.24809 2.15058 1.32179
2.26891 2.12975 1.3218
2.2587 2.13996 1.34701
2.26891 2.12975 1.3218
2.27936 2.1193 1.34702
2.41384 1.98482 1.4228
2.42418 1.97448 1.44807
2.40352 1.99515 1.44807
2.40352 1.99515 1.44807
2.42418 1.97448 1.44807
2.41385 1.98481 1.47336
2.33114 2.06753 1.47332
2.35183 2.04683 1.47333
2.34149 2.05717 1.49863
2.34148 2.05718 1.44804
2.35183 2.04683 1.47333
2.33114 2.06753 1.47332
2.35182 2.04684 1.42277
2.34147 2.05719 1.39752
2.36216 2.03651 1.39753
2.34148 2.05718 1.44804
2.33112 2.06754 1.42276
2.35182 2.04684 1.42277
2.35182 2.04684 1.42277
2.33112 2.06754 1.42276
2.34147 2.05719 1.39752
2.35184 2.04682 1.52398
2.37253 2.02613 1.52399
2.3622 2.03646 1.54934
2.31047 2.08819 1.5747
2.32082 2.07785 1.54932
2.33117 2.06749 1.57471
2.3208 2.07786 1.49862
2.33114 2.06753 1.47332
2.34149 2.05717 1.49863
2.31043 2.08823 1.47331
2.33114 2.06753 1.47332
2.3208 2.07786 1.49862
2.23821 2.16045 1.54929
2.24816 2.15051 1.52393
2.25876 2.1399 1.54929
2.24814 2.15052 1.47329
2.23819 2.16048 1.448
2.25873 2.13993 1.448
2.25873 2.13993 1.448
2.26896 2.1297 1.47329
2.24814 2.15052 1.47329
2.30008 2.09858 1.44801
2.31043 2.08823 1.47331
2.28971 2.10895 1.4733
2.25874 2.13992 1.4986
2.24816 2.15051 1.52393
2.2382 2.16046 1.4986
2.25874 2.13992 1.4986
[...]
<PointData Scalars="View Factor" >
<DataArray type="Float64" Name="View Factor" NumberOfComponents="1" format="ascii">
0.00268762
0.00268762
0.00268762
0.00377752
0.00377752
0.00377752
0.00371409
0.00371409
0.00371409
0.000625579
0.000625579
0.000625579
0.000326644
0.000326644
0.000326644
0.00367417
0.00367417
0.00367417
0.000176759
0.000176759
0.000176759
0.0031377
0.0031377
0.0031377
0.00293943
0.00293943
0.00293943
0.00317031
0.00317031
0.00317031
0.00322284
0.00322284
0.00322284
0.00323661
0.00323661
0.00323661
0.00358243
0.00358243
0.00358243
0.00362104
0.00362104
0.00362104
0.00352699
0.00352699
0.00352699
0.00360344
0.00360344
0.00360344
0.00343124
0.00343124
0.00343124
0.00339701
0.00339701
0.00339701
0.00344649
0.00344649
0.00344649
0.00359626
0.00359626
0.00359626
0.00365724
0.00365724
0.00365724
0.00289221
0.00289221
0.00289221
0.00379545
0.00379545
0.00379545
0.00163956
0.00163956
0.00163956
0.000190934
0.000190934
0.000190934
0.000829923
0.000829923
0.000829923
0.00091059
0.00091059
0.00091059
0.000234521
0.000234521
0.000234521
0.000443569
0.000443569
0.000443569
0.000261072
0.000261072
0.000261072
0.00108577
0.00108577
0.00108577
0.000316921
0.000316921
0.000316921
0.000547082
0.000547082
0.000547082
0.00105481
0.00105481
0.00105481
0.000297323
0.000297323
0.000297323
0.000536726
0.000536726
0.000536726
0.000242433
0.000242433
0.000242433
0.000449637
0.000449637
0.000449637
0.00104192
0.00104192
0.00104192
0.00102688
0.00102688
0.00102688
0.000128732
0.000128732
0.000128732
0.000140949
0.000140949
0.000140949
0.000146987
0.000146987
0.000146987
0.00152031
0.00152031
0.00152031
0.0030302
0.0030302
0.0030302
0.00312465
0.00312465
0.00312465
0.00305246
0.00305246
0.00305246
0.00336147
0.00336147
0.00336147
0.0033747
0.0033747
0.0033747
0.00338017
0.00338017
0.00338017
0.00348319
0.00348319
0.00348319
0.00354191
0.00354191
0.00354191
0.003558
0.003558
0.003558
0.00288007
0.00288007
0.00288007
0.00304263
0.00304263
0.00304263
0.003074
0.003074
0.003074
0.00272544
0.00272544
0.00272544
0.00279151
0.00279151
0.00279151
0.00277026
0.00277026
0.00277026
0.00309313
0.00309313
0.00309313
0.00306152
0.00306152
0.00306152
0.00370002
0.00370002
0.00370002
0.00374035
0.00374035
0.00374035
0.00364254
0.00364254
0.00364254
0.00400356
0.00400356
0.00400356
0.00391537
0.00391537
0.00391537
0.00383713
0.00383713
0.00383713
0.00382277
0.00382277
0.00382277
0.00192242
0.00192242
0.00192242
0.00350395
0.00350395
0.00350395
0.00353537
0.00353537
0.00353537
0.00378793
0.00378793
0.00378793
0.00387222
0.00387222
0.00387222
0.0034197
0.0034197
0.0034197
0.00254013
0.00254013
0.00254013
0.000999828
0.000999828
0.000999828
0.0016375
0.0016375
0.0016375
0.00151056
0.00151056
0.00151056
0.000924582
0.000924582
0.000924582
0.000106235
0.000106235
0.000106235
0.00187858
0.00187858
0.00187858
0.00221033
0.00221033
0.00221033
0.00202949
0.00202949
0.00202949
0.000167199
0.000167199
0.000167199
0.000161481
0.000161481
0.000161481
0.0009409
0.0009409
0.0009409
0.000978238
0.000978238
0.000978238
0.000139948
0.000139948
0.000139948
0.000136793
0.000136793
0.000136793
0.000125097
0.000125097
0.000125097
9.59154e-05
9.59154e-05
9.59154e-05
8.27255e-05
8.27255e-05
8.27255e-05
0.00012286
0.00012286
0.00012286
0.000112152
0.000112152
0.000112152
0.000141686
0.000141686
0.000141686
0.000140517
0.000140517
0.000140517
0.000210034
0.000210034
0.000210034
0.000148714
0.000148714
0.000148714
0.00264515
0.00264515
0.00264515
0.000166654
0.000166654
0.000166654
0.000230829
0.000230829
0.000230829
0.000223639
0.000223639
0.000223639
0.000872029
0.000872029
0.000872029
0.000863916
0.000863916
0.000863916
0.000900661
0.000900661
0.000900661
0.000854427
0.000854427
0.000854427
0.000881513
0.000881513
0.000881513
0.000431793
0.000431793
0.000431793
0.00042608
0.00042608
0.00042608
0.000156824
0.000156824
0.000156824
0.000213348
0.000213348
0.000213348
0.000402797
0.000402797
0.000402797
0.000220094
0.000220094
0.000220094
0.000407816
0.000407816
0.000407816
0.000998003
0.000998003
0.000998003
0.00104032
0.00104032
0.00104032
0.00098441
0.00098441
0.00098441
0.000839213
0.000839213
0.000839213
0.000883279
0.000883279
0.000883279
0.000806154
0.000806154
0.000806154
0.000815006
0.000815006
0.000815006
0.000778611
0.000778611
0.000778611
8.7223e-05
8.7223e-05
8.7223e-05
9.49131e-05
9.49131e-05
9.49131e-05
0.000107184
0.000107184
0.000107184
9.80925e-05
9.80925e-05
9.80925e-05
7.42624e-05
7.42624e-05
7.42624e-05
8.30906e-05
8.30906e-05
8.30906e-05
7.66827e-05
7.66827e-05
7.66827e-05
0.00014054
0.00014054
0.00014054
0.000169227
0.000169227
0.000169227
0.000111726
0.000111726
0.000111726
0.000107133
0.000107133
0.000107133
0.00100618
0.00100618
0.00100618
0.000936182
0.000936182
0.000936182
0.000899468
0.000899468
0.000899468
9.80413e-05
9.80413e-05
9.80413e-05
0.000976113
0.000976113
0.000976113
0.000962117
0.000962117
0.000962117
0.000912413
0.000912413
0.000912413
0.000256587
0.000256587
0.000256587
0.00104577
0.00104577
0.00104577
0.000442596
0.000442596
0.000442596
0.000122541
0.000122541
0.000122541
0.000128592
0.000128592
0.000128592
0.000161676
0.000161676
0.000161676
0.000146879
0.000146879
0.000146879
0.000146719
0.000146719
0.000146719
0.000140659
0.000140659
0.000140659
0.000161886
0.000161886
0.000161886
0.000169654
0.000169654
0.000169654
0.000198019
0.000198019
0.000198019
0.000187929
0.000187929
0.000187929
0.00018757
0.00018757
0.00018757
0.000169541
0.000169541
0.000169541
0.000258864
0.000258864
0.000258864
0.000308348
0.000308348
0.000308348
0.000328036
0.000328036
0.000328036
0.000392553
0.000392553
0.000392553
0.000367862
0.000367862
0.000367862
0.000188177
0.000188177
0.000188177
0.000162137
0.000162137
0.000162137
0.000169878
0.000169878
0.000169878
0.00135555
0.00135555
0.00135555
0.00146189
0.00146189
0.00146189
0.00159471
0.00159471
0.00159471
0.00147962
0.00147962
0.00147962
0.00117422
0.00117422
0.00117422
0.00110659
0.00110659
0.00110659
0.000741811
0.000741811
0.000741811
0.00128013
0.00128013
0.00128013
2.13406e-05
2.13406e-05
2.13406e-05
2.00259e-05
2.00259e-05
2.00259e-05
2.31337e-05
2.31337e-05
2.31337e-05
2.47451e-05
2.47451e-05
2.47451e-05
1.79609e-05
1.79609e-05
1.79609e-05
1.73314e-05
1.73314e-05
1.73314e-05
1.84598e-05
1.84598e-05
1.84598e-05
2.05821e-05
2.05821e-05
2.05821e-05
1.89553e-05
1.89553e-05
1.89553e-05
1.78038e-05
1.78038e-05
1.78038e-05
0.000101983
0.000101983
0.000101983
2.54297e-05
2.54297e-05
2.54297e-05
2.11329e-05
2.11329e-05
2.11329e-05
2.19227e-05
2.19227e-05
2.19227e-05
2.37642e-05
2.37642e-05
2.37642e-05
2.61102e-05
2.61102e-05
2.61102e-05
2.87669e-05
2.87669e-05
2.87669e-05
0.00446129
0.00446129
0.00446129
0.00332493
0.00332493
0.00332493
0.0032508
0.0032508
0.0032508
0.00347039
0.00347039
0.00347039
0.0033912
0.0033912
0.0033912
0.00345682
0.00345682
0.00345682
0.00354898
0.00354898
0.00354898
0.00351119
0.00351119
0.00351119
0.00343757
0.00343757
0.00343757
0.00229113
0.00229113
0.00229113
0.00231993
0.00231993
0.00231993
0.00236052
0.00236052
0.00236052
0.00306407
0.00306407
0.00306407
0.00300488
0.00300488
0.00300488
0.00333945
0.00333945
0.00333945
0.00329168
0.00329168
0.00329168
0.00332497
0.00332497
0.00332497
0.00327048
0.00327048
0.00327048
0.00325753
0.00325753
0.00325753
0.00336481
0.00336481
0.00336481
0.00342008
0.00342008
0.00342008
0.0034895
0.0034895
0.0034895
0.00341615
0.00341615
0.00341615
0.00343694
0.00343694
0.00343694
0.00340065
0.00340065
0.00340065
0.00350676
0.00350676
0.00350676
0.00346969
0.00346969
0.00346969
0.0029813
0.0029813
0.0029813
0.00295112
0.00295112
0.00295112
0.00290935
0.00290935
0.00290935
0.00286331
0.00286331
0.00286331
0.00269781
0.00269781
0.00269781
0.00272028
0.00272028
0.00272028
0.00301485
0.00301485
0.00301485
0.0029249
0.0029249
0.0029249
0.00300072
0.00300072
0.00300072
0.00295496
0.00295496
0.00295496
0.00372235
0.00372235
0.00372235
0.00376316
0.00376316
0.00376316
0.00374671
0.00374671
0.00374671
0.00404864
0.00404864
0.00404864
0.00401523
0.00401523
0.00401523
0.00363868
0.00363868
0.00363868
0.00180374
0.00180374
0.00180374
0.00135157
0.00135157
0.00135157
0.00156225
0.00156225
0.00156225
0.0035434
0.0035434
0.0035434
0.00362395
0.00362395
0.00362395
0.00386532
0.00386532
0.00386532
0.00382216
0.00382216
0.00382216
0.00278272
0.00278272
0.00278272
0.00297724
0.00297724
0.00297724
0.00286806
0.00286806
0.00286806
0.00290746
0.00290746
0.00290746
0.00306578
0.00306578
0.00306578
0.00299223
0.00299223
0.00299223
0.00294918
0.00294918
0.00294918
0.00384652
0.00384652
0.00384652
0.00388903
0.00388903
0.00388903
0.00386484
0.00386484
0.00386484
0.00394059
0.00394059
0.00394059
0.0039197
0.0039197
0.0039197
0.00389693
0.00389693
0.00389693
0.00383334
0.00383334
0.00383334
0.0038502
0.0038502
0.0038502
0.00380761
0.00380761
0.00380761
0.00275471
0.00275471
0.00275471
0.0027681
0.0027681
0.0027681
0.00279717
0.00279717
0.00279717
0.00248967
0.00248967
0.00248967
0.000162305
0.000162305
0.000162305
0.000153433
0.000153433
0.000153433
0.00166807
0.00166807
0.00166807
0.00022009
0.00022009
0.00022009
0.000234373
0.000234373
0.000234373
0.000180364
0.000180364
0.000180364
0.000173975
0.000173975
0.000173975
0.000158554
0.000158554
0.000158554
0.000149844
0.000149844
0.000149844
0.000169828
0.000169828
0.000169828
0.000154788
0.000154788
0.000154788
0.000197698
0.000197698
0.000197698
0.000208964
0.000208964
0.000208964
0.000231278
0.000231278
0.000231278
0.000240265
0.000240265
0.000240265
0.000225687
0.000225687
0.000225687
0.000203942
0.000203942
0.000203942
0.00199582
0.00199582
0.00199582
0.00227335
0.00227335
0.00227335
0.00242667
0.00242667
0.00242667
0.00239454
0.00239454
0.00239454
0.000445077
0.000445077
0.000445077
0.000266395
0.000266395
0.000266395
0.000422386
0.000422386
0.000422386
9.81429e-05
9.81429e-05
9.81429e-05
8.46376e-05
8.46376e-05
8.46376e-05
9.34186e-05
9.34186e-05
9.34186e-05
8.67589e-05
8.67589e-05
8.67589e-05
0.00144867
0.00144867
0.00144867
0.000878983
0.000878983
0.000878983
0.000893068
0.000893068
0.000893068
0.00148888
0.00148888
0.00148888
0.00182706
0.00182706
0.00182706
0.00180313
0.00180313
0.00180313
0.00233119
0.00233119
0.00233119
0.00246173
0.00246173
0.00246173
0.000116882
0.000116882
0.000116882
0.000106695
0.000106695
0.000106695
0.000192605
0.000192605
0.000192605
0.000180381
0.000180381
0.000180381
0.000120597
0.000120597
0.000120597
0.000124108
0.000124108
0.000124108
0.000228244
0.000228244
0.000228244
0.000213332
0.000213332
0.000213332
0.000221179
0.000221179
0.000221179
0.000255599
0.000255599
0.000255599
0.000263811
0.000263811
0.000263811
0.000247648
0.000247648
0.000247648
0.000147205
0.000147205
0.000147205
0.000124151
0.000124151
0.000124151
0.000126805
0.000126805
0.000126805
0.000138987
0.000138987
0.000138987
0.00019384
0.00019384
0.00019384
0.000183218
0.000183218
0.000183218
0.000120949
0.000120949
0.000120949
0.00015728
0.00015728
0.00015728
0.000143396
0.000143396
0.000143396
0.000113561
0.000113561
0.000113561
8.03575e-05
8.03575e-05
8.03575e-05
8.47718e-05
8.47718e-05
8.47718e-05
9.12723e-05
9.12723e-05
9.12723e-05
0.000133659
0.000133659
0.000133659
0.000136687
0.000136687
0.000136687
0.000119357
0.000119357
0.000119357
0.000130505
0.000130505
0.000130505
5.9064e-05
5.9064e-05
5.9064e-05
6.8615e-05
6.8615e-05
6.8615e-05
7.42714e-05
7.42714e-05
7.42714e-05
7.67746e-05
7.67746e-05
7.67746e-05
5.90365e-05
5.90365e-05
5.90365e-05
6.61407e-05
6.61407e-05
6.61407e-05
6.14519e-05
6.14519e-05
6.14519e-05
0.000761504
0.000761504
0.000761504
0.000789494
0.000789494
0.000789494
0.000753087
0.000753087
0.000753087
7.70952e-05
7.70952e-05
7.70952e-05
8.33462e-05
8.33462e-05
8.33462e-05
0.00011316
0.00011316
0.00011316
0.000120217
0.000120217
0.000120217
0.000131793
0.000131793
0.000131793
0.000135956
0.000135956
0.000135956
0.000157973
0.000157973
0.000157973
0.000148879
0.000148879
0.000148879
0.00243827
0.00243827
0.00243827
0.00263503
0.00263503
0.00263503
0.0025961
0.0025961
0.0025961
0.00228769
0.00228769
0.00228769
0.00248928
0.00248928
0.00248928
0.00246538
0.00246538
0.00246538
0.00247592
0.00247592
0.00247592
0.00243007
0.00243007
0.00243007
0.000320605
0.000320605
0.000320605
0.000329682
0.000329682
0.000329682
0.000225611
0.000225611
0.000225611
0.000289788
0.000289788
0.000289788
0.000517021
0.000517021
0.000517021
0.000202799
0.000202799
0.000202799
0.000260547
0.000260547
0.000260547
0.000975802
0.000975802
0.000975802
0.00048387
0.00048387
0.00048387
0.000246585
0.000246585
0.000246585
0.000188231
0.000188231
0.000188231
0.000255669
0.000255669
0.000255669
0.000462585
0.000462585
0.000462585
0.000469248
0.000469248
0.000469248
0.000964155
0.000964155
0.000964155
0.000924753
0.000924753
0.000924753
0.000833661
0.000833661
0.000833661
0.000787255
0.000787255
0.000787255
0.000931205
0.000931205
0.000931205
0.000893207
0.000893207
0.000893207
0.000941852
0.000941852
0.000941852
0.000914046
0.000914046
0.000914046
0.000858548
0.000858548
0.000858548
0.000868557
0.000868557
0.000868557
0.000947615
0.000947615
0.000947615
0.000959347
0.000959347
0.000959347
0.000923631
0.000923631
0.000923631
0.000875698
0.000875698
0.000875698
8.69435e-05
8.69435e-05
8.69435e-05
8.32013e-05
8.32013e-05
8.32013e-05
7.68725e-05
7.68725e-05
7.68725e-05
8.32714e-05
8.32714e-05
8.32714e-05
0.000107395
0.000107395
0.000107395
9.82611e-05
9.82611e-05
9.82611e-05
0.00011202
0.00011202
0.00011202
9.48192e-05
9.48192e-05
9.48192e-05
9.81951e-05
9.81951e-05
9.81951e-05
0.000107291
0.000107291
0.000107291
9.80582e-05
9.80582e-05
9.80582e-05
8.30538e-05
8.30538e-05
8.30538e-05
9.45184e-05
9.45184e-05
9.45184e-05
8.68616e-05
8.68616e-05
8.68616e-05
9.45545e-05
9.45545e-05
9.45545e-05
8.68529e-05
8.68529e-05
8.68529e-05
0.000128376
0.000128376
0.000128376
0.000122251
0.000122251
0.000122251
0.000146703
0.000146703
0.000146703
0.000161359
0.000161359
0.000161359
0.000146667
0.000146667
0.000146667
0.000140451
0.000140451
0.000140451
0.000169332
0.000169332
0.000169332
0.000161502
0.000161502
0.000161502
0.000229998
0.000229998
0.000229998
0.000219611
0.000219611
0.000219611
0.000197146
0.000197146
0.000197146
0.000187309
0.000187309
0.000187309
0.000197038
0.000197038
0.000197038
0.000229835
0.000229835
0.000229835
0.000219373
0.000219373
0.000219373
0.000161252
0.000161252
0.000161252
0.000832124
0.000832124
0.000832124
0.000586019
0.000586019
0.000586019
0.000842297
0.000842297
0.000842297
0.000792976
0.000792976
0.000792976
0.000953527
0.000953527
0.000953527
0.000939392
0.000939392
0.000939392
0.000831305
0.000831305
0.000831305
0.000875196
0.000875196
0.000875196
0.000805554
0.000805554
0.000805554
0.000863368
0.000863368
0.000863368
0.000256383
0.000256383
0.000256383
0.000805983
0.000805983
0.000805983
0.000270793
0.000270793
0.000270793
0.000925779
0.000925779
0.000925779
0.00101507
0.00101507
0.00101507
0.000840083
0.000840083
0.000840083
0.000272086
0.000272086
0.000272086
0.000271019
0.000271019
0.000271019
0.00030296
0.00030296
0.00030296
0.000323151
0.000323151
0.000323151
0.000303337
0.000303337
0.000303337
0.000319118
0.000319118
0.000319118
0.00143053
0.00143053
0.00143053
0.00129452
0.00129452
0.00129452
0.00132777
0.00132777
0.00132777
0.00151024
0.00151024
0.00151024
0.00160037
0.00160037
0.00160037
0.00128059
0.00128059
0.00128059
0.00141173
0.00141173
0.00141173
0.00140107
0.00140107
0.00140107
0.0016985
0.0016985
0.0016985
0.00154995
0.00154995
0.00154995
0.00174544
0.00174544
0.00174544
0.00173628
0.00173628
0.00173628
0.00175334
0.00175334
0.00175334
0.000128472
0.000128472
0.000128472
0.000122422
0.000122422
0.000122422
0.0001119
0.0001119
0.0001119
0.000107205
0.000107205
0.000107205
0.000111807
0.000111807
0.000111807
0.000122324
0.000122324
0.000122324
0.000197746
0.000197746
0.000197746
0.000197524
0.000197524
0.000197524
0.000187727
0.000187727
0.000187727
0.000220169
0.000220169
0.000220169
0.000276276
0.000276276
0.000276276
0.000225071
0.000225071
0.000225071
0.000236378
0.000236378
0.000236378
0.000232972
0.000232972
0.000232972
0.000307334
0.000307334
0.000307334
0.000274573
0.000274573
0.000274573
0.000273845
0.000273845
0.000273845
0.000259507
0.000259507
0.000259507
0.000198395
0.000198395
0.000198395
0.000221052
0.000221052
0.000221052
0.000221585
0.000221585
0.000221585
0.000231846
0.000231846
0.000231846
0.000170063
0.000170063
0.000170063
0.000188463
0.000188463
0.000188463
0.000188798
0.000188798
0.000188798
0.000198753
0.000198753
0.000198753
0.00162963
0.00162963
0.00162963
0.00165132
0.00165132
0.00165132
0.00168057
0.00168057
0.00168057
0.00160553
0.00160553
0.00160553
0.00139695
0.00139695
0.00139695
0.0012096
0.0012096
0.0012096
0.00165527
0.00165527
0.00165527
0.00150624
0.00150624
0.00150624
0.00155006
0.00155006
0.00155006
0.00143796
0.00143796
0.00143796
0.000630649
0.000630649
0.000630649
0.000785241
0.000785241
0.000785241
0.000897769
0.000897769
0.000897769
0.000763021
0.000763021
0.000763021
0.000721763
0.000721763
0.000721763
0.000872117
0.000872117
0.000872117
0.000952563
0.000952563
0.000952563
0.00059926
0.00059926
0.00059926
0.000648507
0.000648507
0.000648507
0.000527021
0.000527021
0.000527021
0.000500478
0.000500478
0.000500478
0.000980364
0.000980364
0.000980364
0.00117208
0.00117208
0.00117208
0.00124452
0.00124452
0.00124452
0.00113927
0.00113927
0.00113927
0.000807482
0.000807482
0.000807482
0.000922805
0.000922805
0.000922805
0.00100822
0.00100822
0.00100822
0.00131579
0.00131579
0.00131579
0.00120371
0.00120371
0.00120371
0.00123659
0.00123659
0.00123659
0.0010641
0.0010641
0.0010641
0.000297133
0.000297133
0.000297133
0.000331574
0.000331574
0.000331574
0.000486929
0.000486929
0.000486929
0.000411233
0.000411233
0.000411233
0.000365801
0.000365801
0.000365801
0.000400064
0.000400064
0.000400064
0.000433123
0.000433123
0.000433123
0.000340882
0.000340882
0.000340882
0.00035592
0.00035592
0.00035592
0.00063038
0.00063038
0.00063038
0.000578053
0.000578053
0.000578053
0.00104261
0.00104261
0.00104261
1.95685e-05
1.95685e-05
1.95685e-05
1.68543e-05
1.68543e-05
1.68543e-05
0.000166176
0.000166176
0.000166176
9.50824e-05
9.50824e-05
9.50824e-05
0.00170347
0.00170347
0.00170347
0.00163388
0.00163388
0.00163388
0.000384136
0.000384136
0.000384136
0.00036234
0.00036234
0.00036234
1.8332e-05
1.8332e-05
1.8332e-05
0.00106602
0.00106602
0.00106602
0.000444723
0.000444723
0.000444723
0.00124922
0.00124922
0.00124922
0.000853555
0.000853555
0.000853555
0.000385166
0.000385166
0.000385166
0.000659991
0.000659991
0.000659991
0.00124337
0.00124337
0.00124337
0.00119183
0.00119183
0.00119183
0.000944574
0.000944574
0.000944574
0.00103387
0.00103387
0.00103387
0.00114739
0.00114739
0.00114739
0.000370953
0.000370953
0.000370953
0.000178569
0.000178569
0.000178569
0.000172342
0.000172342
0.000172342
9.85164e-05
9.85164e-05
9.85164e-05
0.00144604
0.00144604
0.00144604
0.0013631
0.0013631
0.0013631
0.00142874
0.00142874
0.00142874
0.00127385
0.00127385
0.00127385
0.00119055
0.00119055
0.00119055
0.00122844
0.00122844
0.00122844
0.00138327
0.00138327
0.00138327
0.00141777
0.00141777
0.00141777
0.00155653
0.00155653
0.00155653
2.94141e-05
2.94141e-05
2.94141e-05
2.68324e-05
2.68324e-05
2.68324e-05
2.24984e-05
2.24984e-05
2.24984e-05
2.67837e-05
2.67837e-05
2.67837e-05
2.43901e-05
2.43901e-05
2.43901e-05
2.8112e-05
2.8112e-05
2.8112e-05
2.62306e-05
2.62306e-05
2.62306e-05
2.41982e-05
2.41982e-05
2.41982e-05
2.27596e-05
2.27596e-05
2.27596e-05
0.00302572
0.00302572
0.00302572
0.00268292
0.00268292
0.00268292
0.00405959
0.00405959
0.00405959
0.00432118
0.00432118
0.00432118
0.00436354
0.00436354
0.00436354
0.0033262
0.0033262
0.0033262
0.00336476
0.00336476
0.00336476
0.00355132
0.00355132
0.00355132
0.00343075
0.00343075
0.00343075
0.00317819
0.00317819
0.00317819
0.00314179
0.00314179
0.00314179
0.00405661
0.00405661
0.00405661
0.00396952
0.00396952
0.00396952
0.00499888
0.00499888
0.00499888
0.00508738
0.00508738
0.00508738
0.00502239
0.00502239
0.00502239
0.00492899
0.00492899
0.00492899
0.00477953
0.00477953
0.00477953
0.00353171
0.00353171
0.00353171
0.00347459
0.00347459