<VTKFile type="UnstructuredGrid" version="1.0">
<UnstructuredGrid>
<Piece NumberOfPoints="10830" NumberOfCells="3610">
<Points>
<DataArray type="Float64" NumberOfComponents="3" format="ascii">
3.10314 1.29552 4.20575
3.11025 1.28841 4.18
3.11025 1.28841 4.23146
3.11025 1.28841 4.73508
3.11025 1.28841 4.786
3.10226 1.2964 4.76053
3.11025 1.28841 4.73508
3.10226 1.2964 4.76053
3.09025 1.30841 4.7351
2.21656 2.1821 5.20759
2.22913 2.16953 5.225
2.19928 2.19938 5.225
2.19928 2.19938 5.225
2.19928 2.19938 5.19484
2.21656 2.1821 5.20759
3.11025 1.28841 4.73508
3.09025 1.30841 4.7351
3.10227 1.29639 4.70968
2.20538 2.19328 4.45679
2.19928 2.19938 4.48201
2.19928 2.19938 4.43157
3.10229 1.29637 4.4569
3.11025 1.28841 4.48209
3.09026 1.3084 4.48211
3.10214 1.29652 4.35634
3.11025 1.28841 4.33128
3.11025 1.28841 4.38139
3.09026 1.3084 4.48211
3.11025 1.28841 4.48209
3.1023 1.29636 4.50731
3.11025 1.28841 4.48209
3.11025 1.28841 4.53254
3.1023 1.29636 4.50731
3.09026 1.3084 4.53255
3.1023 1.29636 4.50731
3.11025 1.28841 4.53254
3.09025 1.30841 4.68431
3.10227 1.29639 4.70968
3.08043 1.31823 4.7097
3.08043 1.31823 4.7097
3.10227 1.29639 4.70968
3.09025 1.30841 4.7351
3.08043 1.31823 4.7097
3.06939 1.32927 4.68432
3.09025 1.30841 4.68431
3.08043 1.31823 4.7097
3.09025 1.30841 4.7351
3.06938 1.32928 4.73512
3.11025 1.28841 4.58304
3.11025 1.28841 4.63362
3.10229 1.29637 4.60833
3.10229 1.29637 4.60833
3.09026 1.3084 4.63363
3.08044 1.31822 4.60834
3.11025 1.28841 4.63362
3.09026 1.3084 4.63363
3.10229 1.29637 4.60833
3.11025 1.28841 4.68429
3.10227 1.29639 4.70968
3.09025 1.30841 4.68431
3.11025 1.28841 4.73508
3.10227 1.29639 4.70968
3.11025 1.28841 4.68429
3.0901 1.30856 4.33132
3.11025 1.28841 4.33128
3.10214 1.29652 4.35634
3.09024 1.30842 4.78603
3.10226 1.2964 4.76053
3.11025 1.28841 4.786
2.80657 1.59209 4.96575
2.81699 1.58167 4.93998
2.8274 1.57126 4.96572
2.19928 2.19938 4.18
2.21889 2.17977 4.18
2.20626 2.1924 4.20471
2.25868 2.13998 4.43159
2.23814 2.16052 4.43157
2.24806 2.1506 4.40637
2.21801 2.18065 4.43156
2.23814 2.16052 4.43157
2.22704 2.17162 4.45678
2.21801 2.18065 4.43156
2.20538 2.19328 4.45679
2.19928 2.19938 4.43157
2.22704 2.17162 4.45678
2.20538 2.19328 4.45679
2.21801 2.18065 4.43156
2.20547 2.19319 4.65894
2.19928 2.19938 4.6843
2.19928 2.19938 4.63361
2.21807 2.1806 4.6843
2.22712 2.17155 4.65894
2.23821 2.16045 4.68429
2.19928 2.19938 4.6843
2.20547 2.19319 4.65894
2.21807 2.1806 4.6843
2.21807 2.1806 4.6843
2.20547 2.19319 4.65894
2.22712 2.17155 4.65894
2.21805 2.18061 4.6336
2.2382 2.16046 4.6336
2.22712 2.17155 4.65894
2.21805 2.18061 4.6336
2.20547 2.19319 4.65894
2.19928 2.19938 4.63361
2.22712 2.17155 4.65894
2.20547 2.19319 4.65894
2.21805 2.18061 4.6336
2.19928 2.19938 4.48201
2.20538 2.19328 4.45679
2.21802 2.18064 4.482
2.21802 2.18064 4.482
2.20538 2.19328 4.45679
2.22704 2.17162 4.45678
2.23821 2.16045 4.68429
2.22712 2.17155 4.65894
2.24816 2.15051 4.65893
2.22712 2.17155 4.65894
2.2382 2.16046 4.6336
2.24816 2.15051 4.65893
2.40353 1.99513 4.63367
2.41386 1.9848 4.65901
2.3932 2.00546 4.659
2.3932 2.00546 4.659
2.41386 1.9848 4.65901
2.40354 1.99512 4.68437
2.40354 1.99512 4.68437
2.41386 1.9848 4.65901
2.4242 1.97446 4.68438
2.79618 1.60248 4.94
2.81699 1.58167 4.93998
2.80657 1.59209 4.96575
3.10224 1.29642 4.40656
3.11025 1.28841 4.38139
3.11025 1.28841 4.4317
3.11025 1.28841 4.48209
3.10229 1.29637 4.4569
3.11025 1.28841 4.4317
3.02715 1.37151 4.5831
3.006 1.39266 4.58311
3.01659 1.38207 4.55785
3.09026 1.3084 4.58305
3.10229 1.29637 4.60833
3.08044 1.31822 4.60834
3.11025 1.28841 4.58304
3.10229 1.29637 4.60833
3.09026 1.3084 4.58305
3.08044 1.31822 4.60834
3.09026 1.3084 4.63363
3.0694 1.32926 4.63365
3.10228 1.29638 4.65895
3.09026 1.3084 4.63363
3.11025 1.28841 4.63362
3.11025 1.28841 4.63362
3.11025 1.28841 4.68429
3.10228 1.29638 4.65895
3.10228 1.29638 4.65895
3.11025 1.28841 4.68429
3.09025 1.30841 4.68431
3.08027 1.31839 4.35637
3.0901 1.30856 4.33132
3.10214 1.29652 4.35634
3.10224 1.29642 4.40656
3.11025 1.28841 4.4317
3.09024 1.30842 4.43174
3.09024 1.30842 4.43174
3.11025 1.28841 4.4317
3.10229 1.29637 4.4569
3.0165 1.38216 4.40661
3.00588 1.39278 4.38143
3.02702 1.37164 4.38143
3.04817 1.35049 4.38145
3.03759 1.36107 4.35626
3.05884 1.33982 4.35631
3.04817 1.35049 4.38145
3.02702 1.37164 4.38143
3.03759 1.36107 4.35626
3.08043 1.31823 4.45693
3.10229 1.29637 4.4569
3.09026 1.3084 4.48211
3.08043 1.31823 4.45693
3.09024 1.30842 4.43174
3.10229 1.29637 4.4569
3.08042 1.31824 4.76055
3.09025 1.30841 4.7351
3.10226 1.2964 4.76053
3.10226 1.2964 4.76053
3.09024 1.30842 4.78603
3.08042 1.31824 4.76055
3.06938 1.32928 4.73512
3.09025 1.30841 4.7351
3.08042 1.31824 4.76055
3.08041 1.31825 4.91405
3.05901 1.33965 4.91406
3.06938 1.32928 4.88837
3.05901 1.33966 4.86274
3.08041 1.31825 4.86272
3.06938 1.32928 4.88837
3.10225 1.29641 4.81153
3.09024 1.30842 4.78603
3.11025 1.28841 4.786
3.08041 1.31825 4.81156
3.09024 1.30842 4.78603
3.10225 1.29641 4.81153
2.84822 1.55044 5.01732
2.85863 1.54003 5.04316
2.83776 1.5609 5.0432
2.96373 1.43493 4.88843
2.97428 1.42438 4.86279
2.98483 1.41383 4.88841
2.98483 1.41383 4.88841
2.97428 1.42438 4.86279
2.9954 1.40326 4.86278
3.06938 1.32929 4.83713
3.05901 1.33965 4.81158
3.08041 1.31825 4.81156
3.06938 1.32929 4.83713
3.08041 1.31825 4.86272
3.05901 1.33966 4.86274
2.95319 1.44547 4.86281
2.97428 1.42438 4.86279
2.96373 1.43493 4.88843
2.90067 1.49799 4.63374
2.87971 1.51895 4.63374
2.89018 1.50848 4.60844
2.84833 1.55033 4.60844
2.83789 1.56077 4.63375
2.82746 1.5712 4.60844
2.85878 1.53988 4.63375
2.83789 1.56077 4.63375
2.84833 1.55033 4.60844
2.83788 1.56078 4.53265
2.85877 1.53989 4.53265
2.84833 1.55034 4.55789
2.84833 1.55034 4.55789
2.82745 1.57121 4.55789
2.83788 1.56078 4.53265
2.83788 1.56078 4.53265
2.82745 1.57121 4.55789
2.81702 1.58164 4.53264
2.84833 1.55034 4.55789
2.85877 1.53989 4.53265
2.86924 1.52943 4.5579
2.87968 1.51898 4.48223
2.89017 1.50849 4.50744
2.86922 1.52944 4.50743
2.86922 1.52944 4.50743
2.85875 1.53991 4.48223
2.87968 1.51898 4.48223
2.72357 1.6751 4.65909
2.73392 1.66474 4.63375
2.74429 1.65437 4.65909
2.73392 1.66474 4.63375
2.75466 1.644 4.63375
2.74429 1.65437 4.65909
2.83789 1.56077 4.58316
2.82745 1.57121 4.55789
2.84833 1.55034 4.55789
2.83789 1.56077 4.58316
2.84833 1.55033 4.60844
2.82746 1.5712 4.60844
2.82746 1.5712 4.60844
2.80662 1.59204 4.60844
2.81703 1.58163 4.58315
2.81703 1.58163 4.58315
2.83789 1.56077 4.58316
2.82746 1.5712 4.60844
2.82745 1.57121 4.55789
2.83789 1.56077 4.58316
2.81703 1.58163 4.58315
2.81702 1.58164 4.53264
2.7962 1.60246 4.53264
2.8066 1.59206 4.50741
2.79618 1.60248 4.48219
2.81701 1.58166 4.48221
2.8066 1.59206 4.50741
2.42419 1.97447 4.63368
2.41386 1.9848 4.65901
2.40353 1.99513 4.63367
2.40353 1.99513 4.63367
2.41385 1.98481 4.60836
2.42419 1.97447 4.63368
2.20539 2.19327 4.25487
2.19928 2.19938 4.28009
2.19928 2.19938 4.22942
2.19928 2.19938 4.18
2.20626 2.1924 4.20471
2.19928 2.19938 4.22942
2.21797 2.1807 4.3307
2.19928 2.19938 4.33067
2.20528 2.19338 4.30542
2.19928 2.19938 4.33067
2.19928 2.19938 4.28009
2.20528 2.19338 4.30542
3.11025 1.28841 4.18
3.10314 1.29552 4.20575
3.0911 1.30756 4.18
2.19928 2.19938 4.43157
2.19928 2.19938 4.38114
2.20536 2.19331 4.40636
2.20536 2.19331 4.40636
2.21801 2.18065 4.43156
2.19928 2.19938 4.43157
2.21799 2.18067 4.38113
2.20536 2.19331 4.40636
2.19928 2.19938 4.38114
2.21799 2.18067 4.38113
2.22698 2.17168 4.35594
2.23811 2.16055 4.38116
2.22702 2.17165 4.40635
2.24806 2.1506 4.40637
2.23814 2.16052 4.43157
2.23814 2.16052 4.43157
2.21801 2.18065 4.43156
2.22702 2.17165 4.40635
2.23811 2.16055 4.38116
2.24806 2.1506 4.40637
2.22702 2.17165 4.40635
2.22702 2.17165 4.40635
2.21799 2.18067 4.38113
2.23811 2.16055 4.38116
2.21801 2.18065 4.43156
2.20536 2.19331 4.40636
2.22702 2.17165 4.40635
2.20536 2.19331 4.40636
2.21799 2.18067 4.38113
2.22702 2.17165 4.40635
2.20532 2.19334 4.35591
2.19928 2.19938 4.38114
2.19928 2.19938 4.33067
2.20532 2.19334 4.35591
2.19928 2.19938 4.33067
2.21797 2.1807 4.3307
2.21797 2.1807 4.3307
2.22698 2.17168 4.35594
2.20532 2.19334 4.35591
2.20532 2.19334 4.35591
2.21799 2.18067 4.38113
2.19928 2.19938 4.38114
2.22698 2.17168 4.35594
2.21799 2.18067 4.38113
2.20532 2.19334 4.35591
2.24814 2.15052 4.60829
2.2382 2.16046 4.6336
2.2271 2.17156 4.60829
2.2382 2.16046 4.6336
2.21805 2.18061 4.6336
2.2271 2.17156 4.60829
2.2271 2.17156 4.60829
2.23819 2.16048 4.583
2.24814 2.15052 4.60829
2.24809 2.15058 4.45679
2.23814 2.16052 4.43157
2.25868 2.13998 4.43159
2.22704 2.17162 4.45678
2.23814 2.16052 4.43157
2.24809 2.15058 4.45679
2.26891 2.12975 4.4568
2.24809 2.15058 4.45679
2.25868 2.13998 4.43159
2.2587 2.13996 4.48201
2.24809 2.15058 4.45679
2.26891 2.12975 4.4568
2.2587 2.13996 4.48201
2.26891 2.12975 4.4568
2.27936 2.1193 4.48202
2.41384 1.98482 4.5578
2.42418 1.97448 4.58307
2.40352 1.99515 4.58307
2.40352 1.99515 4.58307
2.42418 1.97448 4.58307
2.41385 1.98481 4.60836
2.33114 2.06753 4.60832
2.35183 2.04683 4.60833
2.34149 2.05717 4.63363
2.34148 2.05718 4.58304
2.35183 2.04683 4.60833
2.33114 2.06753 4.60832
2.35182 2.04684 4.55777
2.34147 2.05719 4.53252
2.36216 2.03651 4.53253
2.34148 2.05718 4.58304
2.33112 2.06754 4.55776
2.35182 2.04684 4.55777
2.35182 2.04684 4.55777
2.33112 2.06754 4.55776
2.34147 2.05719 4.53252
2.35184 2.04682 4.65898
2.37253 2.02613 4.65899
2.3622 2.03646 4.68434
2.31047 2.08819 4.7097
2.32082 2.07785 4.68432
2.33117 2.06749 4.70971
2.3208 2.07786 4.63362
2.33114 2.06753 4.60832
2.34149 2.05717 4.63363
2.31043 2.08823 4.60831
2.33114 2.06753 4.60832
2.3208 2.07786 4.63362
2.23821 2.16045 4.68429
2.24816 2.15051 4.65893
2.25876 2.1399 4.68429
2.24814 2.15052 4.60829
2.23819 2.16048 4.583
2.25873 2.13993 4.583
2.25873 2.13993 4.583
2.26896 2.1297 4.60829
2.24814 2.15052 4.60829
2.30008 2.09858 4.58301
2.31043 2.08823 4.60831
2.28971 2.10895 4.6083
2.25874 2.13992 4.6336
2.24816 2.15051 4.65893
2.2382 2.16046 4.6336
2.25874 2.13992 4.6336
[...]
<PointData Scalars="View Factor" >
<DataArray type="Float64" Name="View Factor" NumberOfComponents="1" format="ascii">
3.03837e-05
3.03837e-05
3.03837e-05
2.72344e-05
2.72344e-05
2.72344e-05
2.71639e-05
2.71639e-05
2.71639e-05
4.30609e-06
4.30609e-06
4.30609e-06
3.04425e-06
3.04425e-06
3.04425e-06
2.7256e-05
2.7256e-05
2.7256e-05
2.10327e-06
2.10327e-06
2.10327e-06
2.86388e-05
2.86388e-05
2.86388e-05
2.94792e-05
2.94792e-05
2.94792e-05
2.85419e-05
2.85419e-05
2.85419e-05
2.86156e-05
2.86156e-05
2.86156e-05
2.83552e-05
2.83552e-05
2.83552e-05
2.71491e-05
2.71491e-05
2.71491e-05
2.70608e-05
2.70608e-05
2.70608e-05
2.6928e-05
2.6928e-05
2.6928e-05
2.67526e-05
2.67526e-05
2.67526e-05
2.80544e-05
2.80544e-05
2.80544e-05
2.7601e-05
2.7601e-05
2.7601e-05
2.77993e-05
2.77993e-05
2.77993e-05
2.74332e-05
2.74332e-05
2.74332e-05
2.7505e-05
2.7505e-05
2.7505e-05
2.94023e-05
2.94023e-05
2.94023e-05
2.69867e-05
2.69867e-05
2.69867e-05
6.29887e-06
6.29887e-06
6.29887e-06
3.67123e-06
3.67123e-06
3.67123e-06
9.35939e-06
9.35939e-06
9.35939e-06
9.93911e-06
9.93911e-06
9.93911e-06
2.65852e-06
2.65852e-06
2.65852e-06
3.97901e-06
3.97901e-06
3.97901e-06
1.73644e-06
1.73644e-06
1.73644e-06
9.3115e-06
9.3115e-06
9.3115e-06
2.06952e-06
2.06952e-06
2.06952e-06
3.66483e-06
3.66483e-06
3.66483e-06
9.39348e-06
9.39348e-06
9.39348e-06
2.16805e-06
2.16805e-06
2.16805e-06
3.68606e-06
3.68606e-06
3.68606e-06
2.56718e-06
2.56718e-06
2.56718e-06
3.95456e-06
3.95456e-06
3.95456e-06
9.04599e-06
9.04599e-06
9.04599e-06
9.08636e-06
9.08636e-06
9.08636e-06
7.56485e-07
7.56485e-07
7.56485e-07
7.3112e-07
7.3112e-07
7.3112e-07
7.20558e-07
7.20558e-07
7.20558e-07
6.29773e-06
6.29773e-06
6.29773e-06
2.91889e-05
2.91889e-05
2.91889e-05
2.89008e-05
2.89008e-05
2.89008e-05
2.58541e-05
2.58541e-05
2.58541e-05
2.7691e-05
2.7691e-05
2.7691e-05
2.7982e-05
2.7982e-05
2.7982e-05
2.72866e-05
2.72866e-05
2.72866e-05
2.77065e-05
2.77065e-05
2.77065e-05
2.77783e-05
2.77783e-05
2.77783e-05
2.75253e-05
2.75253e-05
2.75253e-05
2.90961e-05
2.90961e-05
2.90961e-05
2.89223e-05
2.89223e-05
2.89223e-05
2.88256e-05
2.88256e-05
2.88256e-05
2.68501e-05
2.68501e-05
2.68501e-05
2.78981e-05
2.78981e-05
2.78981e-05
2.7573e-05
2.7573e-05
2.7573e-05
2.84333e-05
2.84333e-05
2.84333e-05
2.85274e-05
2.85274e-05
2.85274e-05
2.68819e-05
2.68819e-05
2.68819e-05
2.67934e-05
2.67934e-05
2.67934e-05
2.66635e-05
2.66635e-05
2.66635e-05
2.55985e-05
2.55985e-05
2.55985e-05
2.57686e-05
2.57686e-05
2.57686e-05
2.68955e-05
2.68955e-05
2.68955e-05
2.66168e-05
2.66168e-05
2.66168e-05
1.29558e-05
1.29558e-05
1.29558e-05
2.31614e-05
2.31614e-05
2.31614e-05
2.35002e-05
2.35002e-05
2.35002e-05
2.60244e-05
2.60244e-05
2.60244e-05
2.58547e-05
2.58547e-05
2.58547e-05
2.28269e-05
2.28269e-05
2.28269e-05
2.0637e-05
2.0637e-05
2.0637e-05
9.66568e-06
9.66568e-06
9.66568e-06
1.47662e-05
1.47662e-05
1.47662e-05
1.52076e-05
1.52076e-05
1.52076e-05
9.94321e-06
9.94321e-06
9.94321e-06
1.35584e-06
1.35584e-06
1.35584e-06
1.79363e-05
1.79363e-05
1.79363e-05
2.02695e-05
2.02695e-05
2.02695e-05
1.90149e-05
1.90149e-05
1.90149e-05
9.71068e-07
9.71068e-07
9.71068e-07
1.00175e-06
1.00175e-06
1.00175e-06
9.86724e-06
9.86724e-06
9.86724e-06
9.73367e-06
9.73367e-06
9.73367e-06
1.19298e-06
1.19298e-06
1.19298e-06
1.228e-06
1.228e-06
1.228e-06
1.27228e-06
1.27228e-06
1.27228e-06
1.37331e-06
1.37331e-06
1.37331e-06
1.47825e-06
1.47825e-06
1.47825e-06
7.6859e-07
7.6859e-07
7.6859e-07
7.95785e-07
7.95785e-07
7.95785e-07
2.77181e-06
2.77181e-06
2.77181e-06
3.05833e-06
3.05833e-06
3.05833e-06
3.02544e-06
3.02544e-06
3.02544e-06
2.56305e-06
2.56305e-06
2.56305e-06
3.03153e-05
3.03153e-05
3.03153e-05
2.23816e-06
2.23816e-06
2.23816e-06
2.69958e-06
2.69958e-06
2.69958e-06
2.7989e-06
2.7989e-06
2.7989e-06
1.01477e-05
1.01477e-05
1.01477e-05
9.73599e-06
9.73599e-06
9.73599e-06
9.98919e-06
9.98919e-06
9.98919e-06
9.79132e-06
9.79132e-06
9.79132e-06
1.00956e-05
1.00956e-05
1.00956e-05
4.03755e-06
4.03755e-06
4.03755e-06
4.07054e-06
4.07054e-06
4.07054e-06
2.38825e-06
2.38825e-06
2.38825e-06
2.96233e-06
2.96233e-06
2.96233e-06
4.09324e-06
4.09324e-06
4.09324e-06
2.84714e-06
2.84714e-06
2.84714e-06
4.05749e-06
4.05749e-06
4.05749e-06
9.17303e-06
9.17303e-06
9.17303e-06
9.43484e-06
9.43484e-06
9.43484e-06
9.21492e-06
9.21492e-06
9.21492e-06
9.30871e-06
9.30871e-06
9.30871e-06
9.6323e-06
9.6323e-06
9.6323e-06
8.95102e-06
8.95102e-06
8.95102e-06
8.9051e-06
8.9051e-06
8.9051e-06
8.41262e-06
8.41262e-06
8.41262e-06
8.83126e-07
8.83126e-07
8.83126e-07
8.52002e-07
8.52002e-07
8.52002e-07
8.12282e-07
8.12282e-07
8.12282e-07
8.36072e-07
8.36072e-07
8.36072e-07
9.4328e-07
9.4328e-07
9.4328e-07
8.95302e-07
8.95302e-07
8.95302e-07
9.27788e-07
9.27788e-07
9.27788e-07
7.30784e-07
7.30784e-07
7.30784e-07
6.88935e-07
6.88935e-07
6.88935e-07
7.95515e-07
7.95515e-07
7.95515e-07
8.1207e-07
8.1207e-07
8.1207e-07
8.69202e-06
8.69202e-06
8.69202e-06
8.89417e-06
8.89417e-06
8.89417e-06
8.54083e-06
8.54083e-06
8.54083e-06
8.35836e-07
8.35836e-07
8.35836e-07
8.76882e-06
8.76882e-06
8.76882e-06
8.81052e-06
8.81052e-06
8.81052e-06
8.50169e-06
8.50169e-06
8.50169e-06
1.12447e-06
1.12447e-06
1.12447e-06
3.89675e-06
3.89675e-06
3.89675e-06
3.64609e-06
3.64609e-06
3.64609e-06
7.68293e-07
7.68293e-07
7.68293e-07
7.57117e-07
7.57117e-07
7.57117e-07
6.9234e-07
6.9234e-07
6.9234e-07
7.1943e-07
7.1943e-07
7.1943e-07
7.19432e-07
7.19432e-07
7.19432e-07
7.30864e-07
7.30864e-07
7.30864e-07
6.92201e-07
6.92201e-07
6.92201e-07
6.88463e-07
6.88463e-07
6.88463e-07
6.77228e-07
6.77228e-07
6.77228e-07
6.69158e-07
6.69158e-07
6.69158e-07
6.7025e-07
6.7025e-07
6.7025e-07
6.88547e-07
6.88547e-07
6.88547e-07
9.58836e-07
9.58836e-07
9.58836e-07
1.39723e-06
1.39723e-06
1.39723e-06
1.6399e-06
1.6399e-06
1.6399e-06
2.41288e-06
2.41288e-06
2.41288e-06
2.15894e-06
2.15894e-06
2.15894e-06
6.70207e-07
6.70207e-07
6.70207e-07
6.91988e-07
6.91988e-07
6.91988e-07
6.88193e-07
6.88193e-07
6.88193e-07
5.67564e-06
5.67564e-06
5.67564e-06
5.67395e-06
5.67395e-06
5.67395e-06
6.14376e-06
6.14376e-06
6.14376e-06
6.14065e-06
6.14065e-06
6.14065e-06
5.72026e-06
5.72026e-06
5.72026e-06
5.74854e-06
5.74854e-06
5.74854e-06
4.50136e-06
4.50136e-06
4.50136e-06
6.19387e-06
6.19387e-06
6.19387e-06
2.48377e-06
2.48377e-06
2.48377e-06
2.49953e-06
2.49953e-06
2.49953e-06
2.35997e-06
2.35997e-06
2.35997e-06
2.27313e-06
2.27313e-06
2.27313e-06
2.62008e-06
2.62008e-06
2.62008e-06
2.73278e-06
2.73278e-06
2.73278e-06
2.69913e-06
2.69913e-06
2.69913e-06
2.57822e-06
2.57822e-06
2.57822e-06
2.77816e-06
2.77816e-06
2.77816e-06
2.81411e-06
2.81411e-06
2.81411e-06
2.95163e-06
2.95163e-06
2.95163e-06
2.3416e-06
2.3416e-06
2.3416e-06
2.65378e-06
2.65378e-06
2.65378e-06
2.55743e-06
2.55743e-06
2.55743e-06
2.42994e-06
2.42994e-06
2.42994e-06
2.40993e-06
2.40993e-06
2.40993e-06
2.68441e-06
2.68441e-06
2.68441e-06
2.19548e-05
2.19548e-05
2.19548e-05
1.76749e-05
1.76749e-05
1.76749e-05
1.95982e-05
1.95982e-05
1.95982e-05
2.06664e-05
2.06664e-05
2.06664e-05
2.01469e-05
2.01469e-05
2.01469e-05
2.64165e-05
2.64165e-05
2.64165e-05
2.65459e-05
2.65459e-05
2.65459e-05
2.66315e-05
2.66315e-05
2.66315e-05
2.61109e-05
2.61109e-05
2.61109e-05
2.13321e-05
2.13321e-05
2.13321e-05
2.1253e-05
2.1253e-05
2.1253e-05
2.20509e-05
2.20509e-05
2.20509e-05
2.49511e-05
2.49511e-05
2.49511e-05
2.46943e-05
2.46943e-05
2.46943e-05
2.80758e-05
2.80758e-05
2.80758e-05
2.78756e-05
2.78756e-05
2.78756e-05
2.83335e-05
2.83335e-05
2.83335e-05
2.82604e-05
2.82604e-05
2.82604e-05
2.79666e-05
2.79666e-05
2.79666e-05
2.6284e-05
2.6284e-05
2.6284e-05
2.65048e-05
2.65048e-05
2.65048e-05
2.70179e-05
2.70179e-05
2.70179e-05
2.71956e-05
2.71956e-05
2.71956e-05
2.68098e-05
2.68098e-05
2.68098e-05
2.68973e-05
2.68973e-05
2.68973e-05
2.73282e-05
2.73282e-05
2.73282e-05
2.74184e-05
2.74184e-05
2.74184e-05
2.91131e-05
2.91131e-05
2.91131e-05
2.92101e-05
2.92101e-05
2.92101e-05
2.89996e-05
2.89996e-05
2.89996e-05
2.94979e-05
2.94979e-05
2.94979e-05
2.69449e-05
2.69449e-05
2.69449e-05
2.73228e-05
2.73228e-05
2.73228e-05
2.82953e-05
2.82953e-05
2.82953e-05
2.78477e-05
2.78477e-05
2.78477e-05
2.79835e-05
2.79835e-05
2.79835e-05
2.77573e-05
2.77573e-05
2.77573e-05
2.64888e-05
2.64888e-05
2.64888e-05
2.64006e-05
2.64006e-05
2.64006e-05
2.61093e-05
2.61093e-05
2.61093e-05
2.55142e-05
2.55142e-05
2.55142e-05
2.37577e-05
2.37577e-05
2.37577e-05
1.97364e-05
1.97364e-05
1.97364e-05
5.98875e-06
5.98875e-06
5.98875e-06
6.51145e-06
6.51145e-06
6.51145e-06
6.45495e-06
6.45495e-06
6.45495e-06
2.30824e-05
2.30824e-05
2.30824e-05
2.29251e-05
2.29251e-05
2.29251e-05
2.44204e-05
2.44204e-05
2.44204e-05
2.45029e-05
2.45029e-05
2.45029e-05
2.26887e-05
2.26887e-05
2.26887e-05
2.4356e-05
2.4356e-05
2.4356e-05
2.35968e-05
2.35968e-05
2.35968e-05
2.40244e-05
2.40244e-05
2.40244e-05
2.3616e-05
2.3616e-05
2.3616e-05
2.32729e-05
2.32729e-05
2.32729e-05
2.28381e-05
2.28381e-05
2.28381e-05
2.6227e-05
2.6227e-05
2.6227e-05
2.61426e-05
2.61426e-05
2.61426e-05
2.65301e-05
2.65301e-05
2.65301e-05
2.53921e-05
2.53921e-05
2.53921e-05
2.5092e-05
2.5092e-05
2.5092e-05
2.5477e-05
2.5477e-05
2.5477e-05
2.52604e-05
2.52604e-05
2.52604e-05
2.48418e-05
2.48418e-05
2.48418e-05
2.49266e-05
2.49266e-05
2.49266e-05
2.27663e-05
2.27663e-05
2.27663e-05
2.33218e-05
2.33218e-05
2.33218e-05
2.32362e-05
2.32362e-05
2.32362e-05
2.07897e-05
2.07897e-05
2.07897e-05
1.14407e-06
1.14407e-06
1.14407e-06
1.15403e-06
1.15403e-06
1.15403e-06
1.46857e-05
1.46857e-05
1.46857e-05
9.23045e-07
9.23045e-07
9.23045e-07
9.27481e-07
9.27481e-07
9.27481e-07
1.04921e-06
1.04921e-06
1.04921e-06
1.0814e-06
1.0814e-06
1.0814e-06
1.11666e-06
1.11666e-06
1.11666e-06
1.12602e-06
1.12602e-06
1.12602e-06
1.05482e-06
1.05482e-06
1.05482e-06
1.08921e-06
1.08921e-06
1.08921e-06
1.01252e-06
1.01252e-06
1.01252e-06
1.0079e-06
1.0079e-06
1.0079e-06
9.70688e-07
9.70688e-07
9.70688e-07
9.51155e-07
9.51155e-07
9.51155e-07
9.46959e-07
9.46959e-07
9.46959e-07
9.8313e-07
9.8313e-07
9.8313e-07
1.7585e-05
1.7585e-05
1.7585e-05
1.86573e-05
1.86573e-05
1.86573e-05
1.97486e-05
1.97486e-05
1.97486e-05
1.98202e-05
1.98202e-05
1.98202e-05
1.82616e-06
1.82616e-06
1.82616e-06
9.23028e-07
9.23028e-07
9.23028e-07
1.58329e-06
1.58329e-06
1.58329e-06
1.40714e-06
1.40714e-06
1.40714e-06
1.51472e-06
1.51472e-06
1.51472e-06
1.41744e-06
1.41744e-06
1.41744e-06
1.47636e-06
1.47636e-06
1.47636e-06
1.55074e-05
1.55074e-05
1.55074e-05
1.0192e-05
1.0192e-05
1.0192e-05
1.0103e-05
1.0103e-05
1.0103e-05
1.53049e-05
1.53049e-05
1.53049e-05
1.80493e-05
1.80493e-05
1.80493e-05
1.80835e-05
1.80835e-05
1.80835e-05
1.99656e-05
1.99656e-05
1.99656e-05
2.08702e-05
2.08702e-05
2.08702e-05
8.74768e-07
8.74768e-07
8.74768e-07
9.02116e-07
9.02116e-07
9.02116e-07
7.62456e-07
7.62456e-07
7.62456e-07
7.56785e-07
7.56785e-07
7.56785e-07
9.02592e-07
9.02592e-07
9.02592e-07
8.70479e-07
8.70479e-07
8.70479e-07
7.40693e-07
7.40693e-07
7.40693e-07
7.39977e-07
7.39977e-07
7.39977e-07
7.18176e-07
7.18176e-07
7.18176e-07
7.13617e-07
7.13617e-07
7.13617e-07
6.87917e-07
6.87917e-07
6.87917e-07
6.9197e-07
6.9197e-07
6.9197e-07
1.0344e-06
1.0344e-06
1.0344e-06
1.11011e-06
1.11011e-06
1.11011e-06
1.07478e-06
1.07478e-06
1.07478e-06
1.04198e-06
1.04198e-06
1.04198e-06
9.33676e-07
9.33676e-07
9.33676e-07
9.37068e-07
9.37068e-07
9.37068e-07
1.08084e-06
1.08084e-06
1.08084e-06
9.75314e-07
9.75314e-07
9.75314e-07
1.00691e-06
1.00691e-06
1.00691e-06
1.15027e-06
1.15027e-06
1.15027e-06
1.44183e-06
1.44183e-06
1.44183e-06
1.44028e-06
1.44028e-06
1.44028e-06
1.38166e-06
1.38166e-06
1.38166e-06
1.19838e-06
1.19838e-06
1.19838e-06
1.16395e-06
1.16395e-06
1.16395e-06
1.21121e-06
1.21121e-06
1.21121e-06
1.16892e-06
1.16892e-06
1.16892e-06
1.04974e-06
1.04974e-06
1.04974e-06
9.77067e-07
9.77067e-07
9.77067e-07
9.43595e-07
9.43595e-07
9.43595e-07
9.27895e-07
9.27895e-07
9.27895e-07
1.05015e-06
1.05015e-06
1.05015e-06
9.96563e-07
9.96563e-07
9.96563e-07
1.03722e-06
1.03722e-06
1.03722e-06
8.51277e-06
8.51277e-06
8.51277e-06
9.0559e-06
9.0559e-06
9.0559e-06
8.56099e-06
8.56099e-06
8.56099e-06
9.28382e-07
9.28382e-07
9.28382e-07
8.94872e-07
8.94872e-07
8.94872e-07
8.4687e-07
8.4687e-07
8.4687e-07
8.43176e-07
8.43176e-07
8.43176e-07
8.1664e-07
8.1664e-07
8.1664e-07
7.89274e-07
7.89274e-07
7.89274e-07
7.6118e-07
7.6118e-07
7.6118e-07
7.6166e-07
7.6166e-07
7.6166e-07
2.81891e-05
2.81891e-05
2.81891e-05
3.00068e-05
3.00068e-05
3.00068e-05
2.97759e-05
2.97759e-05
2.97759e-05
2.64553e-05
2.64553e-05
2.64553e-05
2.7699e-05
2.7699e-05
2.7699e-05
2.77918e-05
2.77918e-05
2.77918e-05
2.48497e-05
2.48497e-05
2.48497e-05
2.50301e-05
2.50301e-05
2.50301e-05
1.67077e-06
1.67077e-06
1.67077e-06
2.01823e-06
2.01823e-06
2.01823e-06
1.81194e-06
1.81194e-06
1.81194e-06
2.21365e-06
2.21365e-06
2.21365e-06
3.73094e-06
3.73094e-06
3.73094e-06
1.89818e-06
1.89818e-06
1.89818e-06
2.41657e-06
2.41657e-06
2.41657e-06
9.65159e-06
9.65159e-06
9.65159e-06
3.82294e-06
3.82294e-06
3.82294e-06
2.52592e-06
2.52592e-06
2.52592e-06
1.99978e-06
1.99978e-06
1.99978e-06
2.45197e-06
2.45197e-06
2.45197e-06
3.90035e-06
3.90035e-06
3.90035e-06
3.87226e-06
3.87226e-06
3.87226e-06
9.69676e-06
9.69676e-06
9.69676e-06
9.43988e-06
9.43988e-06
9.43988e-06
8.81244e-06
8.81244e-06
8.81244e-06
8.37099e-06
8.37099e-06
8.37099e-06
9.83599e-06
9.83599e-06
9.83599e-06
9.58587e-06
9.58587e-06
9.58587e-06
9.78851e-06
9.78851e-06
9.78851e-06
9.48894e-06
9.48894e-06
9.48894e-06
9.20477e-06
9.20477e-06
9.20477e-06
9.15919e-06
9.15919e-06
9.15919e-06
9.34752e-06
9.34752e-06
9.34752e-06
9.29887e-06
9.29887e-06
9.29887e-06
8.93708e-06
8.93708e-06
8.93708e-06
8.62663e-06
8.62663e-06
8.62663e-06
8.8279e-07
8.8279e-07
8.8279e-07
8.95003e-07
8.95003e-07
8.95003e-07
9.28081e-07
9.28081e-07
9.28081e-07
8.94859e-07
8.94859e-07
8.94859e-07
8.13024e-07
8.13024e-07
8.13024e-07
8.37145e-07
8.37145e-07
8.37145e-07
7.95691e-07
7.95691e-07
7.95691e-07
8.51618e-07
8.51618e-07
8.51618e-07
8.36854e-07
8.36854e-07
8.36854e-07
8.12808e-07
8.12808e-07
8.12808e-07
8.35995e-07
8.35995e-07
8.35995e-07
8.95347e-07
8.95347e-07
8.95347e-07
8.50108e-07
8.50108e-07
8.50108e-07
8.81877e-07
8.81877e-07
8.81877e-07
8.49881e-07
8.49881e-07
8.49881e-07
8.81677e-07
8.81677e-07
8.81677e-07
7.56703e-07
7.56703e-07
7.56703e-07
7.6861e-07
7.6861e-07
7.6861e-07
7.19492e-07
7.19492e-07
7.19492e-07
6.92614e-07
6.92614e-07
6.92614e-07
7.19613e-07
7.19613e-07
7.19613e-07
7.30673e-07
7.30673e-07
7.30673e-07
6.88734e-07
6.88734e-07
6.88734e-07
6.92447e-07
6.92447e-07
6.92447e-07
8.51747e-07
8.51747e-07
8.51747e-07
7.73679e-07
7.73679e-07
7.73679e-07
6.85494e-07
6.85494e-07
6.85494e-07
6.70817e-07
6.70817e-07
6.70817e-07
6.88234e-07
6.88234e-07
6.88234e-07
8.71708e-07
8.71708e-07
8.71708e-07
7.86434e-07
7.86434e-07
7.86434e-07
6.92793e-07
6.92793e-07
6.92793e-07
8.16772e-06
8.16772e-06
8.16772e-06
6.20096e-06
6.20096e-06
6.20096e-06
8.12793e-06
8.12793e-06
8.12793e-06
7.48176e-06
7.48176e-06
7.48176e-06
8.37386e-06
8.37386e-06
8.37386e-06
8.41339e-06
8.41339e-06
8.41339e-06
7.36507e-06
7.36507e-06
7.36507e-06
8.01288e-06
8.01288e-06
8.01288e-06
7.44558e-06
7.44558e-06
7.44558e-06
8.05121e-06
8.05121e-06
8.05121e-06
1.1599e-06
1.1599e-06
1.1599e-06
5.84448e-06
5.84448e-06
5.84448e-06
1.3402e-06
1.3402e-06
1.3402e-06
7.14961e-06
7.14961e-06
7.14961e-06
7.86271e-06
7.86271e-06
7.86271e-06
5.99574e-06
5.99574e-06
5.99574e-06
1.21955e-06
1.21955e-06
1.21955e-06
1.29997e-06
1.29997e-06
1.29997e-06
1.74543e-06
1.74543e-06
1.74543e-06
1.96351e-06
1.96351e-06
1.96351e-06
1.69446e-06
1.69446e-06
1.69446e-06
3.22068e-06
3.22068e-06
3.22068e-06
9.00663e-06
9.00663e-06
9.00663e-06
7.88387e-06
7.88387e-06
7.88387e-06
5.2559e-06
5.2559e-06
5.2559e-06
5.25605e-06
5.25605e-06
5.25605e-06
7.08721e-06
7.08721e-06
7.08721e-06
4.43455e-06
4.43455e-06
4.43455e-06
4.51521e-06
4.51521e-06
4.51521e-06
4.62175e-06
4.62175e-06
4.62175e-06
6.39657e-06
6.39657e-06
6.39657e-06
5.04548e-06
5.04548e-06
5.04548e-06
6.60559e-06
6.60559e-06
6.60559e-06
1.02593e-05
1.02593e-05
1.02593e-05
1.01313e-05
1.01313e-05
1.01313e-05
7.56926e-07
7.56926e-07
7.56926e-07
7.6806e-07
7.6806e-07
7.6806e-07
7.95714e-07
7.95714e-07
7.95714e-07
8.12562e-07
8.12562e-07
8.12562e-07
7.95556e-07
7.95556e-07
7.95556e-07
7.68811e-07
7.68811e-07
7.68811e-07
6.79979e-07
6.79979e-07
6.79979e-07
6.82728e-07
6.82728e-07
6.82728e-07
6.69698e-07
6.69698e-07
6.69698e-07
7.48634e-07
7.48634e-07
7.48634e-07
9.82808e-07
9.82808e-07
9.82808e-07
6.49713e-07
6.49713e-07
6.49713e-07
6.38151e-07
6.38151e-07
6.38151e-07
7.33891e-07
7.33891e-07
7.33891e-07
1.44245e-06
1.44245e-06
1.44245e-06
1.06103e-06
1.06103e-06
1.06103e-06
1.09987e-06
1.09987e-06
1.09987e-06
9.25036e-07
9.25036e-07
9.25036e-07
6.74559e-07
6.74559e-07
6.74559e-07
7.24473e-07
7.24473e-07
7.24473e-07
7.11862e-07
7.11862e-07
7.11862e-07
7.53427e-07
7.53427e-07
7.53427e-07
6.88025e-07
6.88025e-07
6.88025e-07
6.69834e-07
6.69834e-07
6.69834e-07
6.69411e-07
6.69411e-07
6.69411e-07
6.71887e-07
6.71887e-07
6.71887e-07
5.15132e-06
5.15132e-06
5.15132e-06
4.86013e-06
4.86013e-06
4.86013e-06
5.28828e-06
5.28828e-06
5.28828e-06
5.40206e-06
5.40206e-06
5.40206e-06
5.83156e-06
5.83156e-06
5.83156e-06
5.87783e-06
5.87783e-06
5.87783e-06
5.54869e-06
5.54869e-06
5.54869e-06
5.82771e-06
5.82771e-06
5.82771e-06
5.98877e-06
5.98877e-06
5.98877e-06
5.98813e-06
5.98813e-06
5.98813e-06
3.7746e-06
3.7746e-06
3.7746e-06
4.7328e-06
4.7328e-06
4.7328e-06
5.28538e-06
5.28538e-06
5.28538e-06
4.60578e-06
4.60578e-06
4.60578e-06
4.38213e-06
4.38213e-06
4.38213e-06
5.14337e-06
5.14337e-06
5.14337e-06
5.45731e-06
5.45731e-06
5.45731e-06
3.53524e-06
3.53524e-06
3.53524e-06
3.87716e-06
3.87716e-06
3.87716e-06
2.84142e-06
2.84142e-06
2.84142e-06
2.50004e-06
2.50004e-06
2.50004e-06
5.60598e-06
5.60598e-06
5.60598e-06
6.06156e-06
6.06156e-06
6.06156e-06
6.03013e-06
6.03013e-06
6.03013e-06
5.90527e-06
5.90527e-06
5.90527e-06
4.86002e-06
4.86002e-06
4.86002e-06
5.4273e-06
5.4273e-06
5.4273e-06
5.75472e-06
5.75472e-06
5.75472e-06
6.35277e-06
6.35277e-06
6.35277e-06
6.21862e-06
6.21862e-06
6.21862e-06
6.37006e-06
6.37006e-06
6.37006e-06
6.05273e-06
6.05273e-06
6.05273e-06
7.72779e-07
7.72779e-07
7.72779e-07
9.10707e-07
9.10707e-07
9.10707e-07
2.43393e-06
2.43393e-06
2.43393e-06
1.54204e-06
1.54204e-06
1.54204e-06
1.10794e-06
1.10794e-06
1.10794e-06
1.50085e-06
1.50085e-06
1.50085e-06
1.77788e-06
1.77788e-06
1.77788e-06
9.35817e-07
9.35817e-07
9.35817e-07
1.07857e-06
1.07857e-06
1.07857e-06
3.84802e-06
3.84802e-06
3.84802e-06
3.55239e-06
3.55239e-06
3.55239e-06
3.51286e-06
3.51286e-06
3.51286e-06
2.26292e-06
2.26292e-06
2.26292e-06
2.65172e-06
2.65172e-06
2.65172e-06
2.80993e-06
2.80993e-06
2.80993e-06
2.78136e-06
2.78136e-06
2.78136e-06
4.99366e-06
4.99366e-06
4.99366e-06
4.76949e-06
4.76949e-06
4.76949e-06
2.79402e-06
2.79402e-06
2.79402e-06
2.49458e-06
2.49458e-06
2.49458e-06
2.27407e-06
2.27407e-06
2.27407e-06
3.39634e-06
3.39634e-06
3.39634e-06
2.94261e-06
2.94261e-06
2.94261e-06
3.83367e-06
3.83367e-06
3.83367e-06
3.12267e-06
3.12267e-06
3.12267e-06
1.58577e-06
1.58577e-06
1.58577e-06
4.02569e-06
4.02569e-06
4.02569e-06
4.90613e-06
4.90613e-06
4.90613e-06
5.05262e-06
5.05262e-06
5.05262e-06
4.97048e-06
4.97048e-06
4.97048e-06
5.09253e-06
5.09253e-06
5.09253e-06
3.5991e-06
3.5991e-06
3.5991e-06
3.06168e-06
3.06168e-06
3.06168e-06
2.98464e-06
2.98464e-06
2.98464e-06
2.89733e-06
2.89733e-06
2.89733e-06
2.86662e-06
2.86662e-06
2.86662e-06
4.32559e-06
4.32559e-06
4.32559e-06
4.6714e-06
4.6714e-06
4.6714e-06
4.58652e-06
4.58652e-06
4.58652e-06
3.8913e-06
3.8913e-06
3.8913e-06
3.71648e-06
3.71648e-06
3.71648e-06
3.77016e-06
3.77016e-06
3.77016e-06
4.12538e-06
4.12538e-06
4.12538e-06
5.51997e-06
5.51997e-06
5.51997e-06
5.25523e-06
5.25523e-06
5.25523e-06
2.75328e-06
2.75328e-06
2.75328e-06
2.78092e-06
2.78092e-06
2.78092e-06
2.63137e-06
2.63137e-06
2.63137e-06
2.47845e-06
2.47845e-06
2.47845e-06
2.49987e-06
2.49987e-06
2.49987e-06
2.61572e-06
2.61572e-06
2.61572e-06
2.71055e-06
2.71055e-06
2.71055e-06
2.85324e-06
2.85324e-06
2.85324e-06
2.88059e-06
2.88059e-06
2.88059e-06
1.65775e-05
1.65775e-05