<VTKFile type="UnstructuredGrid" version="1.0">
<UnstructuredGrid>
<Piece NumberOfPoints="10830" NumberOfCells="3610">
<Points>
<DataArray type="Float64" NumberOfComponents="3" format="ascii">
3.10314 1.29552 1.07075
3.11025 1.28841 1.045
3.11025 1.28841 1.09646
3.11025 1.28841 1.60008
3.11025 1.28841 1.651
3.10226 1.2964 1.62553
3.11025 1.28841 1.60008
3.10226 1.2964 1.62553
3.09025 1.30841 1.6001
2.21656 2.1821 2.07259
2.22913 2.16953 2.09
2.19928 2.19938 2.09
2.19928 2.19938 2.09
2.19928 2.19938 2.05984
2.21656 2.1821 2.07259
3.11025 1.28841 1.60008
3.09025 1.30841 1.6001
3.10227 1.29639 1.57468
2.20538 2.19328 1.32179
2.19928 2.19938 1.34701
2.19928 2.19938 1.29657
3.10229 1.29637 1.3219
3.11025 1.28841 1.34709
3.09026 1.3084 1.34711
3.10214 1.29652 1.22134
3.11025 1.28841 1.19628
3.11025 1.28841 1.24639
3.09026 1.3084 1.34711
3.11025 1.28841 1.34709
3.1023 1.29636 1.37231
3.11025 1.28841 1.34709
3.11025 1.28841 1.39754
3.1023 1.29636 1.37231
3.09026 1.3084 1.39755
3.1023 1.29636 1.37231
3.11025 1.28841 1.39754
3.09025 1.30841 1.54931
3.10227 1.29639 1.57468
3.08043 1.31823 1.5747
3.08043 1.31823 1.5747
3.10227 1.29639 1.57468
3.09025 1.30841 1.6001
3.08043 1.31823 1.5747
3.06939 1.32927 1.54932
3.09025 1.30841 1.54931
3.08043 1.31823 1.5747
3.09025 1.30841 1.6001
3.06938 1.32928 1.60012
3.11025 1.28841 1.44804
3.11025 1.28841 1.49862
3.10229 1.29637 1.47333
3.10229 1.29637 1.47333
3.09026 1.3084 1.49863
3.08044 1.31822 1.47334
3.11025 1.28841 1.49862
3.09026 1.3084 1.49863
3.10229 1.29637 1.47333
3.11025 1.28841 1.54929
3.10227 1.29639 1.57468
3.09025 1.30841 1.54931
3.11025 1.28841 1.60008
3.10227 1.29639 1.57468
3.11025 1.28841 1.54929
3.0901 1.30856 1.19632
3.11025 1.28841 1.19628
3.10214 1.29652 1.22134
3.09024 1.30842 1.65102
3.10226 1.2964 1.62553
3.11025 1.28841 1.651
2.80657 1.59209 1.83075
2.81699 1.58167 1.80498
2.8274 1.57126 1.83072
2.19928 2.19938 1.045
2.21889 2.17977 1.045
2.20626 2.1924 1.06971
2.25868 2.13998 1.29659
2.23814 2.16052 1.29657
2.24806 2.1506 1.27137
2.21801 2.18065 1.29656
2.23814 2.16052 1.29657
2.22704 2.17162 1.32178
2.21801 2.18065 1.29656
2.20538 2.19328 1.32179
2.19928 2.19938 1.29657
2.22704 2.17162 1.32178
2.20538 2.19328 1.32179
2.21801 2.18065 1.29656
2.20547 2.19319 1.52394
2.19928 2.19938 1.5493
2.19928 2.19938 1.49861
2.21807 2.1806 1.5493
2.22712 2.17155 1.52393
2.23821 2.16045 1.54929
2.19928 2.19938 1.5493
2.20547 2.19319 1.52394
2.21807 2.1806 1.5493
2.21807 2.1806 1.5493
2.20547 2.19319 1.52394
2.22712 2.17155 1.52393
2.21805 2.18061 1.4986
2.2382 2.16046 1.4986
2.22712 2.17155 1.52393
2.21805 2.18061 1.4986
2.20547 2.19319 1.52394
2.19928 2.19938 1.49861
2.22712 2.17155 1.52393
2.20547 2.19319 1.52394
2.21805 2.18061 1.4986
2.19928 2.19938 1.34701
2.20538 2.19328 1.32179
2.21802 2.18064 1.347
2.21802 2.18064 1.347
2.20538 2.19328 1.32179
2.22704 2.17162 1.32178
2.23821 2.16045 1.54929
2.22712 2.17155 1.52393
2.24816 2.15051 1.52393
2.22712 2.17155 1.52393
2.2382 2.16046 1.4986
2.24816 2.15051 1.52393
2.40353 1.99513 1.49867
2.41386 1.9848 1.52401
2.3932 2.00546 1.524
2.3932 2.00546 1.524
2.41386 1.9848 1.52401
2.40354 1.99512 1.54937
2.40354 1.99512 1.54937
2.41386 1.9848 1.52401
2.4242 1.97446 1.54938
2.79618 1.60248 1.805
2.81699 1.58167 1.80498
2.80657 1.59209 1.83075
3.10224 1.29642 1.27156
3.11025 1.28841 1.24639
3.11025 1.28841 1.2967
3.11025 1.28841 1.34709
3.10229 1.29637 1.3219
3.11025 1.28841 1.2967
3.02715 1.37151 1.4481
3.006 1.39266 1.44811
3.01659 1.38207 1.42285
3.09026 1.3084 1.44805
3.10229 1.29637 1.47333
3.08044 1.31822 1.47334
3.11025 1.28841 1.44804
3.10229 1.29637 1.47333
3.09026 1.3084 1.44805
3.08044 1.31822 1.47334
3.09026 1.3084 1.49863
3.0694 1.32926 1.49865
3.10228 1.29638 1.52395
3.09026 1.3084 1.49863
3.11025 1.28841 1.49862
3.11025 1.28841 1.49862
3.11025 1.28841 1.54929
3.10228 1.29638 1.52395
3.10228 1.29638 1.52395
3.11025 1.28841 1.54929
3.09025 1.30841 1.54931
3.08027 1.31839 1.22137
3.0901 1.30856 1.19632
3.10214 1.29652 1.22134
3.10224 1.29642 1.27156
3.11025 1.28841 1.2967
3.09024 1.30842 1.29674
3.09024 1.30842 1.29674
3.11025 1.28841 1.2967
3.10229 1.29637 1.3219
3.0165 1.38216 1.27161
3.00588 1.39278 1.24643
3.02702 1.37164 1.24643
3.04817 1.35049 1.24645
3.03759 1.36107 1.22126
3.05884 1.33982 1.22131
3.04817 1.35049 1.24645
3.02702 1.37164 1.24643
3.03759 1.36107 1.22126
3.08043 1.31823 1.32193
3.10229 1.29637 1.3219
3.09026 1.3084 1.34711
3.08043 1.31823 1.32193
3.09024 1.30842 1.29674
3.10229 1.29637 1.3219
3.08042 1.31824 1.62555
3.09025 1.30841 1.6001
3.10226 1.2964 1.62553
3.10226 1.2964 1.62553
3.09024 1.30842 1.65102
3.08042 1.31824 1.62555
3.06938 1.32928 1.60012
3.09025 1.30841 1.6001
3.08042 1.31824 1.62555
3.08041 1.31825 1.77905
3.05901 1.33965 1.77906
3.06938 1.32928 1.75337
3.05901 1.33966 1.72774
3.08041 1.31825 1.72772
3.06938 1.32928 1.75337
3.10225 1.29641 1.67653
3.09024 1.30842 1.65102
3.11025 1.28841 1.651
3.08041 1.31825 1.67656
3.09024 1.30842 1.65102
3.10225 1.29641 1.67653
2.84822 1.55044 1.88232
2.85863 1.54003 1.90816
2.83776 1.5609 1.9082
2.96373 1.43493 1.75343
2.97428 1.42438 1.72779
2.98483 1.41383 1.75341
2.98483 1.41383 1.75341
2.97428 1.42438 1.72779
2.9954 1.40326 1.72778
3.06938 1.32929 1.70213
3.05901 1.33965 1.67658
3.08041 1.31825 1.67656
3.06938 1.32929 1.70213
3.08041 1.31825 1.72772
3.05901 1.33966 1.72774
2.95319 1.44547 1.72781
2.97428 1.42438 1.72779
2.96373 1.43493 1.75343
2.90067 1.49799 1.49874
2.87971 1.51895 1.49874
2.89018 1.50848 1.47344
2.84833 1.55033 1.47344
2.83789 1.56077 1.49875
2.82746 1.5712 1.47344
2.85878 1.53988 1.49875
2.83789 1.56077 1.49875
2.84833 1.55033 1.47344
2.83788 1.56078 1.39765
2.85877 1.53989 1.39765
2.84833 1.55034 1.42289
2.84833 1.55034 1.42289
2.82745 1.57121 1.42289
2.83788 1.56078 1.39765
2.83788 1.56078 1.39765
2.82745 1.57121 1.42289
2.81702 1.58164 1.39764
2.84833 1.55034 1.42289
2.85877 1.53989 1.39765
2.86924 1.52943 1.4229
2.87968 1.51898 1.34723
2.89017 1.50849 1.37244
2.86922 1.52944 1.37243
2.86922 1.52944 1.37243
2.85875 1.53991 1.34723
2.87968 1.51898 1.34723
2.72357 1.6751 1.52409
2.73392 1.66474 1.49875
2.74429 1.65437 1.52409
2.73392 1.66474 1.49875
2.75466 1.644 1.49875
2.74429 1.65437 1.52409
2.83789 1.56077 1.44816
2.82745 1.57121 1.42289
2.84833 1.55034 1.42289
2.83789 1.56077 1.44816
2.84833 1.55033 1.47344
2.82746 1.5712 1.47344
2.82746 1.5712 1.47344
2.80662 1.59204 1.47344
2.81703 1.58163 1.44815
2.81703 1.58163 1.44815
2.83789 1.56077 1.44816
2.82746 1.5712 1.47344
2.82745 1.57121 1.42289
2.83789 1.56077 1.44816
2.81703 1.58163 1.44815
2.81702 1.58164 1.39764
2.7962 1.60246 1.39764
2.8066 1.59206 1.37241
2.79618 1.60248 1.34719
2.81701 1.58166 1.34721
2.8066 1.59206 1.37241
2.42419 1.97447 1.49868
2.41386 1.9848 1.52401
2.40353 1.99513 1.49867
2.40353 1.99513 1.49867
2.41385 1.98481 1.47336
2.42419 1.97447 1.49868
2.20539 2.19327 1.11987
2.19928 2.19938 1.14509
2.19928 2.19938 1.09442
2.19928 2.19938 1.045
2.20626 2.1924 1.06971
2.19928 2.19938 1.09442
2.21797 2.1807 1.1957
2.19928 2.19938 1.19567
2.20528 2.19338 1.17042
2.19928 2.19938 1.19567
2.19928 2.19938 1.14509
2.20528 2.19338 1.17042
3.11025 1.28841 1.045
3.10314 1.29552 1.07075
3.0911 1.30756 1.045
2.19928 2.19938 1.29657
2.19928 2.19938 1.24614
2.20536 2.19331 1.27136
2.20536 2.19331 1.27136
2.21801 2.18065 1.29656
2.19928 2.19938 1.29657
2.21799 2.18067 1.24613
2.20536 2.19331 1.27136
2.19928 2.19938 1.24614
2.21799 2.18067 1.24613
2.22698 2.17168 1.22094
2.23811 2.16055 1.24616
2.22702 2.17165 1.27135
2.24806 2.1506 1.27137
2.23814 2.16052 1.29657
2.23814 2.16052 1.29657
2.21801 2.18065 1.29656
2.22702 2.17165 1.27135
2.23811 2.16055 1.24616
2.24806 2.1506 1.27137
2.22702 2.17165 1.27135
2.22702 2.17165 1.27135
2.21799 2.18067 1.24613
2.23811 2.16055 1.24616
2.21801 2.18065 1.29656
2.20536 2.19331 1.27136
2.22702 2.17165 1.27135
2.20536 2.19331 1.27136
2.21799 2.18067 1.24613
2.22702 2.17165 1.27135
2.20532 2.19334 1.22091
2.19928 2.19938 1.24614
2.19928 2.19938 1.19567
2.20532 2.19334 1.22091
2.19928 2.19938 1.19567
2.21797 2.1807 1.1957
2.21797 2.1807 1.1957
2.22698 2.17168 1.22094
2.20532 2.19334 1.22091
2.20532 2.19334 1.22091
2.21799 2.18067 1.24613
2.19928 2.19938 1.24614
2.22698 2.17168 1.22094
2.21799 2.18067 1.24613
2.20532 2.19334 1.22091
2.24814 2.15052 1.47329
2.2382 2.16046 1.4986
2.2271 2.17156 1.47329
2.2382 2.16046 1.4986
2.21805 2.18061 1.4986
2.2271 2.17156 1.47329
2.2271 2.17156 1.47329
2.23819 2.16048 1.448
2.24814 2.15052 1.47329
2.24809 2.15058 1.32179
2.23814 2.16052 1.29657
2.25868 2.13998 1.29659
2.22704 2.17162 1.32178
2.23814 2.16052 1.29657
2.24809 2.15058 1.32179
2.26891 2.12975 1.3218
2.24809 2.15058 1.32179
2.25868 2.13998 1.29659
2.2587 2.13996 1.34701
2.24809 2.15058 1.32179
2.26891 2.12975 1.3218
2.2587 2.13996 1.34701
2.26891 2.12975 1.3218
2.27936 2.1193 1.34702
2.41384 1.98482 1.4228
2.42418 1.97448 1.44807
2.40352 1.99515 1.44807
2.40352 1.99515 1.44807
2.42418 1.97448 1.44807
2.41385 1.98481 1.47336
2.33114 2.06753 1.47332
2.35183 2.04683 1.47333
2.34149 2.05717 1.49863
2.34148 2.05718 1.44804
2.35183 2.04683 1.47333
2.33114 2.06753 1.47332
2.35182 2.04684 1.42277
2.34147 2.05719 1.39752
2.36216 2.03651 1.39753
2.34148 2.05718 1.44804
2.33112 2.06754 1.42276
2.35182 2.04684 1.42277
2.35182 2.04684 1.42277
2.33112 2.06754 1.42276
2.34147 2.05719 1.39752
2.35184 2.04682 1.52398
2.37253 2.02613 1.52399
2.3622 2.03646 1.54934
2.31047 2.08819 1.5747
2.32082 2.07785 1.54932
2.33117 2.06749 1.57471
2.3208 2.07786 1.49862
2.33114 2.06753 1.47332
2.34149 2.05717 1.49863
2.31043 2.08823 1.47331
2.33114 2.06753 1.47332
2.3208 2.07786 1.49862
2.23821 2.16045 1.54929
2.24816 2.15051 1.52393
2.25876 2.1399 1.54929
2.24814 2.15052 1.47329
2.23819 2.16048 1.448
2.25873 2.13993 1.448
2.25873 2.13993 1.448
2.26896 2.1297 1.47329
2.24814 2.15052 1.47329
2.30008 2.09858 1.44801
2.31043 2.08823 1.47331
2.28971 2.10895 1.4733
2.25874 2.13992 1.4986
2.24816 2.15051 1.52393
2.2382 2.16046 1.4986
2.25874 2.13992 1.4986
[...]
<PointData Scalars="View Factor" >
<DataArray type="Float64" Name="View Factor" NumberOfComponents="1" format="ascii">
0.000101399
0.000101399
0.000101399
8.75702e-05
8.75702e-05
8.75702e-05
8.7438e-05
8.7438e-05
8.7438e-05
9.94466e-06
9.94466e-06
9.94466e-06
7.41782e-06
7.41782e-06
7.41782e-06
8.78295e-05
8.78295e-05
8.78295e-05
7.13138e-06
7.13138e-06
7.13138e-06
9.38422e-05
9.38422e-05
9.38422e-05
9.73693e-05
9.73693e-05
9.73693e-05
9.34215e-05
9.34215e-05
9.34215e-05
9.35598e-05
9.35598e-05
9.35598e-05
9.26012e-05
9.26012e-05
9.26012e-05
8.76277e-05
8.76277e-05
8.76277e-05
8.72454e-05
8.72454e-05
8.72454e-05
8.69583e-05
8.69583e-05
8.69583e-05
8.61998e-05
8.61998e-05
8.61998e-05
9.11112e-05
9.11112e-05
9.11112e-05
8.95818e-05
8.95818e-05
8.95818e-05
9.01792e-05
9.01792e-05
9.01792e-05
8.85987e-05
8.85987e-05
8.85987e-05
8.87339e-05
8.87339e-05
8.87339e-05
9.72229e-05
9.72229e-05
9.72229e-05
8.66752e-05
8.66752e-05
8.66752e-05
1.45729e-05
1.45729e-05
1.45729e-05
1.25705e-05
1.25705e-05
1.25705e-05
3.24197e-05
3.24197e-05
3.24197e-05
3.3825e-05
3.3825e-05
3.3825e-05
8.20991e-06
8.20991e-06
8.20991e-06
1.45793e-05
1.45793e-05
1.45793e-05
1.6635e-05
1.6635e-05
1.6635e-05
3.54132e-05
3.54132e-05
3.54132e-05
2.02457e-05
2.02457e-05
2.02457e-05
2.5233e-05
2.5233e-05
2.5233e-05
3.38591e-05
3.38591e-05
3.38591e-05
1.60998e-05
1.60998e-05
1.60998e-05
2.32037e-05
2.32037e-05
2.32037e-05
7.95387e-06
7.95387e-06
7.95387e-06
1.4421e-05
1.4421e-05
1.4421e-05
3.44123e-05
3.44123e-05
3.44123e-05
3.36111e-05
3.36111e-05
3.36111e-05
1.35521e-05
1.35521e-05
1.35521e-05
1.55528e-05
1.55528e-05
1.55528e-05
1.64334e-05
1.64334e-05
1.64334e-05
1.48252e-05
1.48252e-05
1.48252e-05
9.60826e-05
9.60826e-05
9.60826e-05
9.48121e-05
9.48121e-05
9.48121e-05
8.4539e-05
8.4539e-05
8.4539e-05
8.9975e-05
8.9975e-05
8.9975e-05
9.09752e-05
9.09752e-05
9.09752e-05
8.85074e-05
8.85074e-05
8.85074e-05
8.97791e-05
8.97791e-05
8.97791e-05
8.9914e-05
8.9914e-05
8.9914e-05
8.89936e-05
8.89936e-05
8.89936e-05
9.61501e-05
9.61501e-05
9.61501e-05
9.50944e-05
9.50944e-05
9.50944e-05
9.46704e-05
9.46704e-05
9.46704e-05
8.87501e-05
8.87501e-05
8.87501e-05
9.20677e-05
9.20677e-05
9.20677e-05
9.09581e-05
9.09581e-05
9.09581e-05
9.32182e-05
9.32182e-05
9.32182e-05
9.36323e-05
9.36323e-05
9.36323e-05
8.64781e-05
8.64781e-05
8.64781e-05
8.60985e-05
8.60985e-05
8.60985e-05
8.58187e-05
8.58187e-05
8.58187e-05
8.15316e-05
8.15316e-05
8.15316e-05
8.22528e-05
8.22528e-05
8.22528e-05
8.62891e-05
8.62891e-05
8.62891e-05
8.53431e-05
8.53431e-05
8.53431e-05
4.79573e-05
4.79573e-05
4.79573e-05
7.49329e-05
7.49329e-05
7.49329e-05
7.58907e-05
7.58907e-05
7.58907e-05
8.33437e-05
8.33437e-05
8.33437e-05
8.26175e-05
8.26175e-05
8.26175e-05
7.43055e-05
7.43055e-05
7.43055e-05
7.31867e-05
7.31867e-05
7.31867e-05
3.47646e-05
3.47646e-05
3.47646e-05
5.13135e-05
5.13135e-05
5.13135e-05
5.35455e-05
5.35455e-05
5.35455e-05
3.62578e-05
3.62578e-05
3.62578e-05
8.72314e-06
8.72314e-06
8.72314e-06
6.26053e-05
6.26053e-05
6.26053e-05
7.44852e-05
7.44852e-05
7.44852e-05
7.0768e-05
7.0768e-05
7.0768e-05
1.57356e-05
1.57356e-05
1.57356e-05
1.44884e-05
1.44884e-05
1.44884e-05
3.58643e-05
3.58643e-05
3.58643e-05
3.51246e-05
3.51246e-05
3.51246e-05
9.55799e-06
9.55799e-06
9.55799e-06
8.90183e-06
8.90183e-06
8.90183e-06
8.22668e-06
8.22668e-06
8.22668e-06
8.79349e-06
8.79349e-06
8.79349e-06
9.35244e-06
9.35244e-06
9.35244e-06
1.23702e-05
1.23702e-05
1.23702e-05
1.02588e-05
1.02588e-05
1.02588e-05
1.08189e-05
1.08189e-05
1.08189e-05
1.2089e-05
1.2089e-05
1.2089e-05
9.48762e-06
9.48762e-06
9.48762e-06
9.69869e-06
9.69869e-06
9.69869e-06
0.000101289
0.000101289
0.000101289
7.87883e-06
7.87883e-06
7.87883e-06
8.32346e-06
8.32346e-06
8.32346e-06
8.62308e-06
8.62308e-06
8.62308e-06
3.48263e-05
3.48263e-05
3.48263e-05
3.33856e-05
3.33856e-05
3.33856e-05
3.40577e-05
3.40577e-05
3.40577e-05
3.36356e-05
3.36356e-05
3.36356e-05
3.45614e-05
3.45614e-05
3.45614e-05
1.4887e-05
1.4887e-05
1.4887e-05
1.50475e-05
1.50475e-05
1.50475e-05
8.72544e-06
8.72544e-06
8.72544e-06
9.2347e-06
9.2347e-06
9.2347e-06
1.53183e-05
1.53183e-05
1.53183e-05
8.80538e-06
8.80538e-06
8.80538e-06
1.51354e-05
1.51354e-05
1.51354e-05
3.20135e-05
3.20135e-05
3.20135e-05
3.30864e-05
3.30864e-05
3.30864e-05
3.14788e-05
3.14788e-05
3.14788e-05
3.21878e-05
3.21878e-05
3.21878e-05
3.29042e-05
3.29042e-05
3.29042e-05
3.12498e-05
3.12498e-05
3.12498e-05
3.10043e-05
3.10043e-05
3.10043e-05
3.00508e-05
3.00508e-05
3.00508e-05
6.14662e-06
6.14662e-06
6.14662e-06
6.94091e-06
6.94091e-06
6.94091e-06
9.83145e-06
9.83145e-06
9.83145e-06
8.00031e-06
8.00031e-06
8.00031e-06
6.08282e-06
6.08282e-06
6.08282e-06
6.13582e-06
6.13582e-06
6.13582e-06
6.01007e-06
6.01007e-06
6.01007e-06
1.5899e-05
1.5899e-05
1.5899e-05
1.96734e-05
1.96734e-05
1.96734e-05
1.0946e-05
1.0946e-05
1.0946e-05
9.99294e-06
9.99294e-06
9.99294e-06
3.41572e-05
3.41572e-05
3.41572e-05
3.05021e-05
3.05021e-05
3.05021e-05
2.98757e-05
2.98757e-05
2.98757e-05
8.25003e-06
8.25003e-06
8.25003e-06
3.24426e-05
3.24426e-05
3.24426e-05
3.15936e-05
3.15936e-05
3.15936e-05
3.04707e-05
3.04707e-05
3.04707e-05
2.01674e-05
2.01674e-05
2.01674e-05
8.64401e-06
8.64401e-06
8.64401e-06
9.135e-06
9.135e-06
9.135e-06
1.25468e-05
1.25468e-05
1.25468e-05
1.37274e-05
1.37274e-05
1.37274e-05
1.8485e-05
1.8485e-05
1.8485e-05
1.66012e-05
1.66012e-05
1.66012e-05
1.67711e-05
1.67711e-05
1.67711e-05
1.5724e-05
1.5724e-05
1.5724e-05
1.83156e-05
1.83156e-05
1.83156e-05
1.91667e-05
1.91667e-05
1.91667e-05
2.07604e-05
2.07604e-05
2.07604e-05
2.03746e-05
2.03746e-05
2.03746e-05
2.06353e-05
2.06353e-05
2.06353e-05
1.93324e-05
1.93324e-05
1.93324e-05
2.01323e-05
2.01323e-05
2.01323e-05
1.84492e-05
1.84492e-05
1.84492e-05
1.78112e-05
1.78112e-05
1.78112e-05
1.6112e-05
1.6112e-05
1.6112e-05
1.6633e-05
1.6633e-05
1.6633e-05
2.02464e-05
2.02464e-05
2.02464e-05
1.81474e-05
1.81474e-05
1.81474e-05
1.90009e-05
1.90009e-05
1.90009e-05
1.3342e-05
1.3342e-05
1.3342e-05
1.31466e-05
1.31466e-05
1.31466e-05
1.42143e-05
1.42143e-05
1.42143e-05
1.44397e-05
1.44397e-05
1.44397e-05
1.4123e-05
1.4123e-05
1.4123e-05
1.47491e-05
1.47491e-05
1.47491e-05
1.81268e-05
1.81268e-05
1.81268e-05
1.53017e-05
1.53017e-05
1.53017e-05
6.21157e-06
6.21157e-06
6.21157e-06
6.25209e-06
6.25209e-06
6.25209e-06
5.9371e-06
5.9371e-06
5.9371e-06
5.73237e-06
5.73237e-06
5.73237e-06
6.5238e-06
6.5238e-06
6.5238e-06
6.75993e-06
6.75993e-06
6.75993e-06
6.71973e-06
6.71973e-06
6.71973e-06
6.43945e-06
6.43945e-06
6.43945e-06
6.9154e-06
6.9154e-06
6.9154e-06
6.96022e-06
6.96022e-06
6.96022e-06
7.27306e-06
7.27306e-06
7.27306e-06
5.90417e-06
5.90417e-06
5.90417e-06
6.62722e-06
6.62722e-06
6.62722e-06
6.39479e-06
6.39479e-06
6.39479e-06
6.11215e-06
6.11215e-06
6.11215e-06
6.07538e-06
6.07538e-06
6.07538e-06
6.76263e-06
6.76263e-06
6.76263e-06
6.94106e-05
6.94106e-05
6.94106e-05
5.66185e-05
5.66185e-05
5.66185e-05
6.54392e-05
6.54392e-05
6.54392e-05
6.83775e-05
6.83775e-05
6.83775e-05
6.7099e-05
6.7099e-05
6.7099e-05
8.52978e-05
8.52978e-05
8.52978e-05
8.55768e-05
8.55768e-05
8.55768e-05
8.59493e-05
8.59493e-05
8.59493e-05
8.42859e-05
8.42859e-05
8.42859e-05
7.62754e-05
7.62754e-05
7.62754e-05
7.59372e-05
7.59372e-05
7.59372e-05
7.73225e-05
7.73225e-05
7.73225e-05
8.17358e-05
8.17358e-05
8.17358e-05
8.10685e-05
8.10685e-05
8.10685e-05
9.13811e-05
9.13811e-05
9.13811e-05
9.07762e-05
9.07762e-05
9.07762e-05
9.23262e-05
9.23262e-05
9.23262e-05
9.21891e-05
9.21891e-05
9.21891e-05
9.11754e-05
9.11754e-05
9.11754e-05
8.50304e-05
8.50304e-05
8.50304e-05
8.56769e-05
8.56769e-05
8.56769e-05
8.73447e-05
8.73447e-05
8.73447e-05
8.81152e-05
8.81152e-05
8.81152e-05
8.6715e-05
8.6715e-05
8.6715e-05
8.70954e-05
8.70954e-05
8.70954e-05
8.84021e-05
8.84021e-05
8.84021e-05
8.87922e-05
8.87922e-05
8.87922e-05
9.59395e-05
9.59395e-05
9.59395e-05
9.63673e-05
9.63673e-05
9.63673e-05
9.57233e-05
9.57233e-05
9.57233e-05
9.76503e-05
9.76503e-05
9.76503e-05
8.91491e-05
8.91491e-05
8.91491e-05
9.02562e-05
9.02562e-05
9.02562e-05
9.29179e-05
9.29179e-05
9.29179e-05
9.15428e-05
9.15428e-05
9.15428e-05
9.18379e-05
9.18379e-05
9.18379e-05
9.11416e-05
9.11416e-05
9.11416e-05
8.50681e-05
8.50681e-05
8.50681e-05
8.46923e-05
8.46923e-05
8.46923e-05
8.37085e-05
8.37085e-05
8.37085e-05
8.11739e-05
8.11739e-05
8.11739e-05
7.57282e-05
7.57282e-05
7.57282e-05
6.48957e-05
6.48957e-05
6.48957e-05
1.38175e-05
1.38175e-05
1.38175e-05
1.60822e-05
1.60822e-05
1.60822e-05
1.51929e-05
1.51929e-05
1.51929e-05
7.4602e-05
7.4602e-05
7.4602e-05
7.39487e-05
7.39487e-05
7.39487e-05
7.80307e-05
7.80307e-05
7.80307e-05
7.83744e-05
7.83744e-05
7.83744e-05
7.63329e-05
7.63329e-05
7.63329e-05
8.00423e-05
8.00423e-05
8.00423e-05
7.83537e-05
7.83537e-05
7.83537e-05
7.93713e-05
7.93713e-05
7.93713e-05
7.76448e-05
7.76448e-05
7.76448e-05
7.69845e-05
7.69845e-05
7.69845e-05
7.59863e-05
7.59863e-05
7.59863e-05
8.39507e-05
8.39507e-05
8.39507e-05
8.35871e-05
8.35871e-05
8.35871e-05
8.49709e-05
8.49709e-05
8.49709e-05
8.09137e-05
8.09137e-05
8.09137e-05
7.99507e-05
7.99507e-05
7.99507e-05
8.12726e-05
8.12726e-05
8.12726e-05
8.06602e-05
8.06602e-05
8.06602e-05
7.93341e-05
7.93341e-05
7.93341e-05
7.96859e-05
7.96859e-05
7.96859e-05
7.66699e-05
7.66699e-05
7.66699e-05
7.80267e-05
7.80267e-05
7.80267e-05
7.76835e-05
7.76835e-05
7.76835e-05
7.39295e-05
7.39295e-05
7.39295e-05
1.30656e-05
1.30656e-05
1.30656e-05
1.16139e-05
1.16139e-05
1.16139e-05
5.08901e-05
5.08901e-05
5.08901e-05
2.27859e-05
2.27859e-05
2.27859e-05
2.41632e-05
2.41632e-05
2.41632e-05
1.70247e-05
1.70247e-05
1.70247e-05
1.5659e-05
1.5659e-05
1.5659e-05
1.2749e-05
1.2749e-05
1.2749e-05
1.13298e-05
1.13298e-05
1.13298e-05
1.52682e-05
1.52682e-05
1.52682e-05
1.24323e-05
1.24323e-05
1.24323e-05
1.98885e-05
1.98885e-05
1.98885e-05
2.15311e-05
2.15311e-05
2.15311e-05
2.39885e-05
2.39885e-05
2.39885e-05
2.47934e-05
2.47934e-05
2.47934e-05
2.33879e-05
2.33879e-05
2.33879e-05
2.09913e-05
2.09913e-05
2.09913e-05
6.06271e-05
6.06271e-05
6.06271e-05
6.64738e-05
6.64738e-05
6.64738e-05
7.09213e-05
7.09213e-05
7.09213e-05
7.14467e-05
7.14467e-05
7.14467e-05
2.36498e-05
2.36498e-05
2.36498e-05
2.69264e-05
2.69264e-05
2.69264e-05
2.48243e-05
2.48243e-05
2.48243e-05
9.00809e-06
9.00809e-06
9.00809e-06
9.58111e-06
9.58111e-06
9.58111e-06
9.03094e-06
9.03094e-06
9.03094e-06
9.33419e-06
9.33419e-06
9.33419e-06
5.5014e-05
5.5014e-05
5.5014e-05
3.7481e-05
3.7481e-05
3.7481e-05
3.70485e-05
3.70485e-05
3.70485e-05
5.40304e-05
5.40304e-05
5.40304e-05
6.36374e-05
6.36374e-05
6.36374e-05
6.41987e-05
6.41987e-05
6.41987e-05
7.24931e-05
7.24931e-05
7.24931e-05
7.42816e-05
7.42816e-05
7.42816e-05
8.78441e-06
8.78441e-06
8.78441e-06
7.24167e-06
7.24167e-06
7.24167e-06
1.97848e-05
1.97848e-05
1.97848e-05
1.86076e-05
1.86076e-05
1.86076e-05
9.06609e-06
9.06609e-06
9.06609e-06
9.9123e-06
9.9123e-06
9.9123e-06
2.25531e-05
2.25531e-05
2.25531e-05
2.14854e-05
2.14854e-05
2.14854e-05
2.18544e-05
2.18544e-05
2.18544e-05
2.33223e-05
2.33223e-05
2.33223e-05
2.29341e-05
2.29341e-05
2.29341e-05
2.26006e-05
2.26006e-05
2.26006e-05
1.18001e-05
1.18001e-05
1.18001e-05
8.04994e-06
8.04994e-06
8.04994e-06
8.63026e-06
8.63026e-06
8.63026e-06
1.04781e-05
1.04781e-05
1.04781e-05
1.99146e-05
1.99146e-05
1.99146e-05
1.83788e-05
1.83788e-05
1.83788e-05
7.83813e-06
7.83813e-06
7.83813e-06
1.41001e-05
1.41001e-05
1.41001e-05
1.14836e-05
1.14836e-05
1.14836e-05
7.44391e-06
7.44391e-06
7.44391e-06
9.12399e-06
9.12399e-06
9.12399e-06
9.10798e-06
9.10798e-06
9.10798e-06
8.81266e-06
8.81266e-06
8.81266e-06
8.68796e-06
8.68796e-06
8.68796e-06
9.32536e-06
9.32536e-06
9.32536e-06
7.83513e-06
7.83513e-06
7.83513e-06
8.47506e-06
8.47506e-06
8.47506e-06
6.68286e-06
6.68286e-06
6.68286e-06
6.27859e-06
6.27859e-06
6.27859e-06
6.08438e-06
6.08438e-06
6.08438e-06
6.00869e-06
6.00869e-06
6.00869e-06
6.68298e-06
6.68298e-06
6.68298e-06
6.37482e-06
6.37482e-06
6.37482e-06
6.58385e-06
6.58385e-06
6.58385e-06
3.0541e-05
3.0541e-05
3.0541e-05
3.17305e-05
3.17305e-05
3.17305e-05
3.07727e-05
3.07727e-05
3.07727e-05
6.00946e-06
6.00946e-06
6.00946e-06
6.01579e-06
6.01579e-06
6.01579e-06
8.50224e-06
8.50224e-06
8.50224e-06
9.59838e-06
9.59838e-06
9.59838e-06
1.17761e-05
1.17761e-05
1.17761e-05
1.27477e-05
1.27477e-05
1.27477e-05
1.61733e-05
1.61733e-05
1.61733e-05
1.48832e-05
1.48832e-05
1.48832e-05
9.41736e-05
9.41736e-05
9.41736e-05
0.000100194
0.000100194
0.000100194
9.94768e-05
9.94768e-05
9.94768e-05
8.95964e-05
8.95964e-05
8.95964e-05
9.23711e-05
9.23711e-05
9.23711e-05
9.2771e-05
9.2771e-05
9.2771e-05
8.37226e-05
8.37226e-05
8.37226e-05
8.44647e-05
8.44647e-05
8.44647e-05
2.17316e-05
2.17316e-05
2.17316e-05
2.20176e-05
2.20176e-05
2.20176e-05
1.00087e-05
1.00087e-05
1.00087e-05
1.3856e-05
1.3856e-05
1.3856e-05
1.87506e-05
1.87506e-05
1.87506e-05
6.16902e-06
6.16902e-06
6.16902e-06
7.53495e-06
7.53495e-06
7.53495e-06
3.24507e-05
3.24507e-05
3.24507e-05
1.37616e-05
1.37616e-05
1.37616e-05
7.84741e-06
7.84741e-06
7.84741e-06
6.47908e-06
6.47908e-06
6.47908e-06
7.63492e-06
7.63492e-06
7.63492e-06
1.41326e-05
1.41326e-05
1.41326e-05
1.39914e-05
1.39914e-05
1.39914e-05
3.26662e-05
3.26662e-05
3.26662e-05
3.19749e-05
3.19749e-05
3.19749e-05
3.05472e-05
3.05472e-05
3.05472e-05
2.9829e-05
2.9829e-05
2.9829e-05
3.33324e-05
3.33324e-05
3.33324e-05
3.2659e-05
3.2659e-05
3.2659e-05
3.31082e-05
3.31082e-05
3.31082e-05
3.22004e-05
3.22004e-05
3.22004e-05
3.16944e-05
3.16944e-05
3.16944e-05
3.14713e-05
3.14713e-05
3.14713e-05
3.15478e-05
3.15478e-05
3.15478e-05
3.1337e-05
3.1337e-05
3.1337e-05
3.04094e-05
3.04094e-05
3.04094e-05
2.96917e-05
2.96917e-05
2.96917e-05
6.20294e-06
6.20294e-06
6.20294e-06
6.07516e-06
6.07516e-06
6.07516e-06
6.01324e-06
6.01324e-06
6.01324e-06
6.04491e-06
6.04491e-06
6.04491e-06
9.36375e-06
9.36375e-06
9.36375e-06
7.64456e-06
7.64456e-06
7.64456e-06
1.04288e-05
1.04288e-05
1.04288e-05
7.04375e-06
7.04375e-06
7.04375e-06
7.76503e-06
7.76503e-06
7.76503e-06
9.51565e-06
9.51565e-06
9.51565e-06
8.12524e-06
8.12524e-06
8.12524e-06
6.16545e-06
6.16545e-06
6.16545e-06
7.35557e-06
7.35557e-06
7.35557e-06
6.37328e-06
6.37328e-06
6.37328e-06
7.46084e-06
7.46084e-06
7.46084e-06
6.43473e-06
6.43473e-06
6.43473e-06
1.40831e-05
1.40831e-05
1.40831e-05
1.30738e-05
1.30738e-05
1.30738e-05
1.69437e-05
1.69437e-05
1.69437e-05
1.88304e-05
1.88304e-05
1.88304e-05
1.7119e-05
1.7119e-05
1.7119e-05
1.60755e-05
1.60755e-05
1.60755e-05
1.95017e-05
1.95017e-05
1.95017e-05
1.86562e-05
1.86562e-05
1.86562e-05
2.10056e-05
2.10056e-05
2.10056e-05
2.12026e-05
2.12026e-05
2.12026e-05
2.10877e-05
2.10877e-05
2.10877e-05
2.07746e-05
2.07746e-05
2.07746e-05
2.12017e-05
2.12017e-05
2.12017e-05
2.10556e-05
2.10556e-05
2.10556e-05
2.12719e-05
2.12719e-05
2.12719e-05
1.90069e-05
1.90069e-05
1.90069e-05
2.87762e-05
2.87762e-05
2.87762e-05
2.28951e-05
2.28951e-05
2.28951e-05
2.88905e-05
2.88905e-05
2.88905e-05
2.81924e-05
2.81924e-05
2.81924e-05
3.31051e-05
3.31051e-05
3.31051e-05
3.22241e-05
3.22241e-05
3.22241e-05
3.06413e-05
3.06413e-05
3.06413e-05
3.10243e-05
3.10243e-05
3.10243e-05
2.88059e-05
2.88059e-05
2.88059e-05
3.00964e-05
3.00964e-05
3.00964e-05
2.01812e-05
2.01812e-05
2.01812e-05
2.85362e-05
2.85362e-05
2.85362e-05
1.96173e-05
1.96173e-05
1.96173e-05
3.36182e-05
3.36182e-05
3.36182e-05
3.45108e-05
3.45108e-05
3.45108e-05
2.77835e-05
2.77835e-05
2.77835e-05
1.96091e-05
1.96091e-05
1.96091e-05
1.96243e-05
1.96243e-05
1.96243e-05
1.83966e-05
1.83966e-05
1.83966e-05
1.77592e-05
1.77592e-05
1.77592e-05
1.83955e-05
1.83955e-05
1.83955e-05
7.77039e-06
7.77039e-06
7.77039e-06
2.73458e-05
2.73458e-05
2.73458e-05
2.39212e-05
2.39212e-05
2.39212e-05
1.10988e-05
1.10988e-05
1.10988e-05
1.2172e-05
1.2172e-05
1.2172e-05
1.65007e-05
1.65007e-05
1.65007e-05
1.05417e-05
1.05417e-05
1.05417e-05
9.74592e-06
9.74592e-06
9.74592e-06
1.08984e-05
1.08984e-05
1.08984e-05
1.42676e-05
1.42676e-05
1.42676e-05
1.1749e-05
1.1749e-05
1.1749e-05
1.49181e-05
1.49181e-05
1.49181e-05
3.07377e-05
3.07377e-05
3.07377e-05
3.04048e-05
3.04048e-05
3.04048e-05
1.39046e-05
1.39046e-05
1.39046e-05
1.272e-05
1.272e-05
1.272e-05
1.06009e-05
1.06009e-05
1.06009e-05
9.67552e-06
9.67552e-06
9.67552e-06
1.07724e-05
1.07724e-05
1.07724e-05
1.28996e-05
1.28996e-05
1.28996e-05
2.08536e-05
2.08536e-05
2.08536e-05
2.09637e-05
2.09637e-05
2.09637e-05
2.04987e-05
2.04987e-05
2.04987e-05
2.10764e-05
2.10764e-05
2.10764e-05
1.96781e-05
1.96781e-05
1.96781e-05
2.07001e-05
2.07001e-05
2.07001e-05
2.06506e-05
2.06506e-05
2.06506e-05
2.07701e-05
2.07701e-05
2.07701e-05
1.84418e-05
1.84418e-05
1.84418e-05
1.96463e-05
1.96463e-05
1.96463e-05
1.96331e-05
1.96331e-05
1.96331e-05
2.01303e-05
2.01303e-05
2.01303e-05
2.0656e-05
2.0656e-05
2.0656e-05
2.09774e-05
2.09774e-05
2.09774e-05
2.09223e-05
2.09223e-05
2.09223e-05
2.08041e-05
2.08041e-05
2.08041e-05
1.88388e-05
1.88388e-05
1.88388e-05
2.01357e-05
2.01357e-05
2.01357e-05
2.00104e-05
2.00104e-05
2.00104e-05
2.0554e-05
2.0554e-05
2.0554e-05
1.199e-05
1.199e-05
1.199e-05
1.13064e-05
1.13064e-05
1.13064e-05
1.2333e-05
1.2333e-05
1.2333e-05
1.24574e-05
1.24574e-05
1.24574e-05
1.37066e-05
1.37066e-05
1.37066e-05
1.45103e-05
1.45103e-05
1.45103e-05
1.27937e-05
1.27937e-05
1.27937e-05
1.35007e-05
1.35007e-05
1.35007e-05
1.38577e-05
1.38577e-05
1.38577e-05
1.40726e-05
1.40726e-05
1.40726e-05
1.88307e-05
1.88307e-05
1.88307e-05
1.73765e-05
1.73765e-05
1.73765e-05
1.63235e-05
1.63235e-05
1.63235e-05
1.6911e-05
1.6911e-05
1.6911e-05
1.76474e-05
1.76474e-05
1.76474e-05
1.5886e-05
1.5886e-05
1.5886e-05
1.56454e-05
1.56454e-05
1.56454e-05
1.96377e-05
1.96377e-05
1.96377e-05
1.93422e-05
1.93422e-05
1.93422e-05
2.11023e-05
2.11023e-05
2.11023e-05
2.20739e-05
2.20739e-05
2.20739e-05
1.60702e-05
1.60702e-05
1.60702e-05
1.55486e-05
1.55486e-05
1.55486e-05
1.48988e-05
1.48988e-05
1.48988e-05
1.51498e-05
1.51498e-05
1.51498e-05
1.78427e-05
1.78427e-05
1.78427e-05
1.67603e-05
1.67603e-05
1.67603e-05
1.64949e-05
1.64949e-05
1.64949e-05
1.56926e-05
1.56926e-05
1.56926e-05
1.59495e-05
1.59495e-05
1.59495e-05
1.63362e-05
1.63362e-05
1.63362e-05
1.7345e-05
1.7345e-05
1.7345e-05
2.58255e-05
2.58255e-05
2.58255e-05
2.52506e-05
2.52506e-05
2.52506e-05
2.14882e-05
2.14882e-05
2.14882e-05
2.41721e-05
2.41721e-05
2.41721e-05
2.57312e-05
2.57312e-05
2.57312e-05
2.3521e-05
2.3521e-05
2.3521e-05
2.30207e-05
2.30207e-05
2.30207e-05
2.59593e-05
2.59593e-05
2.59593e-05
2.50387e-05
2.50387e-05
2.50387e-05
1.41315e-05
1.41315e-05
1.41315e-05
1.43076e-05
1.43076e-05
1.43076e-05
8.40005e-06
8.40005e-06
8.40005e-06
5.66158e-06
5.66158e-06
5.66158e-06
6.56042e-06
6.56042e-06
6.56042e-06
6.91218e-06
6.91218e-06
6.91218e-06
6.85546e-06
6.85546e-06
6.85546e-06
1.16153e-05
1.16153e-05
1.16153e-05
1.12658e-05
1.12658e-05
1.12658e-05
1.60376e-05
1.60376e-05
1.60376e-05
1.65724e-05
1.65724e-05
1.65724e-05
5.69048e-06
5.69048e-06
5.69048e-06
8.08828e-06
8.08828e-06
8.08828e-06
1.5024e-05
1.5024e-05
1.5024e-05
8.9305e-06
8.9305e-06
8.9305e-06
7.48214e-06
7.48214e-06
7.48214e-06
2.05171e-05
2.05171e-05
2.05171e-05
1.62134e-05
1.62134e-05
1.62134e-05
1.1374e-05
1.1374e-05
1.1374e-05
1.18826e-05
1.18826e-05
1.18826e-05
1.27591e-05
1.27591e-05
1.27591e-05
1.25784e-05
1.25784e-05
1.25784e-05
8.56882e-06
8.56882e-06
8.56882e-06
7.45082e-06
7.45082e-06
7.45082e-06
7.33994e-06
7.33994e-06
7.33994e-06
7.12628e-06
7.12628e-06
7.12628e-06
7.06474e-06
7.06474e-06
7.06474e-06
1.00625e-05
1.00625e-05
1.00625e-05
1.07789e-05
1.07789e-05
1.07789e-05
1.06805e-05
1.06805e-05
1.06805e-05
9.22677e-06
9.22677e-06
9.22677e-06
8.84731e-06
8.84731e-06
8.84731e-06
8.94048e-06
8.94048e-06
8.94048e-06
9.75075e-06
9.75075e-06
9.75075e-06
1.27915e-05
1.27915e-05
1.27915e-05
1.21202e-05
1.21202e-05
1.21202e-05
6.93486e-06
6.93486e-06
6.93486e-06
6.98889e-06
6.98889e-06
6.98889e-06
6.57876e-06
6.57876e-06
6.57876e-06
6.24713e-06
6.24713e-06
6.24713e-06
6.28692e-06
6.28692e-06
6.28692e-06
6.59084e-06
6.59084e-06
6.59084e-06
6.81332e-06
6.81332e-06
6.81332e-06
7.12987e-06
7.12987e-06
7.12987e-06
7.19004e-06
7.19004e-06
7.19004e-06
5.31673e-05
5.31673e-05