<VTKFile type="UnstructuredGrid" version="1.0">
<UnstructuredGrid>
<Piece NumberOfPoints="10830" NumberOfCells="3610">
<Points>
<DataArray type="Float64" NumberOfComponents="3" format="ascii">
1.27826 3.11035 4.20575
1.28831 3.11035 4.18
1.28831 3.11035 4.23146
1.28831 3.11035 4.73508
1.28831 3.11035 4.786
1.27701 3.11035 4.76053
1.28831 3.11035 4.73508
1.27701 3.11035 4.76053
1.26002 3.11035 4.7351
0.0244388 3.11035 5.20759
0.0422213 3.11035 5.225
0 3.11035 5.225
0 3.11035 5.225
-7.89601e-14 3.11035 5.19484
0.0244388 3.11035 5.20759
1.28831 3.11035 4.73508
1.26002 3.11035 4.7351
1.27702 3.11035 4.70968
0.00863377 3.11035 4.45679
1.49469e-13 3.11035 4.48201
1.49791e-13 3.11035 4.43157
1.27705 3.11035 4.4569
1.28831 3.11035 4.48209
1.26004 3.11035 4.48211
1.27684 3.11035 4.35634
1.28831 3.11035 4.33128
1.28831 3.11035 4.38139
1.26004 3.11035 4.48211
1.28831 3.11035 4.48209
1.27707 3.11035 4.50731
1.28831 3.11035 4.48209
1.28831 3.11035 4.53254
1.27707 3.11035 4.50731
1.26005 3.11035 4.53255
1.27707 3.11035 4.50731
1.28831 3.11035 4.53254
1.26003 3.11035 4.68431
1.27702 3.11035 4.70968
1.24613 3.11035 4.7097
1.24613 3.11035 4.7097
1.27702 3.11035 4.70968
1.26002 3.11035 4.7351
1.24613 3.11035 4.7097
1.23052 3.11035 4.68432
1.26003 3.11035 4.68431
1.24613 3.11035 4.7097
1.26002 3.11035 4.7351
1.23052 3.11035 4.73512
1.28831 3.11035 4.58304
1.28831 3.11035 4.63362
1.27705 3.11035 4.60833
1.27705 3.11035 4.60833
1.26004 3.11035 4.63363
1.24616 3.11035 4.60834
1.28831 3.11035 4.63362
1.26004 3.11035 4.63363
1.27705 3.11035 4.60833
1.28831 3.11035 4.68429
1.27702 3.11035 4.70968
1.26003 3.11035 4.68431
1.28831 3.11035 4.73508
1.27702 3.11035 4.70968
1.28831 3.11035 4.68429
1.25981 3.11035 4.33132
1.28831 3.11035 4.33128
1.27684 3.11035 4.35634
1.26002 3.11035 4.78603
1.27701 3.11035 4.76053
1.28831 3.11035 4.786
0.85884 3.11035 4.96575
0.873578 3.11035 4.93998
0.888295 3.11035 4.96572
0 3.11035 4.18
0.0277369 3.11035 4.18
0.00987207 3.11035 4.20471
0.0840033 3.11035 4.43159
0.0549577 3.11035 4.43157
0.0689903 3.11035 4.40637
0.0264927 3.11035 4.43156
0.0549577 3.11035 4.43157
0.0392653 3.11035 4.45678
0.0264927 3.11035 4.43156
0.00863377 3.11035 4.45679
1.49791e-13 3.11035 4.43157
0.0392653 3.11035 4.45678
0.00863377 3.11035 4.45679
0.0264927 3.11035 4.43156
0.0087521 3.11035 4.65894
-9.63464e-14 3.11035 4.6843
1.47962e-13 3.11035 4.63361
0.0265703 3.11035 4.6843
0.0393699 3.11035 4.65894
0.0550657 3.11035 4.68429
-9.63464e-14 3.11035 4.6843
0.0087521 3.11035 4.65894
0.0265703 3.11035 4.6843
0.0265703 3.11035 4.6843
0.0087521 3.11035 4.65894
0.0393699 3.11035 4.65894
0.0265544 3.11035 4.6336
0.0550443 3.11035 4.6336
0.0393699 3.11035 4.65894
0.0265544 3.11035 4.6336
0.0087521 3.11035 4.65894
1.47962e-13 3.11035 4.63361
0.0393699 3.11035 4.65894
0.0087521 3.11035 4.65894
0.0265544 3.11035 4.6336
1.49469e-13 3.11035 4.48201
0.00863377 3.11035 4.45679
0.0265126 3.11035 4.482
0.0265126 3.11035 4.482
0.00863377 3.11035 4.45679
0.0392653 3.11035 4.45678
0.0550657 3.11035 4.68429
0.0393699 3.11035 4.65894
0.0691236 3.11035 4.65893
0.0393699 3.11035 4.65894
0.0550443 3.11035 4.6336
0.0691236 3.11035 4.65893
0.288852 3.11035 4.63367
0.303471 3.11035 4.65901
0.274248 3.11035 4.659
0.274248 3.11035 4.659
0.303471 3.11035 4.65901
0.288872 3.11035 4.68437
0.288872 3.11035 4.68437
0.303471 3.11035 4.65901
0.318088 3.11035 4.68438
0.844143 3.11035 4.94
0.873578 3.11035 4.93998
0.85884 3.11035 4.96575
1.27699 3.11035 4.40656
1.28831 3.11035 4.38139
1.28831 3.11035 4.4317
1.28831 3.11035 4.48209
1.27705 3.11035 4.4569
1.28831 3.11035 4.4317
1.17079 3.11035 4.5831
1.14088 3.11035 4.58311
1.15586 3.11035 4.55785
1.26004 3.11035 4.58305
1.27705 3.11035 4.60833
1.24616 3.11035 4.60834
1.28831 3.11035 4.58304
1.27705 3.11035 4.60833
1.26004 3.11035 4.58305
1.24616 3.11035 4.60834
1.26004 3.11035 4.63363
1.23053 3.11035 4.63365
1.27704 3.11035 4.65895
1.26004 3.11035 4.63363
1.28831 3.11035 4.63362
1.28831 3.11035 4.63362
1.28831 3.11035 4.68429
1.27704 3.11035 4.65895
1.27704 3.11035 4.65895
1.28831 3.11035 4.68429
1.26003 3.11035 4.68431
1.24591 3.11035 4.35637
1.25981 3.11035 4.33132
1.27684 3.11035 4.35634
1.27699 3.11035 4.40656
1.28831 3.11035 4.4317
1.26001 3.11035 4.43174
1.26001 3.11035 4.43174
1.28831 3.11035 4.4317
1.27705 3.11035 4.4569
1.15573 3.11035 4.40661
1.1407 3.11035 4.38143
1.1706 3.11035 4.38143
1.20051 3.11035 4.38145
1.18556 3.11035 4.35626
1.21561 3.11035 4.35631
1.20051 3.11035 4.38145
1.1706 3.11035 4.38143
1.18556 3.11035 4.35626
1.24614 3.11035 4.45693
1.27705 3.11035 4.4569
1.26004 3.11035 4.48211
1.24614 3.11035 4.45693
1.26001 3.11035 4.43174
1.27705 3.11035 4.4569
1.24612 3.11035 4.76055
1.26002 3.11035 4.7351
1.27701 3.11035 4.76053
1.27701 3.11035 4.76053
1.26002 3.11035 4.78603
1.24612 3.11035 4.76055
1.23052 3.11035 4.73512
1.26002 3.11035 4.7351
1.24612 3.11035 4.76055
1.24611 3.11035 4.91405
1.21584 3.11035 4.91406
1.23051 3.11035 4.88837
1.21584 3.11035 4.86274
1.24611 3.11035 4.86272
1.23051 3.11035 4.88837
1.27699 3.11035 4.81153
1.26002 3.11035 4.78603
1.28831 3.11035 4.786
1.24611 3.11035 4.81156
1.26002 3.11035 4.78603
1.27699 3.11035 4.81153
0.917741 3.11035 5.01732
0.932465 3.11035 5.04316
0.902954 3.11035 5.0432
1.08109 3.11035 4.88843
1.09602 3.11035 4.86279
1.11094 3.11035 4.88841
1.11094 3.11035 4.88841
1.09602 3.11035 4.86279
1.12589 3.11035 4.86278
1.2305 3.11035 4.83713
1.21584 3.11035 4.81158
1.24611 3.11035 4.81156
1.2305 3.11035 4.83713
1.24611 3.11035 4.86272
1.21584 3.11035 4.86274
1.0662 3.11035 4.86281
1.09602 3.11035 4.86279
1.08109 3.11035 4.88843
0.991917 3.11035 4.63374
0.962274 3.11035 4.63374
0.977089 3.11035 4.60844
0.917902 3.11035 4.60844
0.903138 3.11035 4.63375
0.888384 3.11035 4.60844
0.932681 3.11035 4.63375
0.903138 3.11035 4.63375
0.917902 3.11035 4.60844
0.903119 3.11035 4.53265
0.932664 3.11035 4.53265
0.917893 3.11035 4.55789
0.917893 3.11035 4.55789
0.888374 3.11035 4.55789
0.903119 3.11035 4.53265
0.903119 3.11035 4.53265
0.888374 3.11035 4.55789
0.873625 3.11035 4.53264
0.917893 3.11035 4.55789
0.932664 3.11035 4.53265
0.947463 3.11035 4.5579
0.962233 3.11035 4.48223
0.977066 3.11035 4.50744
0.947444 3.11035 4.50743
0.947444 3.11035 4.50743
0.932637 3.11035 4.48223
0.962233 3.11035 4.48223
0.741456 3.11035 4.65909
0.756104 3.11035 4.63375
0.770765 3.11035 4.65909
0.756104 3.11035 4.63375
0.785431 3.11035 4.63375
0.770765 3.11035 4.65909
0.903133 3.11035 4.58316
0.888374 3.11035 4.55789
0.917893 3.11035 4.55789
0.903133 3.11035 4.58316
0.917902 3.11035 4.60844
0.888384 3.11035 4.60844
0.888384 3.11035 4.60844
0.858913 3.11035 4.60844
0.873639 3.11035 4.58315
0.873639 3.11035 4.58315
0.903133 3.11035 4.58316
0.888384 3.11035 4.60844
0.888374 3.11035 4.55789
0.903133 3.11035 4.58316
0.873639 3.11035 4.58315
0.873625 3.11035 4.53264
0.844177 3.11035 4.53264
0.858884 3.11035 4.50741
0.844153 3.11035 4.48219
0.873599 3.11035 4.48221
0.858884 3.11035 4.50741
0.318069 3.11035 4.63368
0.303471 3.11035 4.65901
0.288852 3.11035 4.63367
0.288852 3.11035 4.63367
0.303454 3.11035 4.60836
0.318069 3.11035 4.63368
0.00864568 3.11035 4.25487
1.4958e-13 3.11035 4.28009
-9.64495e-14 3.11035 4.22942
0 3.11035 4.18
0.00987207 3.11035 4.20471
-9.64495e-14 3.11035 4.22942
0.0264295 3.11035 4.3307
1.50097e-13 3.11035 4.33067
0.00849117 3.11035 4.30542
1.50097e-13 3.11035 4.33067
1.4958e-13 3.11035 4.28009
0.00849117 3.11035 4.30542
1.28831 3.11035 4.18
1.27826 3.11035 4.20575
1.26122 3.11035 4.18
1.49791e-13 3.11035 4.43157
1.50032e-13 3.11035 4.38114
0.00859461 3.11035 4.40636
0.00859461 3.11035 4.40636
0.0264927 3.11035 4.43156
1.49791e-13 3.11035 4.43157
0.0264637 3.11035 4.38113
0.00859461 3.11035 4.40636
1.50032e-13 3.11035 4.38114
0.0264637 3.11035 4.38113
0.0391815 3.11035 4.35594
0.0549232 3.11035 4.38116
0.0392276 3.11035 4.40635
0.0689903 3.11035 4.40637
0.0549577 3.11035 4.43157
0.0549577 3.11035 4.43157
0.0264927 3.11035 4.43156
0.0392276 3.11035 4.40635
0.0549232 3.11035 4.38116
0.0689903 3.11035 4.40637
0.0392276 3.11035 4.40635
0.0392276 3.11035 4.40635
0.0264637 3.11035 4.38113
0.0549232 3.11035 4.38116
0.0264927 3.11035 4.43156
0.00859461 3.11035 4.40636
0.0392276 3.11035 4.40635
0.00859461 3.11035 4.40636
0.0264637 3.11035 4.38113
0.0392276 3.11035 4.40635
0.00854014 3.11035 4.35591
1.50032e-13 3.11035 4.38114
1.50097e-13 3.11035 4.33067
0.00854014 3.11035 4.35591
1.50097e-13 3.11035 4.33067
0.0264295 3.11035 4.3307
0.0264295 3.11035 4.3307
0.0391815 3.11035 4.35594
0.00854014 3.11035 4.35591
0.00854014 3.11035 4.35591
0.0264637 3.11035 4.38113
1.50032e-13 3.11035 4.38114
0.0391815 3.11035 4.35594
0.0264637 3.11035 4.38113
0.00854014 3.11035 4.35591
0.0690987 3.11035 4.60829
0.0550443 3.11035 4.6336
0.0393425 3.11035 4.60829
0.0550443 3.11035 4.6336
0.0265544 3.11035 4.6336
0.0393425 3.11035 4.60829
0.0393425 3.11035 4.60829
0.0550252 3.11035 4.583
0.0690987 3.11035 4.60829
0.0690242 3.11035 4.45679
0.0549577 3.11035 4.43157
0.0840033 3.11035 4.43159
0.0392653 3.11035 4.45678
0.0549577 3.11035 4.43157
0.0690242 3.11035 4.45679
0.0984777 3.11035 4.4568
0.0690242 3.11035 4.45679
0.0840033 3.11035 4.43159
0.0840313 3.11035 4.48201
0.0690242 3.11035 4.45679
0.0984777 3.11035 4.4568
0.0840313 3.11035 4.48201
0.0984777 3.11035 4.4568
0.113251 3.11035 4.48202
0.303441 3.11035 4.5578
0.318055 3.11035 4.58307
0.288836 3.11035 4.58307
0.288836 3.11035 4.58307
0.318055 3.11035 4.58307
0.303454 3.11035 4.60836
0.186476 3.11035 4.60832
0.215741 3.11035 4.60833
0.201123 3.11035 4.63363
0.201103 3.11035 4.58304
0.215741 3.11035 4.60833
0.186476 3.11035 4.60832
0.215723 3.11035 4.55777
0.201085 3.11035 4.53252
0.230345 3.11035 4.53253
0.201103 3.11035 4.58304
0.186456 3.11035 4.55776
0.215723 3.11035 4.55777
0.215723 3.11035 4.55777
0.186456 3.11035 4.55776
0.201085 3.11035 4.53252
0.215762 3.11035 4.65898
0.245012 3.11035 4.65899
0.230402 3.11035 4.68434
0.157245 3.11035 4.7097
0.171881 3.11035 4.68432
0.186525 3.11035 4.70971
0.171857 3.11035 4.63362
0.186476 3.11035 4.60832
[...]
<PointData Scalars="View Factor" >
<DataArray type="Float64" Name="View Factor" NumberOfComponents="1" format="ascii">
0.00136469
0.00136469
0.00136469
0.00184394
0.00184394
0.00184394
0.00182807
0.00182807
0.00182807
0.00155024
0.00155024
0.00155024
0.00166251
0.00166251
0.00166251
0.00181077
0.00181077
0.00181077
0.00109442
0.00109442
0.00109442
0.0015753
0.0015753
0.0015753
0.00147778
0.00147778
0.00147778
0.00158972
0.00158972
0.00158972
0.00160297
0.00160297
0.00160297
0.00161908
0.00161908
0.00161908
0.00178756
0.00178756
0.00178756
0.00180457
0.00180457
0.00180457
0.00178166
0.00178166
0.00178166
0.00181574
0.00181574
0.00181574
0.00169412
0.00169412
0.00169412
0.00170565
0.00170565
0.00170565
0.00171143
0.00171143
0.00171143
0.00177683
0.00177683
0.00177683
0.00179212
0.00179212
0.00179212
0.00146588
0.00146588
0.00146588
0.00186332
0.00186332
0.00186332
6.87456e-05
6.87456e-05
6.87456e-05
0.00090049
0.00090049
0.00090049
0.000729982
0.000729982
0.000729982
0.000891695
0.000891695
0.000891695
0.00103327
0.00103327
0.00103327
0.000973606
0.000973606
0.000973606
0.00163657
0.00163657
0.00163657
0.00167367
0.00167367
0.00167367
0.00171129
0.00171129
0.00171129
0.00163539
0.00163539
0.00163539
0.00144829
0.00144829
0.00144829
0.00152246
0.00152246
0.00152246
0.00153859
0.00153859
0.00153859
0.00105279
0.00105279
0.00105279
0.000982747
0.000982747
0.000982747
0.00158242
0.00158242
0.00158242
0.00146717
0.00146717
0.00146717
0.00109508
0.00109508
0.00109508
0.00131074
0.00131074
0.00131074
0.00143696
0.00143696
0.00143696
0
0
0
0.00151802
0.00151802
0.00151802
0.00155975
0.00155975
0.00155975
0.00154493
0.00154493
0.00154493
0.00168986
0.00168986
0.00168986
0.00167991
0.00167991
0.00167991
0.001716
0.001716
0.001716
0.00172748
0.00172748
0.00172748
0.00174222
0.00174222
0.00174222
0.00176018
0.00176018
0.00176018
0.00147419
0.00147419
0.00147419
0.00153304
0.00153304
0.00153304
0.00154696
0.00154696
0.00154696
0.00136386
0.00136386
0.00136386
0.0014948
0.0014948
0.0014948
0.00145941
0.00145941
0.00145941
0.00157008
0.00157008
0.00157008
0.00155589
0.00155589
0.00155589
0.00183922
0.00183922
0.00183922
0.00185688
0.00185688
0.00185688
0.0018331
0.0018331
0.0018331
0.00201254
0.00201254
0.00201254
0.00197343
0.00197343
0.00197343
0.00188129
0.00188129
0.00188129
0.00189289
0.00189289
0.00189289
0.000378214
0.000378214
0.000378214
0.00148467
0.00148467
0.00148467
0.00155934
0.00155934
0.00155934
0.00191667
0.00191667
0.00191667
0.00195426
0.00195426
0.00195426
0.0013923
0.0013923
0.0013923
0.00112891
0.00112891
0.00112891
0.000811101
0.000811101
0.000811101
0.000937132
0.000937132
0.000937132
0.000363914
0.000363914
0.000363914
0.000335085
0.000335085
0.000335085
0.000221766
0.000221766
0.000221766
0.00048354
0.00048354
0.00048354
0.00051478
0.00051478
0.00051478
0.000433109
0.000433109
0.000433109
0.00107754
0.00107754
0.00107754
0.00096962
0.00096962
0.00096962
0.000438366
0.000438366
0.000438366
0.000683317
0.000683317
0.000683317
0.000578117
0.000578117
0.000578117
0.000563932
0.000563932
0.000563932
0.000436986
0.000436986
0.000436986
1.14778e-05
1.14778e-05
1.14778e-05
0
0
0
0.000985559
0.000985559
0.000985559
0.000787053
0.000787053
0.000787053
0.000979401
0.000979401
0.000979401
0.000953223
0.000953223
0.000953223
0.000968373
0.000968373
0.000968373
0.00100675
0.00100675
0.00100675
0.00135351
0.00135351
0.00135351
0.0010642
0.0010642
0.0010642
0.00102367
0.00102367
0.00102367
0.00100482
0.00100482
0.00100482
0.000859286
0.000859286
0.000859286
0.000802995
0.000802995
0.000802995
0.000883451
0.000883451
0.000883451
0.00079562
0.00079562
0.00079562
0.000867248
0.000867248
0.000867248
0.000955644
0.000955644
0.000955644
0.000946817
0.000946817
0.000946817
0.001035
0.001035
0.001035
0.000977335
0.000977335
0.000977335
0.000920938
0.000920938
0.000920938
0.000995556
0.000995556
0.000995556
0.000929467
0.000929467
0.000929467
0.00124926
0.00124926
0.00124926
0.0013482
0.0013482
0.0013482
0.00116728
0.00116728
0.00116728
0.000736747
0.000736747
0.000736747
0.000818004
0.000818004
0.000818004
0.000662627
0.000662627
0.000662627
0.000668765
0.000668765
0.000668765
0.000593704
0.000593704
0.000593704
0.0003342
0.0003342
0.0003342
0.00047403
0.00047403
0.00047403
0.000756079
0.000756079
0.000756079
0.000616728
0.000616728
0.000616728
0.000120921
0.000120921
0.000120921
0.000349533
0.000349533
0.000349533
0.0002375
0.0002375
0.0002375
0.00130978
0.00130978
0.00130978
0.00177647
0.00177647
0.00177647
0.000884345
0.000884345
0.000884345
0.00084864
0.00084864
0.00084864
0.00163236
0.00163236
0.00163236
0.00106232
0.00106232
0.00106232
0.00104936
0.00104936
0.00104936
0.000820094
0.000820094
0.000820094
0.00136722
0.00136722
0.00136722
0.00124991
0.00124991
0.00124991
0.00114347
0.00114347
0.00114347
0.00135687
0.00135687
0.00135687
0.00156403
0.00156403
0.00156403
0.0015667
0.0015667
0.0015667
0.000986097
0.000986097
0.000986097
0.00109565
0.00109565
0.00109565
0.00165039
0.00165039
0.00165039
0.0014378
0.0014378
0.0014378
0.00143855
0.00143855
0.00143855
0.00131007
0.00131007
0.00131007
0.00164948
0.00164948
0.00164948
0.00175483
0.00175483
0.00175483
0.00159117
0.00159117
0.00159117
0.00164983
0.00164983
0.00164983
0.00166572
0.00166572
0.00166572
0.00175577
0.00175577
0.00175577
0.00125448
0.00125448
0.00125448
0.000982385
0.000982385
0.000982385
0.000897701
0.000897701
0.000897701
0.000536014
0.000536014
0.000536014
0.000665598
0.000665598
0.000665598
0.00164882
0.00164882
0.00164882
0.00164847
0.00164847
0.00164847
0.00175379
0.00175379
0.00175379
0
0
0
0
0
0
0
0
0
0
0
0
0
0
0
0
0
0
0
0
0
0
0
0
0
0
0
0
0
0
0
0
0
0
0
0
0
0
0
0
0
0
0
0
0
0
0
0
0
0
0
0
0
0
0
0
0
0
0
0
0
0
0
0
0
0
0
0
0
0
0
0
0
0
0
0.0019047
0.0019047
0.0019047
0.000791049
0.000791049
0.000791049
0.000918809
0.000918809
0.000918809
0.00113017
0.00113017
0.00113017
0.00103072
0.00103072
0.00103072
0.00178644
0.00178644
0.00178644
0.00180956
0.00180956
0.00180956
0.00179249
0.00179249
0.00179249
0.00179728
0.00179728
0.00179728
0.000585671
0.000585671
0.000585671
0.000591281
0.000591281
0.000591281
0.000660212
0.000660212
0.000660212
0.00156226
0.00156226
0.00156226
0.00149865
0.00149865
0.00149865
0.00166443
0.00166443
0.00166443
0.00165884
0.00165884
0.00165884
0.00164774
0.00164774
0.00164774
0.00163402
0.00163402
0.00163402
0.00164361
0.00164361
0.00164361
0.00176364
0.00176364
0.00176364
0.00176966
0.00176966
0.00176966
0.00176494
0.00176494
0.00176494
0.00173212
0.00173212
0.00173212
0.00175898
0.00175898
0.00175898
0.00174254
0.00174254
0.00174254
0.00175419
0.00175419
0.00175419
0.00173781
0.00173781
0.00173781
0.00150568
0.00150568
0.00150568
0.00149226
0.00149226
0.00149226
0.0014874
0.0014874
0.0014874
0.00145295
0.00145295
0.00145295
0.00135146
0.00135146
0.00135146
0.00140013
0.00140013
0.00140013
0.00155093
0.00155093
0.00155093
0.00154083
0.00154083
0.00154083
0.00155994
0.00155994
0.00155994
0.00155485
0.00155485
0.00155485
0.00186849
0.00186849
0.00186849
0.00188653
0.00188653
0.00188653
0.00189824
0.00189824
0.00189824
0.00203248
0.00203248
0.00203248
0.00192867
0.00192867
0.00192867
0.00109917
0.00109917
0.00109917
6.94532e-05
6.94532e-05
6.94532e-05
0.000164597
0.000164597
0.000164597
0.000166291
0.000166291
0.000166291
0.00149982
0.00149982
0.00149982
0.00153074
0.00153074
0.00153074
0.00191498
0.00191498
0.00191498
0.00189598
0.00189598
0.00189598
0.00140916
0.00140916
0.00140916
0.00148511
0.00148511
0.00148511
0.00140242
0.00140242
0.00140242
0.0014118
0.0014118
0.0014118
0.0017736
0.0017736
0.0017736
0.00173161
0.00173161
0.00173161
0.00176592
0.00176592
0.00176592
0.00192332
0.00192332
0.00192332
0.00194208
0.00194208
0.00194208
0.00191124
0.00191124
0.00191124
0.00200551
0.00200551
0.00200551
0.00201819
0.00201819
0.00201819
0.00198591
0.00198591
0.00198591
0.00197893
0.00197893
0.00197893
0.00195456
0.00195456
0.00195456
0.00193537
0.00193537
0.00193537
0.00131484
0.00131484
0.00131484
0.00125253
0.00125253
0.00125253
0.00131937
0.00131937
0.00131937
0.000922642
0.000922642
0.000922642
0.000847702
0.000847702
0.000847702
0.000716853
0.000716853
0.000716853
0.0011006
0.0011006
0.0011006
0.0016158
0.0016158
0.0016158
0.00171602
0.00171602
0.00171602
0.00107254
0.00107254
0.00107254
0.000965112
0.000965112
0.000965112
0.000771261
0.000771261
0.000771261
0.000683483
0.000683483
0.000683483
0.000966668
0.000966668
0.000966668
0.000772463
0.000772463
0.000772463
0.00130465
0.00130465
0.00130465
0.00140504
0.00140504
0.00140504
0.00161006
0.00161006
0.00161006
0.00171288
0.00171288
0.00171288
0.00161298
0.00161298
0.00161298
0.00140747
0.00140747
0.00140747
0.000914286
0.000914286
0.000914286
0.00103304
0.00103304
0.00103304
0.00101824
0.00101824
0.00101824
0.000915152
0.000915152
0.000915152
0.000879723
0.000879723
0.000879723
0.00160961
0.00160961
0.00160961
0.000956785
0.000956785
0.000956785
0.000140805
0.000140805
0.000140805
0.000127579
0.000127579
0.000127579
5.32874e-05
5.32874e-05
5.32874e-05
5.27888e-05
5.27888e-05
5.27888e-05
0.000274895
0.000274895
0.000274895
0.000197357
0.000197357
0.000197357
0.000199237
0.000199237
0.000199237
0.000289655
0.000289655
0.000289655
0.00035897
0.00035897
0.00035897
0.000355564
0.000355564
0.000355564
0.000717165
0.000717165
0.000717165
0.000829793
0.000829793
0.000829793
0.000691451
0.000691451
0.000691451
0.000546363
0.000546363
0.000546363
0.00173492
0.00173492
0.00173492
0.00163277
0.00163277
0.00163277
0.000690709
0.000690709
0.000690709
0.000780596
0.000780596
0.000780596
0.00157196
0.00157196
0.00157196
0.00163074
0.00163074
0.00163074
0.00157412
0.00157412
0.00157412
0.00146277
0.00146277
0.00146277
0.00139433
0.00139433
0.00139433
0.00146483
0.00146483
0.00146483
0.000774743
0.000774743
0.000774743
0.000467065
0.000467065
0.000467065
0.000542537
0.000542537
0.000542537
0.000686461
0.000686461
0.000686461
0.00141207
0.00141207
0.00141207
0.00131095
0.00131095
0.00131095
0.000467675
0.000467675
0.000467675
0.000971016
0.000971016
0.000971016
0.000775821
0.000775821
0.000775821
0.000329662
0.000329662
0.000329662
0
0
0
0
0
0
0
0
0
0.000465093
0.000465093
0.000465093
0.000540253
0.000540253
0.000540253
0.000328776
0.000328776
0.000328776
0.000465774
0.000465774
0.000465774
0
0
0
1.16788e-05
1.16788e-05
1.16788e-05
9.91794e-05
9.91794e-05
9.91794e-05
0.00015309
0.00015309
0.00015309
0
0
0
0
0
0
0
0
0
0.000582908
0.000582908
0.000582908
0.000650564
0.000650564
0.000650564
0.000577603
0.000577603
0.000577603
0.000152889
0.000152889
0.000152889
0.000270337
0.000270337
0.000270337
0.000692158
0.000692158
0.000692158
0.000781428
0.000781428
0.000781428
0.000978277
0.000978277
0.000978277
0.00108712
0.00108712
0.00108712
0.00142559
0.00142559
0.00142559
0.00132299
0.00132299
0.00132299
0.00124968
0.00124968
0.00124968
0.00136111
0.00136111
0.00136111
0.00135665
0.00135665
0.00135665
0.000987161
0.000987161
0.000987161
0.00125721
0.00125721
0.00125721
0.00124623
0.00124623
0.00124623
0.000979635
0.000979635
0.000979635
0.000961598
0.000961598
0.000961598
0.00183793
0.00183793
0.00183793
0.00180063
0.00180063
0.00180063
0.0013995
0.0013995
0.0013995
0.00143808
0.00143808
0.00143808
0.00135519
0.00135519
0.00135519
0.00122958
0.00122958
0.00122958
0.00113005
0.00113005
0.00113005
0.000988494
0.000988494
0.000988494
0.00109278
0.00109278
0.00109278
0.00106273
0.00106273
0.00106273
0.00112573
0.00112573
0.00112573
0.00108728
0.00108728
0.00108728
0.00100136
0.00100136
0.00100136
0.00101083
0.00101083
0.00101083
0.00093982
0.00093982
0.00093982
0.000849102
0.000849102
0.000849102
0.000681258
0.000681258
0.000681258
0.000599197
0.000599197
0.000599197
0.000908475
0.000908475
0.000908475
0.000825641
0.000825641
0.000825641
0.000917015
0.000917015
0.000917015
0.000841189
0.000841189
0.000841189
0.000750518
0.000750518
0.000750518
0.000757526
0.000757526
0.000757526
0.000942152
0.000942152
0.000942152
0.00100948
0.00100948
0.00100948
0.000977793
0.000977793
0.000977793
0.000868465
0.000868465
0.000868465
0.000334361
0.000334361
0.000334361
0.000270594
0.000270594
0.000270594
0.00015303
0.00015303
0.00015303
0.000270472
0.000270472
0.000270472
0.000696893
0.000696893
0.000696893
0.00055053
0.00055053
0.00055053
0.000787468
0.000787468
0.000787468
0.000474264
0.000474264
0.000474264
0.000550792
0.000550792
0.000550792
0.000697236
0.000697236
0.000697236
0.000720222
0.000720222
0.000720222
0.000474088
0.000474088
0.000474088
0.000597765
0.000597765
0.000597765
0.000469631
0.000469631
0.000469631
0.000710075
0.000710075
0.000710075
0.000592655
0.000592655
0.000592655
0.00113541
0.00113541
0.00113541
0.00106603
0.00106603
0.00106603
0.0014444
0.0014444
0.0014444
0.00167369
0.00167369
0.00167369
0.00147882
0.00147882
0.00147882
0.00133627
0.00133627
0.00133627
0.00176421
0.00176421
0.00176421
0.00165435
0.00165435
0.00165435
0.00148835
0.00148835
0.00148835
0.0015276
0.0015276
0.0015276
0.00162528
0.00162528
0.00162528
0.0016885
0.0016885
0.0016885
0.00165432
0.00165432
0.00165432
0.00153212
0.00153212
0.00153212
0.0015678
0.0015678
0.0015678
0.00169417
0.00169417
0.00169417
0.00084274
0.00084274
0.00084274
0.000817696
0.000817696
0.000817696
0.000938738
0.000938738
0.000938738
0.000933159
0.000933159
0.000933159
0.00152948
0.00152948
0.00152948
0.00139582
0.00139582
0.00139582
0.00132557
0.00132557
0.00132557
0.00128681
0.00128681
0.00128681
0.00103925
0.00103925
0.00103925
0.00115242
0.00115242
0.00115242
0.00141473
0.00141473
0.00141473
0.00138609
0.00138609
0.00138609
0.00131943
0.00131943
0.00131943
0.00147976
0.00147976
0.00147976
0.00146071
0.00146071
0.00146071
0.00126991
0.00126991
0.00126991
0.00117048
0.00117048
0.00117048
0.00124901
0.00124901
0.00124901
0.00110169
0.00110169
0.00110169
0.000961557
0.000961557
0.000961557
0.00101968
0.00101968
0.00101968
0.0016324
0.0016324
0.0016324
0.00139807
0.00139807
0.00139807
0.00142585
0.00142585
0.00142585
0.00146815
0.00146815
0.00146815
0.00141323
0.00141323
0.00141323
0.0013179
0.0013179
0.0013179
0.00147369
0.00147369
0.00147369
0.00151473
0.00151473
0.00151473
0.00145817
0.00145817
0.00145817
0.00135949
0.00135949
0.00135949
0.00142798
0.00142798
0.00142798
0.00134544
0.00134544
0.00134544
0.00121789
0.00121789
0.00121789
0.00123048
0.00123048
0.00123048
0.00109582
0.00109582
0.00109582
0.00098658
0.00098658
0.00098658
0.000787841
0.000787841
0.000787841
0.000697542
0.000697542
0.000697542
0.000801648
0.000801648
0.000801648
0.000998003
0.000998003
0.000998003
0.0015921
0.0015921
0.0015921
0.00159729
0.00159729
0.00159729
0.00165072
0.00165072
0.00165072
0.00148187
0.00148187
0.00148187
0.00116491
0.00116491
0.00116491
0.00147208
0.00147208
0.00147208
0.00140151
0.00140151
0.00140151
0.00140835
0.00140835
0.00140835
0.00100256
0.00100256
0.00100256
0.00116709
0.00116709
0.00116709
0.00116806
0.00116806
0.00116806
0.00125349
0.00125349
0.00125349
0.00159015
0.00159015
0.00159015
0.00148002
0.00148002
0.00148002
0.00147894
0.00147894
0.00147894
0.00140943
0.00140943
0.00140943
0.00175263
0.00175263
0.00175263
0.00164771
0.00164771
0.00164771
0.00164649
0.00164649
0.00164649
0.00158901
0.00158901
0.00158901
0
0
0
0
0
0
0
0
0
0
0
0
0
0
0
0
0
0
0
0
0
0
0
0
0
0
0
0
0
0
8.42188e-05
8.42188e-05
8.42188e-05
0
0
0
0
0
0
0
0
0
0
0
0
0
0
0
0
0
0
0.000242567
0.000242567
0.000242567
8.40437e-05
8.40437e-05
8.40437e-05
0.000525665
0.000525665
0.000525665
0.000651936
0.000651936
0.000651936
0
0
0
0
0
0
0
0
0
0
0
0
0
0
0
0
0
0
0
0
0
0
0
0
0
0
0
6.73591e-05
6.73591e-05
6.73591e-05
6.66798e-05
6.66798e-05
6.66798e-05
0.00138568
0.00138568
0.00138568
0.00123284
0.00123284
0.00123284
0.000653226
0.000653226
0.000653226
0.000958331
0.000958331
0.000958331
0.00114502
0.00114502
0.00114502
0.000960132
0.000960132
0.000960132
0.00088142
0.00088142
0.00088142
0.00123066
0.00123066
0.00123066
0.00114711
0.00114711
0.00114711
0
0
0
0
0
0
0
0
0
0
0
0
0
0
0
0
0
0
0
0
0
0
0
0
0
0
0
0.00068163
0.00068163
0.00068163
0.000741831
0.000741831
0.000741831
0
0
0
0
0
0
0.000247483
0.000247483
0.000247483
0
0
0
0
0
0
0.000887577
0.000887577
0.000887577
0
0
0
0
0
0
0
0
0
0
0
0
0
0
0
0
0
0
0
0
0
0
0
0
0
0
0
0
0
0
0
0
0
0
0
0
0
0
0
0
0
0
0
0
0
0
0
0
0
0
0
0
0
0
0
0
0
0
0
0
0
0
0
0
0
0
0
0
0
0
0
0
0
0
0
0
0
0
0
0
0
0
0
0
0.000664614
0.000664614
0.000664614
0.000545474
0.000545474
0.000545474
0.00155119
0.00155119
0.00155119
0.00170049
0.00170049
0.00170049
0.00179461
0.00179461
0.00179461
0.000938543
0.000938543
0.000938543
0.000948621
0.000948621
0.000948621
0.00115441
0.00115441
0.00115441
0.00104173
0.00104173
0.00104173
0.000824143
0.000824143
0.000824143
0.000815436
0.000815436
0.000815436
0.00176412
0.00176412
0.00176412
0.00190915
0.00190915
0.00190915
0.00240967
0.00240967
0.00240967
0.00240207
0.00240207
0.00240207
0.00239169
0.00239169
0.00239169
0.00239983
0.00239983
0.00239983
0.00238176
0.00238176
0.00238176
0.00182065
0.00182065
0.00182065
0.00181442
0.00181442
0.00181442
0.00178715
0.00178715
0.00178715
0.0017872
0.0017872
0.0017872
0.00161003
0.00161003
0.00161003
0.00165812
0.00165812
0.00165812
0.00166738
0.00166738
0.00166738
0.001661
0.001661
0.001661
0.0017032
0.0017032
0.0017032
0.00170842
0.00170842
0.00170842
0.00163339
0.00163339
0.00163339
0.00154509
0.00154509
0.00154509
0.00157932
0.00157932
0.00157932
0.00157309
0.00157309
0.00157309
0.00162886
0.00162886
0.00162886
0.00165338
0.00165338
0.00165338
0.00148034
0.00148034
0.00148034
0.00145409
0.00145409
0.00145409
0.00147892
0.00147892
0.00147892
0.00144247
0.00144247
0.00144247
0.00136793
0.00136793
0.00136793
0.00127353
0.00127353
0.00127353
0.00135635
0.00135635
0.00135635
0.00138029
0.00138029
0.00138029
0.0013322
0.0013322
0.0013322
0.00166882
0.00166882
0.00166882
0.00168436
0.00168436
0.00168436
0.00140028
0.00140028
0.00140028
0.0014488
0.0014488
0.0014488
0.00163829
0.00163829
0.00163829
0.0016389
0.0016389
0.0016389
0.00158159
0.00158159
0.00158159
0.00141033
0.00141033
0.00141033
0.00144824
0.00144824
0.00144824
0.00143547
0.00143547
0.00143547
0.00141501
0.00141501
0.00141501
0.00142752
0.00142752
0.00142752
0.00143904
0.00143904
0.00143904
0.00140156
0.00140156
0.00140156
0.00148144
0.00148144
0.00148144
0.00145518
0.00145518
0.00145518
0.00139527
0.00139527
0.00139527
0.00144226
0.00144226
0.00144226
0.00149972
0.00149972
0.00149972
0.00151327
0.00151327
0.00151327
0.00149117
0.00149117
0.00149117
0.00149603
0.00149603
0.00149603
0.00153696
0.00153696
0.00153696
0.001528
0.001528
0.001528
0.00151431
0.00151431
0.00151431
0.00150951
0.00150951
0.00150951
0.00153195
0.00153195
0.00153195
0.00151819
0.00151819
0.00151819
0.00151337
0.00151337
0.00151337
0.00156386
0.00156386
0.00156386
0.00142583
0.00142583
0.00142583
0.00143889
0.00143889
0.00143889
0.00147267
0.00147267
0.00147267
0.00149965
0.00149965
0.00149965
0.00152195
0.00152195
0.00152195
0.00153576
0.00153576
0.00153576
0.00199372
0.00199372
0.00199372
0.00203821
0.00203821
0.00203821
0.00204548
0.00204548
0.00204548
0.00201385
0.00201385
0.00201385
0.00199986
0.00199986
0.00199986
0.00198035
0.00198035
0.00198035
0.00100123
0.00100123
0.00100123
0.00111116
0.00111116
0.00111116
0.00120501
0.00120501
0.00120501
0.00132178
0.00132178
0.00132178
0
0
0
0
0
0
0
0
0
0
0
0
0
0
0
0
0
0
0
0
0
0
0
0
7.08975e-05
7.08975e-05
7.08975e-05
0.000268552
0.000268552
0.000268552
0.000979733
0.000979733
0.000979733
0.000969214
0.000969214
0.000969214
0.000257619
0.000257619
0.000257619
0.000358998
0.000358998
0.000358998
0.000479681
0.000479681
0.000479681
0.00070262
0.00070262
0.00070262
0.000695242
0.000695242
0.000695242
0.000584385
0.000584385
0.000584385
0.000484751
0.000484751
0.000484751
0.000596833
0.000596833
0.000596833
0.000370367
0.000370367
0.000370367
0.000265762
0.000265762
0.000265762
0.000170325
0.000170325
0.000170325
0.000168572
0.000168572
0.000168572
0.000260296
0.000260296
0.000260296
0.000366525
0.000366525
0.000366525
0.00149257
0.00149257
0.00149257
0.00118276
0.00118276
0.00118276
0.00140482
0.00140482
0.00140482
0.00130579
0.00130579
0.00130579
0.00155077
0.00155077
0.00155077
0.00152642
0.00152642
0.00152642
0.00142878
0.00142878