<VTKFile type="UnstructuredGrid" version="1.0">
<UnstructuredGrid>
<Piece NumberOfPoints="10830" NumberOfCells="3610">
<Points>
<DataArray type="Float64" NumberOfComponents="3" format="ascii">
1.27826 3.11035 0.0257489
1.28831 3.11035 0
1.28831 3.11035 0.0514594
1.28831 3.11035 0.555078
1.28831 3.11035 0.605999
1.27701 3.11035 0.580532
1.28831 3.11035 0.555078
1.27701 3.11035 0.580532
1.26002 3.11035 0.555099
0.0244388 3.11035 1.02759
0.0422213 3.11035 1.045
0 3.11035 1.045
0 3.11035 1.045
-7.89601e-14 3.11035 1.01484
0.0244388 3.11035 1.02759
1.28831 3.11035 0.555078
1.26002 3.11035 0.555099
1.27702 3.11035 0.529679
0.00863377 3.11035 0.276786
1.49469e-13 3.11035 0.302009
1.49791e-13 3.11035 0.251574
1.27705 3.11035 0.2769
1.28831 3.11035 0.302091
1.26004 3.11035 0.302114
1.27684 3.11035 0.17634
1.28831 3.11035 0.151284
1.28831 3.11035 0.201394
1.26004 3.11035 0.302114
1.28831 3.11035 0.302091
1.27707 3.11035 0.327315
1.28831 3.11035 0.302091
1.28831 3.11035 0.352537
1.27707 3.11035 0.327315
1.26005 3.11035 0.352551
1.27707 3.11035 0.327315
1.28831 3.11035 0.352537
1.26003 3.11035 0.504308
1.27702 3.11035 0.529679
1.24613 3.11035 0.529697
1.24613 3.11035 0.529697
1.27702 3.11035 0.529679
1.26002 3.11035 0.555099
1.24613 3.11035 0.529697
1.23052 3.11035 0.504324
1.26003 3.11035 0.504308
1.24613 3.11035 0.529697
1.26002 3.11035 0.555099
1.23052 3.11035 0.555118
1.28831 3.11035 0.403041
1.28831 3.11035 0.453619
1.27705 3.11035 0.428326
1.27705 3.11035 0.428326
1.26004 3.11035 0.453633
1.24616 3.11035 0.428339
1.28831 3.11035 0.453619
1.26004 3.11035 0.453633
1.27705 3.11035 0.428326
1.28831 3.11035 0.504291
1.27702 3.11035 0.529679
1.26003 3.11035 0.504308
1.28831 3.11035 0.555078
1.27702 3.11035 0.529679
1.28831 3.11035 0.504291
1.25981 3.11035 0.151322
1.28831 3.11035 0.151284
1.27684 3.11035 0.17634
1.26002 3.11035 0.606025
1.27701 3.11035 0.580532
1.28831 3.11035 0.605999
0.85884 3.11035 0.785748
0.873578 3.11035 0.759978
0.888295 3.11035 0.785725
0 3.11035 0
0.0277369 3.11035 -5.6077e-14
0.00987207 3.11035 0.024705
0.0840033 3.11035 0.251587
0.0549577 3.11035 0.251567
0.0689903 3.11035 0.226374
0.0264927 3.11035 0.251562
0.0549577 3.11035 0.251567
0.0392653 3.11035 0.276779
0.0264927 3.11035 0.251562
0.00863377 3.11035 0.276786
1.49791e-13 3.11035 0.251574
0.0392653 3.11035 0.276779
0.00863377 3.11035 0.276786
0.0264927 3.11035 0.251562
0.0087521 3.11035 0.478941
-9.63464e-14 3.11035 0.504301
1.47962e-13 3.11035 0.453605
0.0265703 3.11035 0.504296
0.0393699 3.11035 0.478935
0.0550657 3.11035 0.504293
-9.63464e-14 3.11035 0.504301
0.0087521 3.11035 0.478941
0.0265703 3.11035 0.504296
0.0265703 3.11035 0.504296
0.0087521 3.11035 0.478941
0.0393699 3.11035 0.478935
0.0265544 3.11035 0.453601
0.0550443 3.11035 0.453599
0.0393699 3.11035 0.478935
0.0265544 3.11035 0.453601
0.0087521 3.11035 0.478941
1.47962e-13 3.11035 0.453605
0.0393699 3.11035 0.478935
0.0087521 3.11035 0.478941
0.0265544 3.11035 0.453601
1.49469e-13 3.11035 0.302009
0.00863377 3.11035 0.276786
0.0265126 3.11035 0.302001
0.0265126 3.11035 0.302001
0.00863377 3.11035 0.276786
0.0392653 3.11035 0.276779
0.0550657 3.11035 0.504293
0.0393699 3.11035 0.478935
0.0691236 3.11035 0.478933
0.0393699 3.11035 0.478935
0.0550443 3.11035 0.453599
0.0691236 3.11035 0.478933
0.288852 3.11035 0.453669
0.303471 3.11035 0.479013
0.274248 3.11035 0.479001
0.274248 3.11035 0.479001
0.303471 3.11035 0.479013
0.288872 3.11035 0.504372
0.288872 3.11035 0.504372
0.303471 3.11035 0.479013
0.318088 3.11035 0.504385
0.844143 3.11035 0.759998
0.873578 3.11035 0.759978
0.85884 3.11035 0.785748
1.27699 3.11035 0.226555
1.28831 3.11035 0.201394
1.28831 3.11035 0.251699
1.28831 3.11035 0.302091
1.27705 3.11035 0.2769
1.28831 3.11035 0.251699
1.17079 3.11035 0.403096
1.14088 3.11035 0.40311
1.15586 3.11035 0.377846
1.26004 3.11035 0.403053
1.27705 3.11035 0.428326
1.24616 3.11035 0.428339
1.28831 3.11035 0.403041
1.27705 3.11035 0.428326
1.26004 3.11035 0.403053
1.24616 3.11035 0.428339
1.26004 3.11035 0.453633
1.23053 3.11035 0.453647
1.27704 3.11035 0.47895
1.26004 3.11035 0.453633
1.28831 3.11035 0.453619
1.28831 3.11035 0.453619
1.28831 3.11035 0.504291
1.27704 3.11035 0.47895
1.27704 3.11035 0.47895
1.28831 3.11035 0.504291
1.26003 3.11035 0.504308
1.24591 3.11035 0.176367
1.25981 3.11035 0.151322
1.27684 3.11035 0.17634
1.27699 3.11035 0.226555
1.28831 3.11035 0.251699
1.26001 3.11035 0.251744
1.26001 3.11035 0.251744
1.28831 3.11035 0.251699
1.27705 3.11035 0.2769
1.15573 3.11035 0.226614
1.1407 3.11035 0.201434
1.1706 3.11035 0.201432
1.20051 3.11035 0.201451
1.18556 3.11035 0.176261
1.21561 3.11035 0.176315
1.20051 3.11035 0.201451
1.1706 3.11035 0.201432
1.18556 3.11035 0.176261
1.24614 3.11035 0.276933
1.27705 3.11035 0.2769
1.26004 3.11035 0.302114
1.24614 3.11035 0.276933
1.26001 3.11035 0.251744
1.27705 3.11035 0.2769
1.24612 3.11035 0.580555
1.26002 3.11035 0.555099
1.27701 3.11035 0.580532
1.27701 3.11035 0.580532
1.26002 3.11035 0.606025
1.24612 3.11035 0.580555
1.23052 3.11035 0.555118
1.26002 3.11035 0.555099
1.24612 3.11035 0.580555
1.24611 3.11035 0.734055
1.21584 3.11035 0.734064
1.23051 3.11035 0.708373
1.21584 3.11035 0.682738
1.24611 3.11035 0.682719
1.23051 3.11035 0.708373
1.27699 3.11035 0.63153
1.26002 3.11035 0.606025
1.28831 3.11035 0.605999
1.24611 3.11035 0.631556
1.26002 3.11035 0.606025
1.27699 3.11035 0.63153
0.917741 3.11035 0.837317
0.932465 3.11035 0.86316
0.902954 3.11035 0.863195
1.08109 3.11035 0.708429
1.09602 3.11035 0.682792
1.11094 3.11035 0.708414
1.11094 3.11035 0.708414
1.09602 3.11035 0.682792
1.12589 3.11035 0.682778
1.2305 3.11035 0.657127
1.21584 3.11035 0.631578
1.24611 3.11035 0.631556
1.2305 3.11035 0.657127
1.24611 3.11035 0.682719
1.21584 3.11035 0.682738
1.0662 3.11035 0.682809
1.09602 3.11035 0.682792
1.08109 3.11035 0.708429
0.991917 3.11035 0.453738
0.962274 3.11035 0.453743
0.977089 3.11035 0.428435
0.917902 3.11035 0.42844
0.903138 3.11035 0.45375
0.888384 3.11035 0.428441
0.932681 3.11035 0.453747
0.903138 3.11035 0.45375
0.917902 3.11035 0.42844
0.903119 3.11035 0.35265
0.932664 3.11035 0.352655
0.917893 3.11035 0.377895
0.917893 3.11035 0.377895
0.888374 3.11035 0.377891
0.903119 3.11035 0.35265
0.903119 3.11035 0.35265
0.888374 3.11035 0.377891
0.873625 3.11035 0.352644
0.917893 3.11035 0.377895
0.932664 3.11035 0.352655
0.947463 3.11035 0.377896
0.962233 3.11035 0.302232
0.977066 3.11035 0.327437
0.947444 3.11035 0.327435
0.947444 3.11035 0.327435
0.932637 3.11035 0.302227
0.962233 3.11035 0.302232
0.741456 3.11035 0.479091
0.756104 3.11035 0.453749
0.770765 3.11035 0.479092
0.756104 3.11035 0.453749
0.785431 3.11035 0.453751
0.770765 3.11035 0.479092
0.903133 3.11035 0.403156
0.888374 3.11035 0.377891
0.917893 3.11035 0.377895
0.903133 3.11035 0.403156
0.917902 3.11035 0.42844
0.888384 3.11035 0.428441
0.888384 3.11035 0.428441
0.858913 3.11035 0.42844
0.873639 3.11035 0.403154
0.873639 3.11035 0.403154
0.903133 3.11035 0.403156
0.888384 3.11035 0.428441
0.888374 3.11035 0.377891
0.903133 3.11035 0.403156
0.873639 3.11035 0.403154
0.873625 3.11035 0.352644
0.844177 3.11035 0.352637
0.858884 3.11035 0.327412
0.844153 3.11035 0.302193
0.873599 3.11035 0.302206
0.858884 3.11035 0.327412
0.318069 3.11035 0.45368
0.303471 3.11035 0.479013
0.288852 3.11035 0.453669
0.288852 3.11035 0.453669
0.303454 3.11035 0.428361
0.318069 3.11035 0.45368
0.00864568 3.11035 0.0748701
1.4958e-13 3.11035 0.100085
-9.64495e-14 3.11035 0.0494157
0 3.11035 0
0.00987207 3.11035 0.024705
-9.64495e-14 3.11035 0.0494157
0.0264295 3.11035 0.150698
1.50097e-13 3.11035 0.150672
0.00849117 3.11035 0.12542
1.50097e-13 3.11035 0.150672
1.4958e-13 3.11035 0.100085
0.00849117 3.11035 0.12542
1.28831 3.11035 0
1.27826 3.11035 0.0257489
1.26122 3.11035 1.13803e-14
1.49791e-13 3.11035 0.251574
1.50032e-13 3.11035 0.201144
0.00859461 3.11035 0.226356
0.00859461 3.11035 0.226356
0.0264927 3.11035 0.251562
1.49791e-13 3.11035 0.251574
0.0264637 3.11035 0.201134
0.00859461 3.11035 0.226356
1.50032e-13 3.11035 0.201144
0.0264637 3.11035 0.201134
0.0391815 3.11035 0.175937
0.0549232 3.11035 0.20116
0.0392276 3.11035 0.226352
0.0689903 3.11035 0.226374
0.0549577 3.11035 0.251567
0.0549577 3.11035 0.251567
0.0264927 3.11035 0.251562
0.0392276 3.11035 0.226352
0.0549232 3.11035 0.20116
0.0689903 3.11035 0.226374
0.0392276 3.11035 0.226352
0.0392276 3.11035 0.226352
0.0264637 3.11035 0.201134
0.0549232 3.11035 0.20116
0.0264927 3.11035 0.251562
0.00859461 3.11035 0.226356
0.0392276 3.11035 0.226352
0.00859461 3.11035 0.226356
0.0264637 3.11035 0.201134
0.0392276 3.11035 0.226352
0.00854014 3.11035 0.175915
1.50032e-13 3.11035 0.201144
1.50097e-13 3.11035 0.150672
0.00854014 3.11035 0.175915
1.50097e-13 3.11035 0.150672
0.0264295 3.11035 0.150698
0.0264295 3.11035 0.150698
0.0391815 3.11035 0.175937
0.00854014 3.11035 0.175915
0.00854014 3.11035 0.175915
0.0264637 3.11035 0.201134
1.50032e-13 3.11035 0.201144
0.0391815 3.11035 0.175937
0.0264637 3.11035 0.201134
0.00854014 3.11035 0.175915
0.0690987 3.11035 0.428289
0.0550443 3.11035 0.453599
0.0393425 3.11035 0.428289
0.0550443 3.11035 0.453599
0.0265544 3.11035 0.453601
0.0393425 3.11035 0.428289
0.0393425 3.11035 0.428289
0.0550252 3.11035 0.402998
0.0690987 3.11035 0.428289
0.0690242 3.11035 0.276785
0.0549577 3.11035 0.251567
0.0840033 3.11035 0.251587
0.0392653 3.11035 0.276779
0.0549577 3.11035 0.251567
0.0690242 3.11035 0.276785
0.0984777 3.11035 0.276801
0.0690242 3.11035 0.276785
0.0840033 3.11035 0.251587
0.0840313 3.11035 0.302008
0.0690242 3.11035 0.276785
0.0984777 3.11035 0.276801
0.0840313 3.11035 0.302008
0.0984777 3.11035 0.276801
0.113251 3.11035 0.302022
0.303441 3.11035 0.3778
0.318055 3.11035 0.403074
0.288836 3.11035 0.403066
0.288836 3.11035 0.403066
0.318055 3.11035 0.403074
0.303454 3.11035 0.428361
0.186476 3.11035 0.428318
0.215741 3.11035 0.428329
0.201123 3.11035 0.453634
0.201103 3.11035 0.403035
0.215741 3.11035 0.428329
0.186476 3.11035 0.428318
0.215723 3.11035 0.377773
[...]
<PointData Scalars="View Factor" >
<DataArray type="Float64" Name="View Factor" NumberOfComponents="1" format="ascii">
0.000120238
0.000120238
0.000120238
0.000102706
0.000102706
0.000102706
0.000103217
0.000103217
0.000103217
9.19227e-05
9.19227e-05
9.19227e-05
9.2175e-05
9.2175e-05
9.2175e-05
0.000103707
0.000103707
0.000103707
0.000113741
0.000113741
0.000113741
0.000111367
0.000111367
0.000111367
0.000115133
0.000115133
0.000115133
0.000110837
0.000110837
0.000110837
0.000110283
0.000110283
0.000110283
0.000109785
0.000109785
0.000109785
0.000104482
0.000104482
0.000104482
0.000103988
0.000103988
0.000103988
0.000104768
0.000104768
0.000104768
0.000103781
0.000103781
0.000103781
0.00010718
0.00010718
0.00010718
0.000106988
0.000106988
0.000106988
0.000106697
0.000106697
0.000106697
0.000104693
0.000104693
0.000104693
0.000104175
0.000104175
0.000104175
0.000115714
0.000115714
0.000115714
0.000102245
0.000102245
0.000102245
9.80756e-05
9.80756e-05
9.80756e-05
0.000122941
0.000122941
0.000122941
0.000114838
0.000114838
0.000114838
0.000114289
0.000114289
0.000114289
0.000114291
0.000114291
0.000114291
0.000114015
0.000114015
0.000114015
0.000107377
0.000107377
0.000107377
0.000106864
0.000106864
0.000106864
0.000106865
0.000106865
0.000106865
0.00010712
0.00010712
0.00010712
0.00010789
0.00010789
0.00010789
0.000107891
0.000107891
0.000107891
0.000107633
0.000107633
0.000107633
0.000113194
0.000113194
0.000113194
0.000113466
0.000113466
0.000113466
0.000107118
0.000107118
0.000107118
0.000107631
0.000107631
0.000107631
0.000107544
0.000107544
0.000107544
0.000107031
0.000107031
0.000107031
0.000106767
0.000106767
0.000106767
9.83316e-05
9.83316e-05
9.83316e-05
0.000113491
0.000113491
0.000113491
0.000111874
0.000111874
0.000111874
0.000108535
0.000108535
0.000108535
0.000107497
0.000107497
0.000107497
0.000107715
0.000107715
0.000107715
0.000106775
0.000106775
0.000106775
0.000106193
0.000106193
0.000106193
0.000105665
0.000105665
0.000105665
0.000105191
0.000105191
0.000105191
0.000115479
0.000115479
0.000115479
0.000112976
0.000112976
0.000112976
0.000112437
0.000112437
0.000112437
0.000114397
0.000114397
0.000114397
0.000115101
0.000115101
0.000115101
0.000114867
0.000114867
0.000114867
0.000111673
0.000111673
0.000111673
0.000112208
0.000112208
0.000112208
0.000103008
0.000103008
0.000103008
0.000102522
0.000102522
0.000102522
0.000103291
0.000103291
0.000103291
9.87857e-05
9.87857e-05
9.87857e-05
9.97244e-05
9.97244e-05
9.97244e-05
0.000101763
0.000101763
0.000101763
0.000101557
0.000101557
0.000101557
9.59376e-05
9.59376e-05
9.59376e-05
9.9782e-05
9.9782e-05
9.9782e-05
9.99875e-05
9.99875e-05
9.99875e-05
0.000101149
0.000101149
0.000101149
0.000100197
0.000100197
0.000100197
0.000100049
0.000100049
0.000100049
0.000107395
0.000107395
0.000107395
0.000107798
0.000107798
0.000107798
0.000107513
0.000107513
0.000107513
0.000110108
0.000110108
0.000110108
0.000109875
0.000109875
0.000109875
0.000110167
0.000110167
0.000110167
0.000109816
0.000109816
0.000109816
0.00011134
0.00011134
0.00011134
0.000111638
0.000111638
0.000111638
0.00010703
0.00010703
0.00010703
0.000107262
0.000107262
0.000107262
0.000109351
0.000109351
0.000109351
0.000108313
0.000108313
0.000108313
0.000108369
0.000108369
0.000108369
0.0001086
0.0001086
0.0001086
0.000109119
0.000109119
0.000109119
0.000110752
0.000110752
0.000110752
0.000111817
0.000111817
0.000111817
0.000107792
0.000107792
0.000107792
0.000108309
0.000108309
0.000108309
0.000120577
0.000120577
0.000120577
0.00012235
0.00012235
0.00012235
0.000118237
0.000118237
0.000118237
0.000118817
0.000118817
0.000118817
0.000120866
0.000120866
0.000120866
0.000115401
0.000115401
0.000115401
0.000114844
0.000114844
0.000114844
0.000115961
0.000115961
0.000115961
0.000116523
0.000116523
0.000116523
0.000115119
0.000115119
0.000115119
0.000114843
0.000114843
0.000114843
0.000115677
0.000115677
0.000115677
0.000115959
0.000115959
0.000115959
0.000115122
0.000115122
0.000115122
0.00011568
0.00011568
0.00011568
0.000117092
0.000117092
0.000117092
0.000117663
0.000117663
0.000117663
0.000117376
0.000117376
0.000117376
0.000116525
0.000116525
0.000116525
0.000116807
0.000116807
0.000116807
0.000108665
0.000108665
0.000108665
0.000108407
0.000108407
0.000108407
0.000109187
0.000109187
0.000109187
0.000114285
0.000114285
0.000114285
0.000114012
0.000114012
0.000114012
0.000114007
0.000114007
0.000114007
0.000113459
0.000113459
0.000113459
0.000113182
0.000113182
0.000113182
0.000109875
0.000109875
0.000109875
0.00010935
0.00010935
0.00010935
0.000108624
0.000108624
0.000108624
0.000109145
0.000109145
0.000109145
0.000110985
0.000110985
0.000110985
0.000110196
0.000110196
0.000110196
0.000110726
0.000110726
0.000110726
0.000107064
0.000107064
0.000107064
0.000106072
0.000106072
0.000106072
0.000108371
0.000108371
0.000108371
0.000108636
0.000108636
0.000108636
0.00010686
0.00010686
0.00010686
0.000109446
0.000109446
0.000109446
0.000109182
0.000109182
0.000109182
0.000109167
0.000109167
0.000109167
0.000107886
0.000107886
0.000107886
0.000108404
0.000108404
0.000108404
0.000108661
0.000108661
0.000108661
0.000104067
0.000104067
0.000104067
9.57363e-05
9.57363e-05
9.57363e-05
9.25587e-05
9.25587e-05
9.25587e-05
0.00010781
0.00010781
0.00010781
0.000107561
0.000107561
0.000107561
0.000106292
0.000106292
0.000106292
0.000106785
0.000106785
0.000106785
0.000106801
0.000106801
0.000106801
0.000107049
0.000107049
0.000107049
0.000106276
0.000106276
0.000106276
0.000106031
0.000106031
0.000106031
0.000105267
0.000105267
0.000105267
0.000105527
0.000105527
0.000105527
0.000105555
0.000105555
0.000105555
0.000106046
0.000106046
0.000106046
0.000103993
0.000103993
0.000103993
0.0001032
0.0001032
0.0001032
0.000102965
0.000102965
0.000102965
0.000102221
0.000102221
0.000102221
0.000102476
0.000102476
0.000102476
0.00010551
0.00010551
0.00010551
0.000106258
0.000106258
0.000106258
0.000106014
0.000106014
0.000106014
9.85033e-05
9.85033e-05
9.85033e-05
9.82498e-05
9.82498e-05
9.82498e-05
9.81215e-05
9.81215e-05
9.81215e-05
9.83768e-05
9.83768e-05
9.83768e-05
9.89721e-05
9.89721e-05
9.89721e-05
9.9187e-05
9.9187e-05
9.9187e-05
0.000100567
0.000100567
0.000100567
9.88446e-05
9.88446e-05
9.88446e-05
9.22892e-05
9.22892e-05
9.22892e-05
9.25229e-05
9.25229e-05
9.25229e-05
9.18554e-05
9.18554e-05
9.18554e-05
9.16551e-05
9.16551e-05
9.16551e-05
9.29605e-05
9.29605e-05
9.29605e-05
9.31642e-05
9.31642e-05
9.31642e-05
9.29282e-05
9.29282e-05
9.29282e-05
9.24908e-05
9.24908e-05
9.24908e-05
9.28945e-05
9.28945e-05
9.28945e-05
9.31311e-05
9.31311e-05
9.31311e-05
9.35721e-05
9.35721e-05
9.35721e-05
9.16234e-05
9.16234e-05
9.16234e-05
9.24573e-05
9.24573e-05
9.24573e-05
9.22565e-05
9.22565e-05
9.22565e-05
9.18229e-05
9.18229e-05
9.18229e-05
9.15904e-05
9.15904e-05
9.15904e-05
9.1444e-05
9.1444e-05
9.1444e-05
9.09798e-05
9.09798e-05
9.09798e-05
9.1229e-05
9.1229e-05
9.1229e-05
9.60418e-05
9.60418e-05
9.60418e-05
9.59899e-05
9.59899e-05
9.59899e-05
9.57894e-05
9.57894e-05
9.57894e-05
0.000104842
0.000104842
0.000104842
0.000104063
0.000104063
0.000104063
0.000104557
0.000104557
0.000104557
0.00010463
0.00010463
0.00010463
0.00011211
0.00011211
0.00011211
0.000111575
0.000111575
0.000111575
0.000112347
0.000112347
0.000112347
0.000107069
0.000107069
0.000107069
0.000107358
0.000107358
0.000107358
0.000108229
0.000108229
0.000108229
0.000108524
0.000108524
0.000108524
0.000108719
0.000108719
0.000108719
0.000109263
0.000109263
0.000109263
0.000109041
0.000109041
0.000109041
0.000105627
0.000105627
0.000105627
0.00010534
0.00010534
0.00010534
0.000105266
0.000105266
0.000105266
0.000106269
0.000106269
0.000106269
0.000105553
0.000105553
0.000105553
0.000106055
0.000106055
0.000106055
0.000105476
0.000105476
0.000105476
0.000105977
0.000105977
0.000105977
0.000114063
0.000114063
0.000114063
0.000114611
0.000114611
0.000114611
0.000114927
0.000114927
0.000114927
0.000116269
0.000116269
0.000116269
0.000114948
0.000114948
0.000114948
0.000115185
0.000115185
0.000115185
0.00011252
0.00011252
0.00011252
0.000113142
0.000113142
0.000113142
0.000112291
0.000112291
0.000112291
0.000112602
0.000112602
0.000112602
0.000102318
0.000102318
0.000102318
0.000101835
0.000101835
0.000101835
0.000101629
0.000101629
0.000101629
9.83197e-05
9.83197e-05
9.83197e-05
9.64134e-05
9.64134e-05
9.64134e-05
9.3113e-05
9.3113e-05
9.3113e-05
9.76118e-05
9.76118e-05
9.76118e-05
9.87519e-05
9.87519e-05
9.87519e-05
9.82848e-05
9.82848e-05
9.82848e-05
9.93109e-05
9.93109e-05
9.93109e-05
9.83758e-05
9.83758e-05
9.83758e-05
9.84526e-05
9.84526e-05
9.84526e-05
9.89192e-05
9.89192e-05
9.89192e-05
0.000106761
0.000106761
0.000106761
0.000107138
0.000107138
0.000107138
0.000107205
0.000107205
0.000107205
0.000107427
0.000107427
0.000107427
0.000104905
0.000104905
0.000104905
0.000105186
0.000105186
0.000105186
0.000104969
0.000104969
0.000104969
0.000100876
0.000100876
0.000100876
0.0001004
0.0001004
0.0001004
0.000101078
0.000101078
0.000101078
9.90539e-05
9.90539e-05
9.90539e-05
9.88533e-05
9.88533e-05
9.88533e-05
9.95234e-05
9.95234e-05
9.95234e-05
9.97928e-05
9.97928e-05
9.97928e-05
9.91206e-05
9.91206e-05
9.91206e-05
9.95905e-05
9.95905e-05
9.95905e-05
0.00010727
0.00010727
0.00010727
0.000108006
0.000108006
0.000108006
0.000107493
0.000107493
0.000107493
0.000108423
0.000108423
0.000108423
0.000107569
0.000107569
0.000107569
0.000107853
0.000107853
0.000107853
0.000107002
0.000107002
0.000107002
0.000105692
0.000105692
0.000105692
0.000105416
0.000105416
0.000105416
0.000106883
0.000106883
0.000106883
0.000107111
0.000107111
0.000107111
0.000107623
0.000107623
0.000107623
0.000107906
0.000107906
0.000107906
0.000107163
0.000107163
0.000107163
0.000107675
0.000107675
0.000107675
0.000106375
0.000106375
0.000106375
0.000106096
0.000106096
0.000106096
0.000105592
0.000105592
0.000105592
0.000105367
0.000105367
0.000105367
0.000105643
0.000105643
0.000105643
0.000106147
0.000106147
0.000106147
0.000107741
0.000107741
0.000107741
0.000107455
0.000107455
0.000107455
0.000107681
0.000107681
0.000107681
0.000108196
0.000108196
0.000108196
0.000102497
0.000102497
0.000102497
0.000104867
0.000104867
0.000104867
0.000102718
0.000102718
0.000102718
0.000110695
0.000110695
0.000110695
0.00011176
0.00011176
0.00011176
0.000110989
0.000110989
0.000110989
0.000111521
0.000111521
0.000111521
0.0001117
0.0001117
0.0001117
0.000111463
0.000111463
0.000111463
0.000110931
0.000110931
0.000110931
0.000110636
0.000110636
0.000110636
0.000110871
0.000110871
0.000110871
0.000111402
0.000111402
0.000111402
0.000109233
0.000109233
0.000109233
0.000108942
0.000108942
0.000108942
0.000108305
0.000108305
0.000108305
0.000108824
0.000108824
0.000108824
0.000105715
0.000105715
0.000105715
0.000105986
0.000105986
0.000105986
0.000108268
0.000108268
0.000108268
0.000108028
0.000108028
0.000108028
0.000104944
0.000104944
0.000104944
0.000105212
0.000105212
0.000105212
0.00010498
0.00010498
0.00010498
0.000104445
0.000104445
0.000104445
0.000104215
0.000104215
0.000104215
0.000104481
0.000104481
0.000104481
0.000107775
0.000107775
0.000107775
0.000108809
0.000108809
0.000108809
0.000108573
0.000108573
0.000108573
0.000108056
0.000108056
0.000108056
0.000106244
0.000106244
0.000106244
0.000106521
0.000106521
0.000106521
0.000108856
0.000108856
0.000108856
0.000107308
0.000107308
0.000107308
0.000107821
0.000107821
0.000107821
0.00010933
0.00010933
0.00010933
0.000111873
0.000111873
0.000111873
0.000111578
0.000111578
0.000111578
0.000111045
0.000111045
0.000111045
0.000108655
0.000108655
0.000108655
0.000108422
0.000108422
0.000108422
0.000109228
0.000109228
0.000109228
0.000108708
0.000108708
0.000108708
0.000112523
0.000112523
0.000112523
0.000111503
0.000111503
0.000111503
0.000110969
0.000110969
0.000110969
0.000110711
0.000110711
0.000110711
0.000112544
0.000112544
0.000112544
0.000111725
0.000111725
0.000111725
0.000112263
0.000112263
0.000112263
0.000114279
0.000114279
0.000114279
0.000115113
0.000115113
0.000115113
0.000114832
0.000114832
0.000114832
0.000110658
0.000110658
0.000110658
0.000110129
0.000110129
0.000110129
0.00010834
0.00010834
0.00010834
0.000108064
0.000108064
0.000108064
0.000107549
0.000107549
0.000107549
0.00010731
0.00010731
0.00010731
0.000106528
0.000106528
0.000106528
0.000106799
0.000106799
0.000106799
0.000121203
0.000121203
0.000121203
0.000120609
0.000120609
0.000120609
0.000120956
0.000120956
0.000120956
0.000121414
0.000121414
0.000121414
0.000119479
0.000119479
0.000119479
0.000120049
0.000120049
0.000120049
0.000115177
0.000115177
0.000115177
0.000116292
0.000116292
0.000116292
0.000105849
0.000105849
0.000105849
0.000106356
0.000106356
0.000106356
0.000108928
0.000108928
0.000108928
0.000108408
0.000108408
0.000108408
0.000108668
0.000108668
0.000108668
0.000110506
0.000110506
0.000110506
0.000111037
0.000111037
0.000111037
0.000111036
0.000111036
0.000111036
0.000110771
0.000110771
0.000110771
0.00011265
0.00011265
0.00011265
0.000112109
0.000112109
0.000112109
0.000111572
0.000111572
0.000111572
0.000112379
0.000112379
0.000112379
0.00011184
0.00011184
0.00011184
0.00011157
0.00011157
0.00011157
0.000111837
0.000111837
0.000111837
0.000112371
0.000112371
0.000112371
0.000112639
0.000112639
0.000112639
0.000113192
0.000113192
0.000113192
0.000113464
0.000113464
0.000113464
0.000112648
0.000112648
0.000112648
0.000112376
0.000112376
0.000112376
0.000113188
0.000113188
0.000113188
0.000112645
0.000112645
0.000112645
0.000110768
0.000110768
0.000110768
0.000110238
0.000110238
0.000110238
0.000109972
0.000109972
0.000109972
0.000110233
0.000110233
0.000110233
0.000109894
0.000109894
0.000109894
0.000110166
0.000110166
0.000110166
0.000110695
0.000110695
0.000110695
0.000110148
0.000110148
0.000110148
0.000108577
0.000108577
0.000108577
0.000109098
0.000109098
0.000109098
0.000108327
0.000108327
0.000108327
0.000109369
0.000109369
0.000109369
0.000109116
0.000109116
0.000109116
0.000108595
0.000108595
0.000108595
0.000109157
0.000109157
0.000109157
0.000110208
0.000110208
0.000110208
0.000109413
0.000109413
0.000109413
0.000109938
0.000109938
0.000109938
0.000109424
0.000109424
0.000109424
0.00010995
0.00010995
0.00010995
0.00010759
0.00010759
0.00010759
0.000107854
0.000107854
0.000107854
0.000106816
0.000106816
0.000106816
0.000106319
0.000106319
0.000106319
0.000106828
0.000106828
0.000106828
0.000107077
0.000107077
0.000107077
0.00010606
0.00010606
0.00010606
0.000106307
0.000106307
0.000106307
0.000104565
0.000104565
0.000104565
0.000104809
0.000104809
0.000104809
0.00010531
0.00010531
0.00010531
0.000105567
0.000105567
0.000105567
0.00010532
0.00010532
0.00010532
0.000104574
0.000104574
0.000104574
0.000104819
0.000104819
0.000104819
0.00010633
0.00010633
0.00010633
0.000109967
0.000109967
0.000109967
0.000109434
0.000109434
0.000109434
0.000109441
0.000109441
0.000109441
0.000109176
0.000109176
0.000109176
0.000107113
0.000107113
0.000107113
0.000107627
0.000107627
0.000107627
0.00010762
0.00010762
0.00010762
0.000107881
0.000107881
0.000107881
0.000108655
0.000108655
0.000108655
0.000108398
0.000108398
0.000108398
0.000104077
0.000104077
0.000104077
0.000103833
0.000103833
0.000103833
0.000103825
0.000103825
0.000103825
0.000104085
0.000104085
0.000104085
0.00010384
0.00010384
0.00010384
0.00010334
0.00010334
0.00010334
0.000103788
0.000103788
0.000103788
0.000103814
0.000103814
0.000103814
0.000103321
0.000103321
0.000103321
0.000103069
0.000103069
0.000103069
0.000103309
0.000103309
0.000103309
9.29209e-05
9.29209e-05
9.29209e-05
9.2145e-05
9.2145e-05
9.2145e-05
9.25291e-05
9.25291e-05
9.25291e-05
9.8547e-05
9.8547e-05
9.8547e-05
9.80783e-05
9.80783e-05
9.80783e-05
9.83127e-05
9.83127e-05
9.83127e-05
9.62145e-05
9.62145e-05
9.62145e-05
9.71414e-05
9.71414e-05
9.71414e-05
9.66798e-05
9.66798e-05
9.66798e-05
9.69161e-05
9.69161e-05
9.69161e-05
9.76104e-05
9.76104e-05
9.76104e-05
9.73792e-05
9.73792e-05
9.73792e-05
9.80795e-05
9.80795e-05
9.80795e-05
9.76139e-05
9.76139e-05
9.76139e-05
0.000107577
0.000107577
0.000107577
0.000107827
0.000107827
0.000107827
0.000108343
0.000108343
0.000108343
0.00010861
0.00010861
0.00010861
0.000108358
0.000108358
0.000108358
0.000107841
0.000107841
0.000107841
0.000105283
0.000105283
0.000105283
0.000105297
0.000105297
0.000105297
0.000105542
0.000105542
0.000105542
0.000104782
0.000104782
0.000104782
0.000103669
0.000103669
0.000103669
0.000104608
0.000104608
0.000104608
0.000104345
0.000104345
0.000104345
0.00010447
0.00010447
0.00010447
0.000103222
0.000103222
0.000103222
0.000103715
0.000103715
0.000103715
0.000103736
0.000103736
0.000103736
0.000103973
0.000103973
0.000103973
0.000105249
0.000105249
0.000105249
0.000104749
0.000104749
0.000104749
0.000104729
0.000104729
0.000104729
0.00010449
0.00010449
0.00010449
0.000105996
0.000105996
0.000105996
0.000105491
0.000105491
0.000105491
0.000105471
0.000105471
0.000105471
0.00010523
0.00010523
0.00010523
9.75728e-05
9.75728e-05
9.75728e-05
9.7111e-05
9.7111e-05
9.7111e-05
9.75328e-05
9.75328e-05
9.75328e-05
9.77846e-05
9.77846e-05
9.77846e-05
9.84627e-05
9.84627e-05
9.84627e-05
9.89312e-05
9.89312e-05
9.89312e-05
9.77437e-05
9.77437e-05
9.77437e-05
9.82085e-05
9.82085e-05
9.82085e-05
9.81658e-05
9.81658e-05
9.81658e-05
9.84205e-05
9.84205e-05
9.84205e-05
0.000101089
0.000101089
0.000101089
0.00010035
0.00010035
0.00010035
9.9875e-05
9.9875e-05
9.9875e-05
0.000100392
0.000100392
0.000100392
0.00010061
0.00010061
0.00010061
9.99166e-05
9.99166e-05
9.99166e-05
9.96591e-05
9.96591e-05
9.96591e-05
0.000101308
0.000101308
0.000101308
0.000101046
0.000101046
0.000101046
0.000101791
0.000101791
0.000101791
0.000102011
0.000102011
0.000102011
9.96169e-05
9.96169e-05
9.96169e-05
9.91017e-05
9.91017e-05
9.91017e-05
9.88887e-05
9.88887e-05
9.88887e-05
9.91451e-05
9.91451e-05
9.91451e-05
0.000100307
0.000100307
0.000100307
9.98319e-05
9.98319e-05
9.98319e-05
9.95732e-05
9.95732e-05
9.95732e-05
9.8799e-05
9.8799e-05
9.8799e-05
9.90567e-05
9.90567e-05
9.90567e-05
9.90102e-05
9.90102e-05
9.90102e-05
9.94809e-05
9.94809e-05
9.94809e-05
0.000104058
0.000104058
0.000104058
0.000103564
0.000103564
0.000103564
0.000102055
0.000102055
0.000102055
0.000102763
0.000102763
0.000102763
0.000103253
0.000103253
0.000103253
0.000102807
0.000102807
0.000102807
0.000102541
0.000102541
0.000102541
0.000103521
0.000103521
0.000103521
0.000103297
0.000103297
0.000103297
0.00010061
0.00010061
0.00010061
0.000100865
0.000100865
0.000100865
9.59122e-05
9.59122e-05
9.59122e-05
9.23787e-05
9.23787e-05
9.23787e-05
9.31959e-05
9.31959e-05
9.31959e-05
9.38744e-05
9.38744e-05
9.38744e-05
9.36373e-05
9.36373e-05
9.36373e-05
9.70713e-05
9.70713e-05
9.70713e-05
9.68614e-05
9.68614e-05
9.68614e-05
0.000102342
0.000102342
0.000102342
0.00010258
0.00010258
0.00010258
9.26106e-05
9.26106e-05
9.26106e-05
9.64808e-05
9.64808e-05
9.64808e-05
0.000101736
0.000101736
0.000101736
9.74015e-05
9.74015e-05
9.74015e-05
9.58945e-05
9.58945e-05
9.58945e-05
0.000102701
0.000102701
0.000102701
0.000100729
0.000100729
0.000100729
9.84331e-05
9.84331e-05
9.84331e-05
9.86505e-05
9.86505e-05
9.86505e-05
9.9373e-05
9.9373e-05
9.9373e-05
9.91203e-05
9.91203e-05
9.91203e-05
9.63985e-05
9.63985e-05
9.63985e-05
9.42881e-05
9.42881e-05
9.42881e-05
9.38104e-05
9.38104e-05
9.38104e-05
9.38431e-05
9.38431e-05
9.38431e-05
9.36054e-05
9.36054e-05
9.36054e-05
9.7255e-05
9.7255e-05
9.7255e-05
9.79666e-05
9.79666e-05
9.79666e-05
9.77178e-05
9.77178e-05
9.77178e-05
9.65813e-05
9.65813e-05
9.65813e-05
9.63682e-05
9.63682e-05
9.63682e-05
9.66125e-05
9.66125e-05
9.66125e-05
9.70407e-05
9.70407e-05
9.70407e-05
9.82895e-05
9.82895e-05
9.82895e-05
9.78241e-05
9.78241e-05
9.78241e-05
9.14038e-05
9.14038e-05
9.14038e-05
9.16394e-05
9.16394e-05
9.16394e-05
9.22224e-05
9.22224e-05
9.22224e-05
9.15559e-05
9.15559e-05
9.15559e-05
9.17891e-05
9.17891e-05
9.17891e-05
9.14827e-05
9.14827e-05
9.14827e-05
9.1679e-05
9.1679e-05
9.1679e-05
9.21117e-05
9.21117e-05
9.21117e-05
9.23484e-05
9.23484e-05
9.23484e-05
9.14671e-05
9.14671e-05
9.14671e-05
9.12748e-05