<VTKFile type="UnstructuredGrid" version="1.0">
<UnstructuredGrid>
<Piece NumberOfPoints="10830" NumberOfCells="3610">
<Points>
<DataArray type="Float64" NumberOfComponents="3" format="ascii">
2.19217 2.20649 0.0257489
2.19928 2.19938 0
2.19928 2.19938 0.0514594
2.19928 2.19938 0.555078
2.19928 2.19938 0.605999
2.19129 2.20737 0.580532
2.19928 2.19938 0.555078
2.19129 2.20737 0.580532
2.17928 2.21938 0.555099
1.30559 3.09307 1.02759
1.31816 3.0805 1.045
1.28831 3.11035 1.045
1.28831 3.11035 1.045
1.28831 3.11035 1.01484
1.30559 3.09307 1.02759
2.19928 2.19938 0.555078
2.17928 2.21938 0.555099
2.1913 2.20736 0.529679
1.29441 3.10425 0.276786
1.28831 3.11035 0.302009
1.28831 3.11035 0.251574
2.19132 2.20734 0.2769
2.19928 2.19938 0.302091
2.17929 2.21937 0.302114
2.19117 2.20749 0.17634
2.19928 2.19938 0.151284
2.19928 2.19938 0.201394
2.17929 2.21937 0.302114
2.19928 2.19938 0.302091
2.19133 2.20733 0.327315
2.19928 2.19938 0.302091
2.19928 2.19938 0.352537
2.19133 2.20733 0.327315
2.17929 2.21937 0.352551
2.19133 2.20733 0.327315
2.19928 2.19938 0.352537
2.17928 2.21938 0.504308
2.1913 2.20736 0.529679
2.16946 2.22921 0.529697
2.16946 2.22921 0.529697
2.1913 2.20736 0.529679
2.17928 2.21938 0.555099
2.16946 2.22921 0.529697
2.15842 2.24024 0.504324
2.17928 2.21938 0.504308
2.16946 2.22921 0.529697
2.17928 2.21938 0.555099
2.15841 2.24025 0.555118
2.19928 2.19938 0.403041
2.19928 2.19938 0.453619
2.19132 2.20734 0.428326
2.19132 2.20734 0.428326
2.17929 2.21937 0.453633
2.16947 2.22919 0.428339
2.19928 2.19938 0.453619
2.17929 2.21937 0.453633
2.19132 2.20734 0.428326
2.19928 2.19938 0.504291
2.1913 2.20736 0.529679
2.17928 2.21938 0.504308
2.19928 2.19938 0.555078
2.1913 2.20736 0.529679
2.19928 2.19938 0.504291
2.17913 2.21954 0.151322
2.19928 2.19938 0.151284
2.19117 2.20749 0.17634
2.17927 2.21939 0.606025
2.19129 2.20737 0.580532
2.19928 2.19938 0.605999
1.8956 2.50306 0.785748
1.90602 2.49264 0.759978
1.91643 2.48223 0.785725
1.28831 3.11035 0
1.30792 3.09074 -5.6077e-14
1.29529 3.10337 0.024705
1.34771 3.05096 0.251587
1.32717 3.07149 0.251567
1.33709 3.06157 0.226374
1.30704 3.09162 0.251562
1.32717 3.07149 0.251567
1.31607 3.08259 0.276779
1.30704 3.09162 0.251562
1.29441 3.10425 0.276786
1.28831 3.11035 0.251574
1.31607 3.08259 0.276779
1.29441 3.10425 0.276786
1.30704 3.09162 0.251562
1.2945 3.10417 0.478941
1.28831 3.11035 0.504301
1.28831 3.11035 0.453605
1.3071 3.09157 0.504296
1.31615 3.08252 0.478935
1.32724 3.07142 0.504293
1.28831 3.11035 0.504301
1.2945 3.10417 0.478941
1.3071 3.09157 0.504296
1.3071 3.09157 0.504296
1.2945 3.10417 0.478941
1.31615 3.08252 0.478935
1.30708 3.09158 0.453601
1.32723 3.07143 0.453599
1.31615 3.08252 0.478935
1.30708 3.09158 0.453601
1.2945 3.10417 0.478941
1.28831 3.11035 0.453605
1.31615 3.08252 0.478935
1.2945 3.10417 0.478941
1.30708 3.09158 0.453601
1.28831 3.11035 0.302009
1.29441 3.10425 0.276786
1.30705 3.09161 0.302001
1.30705 3.09161 0.302001
1.29441 3.10425 0.276786
1.31607 3.08259 0.276779
1.32724 3.07142 0.504293
1.31615 3.08252 0.478935
1.33718 3.06148 0.478933
1.31615 3.08252 0.478935
1.32723 3.07143 0.453599
1.33718 3.06148 0.478933
1.49256 2.90611 0.453669
1.50289 2.89577 0.479013
1.48223 2.91643 0.479001
1.48223 2.91643 0.479001
1.50289 2.89577 0.479013
1.49257 2.90609 0.504372
1.49257 2.90609 0.504372
1.50289 2.89577 0.479013
1.51323 2.88543 0.504385
1.88521 2.51346 0.759998
1.90602 2.49264 0.759978
1.8956 2.50306 0.785748
2.19127 2.20739 0.226555
2.19928 2.19938 0.201394
2.19928 2.19938 0.251699
2.19928 2.19938 0.302091
2.19132 2.20734 0.2769
2.19928 2.19938 0.251699
2.11618 2.28248 0.403096
2.09503 2.30363 0.40311
2.10562 2.29304 0.377846
2.17929 2.21937 0.403053
2.19132 2.20734 0.428326
2.16947 2.22919 0.428339
2.19928 2.19938 0.403041
2.19132 2.20734 0.428326
2.17929 2.21937 0.403053
2.16947 2.22919 0.428339
2.17929 2.21937 0.453633
2.15843 2.24024 0.453647
2.19131 2.20735 0.47895
2.17929 2.21937 0.453633
2.19928 2.19938 0.453619
2.19928 2.19938 0.453619
2.19928 2.19938 0.504291
2.19131 2.20735 0.47895
2.19131 2.20735 0.47895
2.19928 2.19938 0.504291
2.17928 2.21938 0.504308
2.1693 2.22936 0.176367
2.17913 2.21954 0.151322
2.19117 2.20749 0.17634
2.19127 2.20739 0.226555
2.19928 2.19938 0.251699
2.17927 2.21939 0.251744
2.17927 2.21939 0.251744
2.19928 2.19938 0.251699
2.19132 2.20734 0.2769
2.10553 2.29313 0.226614
2.09491 2.30375 0.201434
2.11605 2.28261 0.201432
2.1372 2.26147 0.201451
2.12662 2.27204 0.176261
2.14787 2.25079 0.176315
2.1372 2.26147 0.201451
2.11605 2.28261 0.201432
2.12662 2.27204 0.176261
2.16946 2.2292 0.276933
2.19132 2.20734 0.2769
2.17929 2.21937 0.302114
2.16946 2.2292 0.276933
2.17927 2.21939 0.251744
2.19132 2.20734 0.2769
2.16945 2.22921 0.580555
2.17928 2.21938 0.555099
2.19129 2.20737 0.580532
2.19129 2.20737 0.580532
2.17927 2.21939 0.606025
2.16945 2.22921 0.580555
2.15841 2.24025 0.555118
2.17928 2.21938 0.555099
2.16945 2.22921 0.580555
2.16944 2.22922 0.734055
2.14804 2.25062 0.734064
2.15841 2.24025 0.708373
2.14804 2.25063 0.682738
2.16944 2.22922 0.682719
2.15841 2.24025 0.708373
2.19128 2.20738 0.63153
2.17927 2.21939 0.606025
2.19928 2.19938 0.605999
2.16944 2.22922 0.631556
2.17927 2.21939 0.606025
2.19128 2.20738 0.63153
1.93725 2.46141 0.837317
1.94766 2.451 0.86316
1.92679 2.47187 0.863195
2.05276 2.34591 0.708429
2.06331 2.33535 0.682792
2.07386 2.3248 0.708414
2.07386 2.3248 0.708414
2.06331 2.33535 0.682792
2.08443 2.31423 0.682778
2.15841 2.24026 0.657127
2.14804 2.25062 0.631578
2.16944 2.22922 0.631556
2.15841 2.24026 0.657127
2.16944 2.22922 0.682719
2.14804 2.25063 0.682738
2.04222 2.35644 0.682809
2.06331 2.33535 0.682792
2.05276 2.34591 0.708429
1.9897 2.40896 0.453738
1.96874 2.42992 0.453743
1.97921 2.41945 0.428435
1.93736 2.4613 0.42844
1.92692 2.47174 0.45375
1.91649 2.48217 0.428441
1.94781 2.45085 0.453747
1.92692 2.47174 0.45375
1.93736 2.4613 0.42844
1.92691 2.47175 0.35265
1.9478 2.45086 0.352655
1.93736 2.46131 0.377895
1.93736 2.46131 0.377895
1.91648 2.48218 0.377891
1.92691 2.47175 0.35265
1.92691 2.47175 0.35265
1.91648 2.48218 0.377891
1.90605 2.49261 0.352644
1.93736 2.46131 0.377895
1.9478 2.45086 0.352655
1.95826 2.4404 0.377896
1.96871 2.42995 0.302232
1.9792 2.41946 0.327437
1.95825 2.44041 0.327435
1.95825 2.44041 0.327435
1.94778 2.45088 0.302227
1.96871 2.42995 0.302232
1.8126 2.58607 0.479091
1.82295 2.57571 0.453749
1.83332 2.56534 0.479092
1.82295 2.57571 0.453749
1.84369 2.55497 0.453751
1.83332 2.56534 0.479092
1.92692 2.47174 0.403156
1.91648 2.48218 0.377891
1.93736 2.46131 0.377895
1.92692 2.47174 0.403156
1.93736 2.4613 0.42844
1.91649 2.48217 0.428441
1.91649 2.48217 0.428441
1.89565 2.50301 0.42844
1.90606 2.4926 0.403154
1.90606 2.4926 0.403154
1.92692 2.47174 0.403156
1.91649 2.48217 0.428441
1.91648 2.48218 0.377891
1.92692 2.47174 0.403156
1.90606 2.4926 0.403154
1.90605 2.49261 0.352644
1.88523 2.51343 0.352637
1.89563 2.50303 0.327412
1.88521 2.51345 0.302193
1.90603 2.49263 0.302206
1.89563 2.50303 0.327412
1.51322 2.88545 0.45368
1.50289 2.89577 0.479013
1.49256 2.90611 0.453669
1.49256 2.90611 0.453669
1.50288 2.89578 0.428361
1.51322 2.88545 0.45368
1.29442 3.10424 0.0748701
1.28831 3.11035 0.100085
1.28831 3.11035 0.0494157
1.28831 3.11035 0
1.29529 3.10337 0.024705
1.28831 3.11035 0.0494157
1.307 3.09167 0.150698
1.28831 3.11035 0.150672
1.29431 3.10435 0.12542
1.28831 3.11035 0.150672
1.28831 3.11035 0.100085
1.29431 3.10435 0.12542
2.19928 2.19938 0
2.19217 2.20649 0.0257489
2.18013 2.21854 1.13803e-14
1.28831 3.11035 0.251574
1.28831 3.11035 0.201144
1.29438 3.10428 0.226356
1.29438 3.10428 0.226356
1.30704 3.09162 0.251562
1.28831 3.11035 0.251574
1.30702 3.09164 0.201134
1.29438 3.10428 0.226356
1.28831 3.11035 0.201144
1.30702 3.09164 0.201134
1.31601 3.08265 0.175937
1.32714 3.07152 0.20116
1.31605 3.08262 0.226352
1.33709 3.06157 0.226374
1.32717 3.07149 0.251567
1.32717 3.07149 0.251567
1.30704 3.09162 0.251562
1.31605 3.08262 0.226352
1.32714 3.07152 0.20116
1.33709 3.06157 0.226374
1.31605 3.08262 0.226352
1.31605 3.08262 0.226352
1.30702 3.09164 0.201134
1.32714 3.07152 0.20116
1.30704 3.09162 0.251562
1.29438 3.10428 0.226356
1.31605 3.08262 0.226352
1.29438 3.10428 0.226356
1.30702 3.09164 0.201134
1.31605 3.08262 0.226352
1.29435 3.10432 0.175915
1.28831 3.11035 0.201144
1.28831 3.11035 0.150672
1.29435 3.10432 0.175915
1.28831 3.11035 0.150672
1.307 3.09167 0.150698
1.307 3.09167 0.150698
1.31601 3.08265 0.175937
1.29435 3.10432 0.175915
1.29435 3.10432 0.175915
1.30702 3.09164 0.201134
1.28831 3.11035 0.201144
1.31601 3.08265 0.175937
1.30702 3.09164 0.201134
1.29435 3.10432 0.175915
1.33717 3.06149 0.428289
1.32723 3.07143 0.453599
1.31613 3.08254 0.428289
1.32723 3.07143 0.453599
1.30708 3.09158 0.453601
1.31613 3.08254 0.428289
1.31613 3.08254 0.428289
1.32722 3.07145 0.402998
1.33717 3.06149 0.428289
1.33711 3.06155 0.276785
1.32717 3.07149 0.251567
1.34771 3.05096 0.251587
1.31607 3.08259 0.276779
1.32717 3.07149 0.251567
1.33711 3.06155 0.276785
1.35794 3.04072 0.276801
1.33711 3.06155 0.276785
1.34771 3.05096 0.251587
1.34773 3.05094 0.302008
1.33711 3.06155 0.276785
1.35794 3.04072 0.276801
1.34773 3.05094 0.302008
1.35794 3.04072 0.276801
1.36839 3.03027 0.302022
1.50287 2.89579 0.3778
1.51321 2.88546 0.403074
1.49255 2.90612 0.403066
1.49255 2.90612 0.403066
1.51321 2.88546 0.403074
1.50288 2.89578 0.428361
1.42017 2.9785 0.428318
1.44086 2.9578 0.428329
1.43052 2.96814 0.453634
1.43051 2.96815 0.403035
1.44086 2.9578 0.428329
1.42017 2.9785 0.428318
1.44085 2.95782 0.377773
1.4305 2.96817 0.352518
1.45119 2.94748 0.352528
1.43051 2.96815 0.403035
1.42015 2.97851 0.377762
1.44085 2.95782 0.377773
1.44085 2.95782 0.377773
1.42015 2.97851 0.377762
1.4305 2.96817 0.352518
1.44087 2.95779 0.478975
1.46156 2.9371 0.478988
1.45123 2.94744 0.504344
1.3995 2.99917 0.529699
1.40985 2.98882 0.504317
1.4202 2.97846 0.529712
1.40983 2.98883 0.453623
1.42017 2.9785 0.428318
1.43052 2.96814 0.453634
1.39946 2.9992 0.428308
[...]
<PointData Scalars="View Factor" >
<DataArray type="Float64" Name="View Factor" NumberOfComponents="1" format="ascii">
0.000759681
0.000759681
0.000759681
0.000157285
0.000157285
0.000157285
0.000169077
0.000169077
0.000169077
0.00109486
0.00109486
0.00109486
0.00110882
0.00110882
0.00110882
0.0001824
0.0001824
0.0001824
0.00158767
0.00158767
0.00158767
0.000659674
0.000659674
0.000659674
0.000705868
0.000705868
0.000705868
0.000627761
0.000627761
0.000627761
0.000584202
0.000584202
0.000584202
0.000533571
0.000533571
0.000533571
0.000204758
0.000204758
0.000204758
0.000189337
0.000189337
0.000189337
0.000333863
0.000333863
0.000333863
0.000310633
0.000310633
0.000310633
0.000326264
0.000326264
0.000326264
0.000312033
0.000312033
0.000312033
0.000298217
0.000298217
0.000298217
0.000213161
0.000213161
0.000213161
0.000196883
0.000196883
0.000196883
0.000712632
0.000712632
0.000712632
0.000146297
0.000146297
0.000146297
8.12209e-05
8.12209e-05
8.12209e-05
0.00180643
0.00180643
0.00180643
0.00155279
0.00155279
0.00155279
0.00156665
0.00156665
0.00156665
0.00159284
0.00159284
0.00159284
0.00157427
0.00157427
0.00157427
0.00143854
0.00143854
0.00143854
0.00139634
0.00139634
0.00139634
0.00141961
0.00141961
0.00141961
0.00141467
0.00141467
0.00141467
0.00141926
0.00141926
0.00141926
0.00144302
0.00144302
0.00144302
0.00142626
0.00142626
0.00142626
0.00156659
0.00156659
0.00156659
0.00156128
0.00156128
0.00156128
0.00139036
0.00139036
0.00139036
0.00140176
0.00140176
0.00140176
0.0012065
0.0012065
0.0012065
0.00119674
0.00119674
0.00119674
0.00117981
0.00117981
0.00117981
8.49475e-05
8.49475e-05
8.49475e-05
0.000688956
0.000688956
0.000688956
0.000672499
0.000672499
0.000672499
0.000444648
0.000444648
0.000444648
0.000342002
0.000342002
0.000342002
0.00035824
0.00035824
0.00035824
0.000396371
0.000396371
0.000396371
0.000273164
0.000273164
0.000273164
0.000250967
0.000250967
0.000250967
0.00023089
0.00023089
0.00023089
0.000711292
0.000711292
0.000711292
0.000684364
0.000684364
0.000684364
0.000678894
0.000678894
0.000678894
0.000710082
0.000710082
0.000710082
0.000712727
0.000712727
0.000712727
0.000711778
0.000711778
0.000711778
0.000670195
0.000670195
0.000670195
0.000677608
0.000677608
0.000677608
0.000162976
0.000162976
0.000162976
0.000152042
0.000152042
0.000152042
0.000300286
0.000300286
0.000300286
0.000226697
0.000226697
0.000226697
0.000237458
0.000237458
0.000237458
0.000136295
0.000136295
0.000136295
0.000133849
0.000133849
0.000133849
5.96506e-05
5.96506e-05
5.96506e-05
9.81284e-05
9.81284e-05
9.81284e-05
0.000101369
0.000101369
0.000101369
0.000256324
0.000256324
0.000256324
0.000243288
0.000243288
0.000243288
0.000101433
0.000101433
0.000101433
0.00030309
0.00030309
0.00030309
0.000336006
0.000336006
0.000336006
0.000315388
0.000315388
0.000315388
0.00051439
0.00051439
0.00051439
0.000496744
0.000496744
0.000496744
0.000532332
0.000532332
0.000532332
0.000479753
0.000479753
0.000479753
0.000636779
0.000636779
0.000636779
0.000662272
0.000662272
0.000662272
0.000327966
0.000327966
0.000327966
0.000337765
0.000337765
0.000337765
0.000448162
0.000448162
0.000448162
0.000368684
0.000368684
0.000368684
0.000381156
0.000381156
0.000381156
0.00039331
0.00039331
0.00039331
0.000433919
0.000433919
0.000433919
0.000613236
0.000613236
0.000613236
0.000735065
0.000735065
0.000735065
0.00119913
0.00119913
0.00119913
0.00120894
0.00120894
0.00120894
0.00175618
0.00175618
0.00175618
0.0018009
0.0018009
0.0018009
0.00168901
0.00168901
0.00168901
0.00171202
0.00171202
0.00171202
0.00076718
0.00076718
0.00076718
0.00162781
0.00162781
0.00162781
0.00160615
0.00160615
0.00160615
0.00163318
0.00163318
0.00163318
0.00161987
0.00161987
0.00161987
0.00157317
0.00157317
0.00157317
0.00157978
0.00157978
0.00157978
0.00158634
0.00158634
0.00158634
0.00160634
0.00160634
0.00160634
0.00160074
0.00160074
0.00160074
0.00161411
0.00161411
0.00161411
0.00166923
0.00166923
0.00166923
0.00167486
0.00167486
0.00167486
0.00165528
0.00165528
0.00165528
0.00164691
0.00164691
0.00164691
0.00164141
0.00164141
0.00164141
0.00142486
0.00142486
0.00142486
0.00143094
0.00143094
0.00143094
0.00143656
0.00143656
0.00143656
0.00153995
0.00153995
0.00153995
0.00154722
0.00154722
0.00154722
0.00152027
0.00152027
0.00152027
0.00150766
0.00150766
0.00150766
0.00148808
0.00148808
0.00148808
0.00123892
0.00123892
0.00123892
0.00122885
0.00122885
0.00122885
0.00130086
0.00130086
0.00130086
0.00131153
0.00131153
0.00131153
0.0013368
0.0013368
0.0013368
0.00133321
0.00133321
0.00133321
0.00134417
0.00134417
0.00134417
0.00124522
0.00124522
0.00124522
0.00127278
0.00127278
0.00127278
0.00130792
0.00130792
0.00130792
0.00132569
0.00132569
0.00132569
0.00137249
0.00137249
0.00137249
0.00142974
0.00142974
0.00142974
0.00141154
0.00141154
0.00141154
0.00136159
0.00136159
0.00136159
0.00139511
0.00139511
0.00139511
0.00140651
0.00140651
0.00140651
0.00140004
0.00140004
0.00140004
0.00123217
0.00123217
0.00123217
0.00118486
0.00118486
0.00118486
0.00111152
0.00111152
0.00111152
0.00122369
0.00122369
0.00122369
0.00123095
0.00123095
0.00123095
0.00121815
0.00121815
0.00121815
0.00120396
0.00120396
0.00120396
0.0012281
0.0012281
0.0012281
0.00122097
0.00122097
0.00122097
0.00119422
0.00119422
0.00119422
0.00120131
0.00120131
0.00120131
0.001175
0.001175
0.001175
0.00119161
0.00119161
0.00119161
0.00123889
0.00123889
0.00123889
0.00122513
0.00122513
0.00122513
0.00111685
0.00111685
0.00111685
0.000348975
0.000348975
0.000348975
0.000692856
0.000692856
0.000692856
0.000317955
0.000317955
0.000317955
0.00067454
0.00067454
0.00067454
0.00116795
0.00116795
0.00116795
0.00117025
0.00117025
0.00117025
0.00117744
0.00117744
0.00117744
9.53706e-05
9.53706e-05
9.53706e-05
9.13569e-05
9.13569e-05
9.13569e-05
8.37642e-05
8.37642e-05
8.37642e-05
8.7567e-05
8.7567e-05
8.7567e-05
0.00010149
0.00010149
0.00010149
0.000103032
0.000103032
0.000103032
0.000121302
0.000121302
0.000121302
9.31863e-05
9.31863e-05
9.31863e-05
4.76637e-05
4.76637e-05
4.76637e-05
4.94426e-05
4.94426e-05
4.94426e-05
4.52515e-05
4.52515e-05
4.52515e-05
4.47103e-05
4.47103e-05
4.47103e-05
5.21709e-05
5.21709e-05
5.21709e-05
5.28421e-05
5.28421e-05
5.28421e-05
5.09035e-05
5.09035e-05
5.09035e-05
4.82441e-05
4.82441e-05
4.82441e-05
4.96307e-05
4.96307e-05
4.96307e-05
5.15385e-05
5.15385e-05
5.15385e-05
5.43533e-05
5.43533e-05
5.43533e-05
4.36282e-05
4.36282e-05
4.36282e-05
4.70402e-05
4.70402e-05
4.70402e-05
4.64928e-05
4.64928e-05
4.64928e-05
4.41403e-05
4.41403e-05
4.41403e-05
4.25422e-05
4.25422e-05
4.25422e-05
3.8145e-05
3.8145e-05
3.8145e-05
3.29909e-05
3.29909e-05
3.29909e-05
3.29982e-05
3.29982e-05
3.29982e-05
5.92222e-05
5.92222e-05
5.92222e-05
5.91937e-05
5.91937e-05
5.91937e-05
5.75398e-05
5.75398e-05
5.75398e-05
0.000321418
0.000321418
0.000321418
0.000309526
0.000309526
0.000309526
0.000321423
0.000321423
0.000321423
0.000308744
0.000308744
0.000308744
0.000696429
0.000696429
0.000696429
0.000656568
0.000656568
0.000656568
0.000706978
0.000706978
0.000706978
0.00029999
0.00029999
0.00029999
0.000314037
0.000314037
0.000314037
0.000394197
0.000394197
0.000394197
0.000414071
0.000414071
0.000414071
0.000434891
0.000434891
0.000434891
0.000481925
0.000481925
0.000481925
0.000458018
0.000458018
0.000458018
0.000336694
0.000336694
0.000336694
0.000335181
0.000335181
0.000335181
0.000347135
0.000347135
0.000347135
0.000378294
0.000378294
0.000378294
0.00034839
0.00034839
0.00034839
0.000364488
0.000364488
0.000364488
0.000240593
0.000240593
0.000240593
0.000261854
0.000261854
0.000261854
0.00069553
0.00069553
0.00069553
0.000701155
0.000701155
0.000701155
0.000705532
0.000705532
0.000705532
0.000718386
0.000718386
0.000718386
0.000715881
0.000715881
0.000715881
0.000716705
0.000716705
0.000716705
0.000682015
0.000682015
0.000682015
0.000690975
0.000690975
0.000690975
0.000680919
0.000680919
0.000680919
0.000685443
0.000685443
0.000685443
0.000282419
0.000282419
0.000282419
0.000274378
0.000274378
0.000274378
0.000263549
0.000263549
0.000263549
0.000221854
0.000221854
0.000221854
0.00016032
0.00016032
0.00016032
4.15983e-05
4.15983e-05
4.15983e-05
7.67505e-05
7.67505e-05
7.67505e-05
8.7591e-05
8.7591e-05
8.7591e-05
8.23224e-05
8.23224e-05
8.23224e-05
9.20627e-05
9.20627e-05
9.20627e-05
8.14675e-05
8.14675e-05
8.14675e-05
0.000191721
0.000191721
0.000191721
0.00019665
0.00019665
0.00019665
0.000276081
0.000276081
0.000276081
0.00030042
0.00030042
0.00030042
0.000300989
0.000300989
0.000300989
0.000314622
0.000314622
0.000314622
0.000206031
0.000206031
0.000206031
0.000214545
0.000214545
0.000214545
0.000206363
0.000206363
0.000206363
0.000260068
0.000260068
0.000260068
0.000253583
0.000253583
0.000253583
0.000126318
0.000126318
0.000126318
0.000221598
0.000221598
0.000221598
0.000211605
0.000211605
0.000211605
0.000227041
0.000227041
0.000227041
0.000222513
0.000222513
0.000222513
0.000206633
0.000206633
0.000206633
0.000212159
0.000212159
0.000212159
0.000301638
0.000301638
0.000301638
0.000345716
0.000345716
0.000345716
0.000315294
0.000315294
0.000315294
0.000364979
0.000364979
0.000364979
0.000326173
0.000326173
0.000326173
0.000347321
0.000347321
0.000347321
0.000288671
0.000288671
0.000288671
0.000254643
0.000254643
0.000254643
0.000240909
0.000240909
0.000240909
0.0002999
0.0002999
0.0002999
0.000308368
0.000308368
0.000308368
0.000336952
0.000336952
0.000336952
0.000358618
0.000358618
0.000358618
0.000318189
0.000318189
0.000318189
0.000347703
0.000347703
0.000347703
0.00027498
0.00027498
0.00027498
0.000259723
0.000259723
0.000259723
0.000239536
0.000239536
0.000239536
0.00023366
0.00023366
0.00023366
0.000247094
0.000247094
0.000247094
0.000267945
0.000267945
0.000267945
0.00032468
0.00032468
0.00032468
0.000304566
0.000304566
0.000304566
0.000317675
0.000317675
0.000317675
0.000348511
0.000348511
0.000348511
0.000158292
0.000158292
0.000158292
0.000215697
0.000215697
0.000215697
0.000161697
0.000161697
0.000161697
0.000593159
0.000593159
0.000593159
0.000710782
0.000710782
0.000710782
0.000635562
0.000635562
0.000635562
0.000698854
0.000698854
0.000698854
0.000686513
0.000686513
0.000686513
0.00067542
0.00067542
0.00067542
0.000614108
0.000614108
0.000614108
0.000573076
0.000573076
0.000573076
0.000592905
0.000592905
0.000592905
0.000652009
0.000652009
0.000652009
0.000423364
0.000423364
0.000423364
0.000402441
0.000402441
0.000402441
0.000459476
0.000459476
0.000459476
0.000504811
0.000504811
0.000504811
0.000291119
0.000291119
0.000291119
0.000306941
0.000306941
0.000306941
0.000448349
0.000448349
0.000448349
0.000433369
0.000433369
0.000433369
0.000255133
0.000255133
0.000255133
0.000268576
0.000268576
0.000268576
0.000261411
0.000261411
0.000261411
0.000236378
0.000236378
0.000236378
0.00023075
0.00023075
0.00023075
0.00024218
0.00024218
0.00024218
0.000369173
0.000369173
0.000369173
0.000445577
0.000445577
0.000445577
0.000430836
0.000430836
0.000430836
0.000392426
0.000392426
0.000392426
0.000284333
0.000284333
0.000284333
0.000300633
0.000300633
0.000300633
0.000458586
0.000458586
0.000458586
0.000347526
0.000347526
0.000347526
0.000379903
0.000379903
0.000379903
0.000491818
0.000491818
0.000491818
0.000759358
0.000759358
0.000759358
0.00072229
0.00072229
0.00072229
0.000656774
0.000656774
0.000656774
0.000406405
0.000406405
0.000406405
0.000393613
0.000393613
0.000393613
0.000462894
0.000462894
0.000462894
0.000419485
0.000419485
0.000419485
0.0012644
0.0012644
0.0012644
0.00132183
0.00132183
0.00132183
0.00131103
0.00131103
0.00131103
0.00131849
0.00131849
0.00131849
0.00129083
0.00129083
0.00129083
0.00126194
0.00126194
0.00126194
0.00127236
0.00127236
0.00127236
0.001513
0.001513
0.001513
0.00154575
0.00154575
0.00154575
0.00152563
0.00152563
0.00152563
0.00124141
0.00124141
0.00124141
0.00123125
0.00123125
0.00123125
0.000470591
0.000470591
0.000470591
0.000443964
0.000443964
0.000443964
0.000405663
0.000405663
0.000405663
0.000392759
0.000392759
0.000392759
0.000341087
0.000341087
0.000341087
0.000359822
0.000359822
0.000359822
0.00078215
0.00078215
0.00078215
0.000765532
0.000765532
0.000765532
0.000770616
0.000770616
0.000770616
0.000794123
0.000794123
0.000794123
0.000764357
0.000764357
0.000764357
0.000770626
0.000770626
0.000770626
0.000729544
0.000729544
0.000729544
0.000741582
0.000741582
0.000741582
0.00140385
0.00140385
0.00140385
0.00140816
0.00140816
0.00140816
0.00147422
0.00147422
0.00147422
0.00145481
0.00145481
0.00145481
0.00144977
0.00144977
0.00144977
0.00151093
0.00151093
0.00151093
0.00151572
0.00151572
0.00151572
0.00149082
0.00149082
0.00149082
0.00149811
0.00149811
0.00149811
0.0015537
0.0015537
0.0015537
0.00154873
0.00154873
0.00154873
0.00152823
0.00152823
0.00152823
0.00153563
0.00153563
0.00153563
0.001523
0.001523
0.001523
0.00150313
0.00150313
0.00150313
0.00149679
0.00149679
0.00149679
0.00148296
0.00148296
0.00148296
0.00147586
0.00147586
0.00147586
0.00154089
0.00154089
0.00154089
0.0015344
0.0015344
0.0015344
0.00152818
0.00152818
0.00152818
0.00150924
0.00150924
0.00150924
0.00151456
0.00151456
0.00151456
0.00150212
0.00150212
0.00150212
0.00147236
0.00147236
0.00147236
0.0014603
0.0014603
0.0014603
0.00144151
0.00144151
0.00144151
0.0014349
0.0014349
0.0014349
0.00126433
0.00126433
0.00126433
0.00128227
0.00128227
0.00128227
0.00129282
0.00129282
0.00129282
0.00125676
0.00125676
0.00125676
0.0012263
0.0012263
0.0012263
0.00123637
0.00123637
0.00123637
0.00123369
0.00123369
0.00123369
0.00125401
0.00125401
0.00125401
0.00126141
0.00126141
0.00126141
0.00125117
0.00125117
0.00125117
0.00133659
0.00133659
0.00133659
0.00135864
0.00135864
0.00135864
0.00132949
0.00132949
0.00132949
0.00134041
0.00134041
0.00134041
0.00135463
0.00135463
0.00135463
0.00136575
0.00136575
0.00136575
0.00127983
0.00127983
0.00127983
0.00129729
0.00129729
0.00129729
0.00125222
0.00125222
0.00125222
0.00126601
0.00126601
0.00126601
0.00127636
0.00127636
0.00127636
0.00126943
0.00126943
0.00126943
0.00124899
0.00124899
0.00124899
0.0012421
0.0012421
0.0012421
0.00124222
0.00124222
0.00124222
0.0012356
0.0012356
0.0012356
0.00124565
0.00124565
0.00124565
0.00126253
0.00126253
0.00126253
0.00126916
0.00126916
0.00126916
0.00126545
0.00126545
0.00126545
0.00125892
0.00125892
0.00125892
0.0012899
0.0012899
0.0012899
0.00141631
0.00141631
0.00141631
0.00137969
0.00137969
0.00137969
0.00140473
0.00140473
0.00140473
0.00138655
0.00138655
0.00138655
0.00136618
0.00136618
0.00136618
0.00137739
0.00137739
0.00137739
0.00135301
0.00135301
0.00135301
0.00137072
0.00137072
0.00137072
0.00137528
0.00137528
0.00137528
0.00138196
0.00138196
0.00138196
0.00125523
0.00125523
0.00125523
0.00126161
0.00126161
0.00126161
0.00123869
0.00123869
0.00123869
0.00127824
0.00127824
0.00127824
0.0012845
0.0012845
0.0012845
0.00125145
0.00125145
0.00125145
0.00116981
0.00116981
0.00116981
0.00121572
0.00121572
0.00121572
0.00120599
0.00120599
0.00120599
0.00118978
0.00118978
0.00118978
0.00118319
0.00118319
0.00118319
0.001124
0.001124
0.001124
0.00108781
0.00108781
0.00108781
0.00109936
0.00109936
0.00109936
0.00124384
0.00124384
0.00124384
0.00122766
0.00122766
0.00122766
0.0012233
0.0012233
0.0012233
0.00118877
0.00118877
0.00118877
0.00121419
0.00121419
0.00121419
0.00119844
0.00119844
0.00119844
0.00119429
0.00119429
0.00119429
0.00121788
0.00121788
0.00121788
0.00120387
0.00120387
0.00120387
0.0012076
0.0012076
0.0012076
0.00119795
0.00119795
0.00119795
0.00125538
0.00125538
0.00125538
0.00124823
0.00124823
0.00124823
0.00125847
0.00125847
0.00125847
0.00127605
0.00127605
0.00127605
0.00128321
0.00128321
0.00128321
0.00127279
0.00127279
0.00127279
0.00119857
0.00119857
0.00119857
0.0012221
0.0012221
0.0012221
0.00121525
0.00121525
0.00121525
0.00118889
0.00118889
0.00118889
0.000238514
0.000238514
0.000238514
0.000265199
0.000265199
0.000265199
0.000252956
0.000252956
0.000252956
0.00107445
0.00107445
0.00107445
0.00089859
0.00089859
0.00089859
0.00092117
0.00092117
0.00092117
0.00109768
0.00109768
0.00109768
0.00105463
0.00105463
0.00105463
0.00115146
0.00115146
0.00115146
0.00114216
0.00114216
0.00114216
0.00111881
0.00111881
0.00111881
0.00112593
0.00112593
0.00112593
0.00115361
0.00115361
0.00115361
0.00114429
0.00114429
0.00114429
0.00111077
0.00111077
0.00111077
0.00112787
0.00112787
0.00112787
8.5019e-05
8.5019e-05
8.5019e-05
7.94155e-05
7.94155e-05
7.94155e-05
8.2711e-05
8.2711e-05
8.2711e-05
8.63163e-05
8.63163e-05
8.63163e-05
9.27847e-05
9.27847e-05
9.27847e-05
9.87319e-05
9.87319e-05
9.87319e-05
8.39414e-05
8.39414e-05
8.39414e-05
8.8838e-05
8.8838e-05
8.8838e-05
8.63049e-05
8.63049e-05
8.63049e-05
9.01798e-05
9.01798e-05
9.01798e-05
0.000133065
0.000133065
0.000133065
0.000118951
0.000118951
0.000118951
0.000111659
0.000111659
0.000111659
0.000122289
0.000122289
0.000122289
0.000124762
0.000124762
0.000124762
0.000114792
0.000114792
0.000114792
0.000109714
0.000109714
0.000109714
0.000135584
0.000135584
0.000135584
0.000129371
0.000129371
0.000129371
0.000145089
0.000145089
0.000145089
0.000147984
0.000147984
0.000147984
0.000106677
0.000106677
0.000106677
9.73324e-05
9.73324e-05
9.73324e-05
9.59635e-05
9.59635e-05
9.59635e-05
0.000100187
0.000100187
0.000100187
0.000115606
0.000115606
0.000115606
0.000108519
0.000108519
0.000108519
0.000103632
0.000103632
0.000103632
9.03929e-05
9.03929e-05
9.03929e-05
9.44659e-05
9.44659e-05
9.44659e-05
9.15831e-05
9.15831e-05
9.15831e-05
9.75098e-05
9.75098e-05
9.75098e-05
0.000208259
0.000208259
0.000208259
0.00019342
0.00019342
0.00019342
0.000152226
0.000152226
0.000152226
0.000166414
0.000166414
0.000166414
0.000178829
0.000178829
0.000178829
0.000171118
0.000171118
0.000171118
0.000162836
0.000162836
0.000162836
0.000188262
0.000188262
0.000188262
0.000183883
0.000183883
0.000183883
0.000142053
0.000142053
0.000142053
0.000148629
0.000148629
0.000148629
7.65229e-05
7.65229e-05
7.65229e-05
5.11505e-05
5.11505e-05
5.11505e-05
5.41353e-05
5.41353e-05
5.41353e-05
5.93498e-05
5.93498e-05
5.93498e-05
5.70936e-05
5.70936e-05
5.70936e-05
7.72673e-05
7.72673e-05
7.72673e-05
7.66475e-05
7.66475e-05
7.66475e-05
0.00118667
0.00118667
0.00118667
0.00118023
0.00118023
0.00118023
5.30079e-05
5.30079e-05
5.30079e-05
8.83476e-05
8.83476e-05
8.83476e-05
0.000304069
0.000304069
0.000304069
9.83804e-05
9.83804e-05
9.83804e-05
0.000783675
0.000783675
0.000783675
0.000180852
0.000180852
0.000180852
0.000135065
0.000135065
0.000135065
0.000103804
0.000103804
0.000103804
0.000105633
0.000105633
0.000105633
0.000117106
0.000117106
0.000117106
0.00011242
0.00011242
0.00011242
8.2747e-05
8.2747e-05
8.2747e-05
6.11237e-05
6.11237e-05
6.11237e-05
5.65401e-05
5.65401e-05
5.65401e-05
5.79463e-05
5.79463e-05
5.79463e-05
5.57267e-05
5.57267e-05
5.57267e-05
8.7932e-05
8.7932e-05
8.7932e-05
9.80712e-05
9.80712e-05
9.80712e-05
9.41502e-05
9.41502e-05
9.41502e-05
8.23831e-05
8.23831e-05
8.23831e-05
8.08683e-05
8.08683e-05
8.08683e-05
8.43347e-05
8.43347e-05
8.43347e-05
8.7055e-05
8.7055e-05
8.7055e-05
9.38634e-05
9.38634e-05
9.38634e-05
8.86883e-05
8.86883e-05
8.86883e-05
3.70365e-05
3.70365e-05
3.70365e-05
3.85103e-05
3.85103e-05
3.85103e-05
4.53174e-05
4.53174e-05
4.53174e-05
4.14481e-05
4.14481e-05
4.14481e-05
4.30232e-05
4.30232e-05
4.30232e-05
3.92492e-05
3.92492e-05
3.92492e-05
3.96431e-05
3.96431e-05
3.96431e-05
4.17556e-05
4.17556e-05
4.17556e-05
4.34002e-05
4.34002e-05
4.34002e-05
3.3926e-05
3.3926e-05
3.3926e-05
3.36803e-05
3.36803e-05
3.36803e-05
3.9454e-05
3.9454e-05
3.9454e-05
3.29932e-05
3.29932e-05
3.29932e-05
3.38057e-05
3.38057e-05
3.38057e-05
5.29264e-05
5.29264e-05
5.29264e-05
5.01083e-05
5.01083e-05
5.01083e-05
5.29149e-05
5.29149e-05
5.29149e-05
5.43926e-05
5.43926e-05
5.43926e-05
5.44069e-05
5.44069e-05
5.44069e-05
5.7561e-05
5.7561e-05
5.7561e-05
5.00732e-05
5.00732e-05
5.00732e-05
0.000165165
0.000165165
0.000165165
0.000107158
0.000107158
0.000107158
3.64116e-05
3.64116e-05
3.64116e-05
4.11651e-05
4.11651e-05
4.11651e-05
0.000173179
0.000173179
0.000173179
0.000161783
0.000161783
0.000161783
0.000297383
0.000297383
0.000297383
0.000296423
0.000296423
0.000296423