<VTKFile type="UnstructuredGrid" version="1.0">
<UnstructuredGrid>
<Piece NumberOfPoints="10830" NumberOfCells="3610">
<Points>
<DataArray type="Float64" NumberOfComponents="3" format="ascii">
3.10314 1.29552 4.20575
3.11025 1.28841 4.18
3.11025 1.28841 4.23146
3.11025 1.28841 4.73508
3.11025 1.28841 4.786
3.10226 1.2964 4.76053
3.11025 1.28841 4.73508
3.10226 1.2964 4.76053
3.09025 1.30841 4.7351
2.21656 2.1821 5.20759
2.22913 2.16953 5.225
2.19928 2.19938 5.225
2.19928 2.19938 5.225
2.19928 2.19938 5.19484
2.21656 2.1821 5.20759
3.11025 1.28841 4.73508
3.09025 1.30841 4.7351
3.10227 1.29639 4.70968
2.20538 2.19328 4.45679
2.19928 2.19938 4.48201
2.19928 2.19938 4.43157
3.10229 1.29637 4.4569
3.11025 1.28841 4.48209
3.09026 1.3084 4.48211
3.10214 1.29652 4.35634
3.11025 1.28841 4.33128
3.11025 1.28841 4.38139
3.09026 1.3084 4.48211
3.11025 1.28841 4.48209
3.1023 1.29636 4.50731
3.11025 1.28841 4.48209
3.11025 1.28841 4.53254
3.1023 1.29636 4.50731
3.09026 1.3084 4.53255
3.1023 1.29636 4.50731
3.11025 1.28841 4.53254
3.09025 1.30841 4.68431
3.10227 1.29639 4.70968
3.08043 1.31823 4.7097
3.08043 1.31823 4.7097
3.10227 1.29639 4.70968
3.09025 1.30841 4.7351
3.08043 1.31823 4.7097
3.06939 1.32927 4.68432
3.09025 1.30841 4.68431
3.08043 1.31823 4.7097
3.09025 1.30841 4.7351
3.06938 1.32928 4.73512
3.11025 1.28841 4.58304
3.11025 1.28841 4.63362
3.10229 1.29637 4.60833
3.10229 1.29637 4.60833
3.09026 1.3084 4.63363
3.08044 1.31822 4.60834
3.11025 1.28841 4.63362
3.09026 1.3084 4.63363
3.10229 1.29637 4.60833
3.11025 1.28841 4.68429
3.10227 1.29639 4.70968
3.09025 1.30841 4.68431
3.11025 1.28841 4.73508
3.10227 1.29639 4.70968
3.11025 1.28841 4.68429
3.0901 1.30856 4.33132
3.11025 1.28841 4.33128
3.10214 1.29652 4.35634
3.09024 1.30842 4.78603
3.10226 1.2964 4.76053
3.11025 1.28841 4.786
2.80657 1.59209 4.96575
2.81699 1.58167 4.93998
2.8274 1.57126 4.96572
2.19928 2.19938 4.18
2.21889 2.17977 4.18
2.20626 2.1924 4.20471
2.25868 2.13998 4.43159
2.23814 2.16052 4.43157
2.24806 2.1506 4.40637
2.21801 2.18065 4.43156
2.23814 2.16052 4.43157
2.22704 2.17162 4.45678
2.21801 2.18065 4.43156
2.20538 2.19328 4.45679
2.19928 2.19938 4.43157
2.22704 2.17162 4.45678
2.20538 2.19328 4.45679
2.21801 2.18065 4.43156
2.20547 2.19319 4.65894
2.19928 2.19938 4.6843
2.19928 2.19938 4.63361
2.21807 2.1806 4.6843
2.22712 2.17155 4.65894
2.23821 2.16045 4.68429
2.19928 2.19938 4.6843
2.20547 2.19319 4.65894
2.21807 2.1806 4.6843
2.21807 2.1806 4.6843
2.20547 2.19319 4.65894
2.22712 2.17155 4.65894
2.21805 2.18061 4.6336
2.2382 2.16046 4.6336
2.22712 2.17155 4.65894
2.21805 2.18061 4.6336
2.20547 2.19319 4.65894
2.19928 2.19938 4.63361
2.22712 2.17155 4.65894
2.20547 2.19319 4.65894
2.21805 2.18061 4.6336
2.19928 2.19938 4.48201
2.20538 2.19328 4.45679
2.21802 2.18064 4.482
2.21802 2.18064 4.482
2.20538 2.19328 4.45679
2.22704 2.17162 4.45678
2.23821 2.16045 4.68429
2.22712 2.17155 4.65894
2.24816 2.15051 4.65893
2.22712 2.17155 4.65894
2.2382 2.16046 4.6336
2.24816 2.15051 4.65893
2.40353 1.99513 4.63367
2.41386 1.9848 4.65901
2.3932 2.00546 4.659
2.3932 2.00546 4.659
2.41386 1.9848 4.65901
2.40354 1.99512 4.68437
2.40354 1.99512 4.68437
2.41386 1.9848 4.65901
2.4242 1.97446 4.68438
2.79618 1.60248 4.94
2.81699 1.58167 4.93998
2.80657 1.59209 4.96575
3.10224 1.29642 4.40656
3.11025 1.28841 4.38139
3.11025 1.28841 4.4317
3.11025 1.28841 4.48209
3.10229 1.29637 4.4569
3.11025 1.28841 4.4317
3.02715 1.37151 4.5831
3.006 1.39266 4.58311
3.01659 1.38207 4.55785
3.09026 1.3084 4.58305
3.10229 1.29637 4.60833
3.08044 1.31822 4.60834
3.11025 1.28841 4.58304
3.10229 1.29637 4.60833
3.09026 1.3084 4.58305
3.08044 1.31822 4.60834
3.09026 1.3084 4.63363
3.0694 1.32926 4.63365
3.10228 1.29638 4.65895
3.09026 1.3084 4.63363
3.11025 1.28841 4.63362
3.11025 1.28841 4.63362
3.11025 1.28841 4.68429
3.10228 1.29638 4.65895
3.10228 1.29638 4.65895
3.11025 1.28841 4.68429
3.09025 1.30841 4.68431
3.08027 1.31839 4.35637
3.0901 1.30856 4.33132
3.10214 1.29652 4.35634
3.10224 1.29642 4.40656
3.11025 1.28841 4.4317
3.09024 1.30842 4.43174
3.09024 1.30842 4.43174
3.11025 1.28841 4.4317
3.10229 1.29637 4.4569
3.0165 1.38216 4.40661
3.00588 1.39278 4.38143
3.02702 1.37164 4.38143
3.04817 1.35049 4.38145
3.03759 1.36107 4.35626
3.05884 1.33982 4.35631
3.04817 1.35049 4.38145
3.02702 1.37164 4.38143
3.03759 1.36107 4.35626
3.08043 1.31823 4.45693
3.10229 1.29637 4.4569
3.09026 1.3084 4.48211
3.08043 1.31823 4.45693
3.09024 1.30842 4.43174
3.10229 1.29637 4.4569
3.08042 1.31824 4.76055
3.09025 1.30841 4.7351
3.10226 1.2964 4.76053
3.10226 1.2964 4.76053
3.09024 1.30842 4.78603
3.08042 1.31824 4.76055
3.06938 1.32928 4.73512
3.09025 1.30841 4.7351
3.08042 1.31824 4.76055
3.08041 1.31825 4.91405
3.05901 1.33965 4.91406
3.06938 1.32928 4.88837
3.05901 1.33966 4.86274
3.08041 1.31825 4.86272
3.06938 1.32928 4.88837
3.10225 1.29641 4.81153
3.09024 1.30842 4.78603
3.11025 1.28841 4.786
3.08041 1.31825 4.81156
3.09024 1.30842 4.78603
3.10225 1.29641 4.81153
2.84822 1.55044 5.01732
2.85863 1.54003 5.04316
2.83776 1.5609 5.0432
2.96373 1.43493 4.88843
2.97428 1.42438 4.86279
2.98483 1.41383 4.88841
2.98483 1.41383 4.88841
2.97428 1.42438 4.86279
2.9954 1.40326 4.86278
3.06938 1.32929 4.83713
3.05901 1.33965 4.81158
3.08041 1.31825 4.81156
3.06938 1.32929 4.83713
3.08041 1.31825 4.86272
3.05901 1.33966 4.86274
2.95319 1.44547 4.86281
2.97428 1.42438 4.86279
2.96373 1.43493 4.88843
2.90067 1.49799 4.63374
2.87971 1.51895 4.63374
2.89018 1.50848 4.60844
2.84833 1.55033 4.60844
2.83789 1.56077 4.63375
2.82746 1.5712 4.60844
2.85878 1.53988 4.63375
2.83789 1.56077 4.63375
2.84833 1.55033 4.60844
2.83788 1.56078 4.53265
2.85877 1.53989 4.53265
2.84833 1.55034 4.55789
2.84833 1.55034 4.55789
2.82745 1.57121 4.55789
2.83788 1.56078 4.53265
2.83788 1.56078 4.53265
2.82745 1.57121 4.55789
2.81702 1.58164 4.53264
2.84833 1.55034 4.55789
2.85877 1.53989 4.53265
2.86924 1.52943 4.5579
2.87968 1.51898 4.48223
2.89017 1.50849 4.50744
2.86922 1.52944 4.50743
2.86922 1.52944 4.50743
2.85875 1.53991 4.48223
2.87968 1.51898 4.48223
2.72357 1.6751 4.65909
2.73392 1.66474 4.63375
2.74429 1.65437 4.65909
2.73392 1.66474 4.63375
2.75466 1.644 4.63375
2.74429 1.65437 4.65909
2.83789 1.56077 4.58316
2.82745 1.57121 4.55789
2.84833 1.55034 4.55789
2.83789 1.56077 4.58316
2.84833 1.55033 4.60844
2.82746 1.5712 4.60844
2.82746 1.5712 4.60844
2.80662 1.59204 4.60844
2.81703 1.58163 4.58315
2.81703 1.58163 4.58315
2.83789 1.56077 4.58316
2.82746 1.5712 4.60844
2.82745 1.57121 4.55789
2.83789 1.56077 4.58316
2.81703 1.58163 4.58315
2.81702 1.58164 4.53264
2.7962 1.60246 4.53264
2.8066 1.59206 4.50741
2.79618 1.60248 4.48219
2.81701 1.58166 4.48221
2.8066 1.59206 4.50741
2.42419 1.97447 4.63368
2.41386 1.9848 4.65901
2.40353 1.99513 4.63367
2.40353 1.99513 4.63367
2.41385 1.98481 4.60836
2.42419 1.97447 4.63368
2.20539 2.19327 4.25487
2.19928 2.19938 4.28009
2.19928 2.19938 4.22942
2.19928 2.19938 4.18
2.20626 2.1924 4.20471
2.19928 2.19938 4.22942
2.21797 2.1807 4.3307
2.19928 2.19938 4.33067
2.20528 2.19338 4.30542
2.19928 2.19938 4.33067
2.19928 2.19938 4.28009
2.20528 2.19338 4.30542
3.11025 1.28841 4.18
3.10314 1.29552 4.20575
3.0911 1.30756 4.18
2.19928 2.19938 4.43157
2.19928 2.19938 4.38114
2.20536 2.19331 4.40636
2.20536 2.19331 4.40636
2.21801 2.18065 4.43156
2.19928 2.19938 4.43157
2.21799 2.18067 4.38113
2.20536 2.19331 4.40636
2.19928 2.19938 4.38114
2.21799 2.18067 4.38113
2.22698 2.17168 4.35594
2.23811 2.16055 4.38116
2.22702 2.17165 4.40635
2.24806 2.1506 4.40637
2.23814 2.16052 4.43157
2.23814 2.16052 4.43157
2.21801 2.18065 4.43156
2.22702 2.17165 4.40635
2.23811 2.16055 4.38116
2.24806 2.1506 4.40637
2.22702 2.17165 4.40635
2.22702 2.17165 4.40635
2.21799 2.18067 4.38113
2.23811 2.16055 4.38116
2.21801 2.18065 4.43156
2.20536 2.19331 4.40636
2.22702 2.17165 4.40635
2.20536 2.19331 4.40636
2.21799 2.18067 4.38113
2.22702 2.17165 4.40635
2.20532 2.19334 4.35591
2.19928 2.19938 4.38114
2.19928 2.19938 4.33067
2.20532 2.19334 4.35591
2.19928 2.19938 4.33067
2.21797 2.1807 4.3307
2.21797 2.1807 4.3307
2.22698 2.17168 4.35594
2.20532 2.19334 4.35591
2.20532 2.19334 4.35591
2.21799 2.18067 4.38113
2.19928 2.19938 4.38114
2.22698 2.17168 4.35594
2.21799 2.18067 4.38113
2.20532 2.19334 4.35591
2.24814 2.15052 4.60829
2.2382 2.16046 4.6336
2.2271 2.17156 4.60829
2.2382 2.16046 4.6336
2.21805 2.18061 4.6336
2.2271 2.17156 4.60829
2.2271 2.17156 4.60829
2.23819 2.16048 4.583
2.24814 2.15052 4.60829
2.24809 2.15058 4.45679
2.23814 2.16052 4.43157
2.25868 2.13998 4.43159
2.22704 2.17162 4.45678
2.23814 2.16052 4.43157
2.24809 2.15058 4.45679
2.26891 2.12975 4.4568
2.24809 2.15058 4.45679
2.25868 2.13998 4.43159
2.2587 2.13996 4.48201
2.24809 2.15058 4.45679
2.26891 2.12975 4.4568
2.2587 2.13996 4.48201
2.26891 2.12975 4.4568
2.27936 2.1193 4.48202
2.41384 1.98482 4.5578
2.42418 1.97448 4.58307
2.40352 1.99515 4.58307
2.40352 1.99515 4.58307
2.42418 1.97448 4.58307
2.41385 1.98481 4.60836
2.33114 2.06753 4.60832
2.35183 2.04683 4.60833
2.34149 2.05717 4.63363
2.34148 2.05718 4.58304
2.35183 2.04683 4.60833
2.33114 2.06753 4.60832
2.35182 2.04684 4.55777
2.34147 2.05719 4.53252
2.36216 2.03651 4.53253
2.34148 2.05718 4.58304
2.33112 2.06754 4.55776
2.35182 2.04684 4.55777
2.35182 2.04684 4.55777
2.33112 2.06754 4.55776
2.34147 2.05719 4.53252
2.35184 2.04682 4.65898
2.37253 2.02613 4.65899
2.3622 2.03646 4.68434
2.31047 2.08819 4.7097
2.32082 2.07785 4.68432
2.33117 2.06749 4.70971
2.3208 2.07786 4.63362
2.33114 2.06753 4.60832
2.34149 2.05717 4.63363
2.31043 2.08823 4.60831
2.33114 2.06753 4.60832
2.3208 2.07786 4.63362
2.23821 2.16045 4.68429
2.24816 2.15051 4.65893
2.25876 2.1399 4.68429
2.24814 2.15052 4.60829
2.23819 2.16048 4.583
2.25873 2.13993 4.583
2.25873 2.13993 4.583
2.26896 2.1297 4.60829
2.24814 2.15052 4.60829
2.30008 2.09858 4.58301
2.31043 2.08823 4.60831
2.28971 2.10895 4.6083
2.25874 2.13992 4.6336
2.24816 2.15051 4.65893
2.2382 2.16046 4.6336
2.25874 2.13992 4.6336
[...]
<PointData Scalars="View Factor" >
<DataArray type="Float64" Name="View Factor" NumberOfComponents="1" format="ascii">
0.00150994
0.00150994
0.00150994
0.00203038
0.00203038
0.00203038
0.00199927
0.00199927
0.00199927
0.000310838
0.000310838
0.000310838
0.000158057
0.000158057
0.000158057
0.00198062
0.00198062
0.00198062
9.7307e-05
9.7307e-05
9.7307e-05
0.0017269
0.0017269
0.0017269
0.00163266
0.00163266
0.00163266
0.00174253
0.00174253
0.00174253
0.00176894
0.00176894
0.00176894
0.00177417
0.00177417
0.00177417
0.00193545
0.00193545
0.00193545
0.00195351
0.00195351
0.00195351
0.00190701
0.00190701
0.00190701
0.00194278
0.00194278
0.00194278
0.00186794
0.00186794
0.00186794
0.00184823
0.00184823
0.00184823
0.00187372
0.00187372
0.00187372
0.00194417
0.00194417
0.00194417
0.00197424
0.00197424
0.00197424
0.00160857
0.00160857
0.00160857
0.00203714
0.00203714
0.00203714
0.000926666
0.000926666
0.000926666
0.000105128
0.000105128
0.000105128
0.000477032
0.000477032
0.000477032
0.000521062
0.000521062
0.000521062
0.000126318
0.000126318
0.000126318
0.000240719
0.000240719
0.000240719
0.000177031
0.000177031
0.000177031
0.000617555
0.000617555
0.000617555
0.000192912
0.000192912
0.000192912
0.000297289
0.000297289
0.000297289
0.000599798
0.000599798
0.000599798
0.000171947
0.000171947
0.000171947
0.00029114
0.00029114
0.00029114
0.000130548
0.000130548
0.000130548
0.000243908
0.000243908
0.000243908
0.000594375
0.000594375
0.000594375
0.000585543
0.000585543
0.000585543
9.2703e-05
9.2703e-05
9.2703e-05
0.000101122
0.000101122
0.000101122
0.000106174
0.000106174
0.000106174
0.000905886
0.000905886
0.000905886
0.00167652
0.00167652
0.00167652
0.00172194
0.00172194
0.00172194
0.00167031
0.00167031
0.00167031
0.00183143
0.00183143
0.00183143
0.00183978
0.00183978
0.00183978
0.00183794
0.00183794
0.00183794
0.00189103
0.00189103
0.00189103
0.00192013
0.00192013
0.00192013
0.00192622
0.00192622
0.00192622
0.0016009
0.0016009
0.0016009
0.00168126
0.00168126
0.00168126
0.00169636
0.00169636
0.00169636
0.00151197
0.00151197
0.00151197
0.00155038
0.00155038
0.00155038
0.00153796
0.00153796
0.00153796
0.00170363
0.00170363
0.00170363
0.00168846
0.00168846
0.00168846
0.00199039
0.00199039
0.00199039
0.00200916
0.00200916
0.00200916
0.00196104
0.00196104
0.00196104
0.00212546
0.00212546
0.00212546
0.00208494
0.00208494
0.00208494
0.00205651
0.00205651
0.00205651
0.00204744
0.00204744
0.00204744
0.00103124
0.00103124
0.00103124
0.00187611
0.00187611
0.00187611
0.00189339
0.00189339
0.00189339
0.00202612
0.00202612
0.00202612
0.00206505
0.00206505
0.00206505
0.00183366
0.00183366
0.00183366
0.00135744
0.00135744
0.00135744
0.000602429
0.000602429
0.000602429
0.000953818
0.000953818
0.000953818
0.000877115
0.000877115
0.000877115
0.000554839
0.000554839
0.000554839
7.72869e-05
7.72869e-05
7.72869e-05
0.00107558
0.00107558
0.00107558
0.00124586
0.00124586
0.00124586
0.00115197
0.00115197
0.00115197
0.000120792
0.000120792
0.000120792
0.000116805
0.000116805
0.000116805
0.000564577
0.000564577
0.000564577
0.000589509
0.000589509
0.000589509
0.000102574
0.000102574
0.000102574
9.92684e-05
9.92684e-05
9.92684e-05
9.04547e-05
9.04547e-05
9.04547e-05
7.01602e-05
7.01602e-05
7.01602e-05
6.01011e-05
6.01011e-05
6.01011e-05
8.84522e-05
8.84522e-05
8.84522e-05
8.06997e-05
8.06997e-05
8.06997e-05
7.91902e-05
7.91902e-05
7.91902e-05
7.82826e-05
7.82826e-05
7.82826e-05
0.000113948
0.000113948
0.000113948
8.32132e-05
8.32132e-05
8.32132e-05
0.00148804
0.00148804
0.00148804
9.10534e-05
9.10534e-05
9.10534e-05
0.000124318
0.000124318
0.000124318
0.000120606
0.000120606
0.000120606
0.000500576
0.000500576
0.000500576
0.000495811
0.000495811
0.000495811
0.000515712
0.000515712
0.000515712
0.000490457
0.000490457
0.000490457
0.00050552
0.00050552
0.00050552
0.000234942
0.000234942
0.000234942
0.000231735
0.000231735
0.000231735
8.68713e-05
8.68713e-05
8.68713e-05
0.000115547
0.000115547
0.000115547
0.000219411
0.000219411
0.000219411
0.000118851
0.000118851
0.000118851
0.000222041
0.000222041
0.000222041
0.000569262
0.000569262
0.000569262
0.000591469
0.000591469
0.000591469
0.000561909
0.000561909
0.000561909
0.000482126
0.000482126
0.000482126
0.000505975
0.000505975
0.000505975
0.000463133
0.000463133
0.000463133
0.000468246
0.000468246
0.000468246
0.000442999
0.000442999
0.000442999
6.26678e-05
6.26678e-05
6.26678e-05
6.82678e-05
6.82678e-05
6.82678e-05
7.71523e-05
7.71523e-05
7.71523e-05
7.11863e-05
7.11863e-05
7.11863e-05
5.35122e-05
5.35122e-05
5.35122e-05
6.0229e-05
6.0229e-05
6.0229e-05
5.59425e-05
5.59425e-05
5.59425e-05
0.000100882
0.000100882
0.000100882
0.000121551
0.000121551
0.000121551
8.04947e-05
8.04947e-05
8.04947e-05
7.71127e-05
7.71127e-05
7.71127e-05
0.000576301
0.000576301
0.000576301
0.00053558
0.00053558
0.00053558
0.0005166
0.0005166
0.0005166
7.11057e-05
7.11057e-05
7.11057e-05
0.000558613
0.000558613
0.000558613
0.000550382
0.000550382
0.000550382
0.00052372
0.00052372
0.00052372
0.000182524
0.000182524
0.000182524
0.000330464
0.000330464
0.000330464
0.000217254
0.000217254
0.000217254
8.83455e-05
8.83455e-05
8.83455e-05
9.24168e-05
9.24168e-05
9.24168e-05
0.000116201
0.000116201
0.000116201
0.000106018
0.000106018
0.000106018
0.000105883
0.000105883
0.000105883
0.000100996
0.000100996
0.000100996
0.000116511
0.000116511
0.000116511
0.0001219
0.0001219
0.0001219
0.000141296
0.000141296
0.000141296
0.000134346
0.000134346
0.000134346
0.000134047
0.000134047
0.000134047
0.000121759
0.000121759
0.000121759
0.000183668
0.000183668
0.000183668
0.000218517
0.000218517
0.000218517
0.000230691
0.000230691
0.000230691
0.000276153
0.000276153
0.000276153
0.000259994
0.000259994
0.000259994
0.000134544
0.000134544
0.000134544
0.000116702
0.000116702
0.000116702
0.000122077
0.000122077
0.000122077
0.000806768
0.000806768
0.000806768
0.000826555
0.000826555
0.000826555
0.000901457
0.000901457
0.000901457
0.000881064
0.000881064
0.000881064
0.000763963
0.000763963
0.000763963
0.000742637
0.000742637
0.000742637
0.000518735
0.000518735
0.000518735
0.000833231
0.000833231
0.000833231
1.93374e-05
1.93374e-05
1.93374e-05
1.87622e-05
1.87622e-05
1.87622e-05
2.05633e-05
2.05633e-05
2.05633e-05
2.07794e-05
2.07794e-05
2.07794e-05
1.74228e-05
1.74228e-05
1.74228e-05
1.75545e-05
1.75545e-05
1.75545e-05
1.79187e-05
1.79187e-05
1.79187e-05
1.92971e-05
1.92971e-05
1.92971e-05
1.84124e-05
1.84124e-05
1.84124e-05
1.80451e-05
1.80451e-05
1.80451e-05
1.70315e-05
1.70315e-05
1.70315e-05
2.1372e-05
2.1372e-05
2.1372e-05
1.98282e-05
1.98282e-05
1.98282e-05
1.98799e-05
1.98799e-05
1.98799e-05
2.11406e-05
2.11406e-05
2.11406e-05
2.19629e-05
2.19629e-05
2.19629e-05
2.42891e-05
2.42891e-05
2.42891e-05
0.00230277
0.00230277
0.00230277
0.00176055
0.00176055
0.00176055
0.00173618
0.00173618
0.00173618
0.00184597
0.00184597
0.00184597
0.00180602
0.00180602
0.00180602
0.0018694
0.0018694
0.0018694
0.00191496
0.00191496
0.00191496
0.00189728
0.00189728
0.00189728
0.0018581
0.0018581
0.0018581
0.00127965
0.00127965
0.00127965
0.00129065
0.00129065
0.00129065
0.0013057
0.0013057
0.0013057
0.00167131
0.00167131
0.00167131
0.0016406
0.0016406
0.0016406
0.00182307
0.00182307
0.00182307
0.00179835
0.00179835
0.00179835
0.00181758
0.00181758
0.00181758
0.00179031
0.00179031
0.00179031
0.00178213
0.00178213
0.00178213
0.00182402
0.00182402
0.00182402
0.00185215
0.00185215
0.00185215
0.00188941
0.00188941
0.00188941
0.00185492
0.00185492
0.00185492
0.00186242
0.00186242
0.00186242
0.00184536
0.00184536
0.00184536
0.00189995
0.00189995
0.00189995
0.00188251
0.00188251
0.00188251
0.0016517
0.0016517
0.0016517
0.00163711
0.00163711
0.00163711
0.00161509
0.00161509
0.00161509
0.00159454
0.00159454
0.00159454
0.00149849
0.00149849
0.00149849
0.00151152
0.00151152
0.00151152
0.00166396
0.00166396
0.00166396
0.00161673
0.00161673
0.00161673
0.00165521
0.00165521
0.00165521
0.0016312
0.0016312
0.0016312
0.0019982
0.0019982
0.0019982
0.00201716
0.00201716
0.00201716
0.00200704
0.00200704
0.00200704
0.00214612
0.00214612
0.00214612
0.00211838
0.00211838
0.00211838
0.00192001
0.00192001
0.00192001
0.000889332
0.000889332
0.000889332
0.000879857
0.000879857
0.000879857
0.000930829
0.000930829
0.000930829
0.00189454
0.00189454
0.00189454
0.00193274
0.00193274
0.00193274
0.00205267
0.00205267
0.00205267
0.00203307
0.00203307
0.00203307
0.00152096
0.00152096
0.00152096
0.00162511
0.00162511
0.00162511
0.00156759
0.00156759
0.00156759
0.00158899
0.00158899
0.00158899
0.00166515
0.00166515
0.00166515
0.00162733
0.00162733
0.00162733
0.00160423
0.00160423
0.00160423
0.00205577
0.00205577
0.00205577
0.00207539
0.00207539
0.00207539
0.00206692
0.00206692
0.00206692
0.00209381
0.00209381
0.00209381
0.00208176
0.00208176
0.00208176
0.00207374
0.00207374
0.00207374
0.00204209
0.00204209
0.00204209
0.00204746
0.00204746
0.00204746
0.00202796
0.00202796
0.00202796
0.00150703
0.00150703
0.00150703
0.00151687
0.00151687
0.00151687
0.0015309
0.0015309
0.0015309
0.00134368
0.00134368
0.00134368
0.000117901
0.000117901
0.000117901
0.000111212
0.000111212
0.000111212
0.000972601
0.000972601
0.000972601
0.000159197
0.000159197
0.000159197
0.000168639
0.000168639
0.000168639
0.00013055
0.00013055
0.00013055
0.00012609
0.00012609
0.00012609
0.000115092
0.000115092
0.000115092
0.000108533
0.000108533
0.000108533
0.000123
0.000123
0.000123
0.00011228
0.00011228
0.00011228
0.000142911
0.000142911
0.000142911
0.000152177
0.000152177
0.000152177
0.000167498
0.000167498
0.000167498
0.000172985
0.000172985
0.000172985
0.000163345
0.000163345
0.000163345
0.000148423
0.000148423
0.000148423
0.00114333
0.00114333
0.00114333
0.00127605
0.00127605
0.00127605
0.00132558
0.00132558
0.00132558
0.00131785
0.00131785
0.00131785
0.000313374
0.000313374
0.000313374
0.000191233
0.000191233
0.000191233
0.000299937
0.000299937
0.000299937
7.18451e-05
7.18451e-05
7.18451e-05
6.1753e-05
6.1753e-05
6.1753e-05
6.8404e-05
6.8404e-05
6.8404e-05
6.37522e-05
6.37522e-05
6.37522e-05
0.000841028
0.000841028
0.000841028
0.000526253
0.000526253
0.000526253
0.000534838
0.000534838
0.000534838
0.000864759
0.000864759
0.000864759
0.00104596
0.00104596
0.00104596
0.00103263
0.00103263
0.00103263
0.00129643
0.00129643
0.00129643
0.00133692
0.00133692
0.00133692
8.42362e-05
8.42362e-05
8.42362e-05
7.78391e-05
7.78391e-05
7.78391e-05
0.000138118
0.000138118
0.000138118
0.000130041
0.000130041
0.000130041
8.69509e-05
8.69509e-05
8.69509e-05
8.96302e-05
8.96302e-05
8.96302e-05
0.000163012
0.000163012
0.000163012
0.000152552
0.000152552
0.000152552
0.000157912
0.000157912
0.000157912
0.00018155
0.00018155
0.00018155
0.000187554
0.000187554
0.000187554
0.000175846
0.000175846
0.000175846
0.000106642
0.000106642
0.000106642
8.98414e-05
8.98414e-05
8.98414e-05
9.26907e-05
9.26907e-05
9.26907e-05
0.000100473
0.000100473
0.000100473
0.0001409
0.0001409
0.0001409
0.000132199
0.000132199
0.000132199
8.74699e-05
8.74699e-05
8.74699e-05
0.000113699
0.000113699
0.000113699
0.00010382
0.00010382
0.00010382
8.18828e-05
8.18828e-05
8.18828e-05
5.86604e-05
5.86604e-05
5.86604e-05
6.22449e-05
6.22449e-05
6.22449e-05
6.67819e-05
6.67819e-05
6.67819e-05
9.69217e-05
9.69217e-05
9.69217e-05
0.000100112
0.000100112
0.000100112
8.6178e-05
8.6178e-05
8.6178e-05
9.45666e-05
9.45666e-05
9.45666e-05
4.2776e-05
4.2776e-05
4.2776e-05
4.97547e-05
4.97547e-05
4.97547e-05
5.35226e-05
5.35226e-05
5.35226e-05
5.59835e-05
5.59835e-05
5.59835e-05
4.27483e-05
4.27483e-05
4.27483e-05
4.78493e-05
4.78493e-05
4.78493e-05
4.46278e-05
4.46278e-05
4.46278e-05
0.000434353
0.000434353
0.000434353
0.000453617
0.000453617
0.000453617
0.000430244
0.000430244
0.000430244
5.61475e-05
5.61475e-05
5.61475e-05
6.02695e-05
6.02695e-05
6.02695e-05
8.15213e-05
8.15213e-05
8.15213e-05
8.67845e-05
8.67845e-05
8.67845e-05
9.50021e-05
9.50021e-05
9.50021e-05
9.81066e-05
9.81066e-05
9.81066e-05
0.00011434
0.00011434
0.00011434
0.000107083
0.000107083
0.000107083
0.00137293
0.00137293
0.00137293
0.0014815
0.0014815
0.0014815
0.00146065
0.00146065
0.00146065
0.0012819
0.0012819
0.0012819
0.00139671
0.00139671
0.00139671
0.00138483
0.00138483
0.00138483
0.0013682
0.0013682
0.0013682
0.00134462
0.00134462
0.00134462
0.000216289
0.000216289
0.000216289
0.000206505
0.000206505
0.000206505
0.000145135
0.000145135
0.000145135
0.000163935
0.000163935
0.000163935
0.000280124
0.000280124
0.000280124
0.000122238
0.000122238
0.000122238
0.000140378
0.000140378
0.000140378
0.000555926
0.000555926
0.000555926
0.00026211
0.00026211
0.00026211
0.000132727
0.000132727
0.000132727
0.000106905
0.000106905
0.000106905
0.00013781
0.00013781
0.00013781
0.000250752
0.000250752
0.000250752
0.000254235
0.000254235
0.000254235
0.00054974
0.00054974
0.00054974
0.000528548
0.000528548
0.000528548
0.00047899
0.00047899
0.00047899
0.00044744
0.00044744
0.00044744
0.000532039
0.000532039
0.000532039
0.000511399
0.000511399
0.000511399
0.000537652
0.000537652
0.000537652
0.000522742
0.000522742
0.000522742
0.000492664
0.000492664
0.000492664
0.000498021
0.000498021
0.000498021
0.000541253
0.000541253
0.000541253
0.000547504
0.000547504
0.000547504
0.000528474
0.000528474
0.000528474
0.000502596
0.000502596
0.000502596
6.26511e-05
6.26511e-05
6.26511e-05
6.02474e-05
6.02474e-05
6.02474e-05
5.60302e-05
5.60302e-05
5.60302e-05
6.02694e-05
6.02694e-05
6.02694e-05
7.73462e-05
7.73462e-05
7.73462e-05
7.13826e-05
7.13826e-05
7.13826e-05
8.06188e-05
8.06188e-05
8.06188e-05
6.82134e-05
6.82134e-05
6.82134e-05
7.13089e-05
7.13089e-05
7.13089e-05
7.72675e-05
7.72675e-05
7.72675e-05
7.1139e-05
7.1139e-05
7.1139e-05
6.02353e-05
6.02353e-05
6.02353e-05
6.81091e-05
6.81091e-05
6.81091e-05
6.26534e-05
6.26534e-05
6.26534e-05
6.80934e-05
6.80934e-05
6.80934e-05
6.26702e-05
6.26702e-05
6.26702e-05
9.2227e-05
9.2227e-05
9.2227e-05
8.81179e-05
8.81179e-05
8.81179e-05
0.000105768
0.000105768
0.000105768
0.00011597
0.00011597
0.00011597
0.000105673
0.000105673
0.000105673
0.000100791
0.000100791
0.000100791
0.000121641
0.000121641
0.000121641
0.000116074
0.000116074
0.000116074
0.000164129
0.000164129
0.000164129
0.000156178
0.000156178
0.000156178
0.000140835
0.000140835
0.000140835
0.000133946
0.000133946
0.000133946
0.000140644
0.000140644
0.000140644
0.000164025
0.000164025
0.000164025
0.000156026
0.000156026
0.000156026
0.000115822
0.000115822
0.000115822
0.000474775
0.000474775
0.000474775
0.000356989
0.000356989
0.000356989
0.000481575
0.000481575
0.000481575
0.000453384
0.000453384
0.000453384
0.000547947
0.000547947
0.000547947
0.000539358
0.000539358
0.000539358
0.00046933
0.00046933
0.00046933
0.000503702
0.000503702
0.000503702
0.000458111
0.000458111
0.000458111
0.000495741
0.000495741
0.000495741
0.00018238
0.00018238
0.00018238
0.0004902
0.0004902
0.0004902
0.000192199
0.000192199
0.000192199
0.000532774
0.000532774
0.000532774
0.000590923
0.000590923
0.000590923
0.000505922
0.000505922
0.000505922
0.000193127
0.000193127
0.000193127
0.000192347
0.000192347
0.000192347
0.000215285
0.000215285
0.000215285
0.000227287
0.000227287
0.000227287
0.000215563
0.000215563
0.000215563
0.000154418
0.000154418
0.000154418
0.000769039
0.000769039
0.000769039
0.000686727
0.000686727
0.000686727
0.000731982
0.000731982
0.000731982
0.000744943
0.000744943
0.000744943
0.000899157
0.000899157
0.000899157
0.000474793
0.000474793
0.000474793
0.000589109
0.000589109
0.000589109
0.000560458
0.000560458
0.000560458
0.00075523
0.00075523
0.00075523
0.000693862
0.000693862
0.000693862
0.000818723
0.000818723
0.000818723
0.000909378
0.000909378
0.000909378
0.000892856
0.000892856
0.000892856
9.23125e-05
9.23125e-05
9.23125e-05
8.82527e-05
8.82527e-05
8.82527e-05
8.05479e-05
8.05479e-05
8.05479e-05
7.72029e-05
7.72029e-05
7.72029e-05
8.05318e-05
8.05318e-05
8.05318e-05
8.81756e-05
8.81756e-05
8.81756e-05
0.000141105
0.000141105
0.000141105
0.000140894
0.000140894
0.000140894
0.00013418
0.00013418
0.00013418
0.000156501
0.000156501
0.000156501
0.00019641
0.00019641
0.00019641
0.000159743
0.000159743
0.000159743
0.000167948
0.000167948
0.000167948
0.000165461
0.000165461
0.000165461
0.000217833
0.000217833
0.000217833
0.00019512
0.00019512
0.00019512
0.000194584
0.000194584
0.000194584
0.000184253
0.000184253
0.000184253
0.000141517
0.000141517
0.000141517
0.000157068
0.000157068
0.000157068
0.000157417
0.000157417
0.000157417
0.000165254
0.000165254
0.000165254
0.000122277
0.000122277
0.000122277
0.000134898
0.000134898
0.000134898
0.000135156
0.000135156
0.000135156
0.000141736
0.000141736
0.000141736
0.000749048
0.000749048
0.000749048
0.000678568
0.000678568
0.000678568
0.000772002
0.000772002
0.000772002
0.000792392
0.000792392
0.000792392
0.000831256
0.000831256
0.000831256
0.000786951
0.000786951
0.000786951
0.000816337
0.000816337
0.000816337
0.000851421
0.000851421
0.000851421
0.000876375
0.000876375
0.000876375
0.000856357
0.000856357
0.000856357
0.000441728
0.000441728
0.000441728
0.000546518
0.000546518
0.000546518
0.000625425
0.000625425
0.000625425
0.000530949
0.000530949
0.000530949
0.000504202
0.000504202
0.000504202
0.000607468
0.000607468
0.000607468
0.000658505
0.000658505
0.000658505
0.000420289
0.000420289
0.000420289
0.000454368
0.000454368
0.000454368
0.000371133
0.000371133
0.000371133
0.000354139
0.000354139
0.000354139
0.000677346
0.000677346
0.000677346
0.000785606
0.000785606
0.000785606
0.000810035
0.000810035
0.000810035
0.000763999
0.000763999
0.000763999
0.000562128
0.000562128
0.000562128
0.00064345
0.00064345
0.00064345
0.000696702
0.000696702
0.000696702
0.000856485
0.000856485
0.000856485
0.000807716
0.000807716
0.000807716
0.000829894
0.000829894
0.000829894
0.000735425
0.000735425
0.000735425
0.000211558
0.000211558
0.000211558
0.000236529
0.000236529
0.000236529
0.000344424
0.000344424
0.000344424
0.000291891
0.000291891
0.000291891
0.000260853
0.000260853
0.000260853
0.000283848
0.000283848
0.000283848
0.000304831
0.000304831
0.000304831
0.000243274
0.000243274
0.000243274
0.000253696
0.000253696
0.000253696
0.000438447
0.000438447
0.000438447
0.000403522
0.000403522
0.000403522
0.000322259
0.000322259
0.000322259
1.76944e-05
1.76944e-05
1.76944e-05
1.706e-05
1.706e-05
1.706e-05
1.53158e-05
1.53158e-05
1.53158e-05
1.61012e-05
1.61012e-05
1.61012e-05
0.000699457
0.000699457
0.000699457
0.000647603
0.000647603
0.000647603
0.000270997
0.000270997
0.000270997
0.000255876
0.000255876
0.000255876
1.71412e-05
1.71412e-05
1.71412e-05
0.000377526
0.000377526
0.000377526
0.000312109
0.000312109
0.000312109
0.000520024
0.000520024
0.000520024
0.000248183
0.000248183
0.000248183
0.000270724
0.000270724
0.000270724
0.000460814
0.000460814
0.000460814
0.000704159
0.000704159
0.000704159
0.000710038
0.000710038
0.000710038
0.000634106
0.000634106
0.000634106
0.000672979
0.000672979
0.000672979
0.000402556
0.000402556
0.000402556
2.33127e-05
2.33127e-05
2.33127e-05
1.62157e-05
1.62157e-05
1.62157e-05
1.57664e-05
1.57664e-05
1.57664e-05
1.65666e-05
1.65666e-05
1.65666e-05
0.000596194
0.000596194
0.000596194
0.000674562
0.000674562
0.000674562
0.000658439
0.000658439
0.000658439
0.000471432
0.000471432
0.000471432
0.000416835
0.000416835
0.000416835
0.000455068
0.000455068
0.000455068
0.000550652
0.000550652
0.000550652
0.000801825
0.000801825
0.000801825
0.000768585
0.000768585
0.000768585
2.48611e-05
2.48611e-05
2.48611e-05
2.39771e-05
2.39771e-05
2.39771e-05
2.04181e-05
2.04181e-05
2.04181e-05
2.25496e-05
2.25496e-05
2.25496e-05
2.17155e-05
2.17155e-05
2.17155e-05
2.37126e-05
2.37126e-05
2.37126e-05
2.3417e-05
2.3417e-05
2.3417e-05
2.20166e-05
2.20166e-05
2.20166e-05
2.14058e-05
2.14058e-05
2.14058e-05
0.00161559
0.00161559
0.00161559
0.00144577
0.00144577
0.00144577
0.00212633
0.00212633
0.00212633
0.00223901
0.00223901
0.00223901
0.00226059
0.00226059
0.00226059
0.00177182
0.00177182
0.00177182
0.0017899
0.0017899
0.0017899
0.00188394
0.00188394
0.00188394
0.00182448
0.00182448
0.00182448
0.00169884
0.00169884
0.00169884
0.0016817
0.0016817
0.0016817
0.00213036
0.00213036
0.00213036
0.00209789
0.00209789
0.00209789
0.00257841
0.00257841
0.00257841