<VTKFile type="UnstructuredGrid" version="1.0">
<UnstructuredGrid>
<Piece NumberOfPoints="10830" NumberOfCells="3610">
<Points>
<DataArray type="Float64" NumberOfComponents="3" format="ascii">
2.19217 2.20649 8.38575
2.19928 2.19938 8.36
2.19928 2.19938 8.41146
2.19928 2.19938 8.91508
2.19928 2.19938 8.966
2.19129 2.20737 8.94053
2.19928 2.19938 8.91508
2.19129 2.20737 8.94053
2.17928 2.21938 8.9151
1.30559 3.09307 9.38759
1.31816 3.0805 9.405
1.28831 3.11035 9.405
1.28831 3.11035 9.405
1.28831 3.11035 9.37484
1.30559 3.09307 9.38759
2.19928 2.19938 8.91508
2.17928 2.21938 8.9151
2.1913 2.20736 8.88968
1.29441 3.10425 8.63679
1.28831 3.11035 8.66201
1.28831 3.11035 8.61157
2.19132 2.20734 8.6369
2.19928 2.19938 8.66209
2.17929 2.21937 8.66211
2.19117 2.20749 8.53634
2.19928 2.19938 8.51128
2.19928 2.19938 8.56139
2.17929 2.21937 8.66211
2.19928 2.19938 8.66209
2.19133 2.20733 8.68731
2.19928 2.19938 8.66209
2.19928 2.19938 8.71254
2.19133 2.20733 8.68731
2.17929 2.21937 8.71255
2.19133 2.20733 8.68731
2.19928 2.19938 8.71254
2.17928 2.21938 8.86431
2.1913 2.20736 8.88968
2.16946 2.22921 8.8897
2.16946 2.22921 8.8897
2.1913 2.20736 8.88968
2.17928 2.21938 8.9151
2.16946 2.22921 8.8897
2.15842 2.24024 8.86432
2.17928 2.21938 8.86431
2.16946 2.22921 8.8897
2.17928 2.21938 8.9151
2.15841 2.24025 8.91512
2.19928 2.19938 8.76304
2.19928 2.19938 8.81362
2.19132 2.20734 8.78833
2.19132 2.20734 8.78833
2.17929 2.21937 8.81363
2.16947 2.22919 8.78834
2.19928 2.19938 8.81362
2.17929 2.21937 8.81363
2.19132 2.20734 8.78833
2.19928 2.19938 8.86429
2.1913 2.20736 8.88968
2.17928 2.21938 8.86431
2.19928 2.19938 8.91508
2.1913 2.20736 8.88968
2.19928 2.19938 8.86429
2.17913 2.21954 8.51132
2.19928 2.19938 8.51128
2.19117 2.20749 8.53634
2.17927 2.21939 8.96603
2.19129 2.20737 8.94053
2.19928 2.19938 8.966
1.8956 2.50306 9.14575
1.90602 2.49264 9.11998
1.91643 2.48223 9.14572
1.28831 3.11035 8.36
1.30792 3.09074 8.36
1.29529 3.10337 8.3847
1.34771 3.05096 8.61159
1.32717 3.07149 8.61157
1.33709 3.06157 8.58637
1.30704 3.09162 8.61156
1.32717 3.07149 8.61157
1.31607 3.08259 8.63678
1.30704 3.09162 8.61156
1.29441 3.10425 8.63679
1.28831 3.11035 8.61157
1.31607 3.08259 8.63678
1.29441 3.10425 8.63679
1.30704 3.09162 8.61156
1.2945 3.10417 8.83894
1.28831 3.11035 8.8643
1.28831 3.11035 8.81361
1.3071 3.09157 8.8643
1.31615 3.08252 8.83893
1.32724 3.07142 8.86429
1.28831 3.11035 8.8643
1.2945 3.10417 8.83894
1.3071 3.09157 8.8643
1.3071 3.09157 8.8643
1.2945 3.10417 8.83894
1.31615 3.08252 8.83893
1.30708 3.09158 8.8136
1.32723 3.07143 8.8136
1.31615 3.08252 8.83893
1.30708 3.09158 8.8136
1.2945 3.10417 8.83894
1.28831 3.11035 8.81361
1.31615 3.08252 8.83893
1.2945 3.10417 8.83894
1.30708 3.09158 8.8136
1.28831 3.11035 8.66201
1.29441 3.10425 8.63679
1.30705 3.09161 8.662
1.30705 3.09161 8.662
1.29441 3.10425 8.63679
1.31607 3.08259 8.63678
1.32724 3.07142 8.86429
1.31615 3.08252 8.83893
1.33718 3.06148 8.83893
1.31615 3.08252 8.83893
1.32723 3.07143 8.8136
1.33718 3.06148 8.83893
1.49256 2.90611 8.81367
1.50289 2.89577 8.83901
1.48223 2.91643 8.839
1.48223 2.91643 8.839
1.50289 2.89577 8.83901
1.49257 2.90609 8.86437
1.49257 2.90609 8.86437
1.50289 2.89577 8.83901
1.51323 2.88543 8.86438
1.88521 2.51346 9.12
1.90602 2.49264 9.11998
1.8956 2.50306 9.14575
2.19127 2.20739 8.58656
2.19928 2.19938 8.56139
2.19928 2.19938 8.6117
2.19928 2.19938 8.66209
2.19132 2.20734 8.6369
2.19928 2.19938 8.6117
2.11618 2.28248 8.7631
2.09503 2.30363 8.76311
2.10562 2.29304 8.73785
2.17929 2.21937 8.76305
2.19132 2.20734 8.78833
2.16947 2.22919 8.78834
2.19928 2.19938 8.76304
2.19132 2.20734 8.78833
2.17929 2.21937 8.76305
2.16947 2.22919 8.78834
2.17929 2.21937 8.81363
2.15843 2.24024 8.81365
2.19131 2.20735 8.83895
2.17929 2.21937 8.81363
2.19928 2.19938 8.81362
2.19928 2.19938 8.81362
2.19928 2.19938 8.86429
2.19131 2.20735 8.83895
2.19131 2.20735 8.83895
2.19928 2.19938 8.86429
2.17928 2.21938 8.86431
2.1693 2.22936 8.53637
2.17913 2.21954 8.51132
2.19117 2.20749 8.53634
2.19127 2.20739 8.58656
2.19928 2.19938 8.6117
2.17927 2.21939 8.61174
2.17927 2.21939 8.61174
2.19928 2.19938 8.6117
2.19132 2.20734 8.6369
2.10553 2.29313 8.58661
2.09491 2.30375 8.56143
2.11605 2.28261 8.56143
2.1372 2.26147 8.56145
2.12662 2.27204 8.53626
2.14787 2.25079 8.53631
2.1372 2.26147 8.56145
2.11605 2.28261 8.56143
2.12662 2.27204 8.53626
2.16946 2.2292 8.63693
2.19132 2.20734 8.6369
2.17929 2.21937 8.66211
2.16946 2.2292 8.63693
2.17927 2.21939 8.61174
2.19132 2.20734 8.6369
2.16945 2.22921 8.94055
2.17928 2.21938 8.9151
2.19129 2.20737 8.94053
2.19129 2.20737 8.94053
2.17927 2.21939 8.96603
2.16945 2.22921 8.94055
2.15841 2.24025 8.91512
2.17928 2.21938 8.9151
2.16945 2.22921 8.94055
2.16944 2.22922 9.09406
2.14804 2.25062 9.09406
2.15841 2.24025 9.06837
2.14804 2.25063 9.04274
2.16944 2.22922 9.04272
2.15841 2.24025 9.06837
2.19128 2.20738 8.99153
2.17927 2.21939 8.96603
2.19928 2.19938 8.966
2.16944 2.22922 8.99156
2.17927 2.21939 8.96603
2.19128 2.20738 8.99153
1.93725 2.46141 9.19732
1.94766 2.451 9.22316
1.92679 2.47187 9.2232
2.05276 2.34591 9.06843
2.06331 2.33535 9.04279
2.07386 2.3248 9.06841
2.07386 2.3248 9.06841
2.06331 2.33535 9.04279
2.08443 2.31423 9.04278
2.15841 2.24026 9.01713
2.14804 2.25062 8.99158
2.16944 2.22922 8.99156
2.15841 2.24026 9.01713
2.16944 2.22922 9.04272
2.14804 2.25063 9.04274
2.04222 2.35644 9.04281
2.06331 2.33535 9.04279
2.05276 2.34591 9.06843
1.9897 2.40896 8.81374
1.96874 2.42992 8.81374
1.97921 2.41945 8.78843
1.93736 2.4613 8.78844
1.92692 2.47174 8.81375
1.91649 2.48217 8.78844
1.94781 2.45085 8.81375
1.92692 2.47174 8.81375
1.93736 2.4613 8.78844
1.92691 2.47175 8.71265
1.9478 2.45086 8.71266
1.93736 2.46131 8.7379
1.93736 2.46131 8.7379
1.91648 2.48218 8.73789
1.92691 2.47175 8.71265
1.92691 2.47175 8.71265
1.91648 2.48218 8.73789
1.90605 2.49261 8.71264
1.93736 2.46131 8.7379
1.9478 2.45086 8.71266
1.95826 2.4404 8.7379
1.96871 2.42995 8.66223
1.9792 2.41946 8.68744
1.95825 2.44041 8.68744
1.95825 2.44041 8.68744
1.94778 2.45088 8.66223
1.96871 2.42995 8.66223
1.8126 2.58607 8.83909
1.82295 2.57571 8.81375
1.83332 2.56534 8.83909
1.82295 2.57571 8.81375
1.84369 2.55497 8.81375
1.83332 2.56534 8.83909
1.92692 2.47174 8.76316
1.91648 2.48218 8.73789
1.93736 2.46131 8.7379
1.92692 2.47174 8.76316
1.93736 2.4613 8.78844
1.91649 2.48217 8.78844
1.91649 2.48217 8.78844
1.89565 2.50301 8.78844
1.90606 2.4926 8.76315
1.90606 2.4926 8.76315
1.92692 2.47174 8.76316
1.91649 2.48217 8.78844
1.91648 2.48218 8.73789
1.92692 2.47174 8.76316
1.90606 2.4926 8.76315
1.90605 2.49261 8.71264
1.88523 2.51343 8.71264
1.89563 2.50303 8.68741
1.88521 2.51345 8.66219
1.90603 2.49263 8.66221
1.89563 2.50303 8.68741
1.51322 2.88545 8.81368
1.50289 2.89577 8.83901
1.49256 2.90611 8.81367
1.49256 2.90611 8.81367
1.50288 2.89578 8.78836
1.51322 2.88545 8.81368
1.29442 3.10424 8.43487
1.28831 3.11035 8.46009
1.28831 3.11035 8.40942
1.28831 3.11035 8.36
1.29529 3.10337 8.3847
1.28831 3.11035 8.40942
1.307 3.09167 8.5107
1.28831 3.11035 8.51067
1.29431 3.10435 8.48542
1.28831 3.11035 8.51067
1.28831 3.11035 8.46009
1.29431 3.10435 8.48542
2.19928 2.19938 8.36
2.19217 2.20649 8.38575
2.18013 2.21854 8.36
1.28831 3.11035 8.61157
1.28831 3.11035 8.56114
1.29438 3.10428 8.58636
1.29438 3.10428 8.58636
1.30704 3.09162 8.61156
1.28831 3.11035 8.61157
1.30702 3.09164 8.56113
1.29438 3.10428 8.58636
1.28831 3.11035 8.56114
1.30702 3.09164 8.56113
1.31601 3.08265 8.53594
1.32714 3.07152 8.56116
1.31605 3.08262 8.58635
1.33709 3.06157 8.58637
1.32717 3.07149 8.61157
1.32717 3.07149 8.61157
1.30704 3.09162 8.61156
1.31605 3.08262 8.58635
1.32714 3.07152 8.56116
1.33709 3.06157 8.58637
1.31605 3.08262 8.58635
1.31605 3.08262 8.58635
1.30702 3.09164 8.56113
1.32714 3.07152 8.56116
1.30704 3.09162 8.61156
1.29438 3.10428 8.58636
1.31605 3.08262 8.58635
1.29438 3.10428 8.58636
1.30702 3.09164 8.56113
1.31605 3.08262 8.58635
1.29435 3.10432 8.53591
1.28831 3.11035 8.56114
1.28831 3.11035 8.51067
1.29435 3.10432 8.53591
1.28831 3.11035 8.51067
1.307 3.09167 8.5107
1.307 3.09167 8.5107
1.31601 3.08265 8.53594
1.29435 3.10432 8.53591
1.29435 3.10432 8.53591
1.30702 3.09164 8.56113
1.28831 3.11035 8.56114
1.31601 3.08265 8.53594
1.30702 3.09164 8.56113
1.29435 3.10432 8.53591
1.33717 3.06149 8.78829
1.32723 3.07143 8.8136
1.31613 3.08254 8.78829
1.32723 3.07143 8.8136
1.30708 3.09158 8.8136
1.31613 3.08254 8.78829
1.31613 3.08254 8.78829
1.32722 3.07145 8.763
1.33717 3.06149 8.78829
1.33711 3.06155 8.63679
1.32717 3.07149 8.61157
1.34771 3.05096 8.61159
1.31607 3.08259 8.63678
1.32717 3.07149 8.61157
1.33711 3.06155 8.63679
1.35794 3.04072 8.6368
1.33711 3.06155 8.63679
1.34771 3.05096 8.61159
1.34773 3.05094 8.66201
1.33711 3.06155 8.63679
1.35794 3.04072 8.6368
1.34773 3.05094 8.66201
1.35794 3.04072 8.6368
1.36839 3.03027 8.66202
1.50287 2.89579 8.7378
1.51321 2.88546 8.76307
1.49255 2.90612 8.76307
1.49255 2.90612 8.76307
1.51321 2.88546 8.76307
1.50288 2.89578 8.78836
1.42017 2.9785 8.78832
1.44086 2.9578 8.78833
1.43052 2.96814 8.81363
1.43051 2.96815 8.76304
1.44086 2.9578 8.78833
1.42017 2.9785 8.78832
1.44085 2.95782 8.73777
1.4305 2.96817 8.71252
1.45119 2.94748 8.71253
1.43051 2.96815 8.76304
1.42015 2.97851 8.73776
1.44085 2.95782 8.73777
1.44085 2.95782 8.73777
1.42015 2.97851 8.73776
1.4305 2.96817 8.71252
1.44087 2.95779 8.83897
1.46156 2.9371 8.83899
1.45123 2.94744 8.86434
1.3995 2.99917 8.8897
1.40985 2.98882 8.86432
1.4202 2.97846 8.88971
1.40983 2.98883 8.81362
1.42017 2.9785 8.78832
1.43052 2.96814 8.81363
1.39946 2.9992 8.78831
1.42017 2.9785 8.78832
1.40983 2.98883 8.81362
1.32724 3.07142 8.86429
1.33718 3.06148 8.83893
1.34779 3.05087 8.86429
1.33717 3.06149 8.78829
1.32722 3.07145 8.763
1.34776 3.0509 8.763
1.34776 3.0509 8.763
1.35799 3.04067 8.78829
1.33717 3.06149 8.78829
1.38911 3.00955 8.76301
1.39946 2.9992 8.78831
1.37874 3.01992 8.7883
1.34777 3.05089 8.8136
1.33718 3.06148 8.83893
1.32723 3.07143 8.8136
1.34777 3.05089 8.8136
[...]
<PointData Scalars="View Factor" >
<DataArray type="Float64" Name="View Factor" NumberOfComponents="1" format="ascii">
3.91086e-06
3.91086e-06
3.91086e-06
6.54013e-06
6.54013e-06
6.54013e-06
5.55912e-06
5.55912e-06
5.55912e-06
4.66091e-05
4.66091e-05
4.66091e-05
4.70816e-05
4.70816e-05
4.70816e-05
4.63241e-06
4.63241e-06
4.63241e-06
5.54972e-05
5.54972e-05
5.54972e-05
2.50934e-06
2.50934e-06
2.50934e-06
3.06818e-06
3.06818e-06
3.06818e-06
2.46111e-06
2.46111e-06
2.46111e-06
2.55668e-06
2.55668e-06
2.55668e-06
2.37804e-06
2.37804e-06
2.37804e-06
3.87454e-06
3.87454e-06
3.87454e-06
4.74213e-06
4.74213e-06
4.74213e-06
9.34292e-06
9.34292e-06
9.34292e-06
1.06441e-05
1.06441e-05
1.06441e-05
2.30242e-06
2.30242e-06
2.30242e-06
2.70226e-06
2.70226e-06
2.70226e-06
2.16243e-06
2.16243e-06
2.16243e-06
2.96615e-06
2.96615e-06
2.96615e-06
3.80016e-06
3.80016e-06
3.80016e-06
2.98759e-06
2.98759e-06
2.98759e-06
7.31679e-06
7.31679e-06
7.31679e-06
6.03051e-06
6.03051e-06
6.03051e-06
5.85657e-05
5.85657e-05
5.85657e-05
5.36039e-05
5.36039e-05
5.36039e-05
5.44975e-05
5.44975e-05
5.44975e-05
5.54282e-05
5.54282e-05
5.54282e-05
5.4917e-05
5.4917e-05
5.4917e-05
5.31053e-05
5.31053e-05
5.31053e-05
5.17638e-05
5.17638e-05
5.17638e-05
5.26459e-05
5.26459e-05
5.26459e-05
5.23554e-05
5.23554e-05
5.23554e-05
5.21427e-05
5.21427e-05
5.21427e-05
5.30394e-05
5.30394e-05
5.30394e-05
5.25488e-05
5.25488e-05
5.25488e-05
5.50189e-05
5.50189e-05
5.50189e-05
5.47171e-05
5.47171e-05
5.47171e-05
5.13522e-05
5.13522e-05
5.13522e-05
5.15426e-05
5.15426e-05
5.15426e-05
4.11906e-05
4.11906e-05
4.11906e-05
4.1033e-05
4.1033e-05
4.1033e-05
3.9663e-05
3.9663e-05
3.9663e-05
6.339e-06
6.339e-06
6.339e-06
2.88007e-06
2.88007e-06
2.88007e-06
2.71512e-06
2.71512e-06
2.71512e-06
5.50397e-06
5.50397e-06
5.50397e-06
2.74069e-06
2.74069e-06
2.74069e-06
2.22502e-06
2.22502e-06
2.22502e-06
8.60177e-06
8.60177e-06
8.60177e-06
2.12762e-06
2.12762e-06
2.12762e-06
2.28199e-06
2.28199e-06
2.28199e-06
2.45783e-06
2.45783e-06
2.45783e-06
3.83903e-06
3.83903e-06
3.83903e-06
2.65551e-06
2.65551e-06
2.65551e-06
2.60467e-06
2.60467e-06
2.60467e-06
6.07332e-06
6.07332e-06
6.07332e-06
8.08352e-06
8.08352e-06
8.08352e-06
7.61076e-06
7.61076e-06
7.61076e-06
3.17553e-06
3.17553e-06
3.17553e-06
3.25097e-06
3.25097e-06
3.25097e-06
6.59915e-06
6.59915e-06
6.59915e-06
7.48301e-06
7.48301e-06
7.48301e-06
1.12713e-05
1.12713e-05
1.12713e-05
1.15238e-05
1.15238e-05
1.15238e-05
1.22334e-05
1.22334e-05
1.22334e-05
8.10809e-06
8.10809e-06
8.10809e-06
9.02403e-06
9.02403e-06
9.02403e-06
4.40337e-06
4.40337e-06
4.40337e-06
7.37723e-06
7.37723e-06
7.37723e-06
7.60014e-06
7.60014e-06
7.60014e-06
1.29216e-05
1.29216e-05
1.29216e-05
1.26294e-05
1.26294e-05
1.26294e-05
7.61847e-06
7.61847e-06
7.61847e-06
9.67714e-07
9.67714e-07
9.67714e-07
1.02402e-06
1.02402e-06
1.02402e-06
1.00474e-06
1.00474e-06
1.00474e-06
1.18074e-06
1.18074e-06
1.18074e-06
1.16958e-06
1.16958e-06
1.16958e-06
1.22015e-06
1.22015e-06
1.22015e-06
1.13119e-06
1.13119e-06
1.13119e-06
1.23706e-06
1.23706e-06
1.23706e-06
1.26403e-06
1.26403e-06
1.26403e-06
1.13915e-06
1.13915e-06
1.13915e-06
1.12999e-06
1.12999e-06
1.12999e-06
1.13759e-06
1.13759e-06
1.13759e-06
1.06474e-06
1.06474e-06
1.06474e-06
1.09974e-06
1.09974e-06
1.09974e-06
1.09471e-06
1.09471e-06
1.09471e-06
1.1318e-06
1.1318e-06
1.1318e-06
1.30195e-06
1.30195e-06
1.30195e-06
1.39508e-06
1.39508e-06
1.39508e-06
3.9904e-05
3.9904e-05
3.9904e-05
4.00367e-05
4.00367e-05
4.00367e-05
5.80214e-05
5.80214e-05
5.80214e-05
5.86559e-05
5.86559e-05
5.86559e-05
5.68807e-05
5.68807e-05
5.68807e-05
5.73775e-05
5.73775e-05
5.73775e-05
3.90455e-06
3.90455e-06
3.90455e-06
5.61148e-05
5.61148e-05
5.61148e-05
5.56327e-05
5.56327e-05
5.56327e-05
5.6044e-05
5.6044e-05
5.6044e-05
5.53149e-05
5.53149e-05
5.53149e-05
5.42712e-05
5.42712e-05
5.42712e-05
5.47011e-05
5.47011e-05
5.47011e-05
5.44704e-05
5.44704e-05
5.44704e-05
5.51085e-05
5.51085e-05
5.51085e-05
5.53271e-05
5.53271e-05
5.53271e-05
5.55283e-05
5.55283e-05
5.55283e-05
5.67413e-05
5.67413e-05
5.67413e-05
5.66733e-05
5.66733e-05
5.66733e-05
5.6153e-05
5.6153e-05
5.6153e-05
5.62516e-05
5.62516e-05
5.62516e-05
5.59433e-05
5.59433e-05
5.59433e-05
5.19227e-05
5.19227e-05
5.19227e-05
5.23378e-05
5.23378e-05
5.23378e-05
5.21136e-05
5.21136e-05
5.21136e-05
5.34053e-05
5.34053e-05
5.34053e-05
5.38686e-05
5.38686e-05
5.38686e-05
5.2774e-05
5.2774e-05
5.2774e-05
5.25748e-05
5.25748e-05
5.25748e-05
5.19955e-05
5.19955e-05
5.19955e-05
4.04782e-05
4.04782e-05
4.04782e-05
4.03295e-05
4.03295e-05
4.03295e-05
4.63988e-05
4.63988e-05
4.63988e-05
4.65613e-05
4.65613e-05
4.65613e-05
4.65491e-05
4.65491e-05
4.65491e-05
4.68918e-05
4.68918e-05
4.68918e-05
4.70607e-05
4.70607e-05
4.70607e-05
4.47177e-05
4.47177e-05
4.47177e-05
4.67599e-05
4.67599e-05
4.67599e-05
4.69851e-05
4.69851e-05
4.69851e-05
4.76362e-05
4.76362e-05
4.76362e-05
5.07204e-05
5.07204e-05
5.07204e-05
5.1663e-05
5.1663e-05
5.1663e-05
5.10583e-05
5.10583e-05
5.10583e-05
4.90433e-05
4.90433e-05
4.90433e-05
5.10994e-05
5.10994e-05
5.10994e-05
5.12837e-05
5.12837e-05
5.12837e-05
5.0875e-05
5.0875e-05
5.0875e-05
4.60785e-05
4.60785e-05
4.60785e-05
4.86209e-05
4.86209e-05
4.86209e-05
4.7026e-05
4.7026e-05
4.7026e-05
4.24148e-05
4.24148e-05
4.24148e-05
4.32606e-05
4.32606e-05
4.32606e-05
4.37434e-05
4.37434e-05
4.37434e-05
4.20898e-05
4.20898e-05
4.20898e-05
4.39097e-05
4.39097e-05
4.39097e-05
4.30941e-05
4.30941e-05
4.30941e-05
4.19317e-05
4.19317e-05
4.19317e-05
4.27698e-05
4.27698e-05
4.27698e-05
4.16162e-05
4.16162e-05
4.16162e-05
4.26078e-05
4.26078e-05
4.26078e-05
4.54396e-05
4.54396e-05
4.54396e-05
4.43792e-05
4.43792e-05
4.43792e-05
3.80683e-05
3.80683e-05
3.80683e-05
1.33148e-05
1.33148e-05
1.33148e-05
2.10456e-05
2.10456e-05
2.10456e-05
1.56778e-05
1.56778e-05
1.56778e-05
2.09379e-05
2.09379e-05
2.09379e-05
4.05685e-05
4.05685e-05
4.05685e-05
3.95577e-05
3.95577e-05
3.95577e-05
4.07216e-05
4.07216e-05
4.07216e-05
7.13461e-06
7.13461e-06
7.13461e-06
6.8029e-06
6.8029e-06
6.8029e-06
6.22351e-06
6.22351e-06
6.22351e-06
6.53896e-06
6.53896e-06
6.53896e-06
7.5896e-06
7.5896e-06
7.5896e-06
7.75401e-06
7.75401e-06
7.75401e-06
9.21196e-06
9.21196e-06
9.21196e-06
6.95279e-06
6.95279e-06
6.95279e-06
3.55947e-06
3.55947e-06
3.55947e-06
3.68519e-06
3.68519e-06
3.68519e-06
3.37802e-06
3.37802e-06
3.37802e-06
3.34299e-06
3.34299e-06
3.34299e-06
3.88593e-06
3.88593e-06
3.88593e-06
3.92514e-06
3.92514e-06
3.92514e-06
3.78772e-06
3.78772e-06
3.78772e-06
3.59223e-06
3.59223e-06
3.59223e-06
3.68947e-06
3.68947e-06
3.68947e-06
3.82456e-06
3.82456e-06
3.82456e-06
4.01612e-06
4.01612e-06
4.01612e-06
3.2588e-06
3.2588e-06
3.2588e-06
3.49922e-06
3.49922e-06
3.49922e-06
3.4686e-06
3.4686e-06
3.4686e-06
3.29182e-06
3.29182e-06
3.29182e-06
3.17463e-06
3.17463e-06
3.17463e-06
2.83668e-06
2.83668e-06
2.83668e-06
2.44015e-06
2.44015e-06
2.44015e-06
2.44559e-06
2.44559e-06
2.44559e-06
4.36657e-06
4.36657e-06
4.36657e-06
4.36229e-06
4.36229e-06
4.36229e-06
4.22551e-06
4.22551e-06
4.22551e-06
8.46759e-06
8.46759e-06
8.46759e-06
9.88006e-06
9.88006e-06
9.88006e-06
9.1849e-06
9.1849e-06
9.1849e-06
8.37354e-06
8.37354e-06
8.37354e-06
1.30315e-06
1.30315e-06
1.30315e-06
1.25974e-06
1.25974e-06
1.25974e-06
1.33868e-06
1.33868e-06
1.33868e-06
9.66126e-07
9.66126e-07
9.66126e-07
9.7027e-07
9.7027e-07
9.7027e-07
2.26185e-06
2.26185e-06
2.26185e-06
2.81377e-06
2.81377e-06
2.81377e-06
2.42367e-06
2.42367e-06
2.42367e-06
2.33354e-06
2.33354e-06
2.33354e-06
2.85252e-06
2.85252e-06
2.85252e-06
7.34444e-06
7.34444e-06
7.34444e-06
7.96008e-06
7.96008e-06
7.96008e-06
8.86403e-06
8.86403e-06
8.86403e-06
8.54935e-06
8.54935e-06
8.54935e-06
8.2198e-06
8.2198e-06
8.2198e-06
8.04784e-06
8.04784e-06
8.04784e-06
2.82801e-06
2.82801e-06
2.82801e-06
2.65061e-06
2.65061e-06
2.65061e-06
2.78409e-06
2.78409e-06
2.78409e-06
2.8464e-06
2.8464e-06
2.8464e-06
3.73635e-06
3.73635e-06
3.73635e-06
3.06059e-06
3.06059e-06
3.06059e-06
6.10039e-06
6.10039e-06
6.10039e-06
7.12173e-06
7.12173e-06
7.12173e-06
9.20033e-06
9.20033e-06
9.20033e-06
8.31269e-06
8.31269e-06
8.31269e-06
8.69242e-06
8.69242e-06
8.69242e-06
8.24522e-06
8.24522e-06
8.24522e-06
1.23683e-05
1.23683e-05
1.23683e-05
1.28604e-05
1.28604e-05
1.28604e-05
1.27243e-05
1.27243e-05
1.27243e-05
1.12119e-05
1.12119e-05
1.12119e-05
7.94602e-06
7.94602e-06
7.94602e-06
3.05889e-06
3.05889e-06
3.05889e-06
5.66915e-06
5.66915e-06
5.66915e-06
6.53393e-06
6.53393e-06
6.53393e-06
6.13914e-06
6.13914e-06
6.13914e-06
6.91797e-06
6.91797e-06
6.91797e-06
6.0713e-06
6.0713e-06
6.0713e-06
9.89476e-06
9.89476e-06
9.89476e-06
1.02291e-05
1.02291e-05
1.02291e-05
9.31412e-07
9.31412e-07
9.31412e-07
9.66347e-07
9.66347e-07
9.66347e-07
9.66239e-07
9.66239e-07
9.66239e-07
9.70263e-07
9.70263e-07
9.70263e-07
2.50081e-06
2.50081e-06
2.50081e-06
2.1072e-06
2.1072e-06
2.1072e-06
2.55955e-06
2.55955e-06
2.55955e-06
1.32491e-05
1.32491e-05
1.32491e-05
1.31036e-05
1.31036e-05
1.31036e-05
9.48791e-06
9.48791e-06
9.48791e-06
1.13586e-05
1.13586e-05
1.13586e-05
1.08842e-05
1.08842e-05
1.08842e-05
1.17151e-05
1.17151e-05
1.17151e-05
1.16225e-05
1.16225e-05
1.16225e-05
1.07674e-05
1.07674e-05
1.07674e-05
1.11401e-05
1.11401e-05
1.11401e-05
9.66738e-07
9.66738e-07
9.66738e-07
1.0084e-06
1.0084e-06
1.0084e-06
9.70336e-07
9.70336e-07
9.70336e-07
1.02096e-06
1.02096e-06
1.02096e-06
1.03815e-06
1.03815e-06
1.03815e-06
1.05754e-06
1.05754e-06
1.05754e-06
9.68926e-07
9.68926e-07
9.68926e-07
2.70179e-06
2.70179e-06
2.70179e-06
3.21194e-06
3.21194e-06
3.21194e-06
1.04338e-06
1.04338e-06
1.04338e-06
1.03357e-06
1.03357e-06
1.03357e-06
1.07159e-06
1.07159e-06
1.07159e-06
1.09101e-06
1.09101e-06
1.09101e-06
1.06579e-06
1.06579e-06
1.06579e-06
1.10488e-06
1.10488e-06
1.10488e-06
1.37833e-06
1.37833e-06
1.37833e-06
1.68623e-06
1.68623e-06
1.68623e-06
2.54121e-06
2.54121e-06
2.54121e-06
3.11485e-06
3.11485e-06
3.11485e-06
2.62146e-06
2.62146e-06
2.62146e-06
1.7393e-06
1.7393e-06
1.7393e-06
9.90454e-07
9.90454e-07
9.90454e-07
9.71086e-07
9.71086e-07
9.71086e-07
9.70603e-07
9.70603e-07
9.70603e-07
1.00935e-06
1.00935e-06
1.00935e-06
9.91856e-06
9.91856e-06
9.91856e-06
4.34918e-06
4.34918e-06
4.34918e-06
9.39322e-06
9.39322e-06
9.39322e-06
1.26131e-06
1.26131e-06
1.26131e-06
1.35145e-06
1.35145e-06
1.35145e-06
1.30259e-06
1.30259e-06
1.30259e-06
1.34814e-06
1.34814e-06
1.34814e-06
1.30774e-06
1.30774e-06
1.30774e-06
1.30524e-06
1.30524e-06
1.30524e-06
1.26128e-06
1.26128e-06
1.26128e-06
1.22057e-06
1.22057e-06
1.22057e-06
1.21976e-06
1.21976e-06
1.21976e-06
1.26234e-06
1.26234e-06
1.26234e-06
1.07831e-06
1.07831e-06
1.07831e-06
1.0556e-06
1.0556e-06
1.0556e-06
1.39024e-06
1.39024e-06
1.39024e-06
1.44595e-06
1.44595e-06
1.44595e-06
3.89015e-06
3.89015e-06
3.89015e-06
3.26276e-06
3.26276e-06
3.26276e-06
1.35715e-06
1.35715e-06
1.35715e-06
1.3702e-06
1.3702e-06
1.3702e-06
6.09027e-06
6.09027e-06
6.09027e-06
5.43348e-06
5.43348e-06
5.43348e-06
6.2441e-06
6.2441e-06
6.2441e-06
7.50434e-06
7.50434e-06
7.50434e-06
8.26751e-06
8.26751e-06
8.26751e-06
7.69399e-06
7.69399e-06
7.69399e-06
1.1715e-06
1.1715e-06
1.1715e-06
1.23556e-06
1.23556e-06
1.23556e-06
1.23876e-06
1.23876e-06
1.23876e-06
1.19128e-06
1.19128e-06
1.19128e-06
1.84528e-06
1.84528e-06
1.84528e-06
1.50573e-06
1.50573e-06
1.50573e-06
1.2705e-06
1.2705e-06
1.2705e-06
1.16203e-06
1.16203e-06
1.16203e-06
1.20494e-06
1.20494e-06
1.20494e-06
1.27737e-06
1.27737e-06
1.27737e-06
1.4386e-06
1.4386e-06
1.4386e-06
1.3909e-06
1.3909e-06
1.3909e-06
1.34389e-06
1.34389e-06
1.34389e-06
1.13005e-06
1.13005e-06
1.13005e-06
1.13468e-06
1.13468e-06
1.13468e-06
1.20469e-06
1.20469e-06
1.20469e-06
1.16533e-06
1.16533e-06
1.16533e-06
3.87127e-05
3.87127e-05
3.87127e-05
4.54386e-05
4.54386e-05
4.54386e-05
4.52728e-05
4.52728e-05
4.52728e-05
4.5869e-05
4.5869e-05
4.5869e-05
4.12582e-05
4.12582e-05
4.12582e-05
3.94633e-05
3.94633e-05
3.94633e-05
3.95407e-05
3.95407e-05
3.95407e-05
5.23823e-05
5.23823e-05
5.23823e-05
5.31674e-05
5.31674e-05
5.31674e-05
5.25759e-05
5.25759e-05
5.25759e-05
3.93143e-05
3.93143e-05
3.93143e-05
3.92728e-05
3.92728e-05
3.92728e-05
1.42339e-06
1.42339e-06
1.42339e-06
1.40324e-06
1.40324e-06
1.40324e-06
1.35074e-06
1.35074e-06
1.35074e-06
1.36121e-06
1.36121e-06
1.36121e-06
2.21513e-06
2.21513e-06
2.21513e-06
1.80189e-06
1.80189e-06
1.80189e-06
7.74368e-06
7.74368e-06
7.74368e-06
4.5251e-06
4.5251e-06
4.5251e-06
1.05151e-05
1.05151e-05
1.05151e-05
2.59789e-06
2.59789e-06
2.59789e-06
6.69663e-06
6.69663e-06
6.69663e-06
6.80168e-06
6.80168e-06
6.80168e-06
1.63138e-06
1.63138e-06
1.63138e-06
1.77064e-06
1.77064e-06
1.77064e-06
5.25251e-05
5.25251e-05
5.25251e-05
5.24584e-05
5.24584e-05
5.24584e-05
5.36923e-05
5.36923e-05
5.36923e-05
5.32301e-05
5.32301e-05
5.32301e-05
5.2937e-05
5.2937e-05
5.2937e-05
5.42864e-05
5.42864e-05
5.42864e-05
5.42179e-05
5.42179e-05
5.42179e-05
5.33059e-05
5.33059e-05
5.33059e-05
5.37187e-05
5.37187e-05
5.37187e-05
5.48191e-05
5.48191e-05
5.48191e-05
5.48879e-05
5.48879e-05
5.48879e-05
5.44151e-05
5.44151e-05
5.44151e-05
5.43145e-05
5.43145e-05
5.43145e-05
5.41151e-05
5.41151e-05
5.41151e-05
5.35006e-05
5.35006e-05
5.35006e-05
5.30766e-05
5.30766e-05
5.30766e-05
5.21925e-05
5.21925e-05
5.21925e-05
5.18078e-05
5.18078e-05
5.18078e-05
5.40962e-05
5.40962e-05
5.40962e-05
5.36669e-05
5.36669e-05
5.36669e-05
5.38971e-05
5.38971e-05
5.38971e-05
5.32757e-05
5.32757e-05
5.32757e-05
5.30066e-05
5.30066e-05
5.30066e-05
5.28153e-05
5.28153e-05
5.28153e-05
5.26905e-05
5.26905e-05
5.26905e-05
5.24957e-05
5.24957e-05
5.24957e-05
5.18529e-05
5.18529e-05
5.18529e-05
5.14332e-05
5.14332e-05
5.14332e-05
4.30592e-05
4.30592e-05
4.30592e-05
4.40951e-05
4.40951e-05
4.40951e-05
4.42589e-05
4.42589e-05
4.42589e-05
4.19843e-05
4.19843e-05
4.19843e-05
4.1503e-05
4.1503e-05
4.1503e-05
4.16647e-05
4.16647e-05
4.16647e-05
4.25806e-05
4.25806e-05
4.25806e-05
4.28984e-05
4.28984e-05
4.28984e-05
4.37564e-05
4.37564e-05
4.37564e-05
4.35893e-05
4.35893e-05
4.35893e-05
4.78127e-05
4.78127e-05
4.78127e-05
4.81654e-05
4.81654e-05
4.81654e-05
4.73363e-05
4.73363e-05
4.73363e-05
4.75092e-05
4.75092e-05
4.75092e-05
4.85851e-05
4.85851e-05
4.85851e-05
4.87602e-05
4.87602e-05
4.87602e-05
4.60753e-05
4.60753e-05
4.60753e-05
4.68126e-05
4.68126e-05
4.68126e-05
4.53111e-05
4.53111e-05
4.53111e-05
4.62942e-05
4.62942e-05
4.62942e-05
4.64718e-05
4.64718e-05
4.64718e-05
4.59133e-05
4.59133e-05
4.59133e-05
4.55967e-05
4.55967e-05
4.55967e-05
4.51511e-05
4.51511e-05
4.51511e-05
4.6249e-05
4.6249e-05
4.6249e-05
4.57874e-05
4.57874e-05
4.57874e-05
4.59549e-05
4.59549e-05
4.59549e-05
4.65909e-05
4.65909e-05
4.65909e-05
4.71634e-05
4.71634e-05
4.71634e-05
4.74406e-05
4.74406e-05
4.74406e-05
4.69915e-05
4.69915e-05
4.69915e-05
4.75116e-05
4.75116e-05
4.75116e-05
5.08813e-05
5.08813e-05
5.08813e-05
4.96841e-05
4.96841e-05
4.96841e-05
5.06962e-05
5.06962e-05
5.06962e-05
5.01002e-05
5.01002e-05
5.01002e-05
5.03315e-05
5.03315e-05
5.03315e-05
5.05168e-05
5.05168e-05
5.05168e-05
4.95663e-05
4.95663e-05
4.95663e-05
5.01551e-05
5.01551e-05
5.01551e-05
4.9921e-05
4.9921e-05
4.9921e-05
5.03365e-05
5.03365e-05
5.03365e-05
4.72672e-05
4.72672e-05
4.72672e-05
4.77106e-05
4.77106e-05
4.77106e-05
4.66466e-05
4.66466e-05
4.66466e-05
4.83282e-05
4.83282e-05
4.83282e-05
4.87232e-05
4.87232e-05
4.87232e-05
4.75325e-05
4.75325e-05
4.75325e-05
4.29236e-05
4.29236e-05
4.29236e-05
4.54561e-05
4.54561e-05
4.54561e-05
4.52981e-05
4.52981e-05
4.52981e-05
4.46616e-05
4.46616e-05
4.46616e-05
4.41701e-05
4.41701e-05
4.41701e-05
4.73829e-05
4.73829e-05
4.73829e-05
4.61891e-05
4.61891e-05
4.61891e-05
4.65155e-05
4.65155e-05
4.65155e-05
4.97164e-05
4.97164e-05
4.97164e-05
4.92878e-05
4.92878e-05
4.92878e-05
4.90152e-05
4.90152e-05
4.90152e-05
4.85665e-05
4.85665e-05
4.85665e-05
4.91707e-05
4.91707e-05
4.91707e-05
4.87474e-05
4.87474e-05
4.87474e-05
4.84794e-05
4.84794e-05
4.84794e-05
4.91101e-05
4.91101e-05
4.91101e-05
4.86571e-05
4.86571e-05
4.86571e-05
4.84658e-05
4.84658e-05
4.84658e-05
4.82884e-05
4.82884e-05
4.82884e-05
4.48891e-05
4.48891e-05
4.48891e-05
4.42479e-05
4.42479e-05
4.42479e-05
4.44233e-05
4.44233e-05
4.44233e-05
4.52215e-05
4.52215e-05
4.52215e-05
4.5789e-05
4.5789e-05
4.5789e-05
4.56302e-05
4.56302e-05
4.56302e-05
4.34171e-05
4.34171e-05
4.34171e-05
4.4825e-05
4.4825e-05
4.4825e-05
4.42125e-05
4.42125e-05
4.42125e-05
4.32529e-05
4.32529e-05
4.32529e-05
1.17392e-05
1.17392e-05
1.17392e-05
8.4532e-06
8.4532e-06
8.4532e-06
9.08028e-06
9.08028e-06
9.08028e-06
3.32652e-05
3.32652e-05
3.32652e-05
2.83901e-05
2.83901e-05
2.83901e-05
2.85125e-05
2.85125e-05
2.85125e-05
3.59822e-05
3.59822e-05
3.59822e-05
3.30955e-05
3.30955e-05
3.30955e-05
3.93707e-05
3.93707e-05
3.93707e-05
3.9294e-05
3.9294e-05
3.9294e-05
3.63365e-05
3.63365e-05
3.63365e-05
3.82446e-05
3.82446e-05
3.82446e-05
3.86742e-05
3.86742e-05
3.86742e-05
3.8537e-05
3.8537e-05
3.8537e-05
3.35694e-05
3.35694e-05
3.35694e-05
3.6491e-05
3.6491e-05
3.6491e-05
6.28595e-06
6.28595e-06
6.28595e-06
5.91963e-06
5.91963e-06
5.91963e-06
6.11033e-06
6.11033e-06
6.11033e-06
6.38615e-06
6.38615e-06
6.38615e-06
6.93551e-06
6.93551e-06
6.93551e-06
7.37745e-06
7.37745e-06
7.37745e-06
6.20542e-06
6.20542e-06
6.20542e-06
6.61005e-06
6.61005e-06
6.61005e-06
6.41681e-06
6.41681e-06
6.41681e-06
6.73894e-06
6.73894e-06
6.73894e-06
1.01689e-05
1.01689e-05
1.01689e-05
9.02186e-06
9.02186e-06
9.02186e-06
8.44081e-06
8.44081e-06
8.44081e-06
9.2822e-06
9.2822e-06
9.2822e-06
9.48175e-06
9.48175e-06
9.48175e-06
8.68443e-06
8.68443e-06
8.68443e-06
8.2768e-06
8.2768e-06
8.2768e-06
1.02534e-05
1.02534e-05
1.02534e-05
9.87929e-06
9.87929e-06
9.87929e-06
1.05083e-05
1.05083e-05
1.05083e-05
1.03133e-05
1.03133e-05
1.03133e-05
8.0416e-06
8.0416e-06
8.0416e-06
7.30882e-06
7.30882e-06
7.30882e-06
7.16516e-06
7.16516e-06
7.16516e-06
7.53403e-06
7.53403e-06
7.53403e-06
8.76176e-06
8.76176e-06
8.76176e-06
8.19743e-06
8.19743e-06
8.19743e-06
7.80635e-06
7.80635e-06
7.80635e-06
6.73984e-06
6.73984e-06
6.73984e-06
7.08867e-06
7.08867e-06
7.08867e-06
6.86793e-06
6.86793e-06
6.86793e-06
7.33554e-06
7.33554e-06
7.33554e-06
7.44218e-06
7.44218e-06
7.44218e-06
8.56733e-06
8.56733e-06
8.56733e-06
1.0616e-05
1.0616e-05
1.0616e-05
9.67312e-06
9.67312e-06
9.67312e-06
8.71945e-06
8.71945e-06
8.71945e-06
9.95299e-06
9.95299e-06
9.95299e-06
1.02187e-05
1.02187e-05
1.02187e-05
8.32946e-06
8.32946e-06
8.32946e-06
8.97131e-06
8.97131e-06
8.97131e-06
1.0842e-05
1.0842e-05
1.0842e-05
1.13681e-05
1.13681e-05
1.13681e-05
5.67672e-06
5.67672e-06
5.67672e-06
3.83204e-06
3.83204e-06
3.83204e-06
4.02529e-06
4.02529e-06
4.02529e-06
4.38614e-06
4.38614e-06
4.38614e-06
4.22701e-06
4.22701e-06
4.22701e-06
5.75471e-06
5.75471e-06
5.75471e-06
5.65063e-06
5.65063e-06
5.65063e-06
4.4968e-05
4.4968e-05
4.4968e-05
4.45042e-05
4.45042e-05
4.45042e-05
3.96376e-06
3.96376e-06
3.96376e-06
6.61915e-06
6.61915e-06
6.61915e-06
1.66715e-05
1.66715e-05
1.66715e-05
7.4024e-06
7.4024e-06
7.4024e-06
3.04636e-05
3.04636e-05
3.04636e-05
1.13839e-05
1.13839e-05
1.13839e-05
1.02903e-05
1.02903e-05
1.02903e-05
7.76536e-06
7.76536e-06
7.76536e-06
7.93131e-06
7.93131e-06
7.93131e-06
8.84558e-06
8.84558e-06
8.84558e-06
8.43754e-06
8.43754e-06
8.43754e-06
6.17792e-06
6.17792e-06
6.17792e-06
4.51592e-06
4.51592e-06
4.51592e-06
4.17e-06
4.17e-06
4.17e-06
4.27798e-06
4.27798e-06
4.27798e-06
4.12164e-06
4.12164e-06
4.12164e-06
6.57911e-06
6.57911e-06
6.57911e-06
7.28941e-06
7.28941e-06
7.28941e-06
6.98697e-06
6.98697e-06
6.98697e-06
6.12072e-06
6.12072e-06
6.12072e-06
6.03102e-06
6.03102e-06
6.03102e-06
6.2723e-06
6.2723e-06
6.2723e-06
6.4481e-06
6.4481e-06
6.4481e-06
6.99538e-06
6.99538e-06
6.99538e-06
6.5671e-06
6.5671e-06
6.5671e-06
2.75214e-06
2.75214e-06
2.75214e-06
2.85472e-06
2.85472e-06
2.85472e-06
3.37774e-06
3.37774e-06
3.37774e-06
3.09013e-06
3.09013e-06
3.09013e-06
3.2055e-06
3.2055e-06
3.2055e-06
2.92113e-06
2.92113e-06
2.92113e-06
2.946e-06
2.946e-06
2.946e-06
3.10419e-06
3.10419e-06
3.10419e-06
3.21991e-06
3.21991e-06
3.21991e-06
2.50801e-06
2.50801e-06
2.50801e-06