<VTKFile type="UnstructuredGrid" version="1.0">
<UnstructuredGrid>
<Piece NumberOfPoints="10830" NumberOfCells="3610">
<Points>
<DataArray type="Float64" NumberOfComponents="3" format="ascii">
3.10314 1.29552 6.29575
3.11025 1.28841 6.27
3.11025 1.28841 6.32146
3.11025 1.28841 6.82508
3.11025 1.28841 6.876
3.10226 1.2964 6.85053
3.11025 1.28841 6.82508
3.10226 1.2964 6.85053
3.09025 1.30841 6.8251
2.21656 2.1821 7.29759
2.22913 2.16953 7.315
2.19928 2.19938 7.315
2.19928 2.19938 7.315
2.19928 2.19938 7.28484
2.21656 2.1821 7.29759
3.11025 1.28841 6.82508
3.09025 1.30841 6.8251
3.10227 1.29639 6.79968
2.20538 2.19328 6.54679
2.19928 2.19938 6.57201
2.19928 2.19938 6.52157
3.10229 1.29637 6.5469
3.11025 1.28841 6.57209
3.09026 1.3084 6.57211
3.10214 1.29652 6.44634
3.11025 1.28841 6.42128
3.11025 1.28841 6.47139
3.09026 1.3084 6.57211
3.11025 1.28841 6.57209
3.1023 1.29636 6.59731
3.11025 1.28841 6.57209
3.11025 1.28841 6.62254
3.1023 1.29636 6.59731
3.09026 1.3084 6.62255
3.1023 1.29636 6.59731
3.11025 1.28841 6.62254
3.09025 1.30841 6.77431
3.10227 1.29639 6.79968
3.08043 1.31823 6.7997
3.08043 1.31823 6.7997
3.10227 1.29639 6.79968
3.09025 1.30841 6.8251
3.08043 1.31823 6.7997
3.06939 1.32927 6.77432
3.09025 1.30841 6.77431
3.08043 1.31823 6.7997
3.09025 1.30841 6.8251
3.06938 1.32928 6.82512
3.11025 1.28841 6.67304
3.11025 1.28841 6.72362
3.10229 1.29637 6.69833
3.10229 1.29637 6.69833
3.09026 1.3084 6.72363
3.08044 1.31822 6.69834
3.11025 1.28841 6.72362
3.09026 1.3084 6.72363
3.10229 1.29637 6.69833
3.11025 1.28841 6.77429
3.10227 1.29639 6.79968
3.09025 1.30841 6.77431
3.11025 1.28841 6.82508
3.10227 1.29639 6.79968
3.11025 1.28841 6.77429
3.0901 1.30856 6.42132
3.11025 1.28841 6.42128
3.10214 1.29652 6.44634
3.09024 1.30842 6.87602
3.10226 1.2964 6.85053
3.11025 1.28841 6.876
2.80657 1.59209 7.05575
2.81699 1.58167 7.02998
2.8274 1.57126 7.05572
2.19928 2.19938 6.27
2.21889 2.17977 6.27
2.20626 2.1924 6.2947
2.25868 2.13998 6.52159
2.23814 2.16052 6.52157
2.24806 2.1506 6.49637
2.21801 2.18065 6.52156
2.23814 2.16052 6.52157
2.22704 2.17162 6.54678
2.21801 2.18065 6.52156
2.20538 2.19328 6.54679
2.19928 2.19938 6.52157
2.22704 2.17162 6.54678
2.20538 2.19328 6.54679
2.21801 2.18065 6.52156
2.20547 2.19319 6.74894
2.19928 2.19938 6.7743
2.19928 2.19938 6.72361
2.21807 2.1806 6.7743
2.22712 2.17155 6.74893
2.23821 2.16045 6.77429
2.19928 2.19938 6.7743
2.20547 2.19319 6.74894
2.21807 2.1806 6.7743
2.21807 2.1806 6.7743
2.20547 2.19319 6.74894
2.22712 2.17155 6.74893
2.21805 2.18061 6.7236
2.2382 2.16046 6.7236
2.22712 2.17155 6.74893
2.21805 2.18061 6.7236
2.20547 2.19319 6.74894
2.19928 2.19938 6.72361
2.22712 2.17155 6.74893
2.20547 2.19319 6.74894
2.21805 2.18061 6.7236
2.19928 2.19938 6.57201
2.20538 2.19328 6.54679
2.21802 2.18064 6.572
2.21802 2.18064 6.572
2.20538 2.19328 6.54679
2.22704 2.17162 6.54678
2.23821 2.16045 6.77429
2.22712 2.17155 6.74893
2.24816 2.15051 6.74893
2.22712 2.17155 6.74893
2.2382 2.16046 6.7236
2.24816 2.15051 6.74893
2.40353 1.99513 6.72367
2.41386 1.9848 6.74901
2.3932 2.00546 6.749
2.3932 2.00546 6.749
2.41386 1.9848 6.74901
2.40354 1.99512 6.77437
2.40354 1.99512 6.77437
2.41386 1.9848 6.74901
2.4242 1.97446 6.77438
2.79618 1.60248 7.03
2.81699 1.58167 7.02998
2.80657 1.59209 7.05575
3.10224 1.29642 6.49656
3.11025 1.28841 6.47139
3.11025 1.28841 6.5217
3.11025 1.28841 6.57209
3.10229 1.29637 6.5469
3.11025 1.28841 6.5217
3.02715 1.37151 6.6731
3.006 1.39266 6.67311
3.01659 1.38207 6.64785
3.09026 1.3084 6.67305
3.10229 1.29637 6.69833
3.08044 1.31822 6.69834
3.11025 1.28841 6.67304
3.10229 1.29637 6.69833
3.09026 1.3084 6.67305
3.08044 1.31822 6.69834
3.09026 1.3084 6.72363
3.0694 1.32926 6.72365
3.10228 1.29638 6.74895
3.09026 1.3084 6.72363
3.11025 1.28841 6.72362
3.11025 1.28841 6.72362
3.11025 1.28841 6.77429
3.10228 1.29638 6.74895
3.10228 1.29638 6.74895
3.11025 1.28841 6.77429
3.09025 1.30841 6.77431
3.08027 1.31839 6.44637
3.0901 1.30856 6.42132
3.10214 1.29652 6.44634
3.10224 1.29642 6.49656
3.11025 1.28841 6.5217
3.09024 1.30842 6.52174
3.09024 1.30842 6.52174
3.11025 1.28841 6.5217
3.10229 1.29637 6.5469
3.0165 1.38216 6.49661
3.00588 1.39278 6.47143
3.02702 1.37164 6.47143
3.04817 1.35049 6.47145
3.03759 1.36107 6.44626
3.05884 1.33982 6.44631
3.04817 1.35049 6.47145
3.02702 1.37164 6.47143
3.03759 1.36107 6.44626
3.08043 1.31823 6.54693
3.10229 1.29637 6.5469
3.09026 1.3084 6.57211
3.08043 1.31823 6.54693
3.09024 1.30842 6.52174
3.10229 1.29637 6.5469
3.08042 1.31824 6.85055
3.09025 1.30841 6.8251
3.10226 1.2964 6.85053
3.10226 1.2964 6.85053
3.09024 1.30842 6.87602
3.08042 1.31824 6.85055
3.06938 1.32928 6.82512
3.09025 1.30841 6.8251
3.08042 1.31824 6.85055
3.08041 1.31825 7.00405
3.05901 1.33965 7.00406
3.06938 1.32928 6.97837
3.05901 1.33966 6.95274
3.08041 1.31825 6.95272
3.06938 1.32928 6.97837
3.10225 1.29641 6.90153
3.09024 1.30842 6.87602
3.11025 1.28841 6.876
3.08041 1.31825 6.90156
3.09024 1.30842 6.87602
3.10225 1.29641 6.90153
2.84822 1.55044 7.10732
2.85863 1.54003 7.13316
2.83776 1.5609 7.1332
2.96373 1.43493 6.97843
2.97428 1.42438 6.95279
2.98483 1.41383 6.97841
2.98483 1.41383 6.97841
2.97428 1.42438 6.95279
2.9954 1.40326 6.95278
3.06938 1.32929 6.92713
3.05901 1.33965 6.90158
3.08041 1.31825 6.90156
3.06938 1.32929 6.92713
3.08041 1.31825 6.95272
3.05901 1.33966 6.95274
2.95319 1.44547 6.95281
2.97428 1.42438 6.95279
2.96373 1.43493 6.97843
2.90067 1.49799 6.72374
2.87971 1.51895 6.72374
2.89018 1.50848 6.69844
2.84833 1.55033 6.69844
2.83789 1.56077 6.72375
2.82746 1.5712 6.69844
2.85878 1.53988 6.72375
2.83789 1.56077 6.72375
2.84833 1.55033 6.69844
2.83788 1.56078 6.62265
2.85877 1.53989 6.62265
2.84833 1.55034 6.64789
2.84833 1.55034 6.64789
2.82745 1.57121 6.64789
2.83788 1.56078 6.62265
2.83788 1.56078 6.62265
2.82745 1.57121 6.64789
2.81702 1.58164 6.62264
2.84833 1.55034 6.64789
2.85877 1.53989 6.62265
2.86924 1.52943 6.6479
2.87968 1.51898 6.57223
2.89017 1.50849 6.59744
2.86922 1.52944 6.59743
2.86922 1.52944 6.59743
2.85875 1.53991 6.57223
2.87968 1.51898 6.57223
2.72357 1.6751 6.74909
2.73392 1.66474 6.72375
2.74429 1.65437 6.74909
2.73392 1.66474 6.72375
2.75466 1.644 6.72375
2.74429 1.65437 6.74909
2.83789 1.56077 6.67316
2.82745 1.57121 6.64789
2.84833 1.55034 6.64789
2.83789 1.56077 6.67316
2.84833 1.55033 6.69844
2.82746 1.5712 6.69844
2.82746 1.5712 6.69844
2.80662 1.59204 6.69844
2.81703 1.58163 6.67315
2.81703 1.58163 6.67315
2.83789 1.56077 6.67316
2.82746 1.5712 6.69844
2.82745 1.57121 6.64789
2.83789 1.56077 6.67316
2.81703 1.58163 6.67315
2.81702 1.58164 6.62264
2.7962 1.60246 6.62264
2.8066 1.59206 6.59741
2.79618 1.60248 6.57219
2.81701 1.58166 6.57221
2.8066 1.59206 6.59741
2.42419 1.97447 6.72368
2.41386 1.9848 6.74901
2.40353 1.99513 6.72367
2.40353 1.99513 6.72367
2.41385 1.98481 6.69836
2.42419 1.97447 6.72368
2.20539 2.19327 6.34487
2.19928 2.19938 6.37009
2.19928 2.19938 6.31942
2.19928 2.19938 6.27
2.20626 2.1924 6.2947
2.19928 2.19938 6.31942
2.21797 2.1807 6.4207
2.19928 2.19938 6.42067
2.20528 2.19338 6.39542
2.19928 2.19938 6.42067
2.19928 2.19938 6.37009
2.20528 2.19338 6.39542
3.11025 1.28841 6.27
3.10314 1.29552 6.29575
3.0911 1.30756 6.27
2.19928 2.19938 6.52157
2.19928 2.19938 6.47114
2.20536 2.19331 6.49636
2.20536 2.19331 6.49636
2.21801 2.18065 6.52156
2.19928 2.19938 6.52157
2.21799 2.18067 6.47113
2.20536 2.19331 6.49636
2.19928 2.19938 6.47114
2.21799 2.18067 6.47113
2.22698 2.17168 6.44594
2.23811 2.16055 6.47116
2.22702 2.17165 6.49635
2.24806 2.1506 6.49637
2.23814 2.16052 6.52157
2.23814 2.16052 6.52157
2.21801 2.18065 6.52156
2.22702 2.17165 6.49635
2.23811 2.16055 6.47116
2.24806 2.1506 6.49637
2.22702 2.17165 6.49635
2.22702 2.17165 6.49635
2.21799 2.18067 6.47113
2.23811 2.16055 6.47116
2.21801 2.18065 6.52156
2.20536 2.19331 6.49636
2.22702 2.17165 6.49635
2.20536 2.19331 6.49636
2.21799 2.18067 6.47113
2.22702 2.17165 6.49635
2.20532 2.19334 6.44591
2.19928 2.19938 6.47114
2.19928 2.19938 6.42067
2.20532 2.19334 6.44591
2.19928 2.19938 6.42067
2.21797 2.1807 6.4207
2.21797 2.1807 6.4207
2.22698 2.17168 6.44594
2.20532 2.19334 6.44591
2.20532 2.19334 6.44591
2.21799 2.18067 6.47113
2.19928 2.19938 6.47114
2.22698 2.17168 6.44594
2.21799 2.18067 6.47113
2.20532 2.19334 6.44591
2.24814 2.15052 6.69829
2.2382 2.16046 6.7236
2.2271 2.17156 6.69829
2.2382 2.16046 6.7236
2.21805 2.18061 6.7236
2.2271 2.17156 6.69829
2.2271 2.17156 6.69829
2.23819 2.16048 6.673
2.24814 2.15052 6.69829
2.24809 2.15058 6.54679
2.23814 2.16052 6.52157
2.25868 2.13998 6.52159
2.22704 2.17162 6.54678
2.23814 2.16052 6.52157
2.24809 2.15058 6.54679
2.26891 2.12975 6.5468
2.24809 2.15058 6.54679
2.25868 2.13998 6.52159
2.2587 2.13996 6.57201
2.24809 2.15058 6.54679
2.26891 2.12975 6.5468
2.2587 2.13996 6.57201
2.26891 2.12975 6.5468
2.27936 2.1193 6.57202
2.41384 1.98482 6.6478
2.42418 1.97448 6.67307
2.40352 1.99515 6.67307
2.40352 1.99515 6.67307
2.42418 1.97448 6.67307
2.41385 1.98481 6.69836
2.33114 2.06753 6.69832
2.35183 2.04683 6.69833
2.34149 2.05717 6.72363
2.34148 2.05718 6.67304
2.35183 2.04683 6.69833
2.33114 2.06753 6.69832
2.35182 2.04684 6.64777
2.34147 2.05719 6.62252
2.36216 2.03651 6.62253
2.34148 2.05718 6.67304
2.33112 2.06754 6.64776
2.35182 2.04684 6.64777
2.35182 2.04684 6.64777
2.33112 2.06754 6.64776
2.34147 2.05719 6.62252
2.35184 2.04682 6.74898
2.37253 2.02613 6.74899
2.3622 2.03646 6.77434
2.31047 2.08819 6.7997
2.32082 2.07785 6.77432
2.33117 2.06749 6.79971
2.3208 2.07786 6.72362
2.33114 2.06753 6.69832
2.34149 2.05717 6.72363
2.31043 2.08823 6.69831
2.33114 2.06753 6.69832
2.3208 2.07786 6.72362
2.23821 2.16045 6.77429
2.24816 2.15051 6.74893
2.25876 2.1399 6.77429
2.24814 2.15052 6.69829
2.23819 2.16048 6.673
2.25873 2.13993 6.673
2.25873 2.13993 6.673
2.26896 2.1297 6.69829
2.24814 2.15052 6.69829
2.30008 2.09858 6.67301
2.31043 2.08823 6.69831
2.28971 2.10895 6.6983
2.25874 2.13992 6.7236
2.24816 2.15051 6.74893
2.2382 2.16046 6.7236
2.25874 2.13992 6.7236
[...]
<PointData Scalars="View Factor" >
<DataArray type="Float64" Name="View Factor" NumberOfComponents="1" format="ascii">
0.29691
0.29691
0.29691
0.16205
0.16205
0.16205
0.165187
0.165187
0.165187
0.0239074
0.0239074
0.0239074
0.0182239
0.0182239
0.0182239
0.168623
0.168623
0.168623
0.106288
0.106288
0.106288
0.226566
0.226566
0.226566
0.256693
0.256693
0.256693
0.222363
0.222363
0.222363
0.21819
0.21819
0.21819
0.214088
0.214088
0.214088
0.173567
0.173567
0.173567
0.170029
0.170029
0.170029
0.175
0.175
0.175
0.167879
0.167879
0.167879
0.194334
0.194334
0.194334
0.192112
0.192112
0.192112
0.190404
0.190404
0.190404
0.175661
0.175661
0.175661
0.172319
0.172319
0.172319
0.261383
0.261383
0.261383
0.158488
0.158488
0.158488
0
0
0
0.282181
0.282181
0.282181
0.0815562
0.0815562
0.0815562
0.108292
0.108292
0.108292
0.115069
0.115069
0.115069
0.112193
0.112193
0.112193
0.058605
0.058605
0.058605
0.062498
0.062498
0.062498
0.0590977
0.0590977
0.0590977
0.0638883
0.0638883
0.0638883
0.0670564
0.0670564
0.0670564
0.0647836
0.0647836
0.0647836
0.066482
0.066482
0.066482
0.103971
0.103971
0.103971
0.106926
0.106926
0.106926
0.056979
0.056979
0.056979
0.0588929
0.0588929
0.0588929
0.000435853
0.000435853
0.000435853
0.000342347
0.000342347
0.000342347
0.000305481
0.000305481
0.000305481
0
0
0
0.243584
0.243584
0.243584
0.230723
0.230723
0.230723
0.196173
0.196173
0.196173
0.195985
0.195985
0.195985
0.198097
0.198097
0.198097
0.189941
0.189941
0.189941
0.186636
0.186636
0.186636
0.183084
0.183084
0.183084
0.179265
0.179265
0.179265
0.259541
0.259541
0.259541
0.239401
0.239401
0.239401
0.235086
0.235086
0.235086
0.245839
0.245839
0.245839
0.255903
0.255903
0.255903
0.25288
0.25288
0.25288
0.228772
0.228772
0.228772
0.23307
0.23307
0.23307
0.163122
0.163122
0.163122
0.159755
0.159755
0.159755
0.164406
0.164406
0.164406
0.133812
0.133812
0.133812
0.139717
0.139717
0.139717
0.155223
0.155223
0.155223
0.153196
0.153196
0.153196
0.0217548
0.0217548
0.0217548
0.12515
0.12515
0.12515
0.128563
0.128563
0.128563
0.149018
0.149018
0.149018
0.142758
0.142758
0.142758
0.123167
0.123167
0.123167
0.107808
0.107808
0.107808
0.0125259
0.0125259
0.0125259
0.0300185
0.0300185
0.0300185
0.0331672
0.0331672
0.0331672
0.0141666
0.0141666
0.0141666
0.00238219
0.00238219
0.00238219
0.0534522
0.0534522
0.0534522
0.105374
0.105374
0.105374
0.0829193
0.0829193
0.0829193
0.000490136
0.000490136
0.000490136
0.000567102
0.000567102
0.000567102
0.0136115
0.0136115
0.0136115
0.012834
0.012834
0.012834
0.0010405
0.0010405
0.0010405
0.00116129
0.00116129
0.00116129
0.00149726
0.00149726
0.00149726
0.00294684
0.00294684
0.00294684
0.00497759
0.00497759
0.00497759
0.000500615
0.000500615
0.000500615
0.000620856
0.000620856
0.000620856
0.264232
0.264232
0.264232
0.281924
0.281924
0.281924
0.182957
0.182957
0.182957
0.200196
0.200196
0.200196
0.302047
0.302047
0.302047
0.125569
0.125569
0.125569
0.121241
0.121241
0.121241
0.135906
0.135906
0.135906
0.135892
0.135892
0.135892
0.102294
0.102294
0.102294
0.113748
0.113748
0.113748
0.108477
0.108477
0.108477
0.127135
0.127135
0.127135
0.124178
0.124178
0.124178
0.131502
0.131502
0.131502
0.153353
0.153353
0.153353
0.167906
0.167906
0.167906
0.159551
0.159551
0.159551
0.144835
0.144835
0.144835
0.148498
0.148498
0.148498
0.0629901
0.0629901
0.0629901
0.0695
0.0695
0.0695
0.0651915
0.0651915
0.0651915
0.0772258
0.0772258
0.0772258
0.092416
0.092416
0.092416
0.0619209
0.0619209
0.0619209
0.0589299
0.0589299
0.0589299
0.0415434
0.0415434
0.0415434
0.00129778
0.00129778
0.00129778
0.00100548
0.00100548
0.00100548
0.000714519
0.000714519
0.000714519
0.000907018
0.000907018
0.000907018
0.0020979
0.0020979
0.0020979
0.001451
0.001451
0.001451
0.00185272
0.00185272
0.00185272
0.000342582
0.000342582
0.000342582
0.000207148
0.000207148
0.000207148
0.000629036
0.000629036
0.000629036
0.000715869
0.000715869
0.000715869
0.0472748
0.0472748
0.0472748
0.0550292
0.0550292
0.0550292
0.0447584
0.0447584
0.0447584
0.000910053
0.000910053
0.000910053
0.0501778
0.0501778
0.0501778
0.0517176
0.0517176
0.0517176
0.0435048
0.0435048
0.0435048
6.45852e-05
6.45852e-05
6.45852e-05
0.0203144
0.0203144
0.0203144
0.0192656
0.0192656
0.0192656
0.000502152
0.000502152
0.000502152
0.000437237
0.000437237
0.000437237
0.000235335
0.000235335
0.000235335
0.000306244
0.000306244
0.000306244
0.000306861
0.000306861
0.000306861
0.00034254
0.00034254
0.00034254
0.000234644
0.000234644
0.000234644
0.000205104
0.000205104
0.000205104
0.000139319
0.000139319
0.000139319
0.000157849
0.000157849
0.000157849
0.000158601
0.000158601
0.000158601
0.000205875
0.000205875
0.000205875
6.36249e-05
6.36249e-05
6.36249e-05
3.61275e-05
3.61275e-05
3.61275e-05
2.79452e-05
2.79452e-05
2.79452e-05
1.6031e-05
1.6031e-05
1.6031e-05
1.86962e-05
1.86962e-05
1.86962e-05
0.000157363
0.000157363
0.000157363
0.000233838
0.000233838
0.000233838
0.000204225
0.000204225
0.000204225
0
0
0
0
0
0
0
0
0
0
0
0
0
0
0
0
0
0
3.92915e-06
3.92915e-06
3.92915e-06
0
0
0
0.000118834
0.000118834
0.000118834
0
0
0
0.00267176
0.00267176
0.00267176
0.00485692
0.00485692
0.00485692
0
0
0
0
0
0
0
0
0
0
0
0
0
0
0
0
0
0
0
0
0
0.00508973
0.00508973
0.00508973
0
0
0
0.000124415
0.000124415
0.000124415
0.00279872
0.00279872
0.00279872
0.00532803
0.00532803
0.00532803
0.00633549
0.00633549
0.00633549
0.0820887
0.0820887
0.0820887
0.0473612
0.0473612
0.0473612
0.074953
0.074953
0.074953
0.0864711
0.0864711
0.0864711
0.0806308
0.0806308
0.0806308
0.174238
0.174238
0.174238
0.169243
0.169243
0.169243
0.172823
0.172823
0.172823
0.171608
0.171608
0.171608
0.131975
0.131975
0.131975
0.128445
0.128445
0.128445
0.150356
0.150356
0.150356
0.180039
0.180039
0.180039
0.179744
0.179744
0.179744
0.202021
0.202021
0.202021
0.203891
0.203891
0.203891
0.206046
0.206046
0.206046
0.210017
0.210017
0.210017
0.20792
0.20792
0.20792
0.179021
0.179021
0.179021
0.177932
0.177932
0.177932
0.17865
0.17865
0.17865
0.18612
0.18612
0.18612
0.180166
0.180166
0.180166
0.183925
0.183925
0.183925
0.180817
0.180817
0.180817
0.184527
0.184527
0.184527
0.248121
0.248121
0.248121
0.252522
0.252522
0.252522
0.255064
0.255064
0.255064
0.265836
0.265836
0.265836
0.250804
0.250804
0.250804
0.254533
0.254533
0.254533
0.235372
0.235372
0.235372
0.240054
0.240054
0.240054
0.233276
0.233276
0.233276
0.235571
0.235571
0.235571
0.157638
0.157638
0.157638
0.154342
0.154342
0.154342
0.152237
0.152237
0.152237
0.130947
0.130947
0.130947
0.113322
0.113322
0.113322
0.0710298
0.0710298
0.0710298
0
0
0
0
0
0
0
0
0
0.122358
0.122358
0.122358
0.116962
0.116962
0.116962
0.126879
0.126879
0.126879
0.12972
0.12972
0.12972
0.149945
0.149945
0.149945
0.175286
0.175286
0.175286
0.166355
0.166355
0.166355
0.172513
0.172513
0.172513
0.154211
0.154211
0.154211
0.152061
0.152061
0.152061
0.145494
0.145494
0.145494
0.147928
0.147928
0.147928
0.144811
0.144811
0.144811
0.150004
0.150004
0.150004
0.134693
0.134693
0.134693
0.132355
0.132355
0.132355
0.137654
0.137654
0.137654
0.138277
0.138277
0.138277
0.132505
0.132505
0.132505
0.135455
0.135455
0.135455
0.1533
0.1533
0.1533
0.166469
0.166469
0.166469
0.16275
0.16275
0.16275
0.112206
0.112206
0.112206
0.000727203
0.000727203
0.000727203
0.000824368
0.000824368
0.000824368
0.0295846
0.0295846
0.0295846
0.000270684
0.000270684
0.000270684
0.000235937
0.000235937
0.000235937
0.000507814
0.000507814
0.000507814
0.000585803
0.000585803
0.000585803
0.000721176
0.000721176
0.000721176
0.000817349
0.000817349
0.000817349
0.000580169
0.000580169
0.000580169
0.000714395
0.000714395
0.000714395
0.000408145
0.000408145
0.000408145
0.000362871
0.000362871
0.000362871
0.000277101
0.000277101
0.000277101
0.000238768
0.000238768
0.000238768
0.000274029
0.000274029
0.000274029
0.00035899
0.00035899
0.00035899
0.0497295
0.0497295
0.0497295
0.0702563
0.0702563
0.0702563
0.0910345
0.0910345
0.0910345
0.0927603
0.0927603
0.0927603
3.23176e-05
3.23176e-05
3.23176e-05
0.000186215
0.000186215
0.000186215
4.28003e-05
4.28003e-05
4.28003e-05
0.00296094
0.00296094
0.00296094
0.00499028
0.00499028
0.00499028
0.00344746
0.00344746
0.00344746
0.0043089
0.0043089
0.0043089
0.0366674
0.0366674
0.0366674
0.0166485
0.0166485
0.0166485
0.0156962
0.0156962
0.0156962
0.0340452
0.0340452
0.0340452
0.0560347
0.0560347
0.0560347
0.0575172
0.0575172
0.0575172
0.0964185
0.0964185
0.0964185
0.114559
0.114559
0.114559
0.000714729
0.000714729
0.000714729
0.000906282
0.000906282
0.000906282
0.00020989
0.00020989
0.00020989
0.000240025
0.000240025
0.000240025
0.000729636
0.000729636
0.000729636
0.000632861
0.000632861
0.000632861
0.000149194
0.000149194
0.000149194
0.000163325
0.000163325
0.000163325
0.000145997
0.000145997
0.000145997
0.000103757
0.000103757
0.000103757
9.3053e-05
9.3053e-05
9.3053e-05
0.000101502
0.000101502
0.000101502
0.000698577
0.000698577
0.000698577
0.00112023
0.00112023
0.00112023
0.00100057
0.00100057
0.00100057
0.000791051
0.000791051
0.000791051
0.000350182
0.000350182
0.000350182
0.000393478
0.000393478
0.000393478
0.0011068
0.0011068
0.0011068
0.000559662
0.000559662
0.000559662
0.000689502
0.000689502
0.000689502
0.00144928
0.00144928
0.00144928
0.00495901
0.00495901
0.00495901
0.00429113
0.00429113
0.00429113
0.00343207
0.00343207
0.00343207
0.00115289
0.00115289
0.00115289
0.00103219
0.00103219
0.00103219
0.00147663
0.00147663
0.00147663
0.00114327
0.00114327
0.00114327
0.00448587
0.00448587
0.00448587
0.00272589
0.00272589
0.00272589
0.00209409
0.00209409
0.00209409
0.00184984
0.00184984
0.00184984
0.00450257
0.00450257
0.00450257
0.00305045
0.00305045
0.00305045
0.00384976
0.00384976
0.00384976
0.0466676
0.0466676
0.0466676
0.0698729
0.0698729
0.0698729
0.0503237
0.0503237
0.0503237
0.00183565
0.00183565
0.00183565
0.00142869
0.00142869
0.00142869
0.000698955
0.000698955
0.000698955
0.000619281
0.000619281
0.000619281
0.000502316
0.000502316
0.000502316
0.000430906
0.000430906
0.000430906
0.00030834
0.00030834
0.00030834
0.000345217
0.000345217
0.000345217
0.305214
0.305214
0.305214
0.300513
0.300513
0.300513
0.303722
0.303722
0.303722
0.298401
0.298401
0.298401
0.290789
0.290789
0.290789
0.295208
0.295208
0.295208
0.234398
0.234398
0.234398
0.247413
0.247413
0.247413
0.05085
0.05085
0.05085
0.0564347
0.0564347
0.0564347
0.0677115
0.0677115
0.0677115
0.0678006
0.0678006
0.0678006
0.0720955
0.0720955
0.0720955
0.0784459
0.0784459
0.0784459
0.0855959
0.0855959
0.0855959
0.0838324
0.0838324
0.0838324
0.0852549
0.0852549
0.0852549
0.0989301
0.0989301
0.0989301
0.0911321
0.0911321
0.0911321
0.0897826
0.0897826
0.0897826
0.0975015
0.0975015
0.0975015
0.0930338
0.0930338
0.0930338
0.0872468
0.0872468
0.0872468
0.0781573
0.0781573
0.0781573
0.0542329
0.0542329
0.0542329
0.0396725
0.0396725
0.0396725
0.0988519
0.0988519
0.0988519
0.0882589
0.0882589
0.0882589
0.0946931
0.0946931
0.0946931
0.0812103
0.0812103
0.0812103
0.0704947
0.0704947
0.0704947
0.0677001
0.0677001
0.0677001
0.0724916
0.0724916
0.0724916
0.0699272
0.0699272
0.0699272
0.056819
0.056819
0.056819
0.0474732
0.0474732
0.0474732
0.00130188
0.00130188
0.00130188
0.00144116
0.00144116
0.00144116
0.00184605
0.00184605
0.00184605
0.00143523
0.00143523
0.00143523
0.000708411
0.000708411
0.000708411
0.000899211
0.000899211
0.000899211
0.000623338
0.000623338
0.000623338
0.00100992
0.00100992
0.00100992
0.000902227
0.000902227
0.000902227
0.000710796
0.000710796
0.000710796
0.000908772
0.000908772
0.000908772
0.00145484
0.00145484
0.00145484
0.00102044
0.00102044
0.00102044
0.00131028
0.00131028
0.00131028
0.00102298
0.00102298
0.00102298
0.00131179
0.00131179
0.00131179
0.000439385
0.000439385
0.000439385
0.000505298
0.000505298
0.000505298
0.000307338
0.000307338
0.000307338
0.000236385
0.000236385
0.000236385
0.00030767
0.00030767
0.00030767
0.00034245
0.00034245
0.00034245
0.000206559
0.000206559
0.000206559
0.000235913
0.000235913
0.000235913
9.08417e-05
9.08417e-05
9.08417e-05
0.000101377
0.000101377
0.000101377
0.00013916
0.00013916
0.00013916
0.000158867
0.000158867
0.000158867
0.00013897
0.00013897
0.00013897
9.10014e-05
9.10014e-05
9.10014e-05
0.00010169
0.00010169
0.00010169
0.000236745
0.000236745
0.000236745
0.0333944
0.0333944
0.0333944
0.00807635
0.00807635
0.00807635
0.0324952
0.0324952
0.0324952
0.0199632
0.0199632
0.0199632
0.0400001
0.0400001
0.0400001
0.0411182
0.0411182
0.0411182
0.0187016
0.0187016
0.0187016
0.0301916
0.0301916
0.0301916
0.0195039
0.0195039
0.0195039
0.0309027
0.0309027
0.0309027
6.46924e-05
6.46924e-05
6.46924e-05
0.00627881
0.00627881
0.00627881
5.07383e-05
5.07383e-05
5.07383e-05
0.0160858
0.0160858
0.0160858
0.025398
0.025398
0.025398
0.00620963
0.00620963
0.00620963
5.03577e-05
5.03577e-05
5.03577e-05
5.0636e-05
5.0636e-05
5.0636e-05
3.72155e-05
3.72155e-05
3.72155e-05
2.9271e-05
2.9271e-05
2.9271e-05
3.71069e-05
3.71069e-05
3.71069e-05
0.0172543
0.0172543
0.0172543
0.0257974
0.0257974
0.0257974
0.025838
0.025838
0.025838
0.026078
0.026078
0.026078
0.0278626
0.0278626
0.0278626
0.033207
0.033207
0.033207
0.0239247
0.0239247
0.0239247
0.0230043
0.0230043
0.0230043
0.0248894
0.0248894
0.0248894
0.030111
0.030111
0.030111
0.026837
0.026837
0.026837
0.0311099
0.0311099
0.0311099
0.0354895
0.0354895
0.0354895
0.0344974
0.0344974
0.0344974
0.000438418
0.000438418
0.000438418
0.000503453
0.000503453
0.000503453
0.00062555
0.00062555
0.00062555
0.000712832
0.000712832
0.000712832
0.000627433
0.000627433
0.000627433
0.000504507
0.000504507
0.000504507
0.000139334
0.000139334
0.000139334
0.00013928
0.00013928
0.00013928
0.000158262
0.000158262
0.000158262
0.000100628
0.000100628
0.000100628
4.90089e-05
4.90089e-05
4.90089e-05
9.59474e-05
9.59474e-05
9.59474e-05
8.65482e-05
8.65482e-05
8.65482e-05
8.90605e-05
8.90605e-05
8.90605e-05
3.63287e-05
3.63287e-05
3.63287e-05
4.95411e-05
4.95411e-05
4.95411e-05
4.97768e-05
4.97768e-05
4.97768e-05
6.33509e-05
6.33509e-05
6.33509e-05
0.000139241
0.000139241
0.000139241
9.97001e-05
9.97001e-05
9.97001e-05
9.917e-05
9.917e-05
9.917e-05
8.94557e-05
8.94557e-05
8.94557e-05
0.000203264
0.000203264
0.000203264
0.000156812
0.000156812
0.000156812
0.000156187
0.000156187
0.000156187
0.000139096
0.000139096
0.000139096
0
0
0
0
0
0
0
0
0
0
0
0
0
0
0
0
0
0
0
0
0
0
0
0
0
0
0
0
0
0
8.16754e-06
8.16754e-06
8.16754e-06
1.64458e-06
1.64458e-06
1.64458e-06
0
0
0
1.61645e-06
1.61645e-06
1.61645e-06
3.86337e-06
3.86337e-06
3.86337e-06
0
0
0
0
0
0
1.09479e-05
1.09479e-05
1.09479e-05
8.30314e-06
8.30314e-06
8.30314e-06
1.90472e-05
1.90472e-05
1.90472e-05
2.24003e-05
2.24003e-05
2.24003e-05
0
0
0
0
0
0
0
0
0
0
0
0
1.67146e-06
1.67146e-06
1.67146e-06
0
0
0
0
0
0
0
0
0
0
0
0
0
0
0
0
0
0
0.000100551
0.000100551
0.000100551
7.1685e-05
7.1685e-05
7.1685e-05
2.20422e-05
2.20422e-05
2.20422e-05
4.21577e-05
4.21577e-05
4.21577e-05
5.75413e-05
5.75413e-05
5.75413e-05
4.14795e-05
4.14795e-05
4.14795e-05
3.18037e-05
3.18037e-05
3.18037e-05
7.288e-05
7.288e-05
7.288e-05
5.66268e-05
5.66268e-05
5.66268e-05
1.42199e-06
1.42199e-06
1.42199e-06
3.32226e-06
3.32226e-06
3.32226e-06
0
0
0
0.000102934
0.000102934
0.000102934
0
0
0
0
0
0
0
0
0
0
0
0
0
0
0
1.61566e-05
1.61566e-05
1.61566e-05
1.87496e-05
1.87496e-05
1.87496e-05
0
0
0
0
0
0
9.13945e-06
9.13945e-06
9.13945e-06
0
0
0
0
0
0
2.94878e-05
2.94878e-05
2.94878e-05
3.64845e-06
3.64845e-06
3.64845e-06
0
0
0
0
0
0
0
0
0
0
0
0
0
0
0
0
0
0
0
0
0
0
0
0
0
0
0
0
0
0
0
0
0
0
0
0
0
0
0
0
0
0
0
0
0
0
0
0
0
0
0
0
0
0
0.00660058
0.00660058
0.00660058
0.00348065
0.00348065
0.00348065
0.000130141
0.000130141
0.000130141
0.0055718
0.0055718
0.0055718
0.00292883
0.00292883
0.00292883
0.0060756
0.0060756
0.0060756
0.003338
0.003338
0.003338
0.000148199
0.000148199
0.000148199
0
0
0
0.0394508
0.0394508
0.0394508
0.0301909
0.0301909
0.0301909
0.0826231
0.0826231
0.0826231
0.0786739
0.0786739
0.0786739
0.081549
0.081549
0.081549
0.0719543
0.0719543
0.0719543
0.0705008
0.0705008
0.0705008
0.0828095
0.0828095
0.0828095
0.0789422
0.0789422
0.0789422
0.0663739
0.0663739
0.0663739
0.0676866
0.0676866
0.0676866
0.0981728
0.0981728
0.0981728
0.115873
0.115873
0.115873
0.0914854
0.0914854
0.0914854
0.0925505
0.0925505
0.0925505
0.0931998
0.0931998
0.0931998
0.0920314
0.0920314
0.0920314
0.0929212
0.0929212
0.0929212
0.167034
0.167034
0.167034
0.167991
0.167991
0.167991
0.165199
0.165199
0.165199
0.161604
0.161604
0.161604
0.17617
0.17617
0.17617
0.195301
0.195301
0.195301
0.180141
0.180141
0.180141
0.176412
0.176412
0.176412
0.17261
0.17261
0.17261
0.180081
0.180081
0.180081
0.184028
0.184028
0.184028
0.188237
0.188237
0.188237
0.184225
0.184225
0.184225
0.192039
0.192039
0.192039
0.191907
0.191907
0.191907
0.187901
0.187901
0.187901
0.188049
0.188049
0.188049
0.183727
0.183727
0.183727
0.196444
0.196444
0.196444
0.192187
0.192187
0.192187
0.191931
0.191931
0.191931
0.174017
0.174017
0.174017
0.176414
0.176414
0.176414
0.183224
0.183224
0.183224
0.18734
0.18734
0.18734
0.201733
0.201733
0.201733
0.197747
0.197747
0.197747
0.209357
0.209357
0.209357
0.200692
0.200692
0.200692
0.209858
0.209858
0.209858
0.199392
0.199392
0.199392
0.200098
0.200098
0.200098
0.282166
0.282166
0.282166
0.268551
0.268551
0.268551
0.273082
0.273082
0.273082
0.279265
0.279265
0.279265
0.274779
0.274779
0.274779
0.269948
0.269948
0.269948
0.283313
0.283313
0.283313
0.260584
0.260584
0.260584
0.270083
0.270083
0.270083
0.277257
0.277257
0.277257
0.274904
0.274904
0.274904
0.253723
0.253723
0.253723
0.249133
0.249133
0.249133
0.255727
0.255727
0.255727
0.253156
0.253156
0.253156
0.239768
0.239768
0.239768
0.241775
0.241775
0.241775
0.246176
0.246176
0.246176
0.248663
0.248663
0.248663
0.242154
0.242154
0.242154
0.246647
0.246647
0.246647
0.234192
0.234192
0.234192
0.232936
0.232936
0.232936
0.244964
0.244964
0.244964
0.240132
0.240132
0.240132
0.248091
0.248091
0.248091
0.238774
0.238774
0.238774
0.246621
0.246621
0.246621
0.241997
0.241997
0.241997
0.126793
0.126793
0.126793
0.129485
0.129485
0.129485
0.12895
0.12895
0.12895
0.113564
0.113564
0.113564
0.135804
0.135804
0.135804
0.138747
0.138747
0.138747
0.0636684
0.0636684
0.0636684
0.0695495
0.0695495
0.0695495
0.0759609
0.0759609
0.0759609
0.0790815
0.0790815
0.0790815
0
0
0
0
0
0
0
0
0
0
0
0
0
0
0
0
0
0
0
0
0
0
0
0
0
0
0
0.0091124
0.0091124
0.0091124
0.0663153
0.0663153
0.0663153
0.0676811
0.0676811
0.0676811
0.0098701
0.0098701
0.0098701
0.023798
0.023798
0.023798
0.0359439
0.0359439
0.0359439
0.0591416
0.0591416
0.0591416
0.0602283
0.0602283
0.0602283
0.0492752
0.0492752
0.0492752
0.0354352
0.0354352
0.0354352
0.0476823
0.0476823
0.0476823
0.0229736
0.0229736
0.0229736
0.00959951
0.00959951
0.00959951
0
0
0
0
0
0
0.00977971
0.00977971
0.00977971
0.0232467
0.0232467
0.0232467
0.122903
0.122903
0.122903
0.103929
0.103929
0.103929
0.116063
0.116063
0.116063
0.113558
0.113558
0.113558
0.0626903
0.0626903
0.0626903
0.0788212
0.0788212
0.0788212
0.0774307
0.0774307
0.0774307
0.0607258
0.0607258
0.0607258
0.097546
0.097546
0.097546
0.101758
0.101758
0.101758
0.106266
0.106266
0.106266
0.108663
0.108663
0.108663
0.083841
0.083841
0.083841
0.0918699
0.0918699
0.0918699
0.0900248
0.0900248
0.0900248
0.0806573
0.0806573
0.0806573
0.0854768
0.0854768
0.0854768
0.0956674
0.0956674
0.0956674
0.0597714
0.0597714
0.0597714
0.0579012
0.0579012
0.0579012
0.0747215
0.0747215
0.0747215
0.0734058
0.0734058
0.0734058
0.12951
0.12951
0.12951
0.128992
0.128992
0.128992
0.112756
0.112756
0.112756
0.115699
0.115699
0.115699
0.114353
0.114353
0.114353
0.114887
0.114887
0.114887
0.112331
0.112331
0.112331
0.117743
0.117743
0.117743
0.115123
0.115123
0.115123
0.0955061
0.0955061
0.0955061
0.101675
0.101675
0.101675
0.133062
0.133062
0.133062
0.121344
0.121344
0.121344
0.125642
0.125642
0.125642
0.171449
0.171449
0.171449
0.171982
0.171982
0.171982
0.16267
0.16267
0.16267
0.155519
0.155519
0.155519
0.161305
0.161305
0.161305
0.164958
0.164958
0.164958
0.155593
0.155593
0.155593
0.152158
0.152158
0.152158
0.157335
0.157335
0.157335
0.157743
0.157743
0.157743
0.154259
0.154259
0.154259
0.150446
0.150446
0.150446
0.118988
0.118988
0.118988
0.117595
0.117595
0.117595
0.115026
0.115026
0.115026
0.125971
0.125971
0.125971
0.124098
0.124098