<VTKFile type="UnstructuredGrid" version="1.0">
<UnstructuredGrid>
<Piece NumberOfPoints="10830" NumberOfCells="3610">
<Points>
<DataArray type="Float64" NumberOfComponents="3" format="ascii">
2.19217 2.20649 14.6557
2.19928 2.19938 14.63
2.19928 2.19938 14.6815
2.19928 2.19938 15.1851
2.19928 2.19938 15.236
2.19129 2.20737 15.2105
2.19928 2.19938 15.1851
2.19129 2.20737 15.2105
2.17928 2.21938 15.1851
1.30559 3.09307 15.6576
1.31816 3.0805 15.675
1.28831 3.11035 15.675
1.28831 3.11035 15.675
1.28831 3.11035 15.6448
1.30559 3.09307 15.6576
2.19928 2.19938 15.1851
2.17928 2.21938 15.1851
2.1913 2.20736 15.1597
1.29441 3.10425 14.9068
1.28831 3.11035 14.932
1.28831 3.11035 14.8816
2.19132 2.20734 14.9069
2.19928 2.19938 14.9321
2.17929 2.21937 14.9321
2.19117 2.20749 14.8063
2.19928 2.19938 14.7813
2.19928 2.19938 14.8314
2.17929 2.21937 14.9321
2.19928 2.19938 14.9321
2.19133 2.20733 14.9573
2.19928 2.19938 14.9321
2.19928 2.19938 14.9825
2.19133 2.20733 14.9573
2.17929 2.21937 14.9826
2.19133 2.20733 14.9573
2.19928 2.19938 14.9825
2.17928 2.21938 15.1343
2.1913 2.20736 15.1597
2.16946 2.22921 15.1597
2.16946 2.22921 15.1597
2.1913 2.20736 15.1597
2.17928 2.21938 15.1851
2.16946 2.22921 15.1597
2.15842 2.24024 15.1343
2.17928 2.21938 15.1343
2.16946 2.22921 15.1597
2.17928 2.21938 15.1851
2.15841 2.24025 15.1851
2.19928 2.19938 15.033
2.19928 2.19938 15.0836
2.19132 2.20734 15.0583
2.19132 2.20734 15.0583
2.17929 2.21937 15.0836
2.16947 2.22919 15.0583
2.19928 2.19938 15.0836
2.17929 2.21937 15.0836
2.19132 2.20734 15.0583
2.19928 2.19938 15.1343
2.1913 2.20736 15.1597
2.17928 2.21938 15.1343
2.19928 2.19938 15.1851
2.1913 2.20736 15.1597
2.19928 2.19938 15.1343
2.17913 2.21954 14.7813
2.19928 2.19938 14.7813
2.19117 2.20749 14.8063
2.17927 2.21939 15.236
2.19129 2.20737 15.2105
2.19928 2.19938 15.236
1.8956 2.50306 15.4157
1.90602 2.49264 15.39
1.91643 2.48223 15.4157
1.28831 3.11035 14.63
1.30792 3.09074 14.63
1.29529 3.10337 14.6547
1.34771 3.05096 14.8816
1.32717 3.07149 14.8816
1.33709 3.06157 14.8564
1.30704 3.09162 14.8816
1.32717 3.07149 14.8816
1.31607 3.08259 14.9068
1.30704 3.09162 14.8816
1.29441 3.10425 14.9068
1.28831 3.11035 14.8816
1.31607 3.08259 14.9068
1.29441 3.10425 14.9068
1.30704 3.09162 14.8816
1.2945 3.10417 15.1089
1.28831 3.11035 15.1343
1.28831 3.11035 15.0836
1.3071 3.09157 15.1343
1.31615 3.08252 15.1089
1.32724 3.07142 15.1343
1.28831 3.11035 15.1343
1.2945 3.10417 15.1089
1.3071 3.09157 15.1343
1.3071 3.09157 15.1343
1.2945 3.10417 15.1089
1.31615 3.08252 15.1089
1.30708 3.09158 15.0836
1.32723 3.07143 15.0836
1.31615 3.08252 15.1089
1.30708 3.09158 15.0836
1.2945 3.10417 15.1089
1.28831 3.11035 15.0836
1.31615 3.08252 15.1089
1.2945 3.10417 15.1089
1.30708 3.09158 15.0836
1.28831 3.11035 14.932
1.29441 3.10425 14.9068
1.30705 3.09161 14.932
1.30705 3.09161 14.932
1.29441 3.10425 14.9068
1.31607 3.08259 14.9068
1.32724 3.07142 15.1343
1.31615 3.08252 15.1089
1.33718 3.06148 15.1089
1.31615 3.08252 15.1089
1.32723 3.07143 15.0836
1.33718 3.06148 15.1089
1.49256 2.90611 15.0837
1.50289 2.89577 15.109
1.48223 2.91643 15.109
1.48223 2.91643 15.109
1.50289 2.89577 15.109
1.49257 2.90609 15.1344
1.49257 2.90609 15.1344
1.50289 2.89577 15.109
1.51323 2.88543 15.1344
1.88521 2.51346 15.39
1.90602 2.49264 15.39
1.8956 2.50306 15.4157
2.19127 2.20739 14.8566
2.19928 2.19938 14.8314
2.19928 2.19938 14.8817
2.19928 2.19938 14.9321
2.19132 2.20734 14.9069
2.19928 2.19938 14.8817
2.11618 2.28248 15.0331
2.09503 2.30363 15.0331
2.10562 2.29304 15.0078
2.17929 2.21937 15.0331
2.19132 2.20734 15.0583
2.16947 2.22919 15.0583
2.19928 2.19938 15.033
2.19132 2.20734 15.0583
2.17929 2.21937 15.0331
2.16947 2.22919 15.0583
2.17929 2.21937 15.0836
2.15843 2.24024 15.0836
2.19131 2.20735 15.1089
2.17929 2.21937 15.0836
2.19928 2.19938 15.0836
2.19928 2.19938 15.0836
2.19928 2.19938 15.1343
2.19131 2.20735 15.1089
2.19131 2.20735 15.1089
2.19928 2.19938 15.1343
2.17928 2.21938 15.1343
2.1693 2.22936 14.8064
2.17913 2.21954 14.7813
2.19117 2.20749 14.8063
2.19127 2.20739 14.8566
2.19928 2.19938 14.8817
2.17927 2.21939 14.8817
2.17927 2.21939 14.8817
2.19928 2.19938 14.8817
2.19132 2.20734 14.9069
2.10553 2.29313 14.8566
2.09491 2.30375 14.8314
2.11605 2.28261 14.8314
2.1372 2.26147 14.8315
2.12662 2.27204 14.8063
2.14787 2.25079 14.8063
2.1372 2.26147 14.8315
2.11605 2.28261 14.8314
2.12662 2.27204 14.8063
2.16946 2.2292 14.9069
2.19132 2.20734 14.9069
2.17929 2.21937 14.9321
2.16946 2.2292 14.9069
2.17927 2.21939 14.8817
2.19132 2.20734 14.9069
2.16945 2.22921 15.2106
2.17928 2.21938 15.1851
2.19129 2.20737 15.2105
2.19129 2.20737 15.2105
2.17927 2.21939 15.236
2.16945 2.22921 15.2106
2.15841 2.24025 15.1851
2.17928 2.21938 15.1851
2.16945 2.22921 15.2106
2.16944 2.22922 15.3641
2.14804 2.25062 15.3641
2.15841 2.24025 15.3384
2.14804 2.25063 15.3127
2.16944 2.22922 15.3127
2.15841 2.24025 15.3384
2.19128 2.20738 15.2615
2.17927 2.21939 15.236
2.19928 2.19938 15.236
2.16944 2.22922 15.2616
2.17927 2.21939 15.236
2.19128 2.20738 15.2615
1.93725 2.46141 15.4673
1.94766 2.451 15.4932
1.92679 2.47187 15.4932
2.05276 2.34591 15.3384
2.06331 2.33535 15.3128
2.07386 2.3248 15.3384
2.07386 2.3248 15.3384
2.06331 2.33535 15.3128
2.08443 2.31423 15.3128
2.15841 2.24026 15.2871
2.14804 2.25062 15.2616
2.16944 2.22922 15.2616
2.15841 2.24026 15.2871
2.16944 2.22922 15.3127
2.14804 2.25063 15.3127
2.04222 2.35644 15.3128
2.06331 2.33535 15.3128
2.05276 2.34591 15.3384
1.9897 2.40896 15.0837
1.96874 2.42992 15.0837
1.97921 2.41945 15.0584
1.93736 2.4613 15.0584
1.92692 2.47174 15.0837
1.91649 2.48217 15.0584
1.94781 2.45085 15.0837
1.92692 2.47174 15.0837
1.93736 2.4613 15.0584
1.92691 2.47175 14.9827
1.9478 2.45086 14.9827
1.93736 2.46131 15.0079
1.93736 2.46131 15.0079
1.91648 2.48218 15.0079
1.92691 2.47175 14.9827
1.92691 2.47175 14.9827
1.91648 2.48218 15.0079
1.90605 2.49261 14.9826
1.93736 2.46131 15.0079
1.9478 2.45086 14.9827
1.95826 2.4404 15.0079
1.96871 2.42995 14.9322
1.9792 2.41946 14.9574
1.95825 2.44041 14.9574
1.95825 2.44041 14.9574
1.94778 2.45088 14.9322
1.96871 2.42995 14.9322
1.8126 2.58607 15.1091
1.82295 2.57571 15.0837
1.83332 2.56534 15.1091
1.82295 2.57571 15.0837
1.84369 2.55497 15.0838
1.83332 2.56534 15.1091
1.92692 2.47174 15.0332
1.91648 2.48218 15.0079
1.93736 2.46131 15.0079
1.92692 2.47174 15.0332
1.93736 2.4613 15.0584
1.91649 2.48217 15.0584
1.91649 2.48217 15.0584
1.89565 2.50301 15.0584
1.90606 2.4926 15.0332
1.90606 2.4926 15.0332
1.92692 2.47174 15.0332
1.91649 2.48217 15.0584
1.91648 2.48218 15.0079
1.92692 2.47174 15.0332
1.90606 2.4926 15.0332
1.90605 2.49261 14.9826
1.88523 2.51343 14.9826
1.89563 2.50303 14.9574
1.88521 2.51345 14.9322
1.90603 2.49263 14.9322
1.89563 2.50303 14.9574
1.51322 2.88545 15.0837
1.50289 2.89577 15.109
1.49256 2.90611 15.0837
1.49256 2.90611 15.0837
1.50288 2.89578 15.0584
1.51322 2.88545 15.0837
1.29442 3.10424 14.7049
1.28831 3.11035 14.7301
1.28831 3.11035 14.6794
1.28831 3.11035 14.63
1.29529 3.10337 14.6547
1.28831 3.11035 14.6794
1.307 3.09167 14.7807
1.28831 3.11035 14.7807
1.29431 3.10435 14.7554
1.28831 3.11035 14.7807
1.28831 3.11035 14.7301
1.29431 3.10435 14.7554
2.19928 2.19938 14.63
2.19217 2.20649 14.6557
2.18013 2.21854 14.63
1.28831 3.11035 14.8816
1.28831 3.11035 14.8311
1.29438 3.10428 14.8564
1.29438 3.10428 14.8564
1.30704 3.09162 14.8816
1.28831 3.11035 14.8816
1.30702 3.09164 14.8311
1.29438 3.10428 14.8564
1.28831 3.11035 14.8311
1.30702 3.09164 14.8311
1.31601 3.08265 14.8059
1.32714 3.07152 14.8312
1.31605 3.08262 14.8564
1.33709 3.06157 14.8564
1.32717 3.07149 14.8816
1.32717 3.07149 14.8816
1.30704 3.09162 14.8816
1.31605 3.08262 14.8564
1.32714 3.07152 14.8312
1.33709 3.06157 14.8564
1.31605 3.08262 14.8564
1.31605 3.08262 14.8564
1.30702 3.09164 14.8311
1.32714 3.07152 14.8312
1.30704 3.09162 14.8816
1.29438 3.10428 14.8564
1.31605 3.08262 14.8564
1.29438 3.10428 14.8564
1.30702 3.09164 14.8311
1.31605 3.08262 14.8564
1.29435 3.10432 14.8059
1.28831 3.11035 14.8311
1.28831 3.11035 14.7807
1.29435 3.10432 14.8059
1.28831 3.11035 14.7807
1.307 3.09167 14.7807
1.307 3.09167 14.7807
1.31601 3.08265 14.8059
1.29435 3.10432 14.8059
1.29435 3.10432 14.8059
1.30702 3.09164 14.8311
1.28831 3.11035 14.8311
1.31601 3.08265 14.8059
1.30702 3.09164 14.8311
1.29435 3.10432 14.8059
1.33717 3.06149 15.0583
1.32723 3.07143 15.0836
1.31613 3.08254 15.0583
1.32723 3.07143 15.0836
1.30708 3.09158 15.0836
1.31613 3.08254 15.0583
1.31613 3.08254 15.0583
1.32722 3.07145 15.033
1.33717 3.06149 15.0583
1.33711 3.06155 14.9068
1.32717 3.07149 14.8816
1.34771 3.05096 14.8816
1.31607 3.08259 14.9068
1.32717 3.07149 14.8816
1.33711 3.06155 14.9068
1.35794 3.04072 14.9068
1.33711 3.06155 14.9068
1.34771 3.05096 14.8816
1.34773 3.05094 14.932
1.33711 3.06155 14.9068
1.35794 3.04072 14.9068
1.34773 3.05094 14.932
1.35794 3.04072 14.9068
1.36839 3.03027 14.932
1.50287 2.89579 15.0078
1.51321 2.88546 15.0331
1.49255 2.90612 15.0331
1.49255 2.90612 15.0331
1.51321 2.88546 15.0331
1.50288 2.89578 15.0584
1.42017 2.9785 15.0583
1.44086 2.9578 15.0583
1.43052 2.96814 15.0836
1.43051 2.96815 15.033
1.44086 2.9578 15.0583
1.42017 2.9785 15.0583
1.44085 2.95782 15.0078
1.4305 2.96817 14.9825
1.45119 2.94748 14.9825
1.43051 2.96815 15.033
1.42015 2.97851 15.0078
1.44085 2.95782 15.0078
1.44085 2.95782 15.0078
1.42015 2.97851 15.0078
1.4305 2.96817 14.9825
1.44087 2.95779 15.109
1.46156 2.9371 15.109
1.45123 2.94744 15.1343
1.3995 2.99917 15.1597
1.40985 2.98882 15.1343
1.4202 2.97846 15.1597
1.40983 2.98883 15.0836
1.42017 2.9785 15.0583
1.43052 2.96814 15.0836
1.39946 2.9992 15.0583
1.42017 2.9785 15.0583
1.40983 2.98883 15.0836
1.32724 3.07142 15.1343
1.33718 3.06148 15.1089
1.34779 3.05087 15.1343
1.33717 3.06149 15.0583
1.32722 3.07145 15.033
1.34776 3.0509 15.033
1.34776 3.0509 15.033
1.35799 3.04067 15.0583
1.33717 3.06149 15.0583
1.38911 3.00955 15.033
1.39946 2.9992 15.0583
1.37874 3.01992 15.0583
1.34777 3.05089 15.0836
1.33718 3.06148 15.1089
[...]
<PointData Scalars="View Factor" >
<DataArray type="Float64" Name="View Factor" NumberOfComponents="1" format="ascii">
0.281962
0.281962
0.281962
0.39251
0.39251
0.39251
0.385919
0.385919
0.385919
0.443482
0.443482
0.443482
0.441085
0.441085
0.441085
0.383883
0.383883
0.383883
0.357471
0.357471
0.357471
0.33392
0.33392
0.33392
0.297771
0.297771
0.297771
0.33865
0.33865
0.33865
0.347276
0.347276
0.347276
0.347422
0.347422
0.347422
0.358796
0.358796
0.358796
0.360863
0.360863
0.360863
0.306148
0.306148
0.306148
0.309539
0.309539
0.309539
0.370044
0.370044
0.370044
0.346414
0.346414
0.346414
0.368742
0.368742
0.368742
0.379419
0.379419
0.379419
0.386305
0.386305
0.386305
0.287504
0.287504
0.287504
0.389635
0.389635
0.389635
0.00299444
0.00299444
0.00299444
0.298587
0.298587
0.298587
0.353625
0.353625
0.353625
0.357564
0.357564
0.357564
0.355013
0.355013
0.355013
0.358217
0.358217
0.358217
0.394266
0.394266
0.394266
0.401528
0.401528
0.401528
0.398171
0.398171
0.398171
0.398693
0.398693
0.398693
0.396033
0.396033
0.396033
0.392769
0.392769
0.392769
0.395968
0.395968
0.395968
0.361882
0.361882
0.361882
0.361685
0.361685
0.361685
0.400361
0.400361
0.400361
0.397599
0.397599
0.397599
0.261965
0.261965
0.261965
0.26374
0.26374
0.26374
0.225225
0.225225
0.225225
0.00230826
0.00230826
0.00230826
0.316432
0.316432
0.316432
0.332935
0.332935
0.332935
0.0100802
0.0100802
0.0100802
0.343478
0.343478
0.343478
0.362406
0.362406
0.362406
0.298025
0.298025
0.298025
0.371648
0.371648
0.371648
0.378881
0.378881
0.378881
0.376981
0.376981
0.376981
0.275652
0.275652
0.275652
0.3183
0.3183
0.3183
0.323749
0.323749
0.323749
0.00938417
0.00938417
0.00938417
0.0947699
0.0947699
0.0947699
0.0617913
0.0617913
0.0617913
0.3132
0.3132
0.3132
0.308464
0.308464
0.308464
0.36464
0.36464
0.36464
0.366363
0.366363
0.366363
0.311087
0.311087
0.311087
0.260699
0.260699
0.260699
0.259265
0.259265
0.259265
0.391326
0.391326
0.391326
0.369501
0.369501
0.369501
0.0209014
0.0209014
0.0209014
0.000237443
0.000237443
0.000237443
0.000234281
0.000234281
0.000234281
0.256732
0.256732
0.256732
0.258473
0.258473
0.258473
0.000230063
0.000230063
0.000230063
0
0
0
0
0
0
0
0
0
0
0
0
0
0
0
0
0
0
0
0
0
0
0
0
0
0
0
0
0
0
0
0
0
0
0
0
0
0
0
0
0
0
0
0
0
0
0
0
0
0
0
0
0
0
0.22231
0.22231
0.22231
0.220796
0.220796
0.220796
0.313394
0.313394
0.313394
0.301809
0.301809
0.301809
0.329509
0.329509
0.329509
0.324915
0.324915
0.324915
0.284121
0.284121
0.284121
0.347014
0.347014
0.347014
0.351502
0.351502
0.351502
0.344342
0.344342
0.344342
0.342963
0.342963
0.342963
0.352101
0.352101
0.352101
0.353984
0.353984
0.353984
0.348429
0.348429
0.348429
0.346683
0.346683
0.346683
0.351126
0.351126
0.351126
0.347511
0.347511
0.347511
0.336143
0.336143
0.336143
0.333276
0.333276
0.333276
0.336399
0.336399
0.336399
0.340693
0.340693
0.340693
0.340144
0.340144
0.340144
0.391864
0.391864
0.391864
0.393178
0.393178
0.393178
0.388893
0.388893
0.388893
0.357226
0.357226
0.357226
0.359298
0.359298
0.359298
0.358878
0.358878
0.358878
0.36243
0.36243
0.36243
0.365165
0.365165
0.365165
0.216041
0.216041
0.216041
0.217661
0.217661
0.217661
0.368644
0.368644
0.368644
0.365757
0.365757
0.365757
0.346864
0.346864
0.346864
0.35978
0.35978
0.35978
0.356693
0.356693
0.356693
0.354771
0.354771
0.354771
0.394663
0.394663
0.394663
0.378827
0.378827
0.378827
0.380909
0.380909
0.380909
0.401604
0.401604
0.401604
0.387218
0.387218
0.387218
0.388701
0.388701
0.388701
0.386155
0.386155
0.386155
0.396062
0.396062
0.396062
0.393184
0.393184
0.393184
0.391692
0.391692
0.391692
0.404296
0.404296
0.404296
0.436775
0.436775
0.436775
0.442302
0.442302
0.442302
0.292863
0.292863
0.292863
0.317251
0.317251
0.317251
0.344793
0.344793
0.344793
0.296938
0.296938
0.296938
0.342487
0.342487
0.342487
0.319479
0.319479
0.319479
0.298893
0.298893
0.298893
0.323753
0.323753
0.323753
0.302636
0.302636
0.302636
0.325798
0.325798
0.325798
0.384465
0.384465
0.384465
0.359396
0.359396
0.359396
0.187946
0.187946
0.187946
0.00407224
0.00407224
0.00407224
0.0270363
0.0270363
0.0270363
0.00408748
0.00408748
0.00408748
0.0271041
0.0271041
0.0271041
0.268782
0.268782
0.268782
0.226626
0.226626
0.226626
0.26715
0.26715
0.26715
0.002274
0.002274
0.002274
0.00295273
0.00295273
0.00295273
0.00299416
0.00299416
0.00299416
0.00230721
0.00230721
0.00230721
0.00141704
0.00141704
0.00141704
0.00119343
0.00119343
0.00119343
0.000215759
0.000215759
0.000215759
0.00143512
0.00143512
0.00143512
0.391582
0.391582
0.391582
0.3676
0.3676
0.3676
0.423285
0.423285
0.423285
0.431835
0.431835
0.431835
0.311572
0.311572
0.311572
0.27891
0.27891
0.27891
0.312517
0.312517
0.312517
0.368426
0.368426
0.368426
0.313248
0.313248
0.313248
0.279721
0.279721
0.279721
0.217665
0.217665
0.217665
0.432542
0.432542
0.432542
0.369011
0.369011
0.369011
0.392218
0.392218
0.392218
0.42383
0.42383
0.42383
0.432971
0.432971
0.432971
0.431132
0.431132
0.431132
0.422244
0.422244
0.422244
0.418649
0.418649
0.418649
0.0168377
0.0168377
0.0168377
0.0171202
0.0171202
0.0171202
0.0214036
0.0214036
0.0214036
0.176243
0.176243
0.176243
0.250012
0.250012
0.250012
0.248637
0.248637
0.248637
0.119114
0.119114
0.119114
0
0
0
0
0
0
0
0
0
0
0
0
0
0
0
0.358961
0.358961
0.358961
0.337085
0.337085
0.337085
0.35958
0.35958
0.35958
0.351476
0.351476
0.351476
0.333612
0.333612
0.333612
0.117561
0.117561
0.117561
0.175185
0.175185
0.175185
0.304294
0.304294
0.304294
0.300238
0.300238
0.300238
0.245631
0.245631
0.245631
0.24399
0.24399
0.24399
0.354274
0.354274
0.354274
0.351804
0.351804
0.351804
0.30668
0.30668
0.30668
0.300513
0.300513
0.300513
0.281743
0.281743
0.281743
0.280683
0.280683
0.280683
0.00897381
0.00897381
0.00897381
0.0308775
0.0308775
0.0308775
0.263419
0.263419
0.263419
0.150233
0.150233
0.150233
0.215035
0.215035
0.215035
0.152553
0.152553
0.152553
0.313914
0.313914
0.313914
0.3152
0.3152
0.3152
0.255775
0.255775
0.255775
0.261426
0.261426
0.261426
0.0207907
0.0207907
0.0207907
0.214977
0.214977
0.214977
0.00456338
0.00456338
0.00456338
0.00143161
0.00143161
0.00143161
0.00230366
0.00230366
0.00230366
0.000510362
0.000510362
0.000510362
0.00155886
0.00155886
0.00155886
0.0411237
0.0411237
0.0411237
0.0404731
0.0404731
0.0404731
0
0
0
0
0
0
0
0
0
0
0
0
0
0
0
0
0
0
0
0
0
0.317544
0.317544
0.317544
0.318608
0.318608
0.318608
0.370928
0.370928
0.370928
0.185318
0.185318
0.185318
0.126168
0.126168
0.126168
0.184691
0.184691
0.184691
0.125033
0.125033
0.125033
0.0815158
0.0815158
0.0815158
0.0809571
0.0809571
0.0809571
0
0
0
0
0
0
0
0
0
0
0
0
0
0
0
0
0
0
0
0
0
0
0
0
0
0
0
0
0
0
0
0
0
0
0
0
0
0
0
0
0
0
0
0
0
0
0
0
0
0
0
0
0
0
0
0
0
0
0
0
0
0
0
0
0
0
0
0
0
0
0
0
0
0
0
0
0
0
0
0
0
0
0
0
0
0
0
0
0
0
0
0
0
0
0
0
0
0
0
0
0
0
0
0
0
0
0
0
0
0
0
0
0
0
0
0
0
0
0
0
0
0
0
0
0
0
0
0
0
0
0
0
0
0
0
0
0
0
0
0
0
0
0
0
0
0
0
0
0
0
0
0
0
0
0
0
0
0
0
0
0
0
0
0
0
0
0
0
0
0
0
0
0
0
0
0
0
0
0
0
0
0
0
0
0
0
0
0
0
0
0
0
0
0
0
0
0
0
0
0
0
0
0
0
0
0
0
0.130954
0.130954
0.130954
0.318897
0.318897
0.318897
0.321757
0.321757
0.321757
0.335876
0.335876
0.335876
0.207447
0.207447
0.207447
0.170819
0.170819
0.170819
0.16947
0.16947
0.16947
0.35799
0.35799
0.35799
0.35162
0.35162
0.35162
0.354324
0.354324
0.354324
0.173447
0.173447
0.173447
0.174726
0.174726
0.174726
0
0
0
0
0
0
0
0
0
0
0
0
0
0
0
0
0
0
0.211677
0.211677
0.211677
0.277662
0.277662
0.277662
0.273109
0.273109
0.273109
0.20518
0.20518
0.20518
0.0909025
0.0909025
0.0909025
0.137802
0.137802
0.137802
0
0
0
0
0
0
0.402005
0.402005
0.402005
0.400766
0.400766
0.400766
0.38591
0.38591
0.38591
0.389966
0.389966
0.389966
0.390309
0.390309
0.390309
0.376965
0.376965
0.376965
0.374968
0.374968
0.374968
0.377905
0.377905
0.377905
0.378197
0.378197
0.378197
0.365238
0.365238
0.365238
0.367471
0.367471
0.367471
0.371783
0.371783
0.371783
0.368461
0.368461
0.368461
0.371765
0.371765
0.371765
0.374659
0.374659
0.374659
0.373054
0.373054
0.373054
0.369364
0.369364
0.369364
0.368667
0.368667
0.368667
0.364568
0.364568
0.364568
0.36282
0.36282
0.36282
0.367989
0.367989
0.367989
0.369699
0.369699
0.369699
0.364302
0.364302
0.364302
0.367756
0.367756
0.367756
0.37958
0.37958
0.37958
0.38275
0.38275
0.38275
0.384133
0.384133
0.384133
0.382513
0.382513
0.382513
0.284076
0.284076
0.284076
0.305237
0.305237
0.305237
0.302667
0.302667
0.302667
0.252407
0.252407
0.252407
0.258275
0.258275
0.258275
0.256363
0.256363
0.256363
0.290744
0.290744
0.290744
0.28635
0.28635
0.28635
0.310213
0.310213
0.310213
0.312617
0.312617
0.312617
0.377939
0.377939
0.377939
0.371793
0.371793
0.371793
0.372915
0.372915
0.372915
0.369856
0.369856
0.369856
0.382604
0.382604
0.382604
0.379479
0.379479
0.379479
0.374206
0.374206
0.374206
0.381675
0.381675
0.381675
0.368933
0.368933
0.368933
0.38978
0.38978
0.38978
0.387153
0.387153
0.387153
0.376881
0.376881
0.376881
0.382011
0.382011
0.382011
0.371365
0.371365
0.371365
0.402004
0.402004
0.402004
0.397202
0.397202
0.397202
0.394805
0.394805
0.394805
0.397187
0.397187
0.397187
0.404985
0.404985
0.404985
0.410706
0.410706
0.410706
0.407439
0.407439
0.407439
0.399845
0.399845
0.399845
0.385265
0.385265
0.385265
0.386242
0.386242
0.386242
0.38839
0.38839
0.38839
0.389006
0.389006
0.389006
0.400241
0.400241
0.400241
0.397463
0.397463
0.397463
0.397867
0.397867
0.397867
0.397344
0.397344
0.397344
0.392031
0.392031
0.392031
0.39443
0.39443
0.39443
0.413046
0.413046
0.413046
0.415841
0.415841
0.415841
0.412106
0.412106
0.412106
0.415916
0.415916
0.415916
0.417945
0.417945
0.417945
0.418063
0.418063
0.418063
0.355303
0.355303
0.355303
0.401762
0.401762
0.401762
0.403922
0.403922
0.403922
0.395588
0.395588
0.395588
0.384674
0.384674
0.384674
0.440775
0.440775
0.440775
0.445964
0.445964
0.445964
0.444976
0.444976
0.444976
0.430469
0.430469
0.430469
0.43317
0.43317
0.43317
0.434696
0.434696
0.434696
0.437375
0.437375
0.437375
0.433985
0.433985
0.433985
0.436443
0.436443
0.436443
0.438109
0.438109
0.438109
0.434342
0.434342
0.434342
0.437057
0.437057
0.437057
0.437241
0.437241
0.437241
0.438462
0.438462
0.438462
0.352269
0.352269
0.352269
0.337681
0.337681
0.337681
0.33518
0.33518
0.33518
0.347062
0.347062
0.347062
0.361063
0.361063
0.361063
0.363756
0.363756
0.363756
0.349201
0.349201
0.349201
0.37611
0.37611
0.37611
0.361695
0.361695
0.361695
0.351304
0.351304
0.351304
0
0
0
0
0
0
0
0
0
0.0985715
0.0985715
0.0985715
0.0586155
0.0586155
0.0586155
0.0584203
0.0584203
0.0584203
0.144991
0.144991
0.144991
0.0989843
0.0989843
0.0989843
0.22931
0.22931
0.22931
0.230593
0.230593
0.230593
0.143639
0.143639
0.143639
0.187005
0.187005
0.187005
0.183998
0.183998
0.183998
0.185031
0.185031
0.185031
0.0977068
0.0977068
0.0977068
0.142931
0.142931
0.142931
0.00547436
0.00547436
0.00547436
0.00857279
0.00857279
0.00857279
0.00552245
0.00552245
0.00552245
0.0045846
0.0045846
0.0045846
0.00228968
0.00228968
0.00228968
0.0014259
0.0014259
0.0014259
0.00462178
0.00462178
0.00462178
0.00297278
0.00297278
0.00297278
0.00298676
0.00298676
0.00298676
0.0023009
0.0023009
0.0023009
9.21861e-05
9.21861e-05
9.21861e-05
0.000219976
0.000219976
0.000219976
0.000490277
0.000490277
0.000490277
0.000219449
0.000219449
0.000219449
0.000215503
0.000215503
0.000215503
0.000488804
0.000488804
0.000488804
0.000664343
0.000664343
0.000664343
2.49069e-05
2.49069e-05
2.49069e-05
9.21912e-05
9.21912e-05
9.21912e-05
0
0
0
0
0
0
0.000666766
0.000666766
0.000666766
0.00115555
0.00115555
0.00115555
0.001432
0.001432
0.001432
0.00119818
0.00119818
0.00119818
0.00022009
0.00022009
0.00022009
0.000490811
0.000490811
0.000490811
0.000667874
0.000667874
0.000667874
0.00143507
0.00143507
0.00143507
0.00115532
0.00115532
0.00115532
0.00115249
0.00115249
0.00115249
0.000665798
0.000665798
0.000665798
0
0
0
0
0
0
0
0
0
0
0
0
0
0
0
0
0
0
0
0
0
0
0
0
0
0
0
0.000209171
0.000209171
0.000209171
0.000204281
0.000204281
0.000204281
0.0288538
0.0288538
0.0288538
0.388347
0.388347
0.388347
0.277916
0.277916
0.277916
0.184591
0.184591
0.184591
0.215756
0.215756
0.215756
0.0086552
0.0086552
0.0086552
0.0107448
0.0107448
0.0107448
0.408002
0.408002
0.408002
0.397579
0.397579
0.397579
0.363936
0.363936
0.363936
0.0173624
0.0173624
0.0173624
0.00411695
0.00411695
0.00411695
0.00731112
0.00731112
0.00731112
0.129737
0.129737
0.129737
0
0
0
0.000212517
0.000212517
0.000212517
0.00277922
0.00277922
0.00277922
0.00217331
0.00217331
0.00217331
0.00113933
0.00113933
0.00113933
0.0013583
0.0013583
0.0013583
0.0185778
0.0185778
0.0185778
0.130174
0.130174
0.130174
0.186711
0.186711
0.186711
0.18572
0.18572
0.18572
0.216791
0.216791
0.216791
0.00810253
0.00810253
0.00810253
0.00428509
0.00428509
0.00428509
0.0051916
0.0051916
0.0051916
0.0150783
0.0150783
0.0150783
0.0189586
0.0189586
0.0189586
0.0147825
0.0147825
0.0147825
0.00998345
0.00998345
0.00998345
0.00292719
0.00292719
0.00292719
0.00453872
0.00453872
0.00453872
0.429529
0.429529
0.429529
0.421428
0.421428
0.421428
0.392584
0.392584
0.392584
0.433089
0.433089
0.433089
0.424089
0.424089
0.424089
0.43222
0.43222
0.43222
0.422747
0.422747
0.422747
0.391844
0.391844
0.391844
0.36898
0.36898
0.36898
0.409994
0.409994
0.409994
0.420868
0.420868
0.420868
0.276647
0.276647
0.276647
0.421738
0.421738
0.421738
0.413471
0.413471
0.413471
0.0397998
0.0397998
0.0397998
0.0600756
0.0600756
0.0600756
0.040326
0.040326
0.040326
0.0325106
0.0325106
0.0325106
0.0320238
0.0320238
0.0320238
0.0211362
0.0211362
0.0211362
0.0620435
0.0620435
0.0620435
0.0172504
0.0172504
0.0172504
0.518938
0.518938
0.518938
0.53611
0.53611
0.53611
0.53035
0.53035
0.53035
0.501724
0.501724
0.501724
0.446981
0.446981
0.446981
0.17819
0.17819
0.17819
0.119834
0.119834
0.119834
0
0
0
0
0
0
0
0
0
0.0726833
0.0726833
0.0726833
0.0102979
0.0102979
0.0102979
0
0
0
0
0
0
0.0366143
0.0366143
0.0366143
0.0102453
0.0102453
0.0102453
0
0
0
0
0
0
0.0101364
0.0101364
0.0101364
0.0357678
0.0357678
0.0357678
0.0360581
0.0360581
0.0360581
0
0
0
0
0
0
0
0
0
0
0
0
0
0
0
0
0
0
0
0
0
0
0
0
0
0
0
0.29056
0.29056
0.29056
0.293192
0.293192
0.293192
0
0
0
0
0
0
0.284828
0.284828
0.284828
0.0720059
0.0720059
0.0720059
0.0351629
0.0351629
0.0351629
0.242059
0.242059
0.242059
0.262863
0.262863
0.262863
0.256196
0.256196
0.256196
0.259109
0.259109
0.259109
0.266469
0.266469
0.266469
0.27715
0.27715
0.27715
0.257774
0.257774
0.257774
0.0929634
0.0929634
0.0929634
0.0892093
0.0892093
0.0892093
0.0565225
0.0565225
0.0565225
0.087281
0.087281
0.087281
0.142618
0.142618
0.142618
0.145266
0.145266
0.145266
0.195534
0.195534
0.195534
0.245257
0.245257
0.245257
0.259177
0.259177
0.259177
0.298302
0.298302
0.298302
0.29288
0.29288
0.29288
0.250099
0.250099
0.250099
0.208175
0.208175
0.208175
0.2045
0.2045
0.2045
0.0656281
0.0656281
0.0656281
0.10294
0.10294
0.10294
0.0316649
0.0316649
0.0316649
0.0320487
0.0320487
0.0320487
0.0627885
0.0627885
0.0627885
0.0647078
0.0647078
0.0647078
0.0982178
0.0982178
0.0982178
0.0998531
0.0998531
0.0998531
0.0830189
0.0830189
0.0830189
0.126922
0.126922
0.126922
0.186653
0.186653
0.186653
0.0523393
0.0523393
0.0523393
0.321411
0.321411
0.321411
0.320539
0.320539
0.320539
0.304626
0.304626
0.304626
0.274946
0.274946
0.274946
0.185456
0.185456
0.185456
0.21585
0.21585
0.21585
0.00555942
0.00555942
0.00555942
0.00454357
0.00454357
0.00454357
0.00455896
0.00455896
0.00455896
0.00559614
0.00559614
0.00559614
0.00558433
0.00558433
0.00558433
0.0087918
0.0087918
0.0087918
0.0109747
0.0109747
0.0109747
0.0087665
0.0087665
0.0087665
0.0110002
0.0110002
0.0110002
0.0167132
0.0167132
0.0167132
0.185373
0.185373
0.185373
0.13325
0.13325
0.13325
0.00298722
0.00298722
0.00298722
0.00229316
0.00229316
0.00229316
0.0109618
0.0109618
0.0109618
0.0165399
0.0165399
0.0165399
0.011014
0.011014
0.011014
0.00872646
0.00872646
0.00872646
0.016463
0.016463
0.016463
0.0208082
0.0208082
0.0208082
0.0087733
0.0087733
0.0087733
0.0109967
0.0109967
0.0109967
0.00879455
0.00879455
0.00879455
0.00559384
0.00559384
0.00559384
0.00455598
0.00455598
0.00455598
0.00557648
0.00557648
0.00557648
0
0
0
0
0
0
0
0
0
0
0
0
0
0
0
0
0
0
0
0
0
0
0
0
0.000223363
0.000223363
0.000223363
2.63115e-05
2.63115e-05
2.63115e-05
0.000220955
0.000220955
0.000220955
9.38718e-05
9.38718e-05
9.38718e-05
2.50407e-05
2.50407e-05
2.50407e-05
9.18214e-05
9.18214e-05
9.18214e-05
0.000216111
0.000216111
0.000216111
0.000218286
0.000218286
0.000218286
0
0
0
0
0
0
0
0
0
0
0
0
0
0
0
0
0
0
0.0114482
0.0114482
0.0114482
0.000241666
0.000241666
0.000241666
0.006114
0.006114
0.006114
0.00505216
0.00505216
0.00505216
0.00247817
0.00247817
0.00247817
0.00320408
0.00320408
0.00320408
0.00498359
0.00498359
0.00498359
0.000706759
0.000706759
0.000706759
0.00120768
0.00120768
0.00120768
0.000491717
0.000491717
0.000491717
0.000684539
0.000684539
0.000684539
0
0
0
0
0
0
0
0
0
0
0
0
0
0
0
0
0
0
0
0
0
0
0
0
0
0
0
0
0
0
0
0
0
0
0
0
0
0
0
0
0
0
0
0
0
9.58522e-05
9.58522e-05
9.58522e-05
0
0
0
2.7592e-05
2.7592e-05
2.7592e-05
9.77425e-05
9.77425e-05
9.77425e-05
2.88788e-05
2.88788e-05
2.88788e-05
0.3944
0.3944
0.3944
0.397666
0.397666
0.397666
0.0396715
0.0396715
0.0396715
0.000238247
0.000238247
0.000238247
0.0111423
0.0111423
0.0111423
0
0
0
0
0
0
0
0
0
0
0
0
0
0
0
0
0
0
0
0
0
0
0
0
0
0
0
0
0
0
0
0
0
0
0
0
0
0
0
0
0
0
0
0
0
0
0
0
0
0
0
0
0
0
0
0
0
0
0
0
0
0
0
0
0
0
0
0
0
0
0
0
0
0
0
0
0
0
0
0
0
0
0
0
0
0
0
0
0
0
0
0
0
0
0
0
0
0
0
0
0
0
0
0
0
0
0
0
0
0
0
0
0
0
0
0
0
0
0
0
0
0
0
0
0
0
0
0
0
0
0
0
0
0
0
0
0
0
0
0
0
0
0
0
0
0
0
0
0
0
0
0
0
0
0
0
0
0
0
0
0
0
0
0
0
0
0
0
0
0
0
0
0
0
0
0
0
0
0
0
0
0
0
0
0
0
0
0
0
0
0
0
0
0
0
0
0
0
0
0
0
0
0
0
0
0
0
0
0
0
0
0
0
0
0
0
0
0
0
0
0
0
0
0
0
0
0
0
0
0
0
0
0
0
0
0
0
0
0
0
0
0
0
0
0
0
0
0
0
0
0
0
0
0
0
0
0
0
0
0
0
0
0
0
0
0
0
0
0
0
0
0
0
0
0
0
0
0
0
0
0
0
0
0
0
0
0
0
0
0
0
0
0
0
0
0
0
0
0
0
0.29737
0.29737
0.29737
0.244001
0.244001
0.244001
0.343778
0.343778
0.343778
0.329916
0.329916
0.329916
0.338766
0.338766
0.338766
0.355473
0.355473
0.355473
0.352621
0.352621
0.352621
0.34436
0.34436
0.34436
0.329992
0.329992
0.329992
0.327306
0.327306
0.327306
0.362418
0.362418
0.362418
0.358822
0.358822
0.358822
0.355742
0.355742
0.355742
0.362942
0.362942
0.362942
0.181847
0.181847
0.181847
0.180728
0.180728
0.180728
0.0571129
0.0571129
0.0571129
0.14145
0.14145
0.14145
0.140679
0.140679
0.140679
0.0963154
0.0963154
0.0963154
0.0573465
0.0573465
0.0573465
0.0972553
0.0972553
0.0972553
0
0
0
0.0932148
0.0932148
0.0932148
0.135642
0.135642
0.135642
0.0926596
0.0926596
0.0926596
0.132879
0.132879
0.132879
0.133817
0.133817
0.133817
0.0555879
0.0555879
0.0555879
0.0558562
0.0558562
0.0558562
0
0
0
0
0
0
0
0
0
0
0
0
0
0
0
0
0
0
0
0
0
0
0
0
0
0
0
0
0
0
0
0
0
0
0
0
0
0
0
0
0
0
0
0
0
0
0
0
0
0
0
0.300081
0.300081
0.300081
0.301497
0.301497
0.301497
0.300228
0.300228
0.300228
0.302217
0.302217
0.302217
0.300646
0.300646
0.300646
0.301734
0.301734
0.301734
0.340952
0.340952
0.340952
0.318017
0.318017
0.318017
0.321876
0.321876
0.321876
0.331379
0.331379
0.331379
0.32878
0.32878
0.32878
0
0
0
0
0
0
0
0
0
0
0
0
0
0
0
0
0
0
0
0
0
0
0
0
0
0
0
0
0
0
0
0
0
0
0
0
0
0
0
0.205631
0.205631
0.205631
0.0826432
0.0826432
0.0826432
0.131925
0.131925
0.131925
0.00883821
0.00883821
0.00883821
0.0304753
0.0304753
0.0304753
0.0597312
0.0597312
0.0597312
0.0586734
0.0586734
0.0586734
0.254165
0.254165
0.254165
0.250248
0.250248
0.250248
0.033458
0.033458
0.033458
0.0808041
0.0808041
0.0808041
0.0554429
0.0554429
0.0554429
0.126794
0.126794
0.126794
0.166556
0.166556
0.166556
0.197641
0.197641
0.197641
0.203447
0.203447
0.203447
0.169972
0.169972
0.169972
0.228607
0.228607
0.228607
0.226925
0.226925
0.226925
0
0
0
0
0
0
0
0
0
0
0
0
0
0
0
0
0
0
0
0
0
0
0
0
0
0
0
0
0
0
0
0
0
0
0
0
0.2109
0.2109
0.2109
0.212524
0.212524
0.212524
0.409091
0.409091
0.409091
0.412642
0.412642
0.412642
0.409361
0.409361
0.409361
0.404264
0.404264
0.404264
0.403928
0.403928
0.403928
0.408207
0.408207
0.408207
0.404168
0.404168
0.404168
0.405666
0.405666
0.405666
0.38421
0.38421
0.38421
0.387267
0.387267
0.387267
0.381158
0.381158
0.381158
0.381321
0.381321
0.381321
0.384159
0.384159
0.384159
0.38738
0.38738
0.38738
0.378816
0.378816
0.378816
0.375495
0.375495
0.375495
0.37777
0.37777
0.37777
0.37932
0.37932
0.37932
0.374493
0.374493