<VTKFile type="UnstructuredGrid" version="1.0">
<UnstructuredGrid>
<Piece NumberOfPoints="10830" NumberOfCells="3610">
<Points>
<DataArray type="Float64" NumberOfComponents="3" format="ascii">
3.10314 1.29552 11.5207
3.11025 1.28841 11.495
3.11025 1.28841 11.5465
3.11025 1.28841 12.0501
3.11025 1.28841 12.101
3.10226 1.2964 12.0755
3.11025 1.28841 12.0501
3.10226 1.2964 12.0755
3.09025 1.30841 12.0501
2.21656 2.1821 12.5226
2.22913 2.16953 12.54
2.19928 2.19938 12.54
2.19928 2.19938 12.54
2.19928 2.19938 12.5098
2.21656 2.1821 12.5226
3.11025 1.28841 12.0501
3.09025 1.30841 12.0501
3.10227 1.29639 12.0247
2.20538 2.19328 11.7718
2.19928 2.19938 11.797
2.19928 2.19938 11.7466
3.10229 1.29637 11.7719
3.11025 1.28841 11.7971
3.09026 1.3084 11.7971
3.10214 1.29652 11.6713
3.11025 1.28841 11.6463
3.11025 1.28841 11.6964
3.09026 1.3084 11.7971
3.11025 1.28841 11.7971
3.1023 1.29636 11.8223
3.11025 1.28841 11.7971
3.11025 1.28841 11.8475
3.1023 1.29636 11.8223
3.09026 1.3084 11.8476
3.1023 1.29636 11.8223
3.11025 1.28841 11.8475
3.09025 1.30841 11.9993
3.10227 1.29639 12.0247
3.08043 1.31823 12.0247
3.08043 1.31823 12.0247
3.10227 1.29639 12.0247
3.09025 1.30841 12.0501
3.08043 1.31823 12.0247
3.06939 1.32927 11.9993
3.09025 1.30841 11.9993
3.08043 1.31823 12.0247
3.09025 1.30841 12.0501
3.06938 1.32928 12.0501
3.11025 1.28841 11.898
3.11025 1.28841 11.9486
3.10229 1.29637 11.9233
3.10229 1.29637 11.9233
3.09026 1.3084 11.9486
3.08044 1.31822 11.9233
3.11025 1.28841 11.9486
3.09026 1.3084 11.9486
3.10229 1.29637 11.9233
3.11025 1.28841 11.9993
3.10227 1.29639 12.0247
3.09025 1.30841 11.9993
3.11025 1.28841 12.0501
3.10227 1.29639 12.0247
3.11025 1.28841 11.9993
3.0901 1.30856 11.6463
3.11025 1.28841 11.6463
3.10214 1.29652 11.6713
3.09024 1.30842 12.101
3.10226 1.2964 12.0755
3.11025 1.28841 12.101
2.80657 1.59209 12.2807
2.81699 1.58167 12.255
2.8274 1.57126 12.2807
2.19928 2.19938 11.495
2.21889 2.17977 11.495
2.20626 2.1924 11.5197
2.25868 2.13998 11.7466
2.23814 2.16052 11.7466
2.24806 2.1506 11.7214
2.21801 2.18065 11.7466
2.23814 2.16052 11.7466
2.22704 2.17162 11.7718
2.21801 2.18065 11.7466
2.20538 2.19328 11.7718
2.19928 2.19938 11.7466
2.22704 2.17162 11.7718
2.20538 2.19328 11.7718
2.21801 2.18065 11.7466
2.20547 2.19319 11.9739
2.19928 2.19938 11.9993
2.19928 2.19938 11.9486
2.21807 2.1806 11.9993
2.22712 2.17155 11.9739
2.23821 2.16045 11.9993
2.19928 2.19938 11.9993
2.20547 2.19319 11.9739
2.21807 2.1806 11.9993
2.21807 2.1806 11.9993
2.20547 2.19319 11.9739
2.22712 2.17155 11.9739
2.21805 2.18061 11.9486
2.2382 2.16046 11.9486
2.22712 2.17155 11.9739
2.21805 2.18061 11.9486
2.20547 2.19319 11.9739
2.19928 2.19938 11.9486
2.22712 2.17155 11.9739
2.20547 2.19319 11.9739
2.21805 2.18061 11.9486
2.19928 2.19938 11.797
2.20538 2.19328 11.7718
2.21802 2.18064 11.797
2.21802 2.18064 11.797
2.20538 2.19328 11.7718
2.22704 2.17162 11.7718
2.23821 2.16045 11.9993
2.22712 2.17155 11.9739
2.24816 2.15051 11.9739
2.22712 2.17155 11.9739
2.2382 2.16046 11.9486
2.24816 2.15051 11.9739
2.40353 1.99513 11.9487
2.41386 1.9848 11.974
2.3932 2.00546 11.974
2.3932 2.00546 11.974
2.41386 1.9848 11.974
2.40354 1.99512 11.9994
2.40354 1.99512 11.9994
2.41386 1.9848 11.974
2.4242 1.97446 11.9994
2.79618 1.60248 12.255
2.81699 1.58167 12.255
2.80657 1.59209 12.2807
3.10224 1.29642 11.7216
3.11025 1.28841 11.6964
3.11025 1.28841 11.7467
3.11025 1.28841 11.7971
3.10229 1.29637 11.7719
3.11025 1.28841 11.7467
3.02715 1.37151 11.8981
3.006 1.39266 11.8981
3.01659 1.38207 11.8728
3.09026 1.3084 11.8981
3.10229 1.29637 11.9233
3.08044 1.31822 11.9233
3.11025 1.28841 11.898
3.10229 1.29637 11.9233
3.09026 1.3084 11.8981
3.08044 1.31822 11.9233
3.09026 1.3084 11.9486
3.0694 1.32926 11.9486
3.10228 1.29638 11.9739
3.09026 1.3084 11.9486
3.11025 1.28841 11.9486
3.11025 1.28841 11.9486
3.11025 1.28841 11.9993
3.10228 1.29638 11.9739
3.10228 1.29638 11.9739
3.11025 1.28841 11.9993
3.09025 1.30841 11.9993
3.08027 1.31839 11.6714
3.0901 1.30856 11.6463
3.10214 1.29652 11.6713
3.10224 1.29642 11.7216
3.11025 1.28841 11.7467
3.09024 1.30842 11.7467
3.09024 1.30842 11.7467
3.11025 1.28841 11.7467
3.10229 1.29637 11.7719
3.0165 1.38216 11.7216
3.00588 1.39278 11.6964
3.02702 1.37164 11.6964
3.04817 1.35049 11.6965
3.03759 1.36107 11.6713
3.05884 1.33982 11.6713
3.04817 1.35049 11.6965
3.02702 1.37164 11.6964
3.03759 1.36107 11.6713
3.08043 1.31823 11.7719
3.10229 1.29637 11.7719
3.09026 1.3084 11.7971
3.08043 1.31823 11.7719
3.09024 1.30842 11.7467
3.10229 1.29637 11.7719
3.08042 1.31824 12.0756
3.09025 1.30841 12.0501
3.10226 1.2964 12.0755
3.10226 1.2964 12.0755
3.09024 1.30842 12.101
3.08042 1.31824 12.0756
3.06938 1.32928 12.0501
3.09025 1.30841 12.0501
3.08042 1.31824 12.0756
3.08041 1.31825 12.2291
3.05901 1.33965 12.2291
3.06938 1.32928 12.2034
3.05901 1.33966 12.1777
3.08041 1.31825 12.1777
3.06938 1.32928 12.2034
3.10225 1.29641 12.1265
3.09024 1.30842 12.101
3.11025 1.28841 12.101
3.08041 1.31825 12.1266
3.09024 1.30842 12.101
3.10225 1.29641 12.1265
2.84822 1.55044 12.3323
2.85863 1.54003 12.3582
2.83776 1.5609 12.3582
2.96373 1.43493 12.2034
2.97428 1.42438 12.1778
2.98483 1.41383 12.2034
2.98483 1.41383 12.2034
2.97428 1.42438 12.1778
2.9954 1.40326 12.1778
3.06938 1.32929 12.1521
3.05901 1.33965 12.1266
3.08041 1.31825 12.1266
3.06938 1.32929 12.1521
3.08041 1.31825 12.1777
3.05901 1.33966 12.1777
2.95319 1.44547 12.1778
2.97428 1.42438 12.1778
2.96373 1.43493 12.2034
2.90067 1.49799 11.9487
2.87971 1.51895 11.9487
2.89018 1.50848 11.9234
2.84833 1.55033 11.9234
2.83789 1.56077 11.9487
2.82746 1.5712 11.9234
2.85878 1.53988 11.9487
2.83789 1.56077 11.9487
2.84833 1.55033 11.9234
2.83788 1.56078 11.8477
2.85877 1.53989 11.8477
2.84833 1.55034 11.8729
2.84833 1.55034 11.8729
2.82745 1.57121 11.8729
2.83788 1.56078 11.8477
2.83788 1.56078 11.8477
2.82745 1.57121 11.8729
2.81702 1.58164 11.8476
2.84833 1.55034 11.8729
2.85877 1.53989 11.8477
2.86924 1.52943 11.8729
2.87968 1.51898 11.7972
2.89017 1.50849 11.8224
2.86922 1.52944 11.8224
2.86922 1.52944 11.8224
2.85875 1.53991 11.7972
2.87968 1.51898 11.7972
2.72357 1.6751 11.9741
2.73392 1.66474 11.9487
2.74429 1.65437 11.9741
2.73392 1.66474 11.9487
2.75466 1.644 11.9488
2.74429 1.65437 11.9741
2.83789 1.56077 11.8982
2.82745 1.57121 11.8729
2.84833 1.55034 11.8729
2.83789 1.56077 11.8982
2.84833 1.55033 11.9234
2.82746 1.5712 11.9234
2.82746 1.5712 11.9234
2.80662 1.59204 11.9234
2.81703 1.58163 11.8982
2.81703 1.58163 11.8982
2.83789 1.56077 11.8982
2.82746 1.5712 11.9234
2.82745 1.57121 11.8729
2.83789 1.56077 11.8982
2.81703 1.58163 11.8982
2.81702 1.58164 11.8476
2.7962 1.60246 11.8476
2.8066 1.59206 11.8224
2.79618 1.60248 11.7972
2.81701 1.58166 11.7972
2.8066 1.59206 11.8224
2.42419 1.97447 11.9487
2.41386 1.9848 11.974
2.40353 1.99513 11.9487
2.40353 1.99513 11.9487
2.41385 1.98481 11.9234
2.42419 1.97447 11.9487
2.20539 2.19327 11.5699
2.19928 2.19938 11.5951
2.19928 2.19938 11.5444
2.19928 2.19938 11.495
2.20626 2.1924 11.5197
2.19928 2.19938 11.5444
2.21797 2.1807 11.6457
2.19928 2.19938 11.6457
2.20528 2.19338 11.6204
2.19928 2.19938 11.6457
2.19928 2.19938 11.5951
2.20528 2.19338 11.6204
3.11025 1.28841 11.495
3.10314 1.29552 11.5207
3.0911 1.30756 11.495
2.19928 2.19938 11.7466
2.19928 2.19938 11.6961
2.20536 2.19331 11.7214
2.20536 2.19331 11.7214
2.21801 2.18065 11.7466
2.19928 2.19938 11.7466
2.21799 2.18067 11.6961
2.20536 2.19331 11.7214
2.19928 2.19938 11.6961
2.21799 2.18067 11.6961
2.22698 2.17168 11.6709
2.23811 2.16055 11.6962
2.22702 2.17165 11.7214
2.24806 2.1506 11.7214
2.23814 2.16052 11.7466
2.23814 2.16052 11.7466
2.21801 2.18065 11.7466
2.22702 2.17165 11.7214
2.23811 2.16055 11.6962
2.24806 2.1506 11.7214
2.22702 2.17165 11.7214
2.22702 2.17165 11.7214
2.21799 2.18067 11.6961
2.23811 2.16055 11.6962
2.21801 2.18065 11.7466
2.20536 2.19331 11.7214
2.22702 2.17165 11.7214
2.20536 2.19331 11.7214
2.21799 2.18067 11.6961
2.22702 2.17165 11.7214
2.20532 2.19334 11.6709
2.19928 2.19938 11.6961
2.19928 2.19938 11.6457
2.20532 2.19334 11.6709
2.19928 2.19938 11.6457
2.21797 2.1807 11.6457
2.21797 2.1807 11.6457
2.22698 2.17168 11.6709
2.20532 2.19334 11.6709
2.20532 2.19334 11.6709
2.21799 2.18067 11.6961
2.19928 2.19938 11.6961
2.22698 2.17168 11.6709
2.21799 2.18067 11.6961
2.20532 2.19334 11.6709
2.24814 2.15052 11.9233
2.2382 2.16046 11.9486
2.2271 2.17156 11.9233
2.2382 2.16046 11.9486
2.21805 2.18061 11.9486
2.2271 2.17156 11.9233
2.2271 2.17156 11.9233
2.23819 2.16048 11.898
2.24814 2.15052 11.9233
2.24809 2.15058 11.7718
2.23814 2.16052 11.7466
2.25868 2.13998 11.7466
2.22704 2.17162 11.7718
2.23814 2.16052 11.7466
2.24809 2.15058 11.7718
2.26891 2.12975 11.7718
2.24809 2.15058 11.7718
2.25868 2.13998 11.7466
2.2587 2.13996 11.797
2.24809 2.15058 11.7718
2.26891 2.12975 11.7718
2.2587 2.13996 11.797
2.26891 2.12975 11.7718
2.27936 2.1193 11.797
2.41384 1.98482 11.8728
2.42418 1.97448 11.8981
2.40352 1.99515 11.8981
2.40352 1.99515 11.8981
2.42418 1.97448 11.8981
2.41385 1.98481 11.9234
2.33114 2.06753 11.9233
2.35183 2.04683 11.9233
2.34149 2.05717 11.9486
2.34148 2.05718 11.898
2.35183 2.04683 11.9233
2.33114 2.06753 11.9233
2.35182 2.04684 11.8728
2.34147 2.05719 11.8475
2.36216 2.03651 11.8475
2.34148 2.05718 11.898
2.33112 2.06754 11.8728
2.35182 2.04684 11.8728
2.35182 2.04684 11.8728
2.33112 2.06754 11.8728
2.34147 2.05719 11.8475
2.35184 2.04682 11.974
2.37253 2.02613 11.974
2.3622 2.03646 11.9993
2.31047 2.08819 12.0247
2.32082 2.07785 11.9993
2.33117 2.06749 12.0247
2.3208 2.07786 11.9486
2.33114 2.06753 11.9233
2.34149 2.05717 11.9486
2.31043 2.08823 11.9233
2.33114 2.06753 11.9233
2.3208 2.07786 11.9486
2.23821 2.16045 11.9993
2.24816 2.15051 11.9739
2.25876 2.1399 11.9993
2.24814 2.15052 11.9233
2.23819 2.16048 11.898
2.25873 2.13993 11.898
2.25873 2.13993 11.898
2.26896 2.1297 11.9233
2.24814 2.15052 11.9233
2.30008 2.09858 11.898
2.31043 2.08823 11.9233
2.28971 2.10895 11.9233
2.25874 2.13992 11.9486
2.24816 2.15051 11.9739
[...]
<PointData Scalars="View Factor" >
<DataArray type="Float64" Name="View Factor" NumberOfComponents="1" format="ascii">
0.0945752
0.0945752
0.0945752
0.186253
0.186253
0.186253
0.182384
0.182384
0.182384
0.279989
0.279989
0.279989
0.283197
0.283197
0.283197
0.178721
0.178721
0.178721
0.0272062
0.0272062
0.0272062
0.131124
0.131124
0.131124
0.113727
0.113727
0.113727
0.133882
0.133882
0.133882
0.137003
0.137003
0.137003
0.139567
0.139567
0.139567
0.173032
0.173032
0.173032
0.176622
0.176622
0.176622
0.170881
0.170881
0.170881
0.178107
0.178107
0.178107
0.155078
0.155078
0.155078
0.156024
0.156024
0.156024
0.158046
0.158046
0.158046
0.171584
0.171584
0.171584
0.175315
0.175315
0.175315
0.111069
0.111069
0.111069
0.189889
0.189889
0.189889
0.0096999
0.0096999
0.0096999
0.0203105
0.0203105
0.0203105
0.0291492
0.0291492
0.0291492
0.0365277
0.0365277
0.0365277
0.0291115
0.0291115
0.0291115
0.0344981
0.0344981
0.0344981
0.0459875
0.0459875
0.0459875
0.0560192
0.0560192
0.0560192
0.051489
0.051489
0.051489
0.05458
0.05458
0.05458
0.0524574
0.0524574
0.0524574
0.0472438
0.0472438
0.0472438
0.0525604
0.0525604
0.0525604
0.0314432
0.0314432
0.0314432
0.0356596
0.0356596
0.0356596
0.049873
0.049873
0.049873
0.0483448
0.0483448
0.0483448
8.12794e-05
8.12794e-05
8.12794e-05
0.000115735
0.000115735
0.000115735
0.000127404
0.000127404
0.000127404
0.00838246
0.00838246
0.00838246
0.120992
0.120992
0.120992
0.128747
0.128747
0.128747
0.14131
0.14131
0.14131
0.15281
0.15281
0.15281
0.151646
0.151646
0.151646
0.157198
0.157198
0.157198
0.161338
0.161338
0.161338
0.164923
0.164923
0.164923
0.168106
0.168106
0.168106
0.111698
0.111698
0.111698
0.123192
0.123192
0.123192
0.125781
0.125781
0.125781
0.111152
0.111152
0.111152
0.111461
0.111461
0.111461
0.111461
0.111461
0.111461
0.129276
0.129276
0.129276
0.126599
0.126599
0.126599
0.183991
0.183991
0.183991
0.187769
0.187769
0.187769
0.181817
0.181817
0.181817
0.220124
0.220124
0.220124
0.211537
0.211537
0.211537
0.193734
0.193734
0.193734
0.19551
0.19551
0.19551
0.0703987
0.0703987
0.0703987
0.200017
0.200017
0.200017
0.200264
0.200264
0.200264
0.199099
0.199099
0.199099
0.20733
0.20733
0.20733
0.192658
0.192658
0.192658
0.0903765
0.0903765
0.0903765
0.0108251
0.0108251
0.0108251
0.0266682
0.0266682
0.0266682
0.0251913
0.0251913
0.0251913
0.0104156
0.0104156
0.0104156
5.25572e-06
5.25572e-06
5.25572e-06
0.0407149
0.0407149
0.0407149
0.0671139
0.0671139
0.0671139
0.0534416
0.0534416
0.0534416
9.22479e-05
9.22479e-05
9.22479e-05
8.34446e-05
8.34446e-05
8.34446e-05
0.0105145
0.0105145
0.0105145
0.0107153
0.0107153
0.0107153
3.37697e-05
3.37697e-05
3.37697e-05
2.43155e-05
2.43155e-05
2.43155e-05
2.06656e-05
2.06656e-05
2.06656e-05
2.48802e-06
2.48802e-06
2.48802e-06
0
0
0
7.18402e-05
7.18402e-05
7.18402e-05
5.01117e-05
5.01117e-05
5.01117e-05
0.0169446
0.0169446
0.0169446
0.0163817
0.0163817
0.0163817
0.0224647
0.0224647
0.0224647
0.0190776
0.0190776
0.0190776
0.0922964
0.0922964
0.0922964
0.0240615
0.0240615
0.0240615
0.0280265
0.0280265
0.0280265
0.0260013
0.0260013
0.0260013
0.0327203
0.0327203
0.0327203
0.0323855
0.0323855
0.0323855
0.0355206
0.0355206
0.0355206
0.0315398
0.0315398
0.0315398
0.0336184
0.0336184
0.0336184
0.0323196
0.0323196
0.0323196
0.0312983
0.0312983
0.0312983
0.0213467
0.0213467
0.0213467
0.0232898
0.0232898
0.0232898
0.0283099
0.0283099
0.0283099
0.0250569
0.0250569
0.0250569
0.0292125
0.0292125
0.0292125
0.0454773
0.0454773
0.0454773
0.0507922
0.0507922
0.0507922
0.044132
0.044132
0.044132
0.0298875
0.0298875
0.0298875
0.0341717
0.0341717
0.0341717
0.0262908
0.0262908
0.0262908
0.0269042
0.0269042
0.0269042
0.0211892
0.0211892
0.0211892
1.63799e-05
1.63799e-05
1.63799e-05
2.09452e-05
2.09452e-05
2.09452e-05
4.21742e-05
4.21742e-05
4.21742e-05
2.87413e-05
2.87413e-05
2.87413e-05
4.32387e-06
4.32387e-06
4.32387e-06
1.10201e-05
1.10201e-05
1.10201e-05
4.38264e-06
4.38264e-06
4.38264e-06
0.000115639
0.000115639
0.000115639
0.000200173
0.000200173
0.000200173
5.05243e-05
5.05243e-05
5.05243e-05
4.20947e-05
4.20947e-05
4.20947e-05
0.0432941
0.0432941
0.0432941
0.0376773
0.0376773
0.0376773
0.0325305
0.0325305
0.0325305
2.89721e-05
2.89721e-05
2.89721e-05
0.040919
0.040919
0.040919
0.0397966
0.0397966
0.0397966
0.0333377
0.0333377
0.0333377
0.000543466
0.000543466
0.000543466
0.170282
0.170282
0.170282
0.278403
0.278403
0.278403
7.20071e-05
7.20071e-05
7.20071e-05
8.15945e-05
8.15945e-05
8.15945e-05
0.000171551
0.000171551
0.000171551
0.000127918
0.000127918
0.000127918
0.000128374
0.000128374
0.000128374
0.000115719
0.000115719
0.000115719
0.000171102
0.000171102
0.000171102
0.000201343
0.000201343
0.000201343
0.000297008
0.000297008
0.000297008
0.000259421
0.000259421
0.000259421
0.000260636
0.000260636
0.000260636
0.000200217
0.000200217
0.000200217
0.00053611
0.00053611
0.00053611
0.000764118
0.000764118
0.000764118
0.000853396
0.000853396
0.000853396
0.00122445
0.00122445
0.00122445
0.0011127
0.0011127
0.0011127
0.000258635
0.000258635
0.000258635
0.000170579
0.000170579
0.000170579
0.000200984
0.000200984
0.000200984
0.00823829
0.00823829
0.00823829
0.0095682
0.0095682
0.0095682
0.00968551
0.00968551
0.00968551
0.00836053
0.00836053
0.00836053
0.00635443
0.00635443
0.00635443
0.00553087
0.00553087
0.00553087
0.00255358
0.00255358
0.00255358
0.00646539
0.00646539
0.00646539
0.255041
0.255041
0.255041
0.257854
0.257854
0.257854
0.242991
0.242991
0.242991
0.23114
0.23114
0.23114
0.261861
0.261861
0.261861
0.26345
0.26345
0.26345
0.263714
0.263714
0.263714
0.259507
0.259507
0.259507
0.265261
0.265261
0.265261
0.265236
0.265236
0.265236
0.247206
0.247206
0.247206
0.23233
0.23233
0.23233
0.260868
0.260868
0.260868
0.256444
0.256444
0.256444
0.244159
0.244159
0.244159
0.233278
0.233278
0.233278
0.235133
0.235133
0.235133
0.300888
0.300888
0.300888
0.253584
0.253584
0.253584
0.17922
0.17922
0.17922
0.207946
0.207946
0.207946
0.199507
0.199507
0.199507
0.170077
0.170077
0.170077
0.175924
0.175924
0.175924
0.17229
0.17229
0.17229
0.171167
0.171167
0.171167
0.0761243
0.0761243
0.0761243
0.0775882
0.0775882
0.0775882
0.083048
0.083048
0.083048
0.147187
0.147187
0.147187
0.143521
0.143521
0.143521
0.148536
0.148536
0.148536
0.146566
0.146566
0.146566
0.145776
0.145776
0.145776
0.142498
0.142498
0.142498
0.143536
0.143536
0.143536
0.164026
0.164026
0.164026
0.166521
0.166521
0.166521
0.167364
0.167364
0.167364
0.160524
0.160524
0.160524
0.165216
0.165216
0.165216
0.161779
0.161779
0.161779
0.166041
0.166041
0.166041
0.162639
0.162639
0.162639
0.118181
0.118181
0.118181
0.115755
0.115755
0.115755
0.114046
0.114046
0.114046
0.108805
0.108805
0.108805
0.108765
0.108765
0.108765
0.108952
0.108952
0.108952
0.124712
0.124712
0.124712
0.120949
0.120949
0.120949
0.125475
0.125475
0.125475
0.123556
0.123556
0.123556
0.189426
0.189426
0.189426
0.193327
0.193327
0.193327
0.195077
0.195077
0.195077
0.224502
0.224502
0.224502
0.241566
0.241566
0.241566
0.273496
0.273496
0.273496
0.0127828
0.0127828
0.0127828
0.00649799
0.00649799
0.00649799
0.00839419
0.00839419
0.00839419
0.204474
0.204474
0.204474
0.213843
0.213843
0.213843
0.221604
0.221604
0.221604
0.217104
0.217104
0.217104
0.12814
0.12814
0.12814
0.14294
0.14294
0.14294
0.134866
0.134866
0.134866
0.137527
0.137527
0.137527
0.153807
0.153807
0.153807
0.147444
0.147444
0.147444
0.143986
0.143986
0.143986
0.201312
0.201312
0.201312
0.205395
0.205395
0.205395
0.199471
0.199471
0.199471
0.217885
0.217885
0.217885
0.21967
0.21967
0.21967
0.213554
0.213554
0.213554
0.210918
0.210918
0.210918
0.216285
0.216285
0.216285
0.211894
0.211894
0.211894
0.125359
0.125359
0.125359
0.126059
0.126059
0.126059
0.128875
0.128875
0.128875
0.0869849
0.0869849
0.0869849
6.14428e-05
6.14428e-05
6.14428e-05
5.27404e-05
5.27404e-05
5.27404e-05
0.0269834
0.0269834
0.0269834
0.000198499
0.000198499
0.000198499
0.000236535
0.000236535
0.000236535
9.62167e-05
9.62167e-05
9.62167e-05
8.69123e-05
8.69123e-05
8.69123e-05
6.07114e-05
6.07114e-05
6.07114e-05
5.20807e-05
5.20807e-05
5.20807e-05
8.58311e-05
8.58311e-05
8.58311e-05
5.99302e-05
5.99302e-05
5.99302e-05
0.000140641
0.000140641
0.000140641
0.00015778
0.00015778
0.00015778
0.000203373
0.000203373
0.000203373
0.00023937
0.00023937
0.00023937
0.000201022
0.000201022
0.000201022
0.000155909
0.000155909
0.000155909
0.0429888
0.0429888
0.0429888
0.0606196
0.0606196
0.0606196
0.0759218
0.0759218
0.0759218
0.0745933
0.0745933
0.0745933
0.000971035
0.000971035
0.000971035
0.000304306
0.000304306
0.000304306
0.000880567
0.000880567
0.000880567
2.52177e-06
2.52177e-06
2.52177e-06
0
0
0
0
0
0
0
0
0
0.0243536
0.0243536
0.0243536
0.0101412
0.0101412
0.0101412
0.0102307
0.0102307
0.0102307
0.0249095
0.0249095
0.0249095
0.0396276
0.0396276
0.0396276
0.039094
0.039094
0.039094
0.0720133
0.0720133
0.0720133
0.0853476
0.0853476
0.0853476
4.42248e-05
4.42248e-05
4.42248e-05
2.82522e-05
2.82522e-05
2.82522e-05
0.000210416
0.000210416
0.000210416
0.000175602
0.000175602
0.000175602
4.52642e-05
4.52642e-05
4.52642e-05
5.18795e-05
5.18795e-05
5.18795e-05
0.000312492
0.000312492
0.000312492
0.000268105
0.000268105
0.000268105
0.000306048
0.000306048
0.000306048
0.000395694
0.000395694
0.000395694
0.000450633
0.000450633
0.000450633
0.00038754
0.00038754
0.00038754
5.8216e-05
5.8216e-05
5.8216e-05
2.30002e-05
2.30002e-05
2.30002e-05
3.18798e-05
3.18798e-05
3.18798e-05
4.98444e-05
4.98444e-05
4.98444e-05
0.000151744
0.000151744
0.000151744
0.000135018
0.000135018
0.000135018
2.26224e-05
2.26224e-05
2.26224e-05
8.2137e-05
8.2137e-05
8.2137e-05
5.72847e-05
5.72847e-05
5.72847e-05
1.9531e-05
1.9531e-05
1.9531e-05
0
0
0
0
0
0
0
0
0
2.40164e-05
2.40164e-05
2.40164e-05
3.33384e-05
3.33384e-05
3.33384e-05
2.01307e-05
2.01307e-05
2.01307e-05
2.36971e-05
2.36971e-05
2.36971e-05
0
0
0
2.05534e-06
2.05534e-06
2.05534e-06
4.30989e-06
4.30989e-06
4.30989e-06
4.36954e-06
4.36954e-06
4.36954e-06
0
0
0
0
0
0
0
0
0
0.0203819
0.0203819
0.0203819
0.0251153
0.0251153
0.0251153
0.0199912
0.0199912
0.0199912
4.3193e-06
4.3193e-06
4.3193e-06
1.10645e-05
1.10645e-05
1.10645e-05
4.31475e-05
4.31475e-05
4.31475e-05
5.06567e-05
5.06567e-05
5.06567e-05
7.27805e-05
7.27805e-05
7.27805e-05
8.01195e-05
8.01195e-05
8.01195e-05
0.000132768
0.000132768
0.000132768
0.000117551
0.000117551
0.000117551
0.0868253
0.0868253
0.0868253
0.0927639
0.0927639
0.0927639
0.0912325
0.0912325
0.0912325
0.079988
0.079988
0.079988
0.0915766
0.0915766
0.0915766
0.0896837
0.0896837
0.0896837
0.0969167
0.0969167
0.0969167
0.0927982
0.0927982
0.0927982
0.052888
0.052888
0.052888
0.0537815
0.0537815
0.0537815
0.0401237
0.0401237
0.0401237
0.0452817
0.0452817
0.0452817
0.0488086
0.0488086
0.0488086
0.0351292
0.0351292
0.0351292
0.036837
0.036837
0.036837
0.0434901
0.0434901
0.0434901
0.0422959
0.0422959
0.0422959
0.0326943
0.0326943
0.0326943
0.0308627
0.0308627
0.0308627
0.0353886
0.0353886
0.0353886
0.038139
0.038139
0.038139
0.0394624
0.0394624
0.0394624
0.0422085
0.0422085
0.0422085
0.0381675
0.0381675
0.0381675
0.0281851
0.0281851
0.0281851
0.021606
0.021606
0.021606
0.0386645
0.0386645
0.0386645
0.0351154
0.0351154
0.0351154
0.039798
0.039798
0.039798
0.0371114
0.0371114
0.0371114
0.0314396
0.0314396
0.0314396
0.0322551
0.0322551
0.0322551
0.0404091
0.0404091
0.0404091
0.0416013
0.0416013
0.0416013
0.0366782
0.0366782
0.0366782
0.0309899
0.0309899
0.0309899
1.63741e-05
1.63741e-05
1.63741e-05
1.10521e-05
1.10521e-05
1.10521e-05
4.35451e-06
4.35451e-06
4.35451e-06
1.1061e-05
1.1061e-05
1.1061e-05
4.22969e-05
4.22969e-05
4.22969e-05
2.8302e-05
2.8302e-05
2.8302e-05
5.02481e-05
5.02481e-05
5.02481e-05
2.11682e-05
2.11682e-05
2.11682e-05
2.84612e-05
2.84612e-05
2.84612e-05
4.22746e-05
4.22746e-05
4.22746e-05
2.88624e-05
2.88624e-05
2.88624e-05
1.09974e-05
1.09974e-05
1.09974e-05
2.17875e-05
2.17875e-05
2.17875e-05
1.63131e-05
1.63131e-05
1.63131e-05
2.19759e-05
2.19759e-05
2.19759e-05
1.62779e-05
1.62779e-05
1.62779e-05
8.21164e-05
8.21164e-05
8.21164e-05
7.23096e-05
7.23096e-05
7.23096e-05
0.000128771
0.000128771
0.000128771
0.000172215
0.000172215
0.000172215
0.000129107
0.000129107
0.000129107
0.000115506
0.000115506
0.000115506
0.000200243
0.000200243
0.000200243
0.000171925
0.000171925
0.000171925
0.000435104
0.000435104
0.000435104
0.00038019
0.00038019
0.00038019
0.000298207
0.000298207
0.000298207
0.000261061
0.000261061
0.000261061
0.000298322
0.000298322
0.000298322
0.000435148
0.000435148
0.000435148
0.000380582
0.000380582
0.000380582
0.000172425
0.000172425
0.000172425
0.0238445
0.0238445
0.0238445
0.00631116
0.00631116
0.00631116
0.0243236
0.0243236
0.0243236
0.0160107
0.0160107
0.0160107
0.0356982
0.0356982
0.0356982
0.0348758
0.0348758
0.0348758
0.0167853
0.0167853
0.0167853
0.025852
0.025852
0.025852
0.016261
0.016261
0.016261
0.0253275
0.0253275
0.0253275
0.000544481
0.000544481
0.000544481
0.00734138
0.00734138
0.00734138
0.000618663
0.000618663
0.000618663
0.0186305
0.0186305
0.0186305
0.0307893
0.0307893
0.0307893
0.00756047
0.00756047
0.00756047
0.000616635
0.000616635
0.000616635
0.000617749
0.000617749
0.000617749
0.000780791
0.000780791
0.000780791
0.000876922
0.000876922
0.000876922
0.000779429
0.000779429
0.000779429
0.27553
0.27553
0.27553
0.270875
0.270875
0.270875
0.273559
0.273559
0.273559
0.112256
0.112256
0.112256
0.12154
0.12154
0.12154
0.118414
0.118414
0.118414
0.15746
0.15746
0.15746
0.134537
0.134537
0.134537
0.146119
0.146119
0.146119
0.140493
0.140493
0.140493
0.128699
0.128699
0.128699
0.132231
0.132231
0.132231
0.113687
0.113687
0.113687
0.120078
0.120078
0.120078
8.1873e-05
8.1873e-05
8.1873e-05
7.214e-05
7.214e-05
7.214e-05
5.03606e-05
5.03606e-05
5.03606e-05
4.22336e-05
4.22336e-05
4.22336e-05
5.04546e-05
5.04546e-05
5.04546e-05
7.224e-05
7.224e-05
7.224e-05
0.000297551
0.000297551
0.000297551
0.000297951
0.000297951
0.000297951
0.000260089
0.000260089
0.000260089
0.00037882
0.00037882
0.00037882
0.000600768
0.000600768
0.000600768
0.000366508
0.000366508
0.000366508
0.000420672
0.000420672
0.000420672
0.000430298
0.000430298
0.000430298
0.000767884
0.000767884
0.000767884
0.000607142
0.000607142
0.000607142
0.000609932
0.000609932
0.000609932
0.000533329
0.000533329
0.000533329
0.000296315
0.000296315
0.000296315
0.000376751
0.000376751
0.000376751
0.000375465
0.000375465
0.000375465
0.000431619
0.000431619
0.000431619
0.000200525
0.000200525
0.000200525
0.000257724
0.000257724
0.000257724
0.000256703
0.000256703
0.000256703
0.000295481
0.000295481
0.000295481
0.0147259
0.0147259
0.0147259
0.0199896
0.0199896
0.0199896
0.0148007
0.0148007
0.0148007
0.0126501
0.0126501
0.0126501
0.00829387
0.00829387
0.00829387
0.00640006
0.00640006
0.00640006
0.0126951
0.0126951
0.0126951
0.00962037
0.00962037
0.00962037
0.00965914
0.00965914
0.00965914
0.00832796
0.00832796
0.00832796
0.0019912
0.0019912
0.0019912
0.00293235
0.00293235
0.00293235
0.00368348
0.00368348
0.00368348
0.00290523
0.00290523
0.00290523
0.00252938
0.00252938
0.00252938
0.00365144
0.00365144
0.00365144
0.0044633
0.0044633
0.0044633
0.00180311
0.00180311
0.00180311
0.00201098
0.00201098
0.00201098
0.00139253
0.00139253
0.00139253
0.00126888
0.00126888
0.00126888
0.00449727
0.00449727
0.00449727
0.00560189
0.00560189
0.00560189
0.00643682
0.00643682
0.00643682
0.00556996
0.00556996
0.00556996
0.0029557
0.0029557
0.0029557
0.00371074
0.00371074
0.00371074
0.00452543
0.00452543
0.00452543
0.00648555
0.00648555
0.00648555
0.0056264
0.0056264
0.0056264
0.00564399
0.00564399
0.00564399
0.00456472
0.00456472
0.00456472
0.000483461
0.000483461
0.000483461
0.000591405
0.000591405
0.000591405
0.001255
0.001255
0.001255
0.000870729
0.000870729
0.000870729
0.000691195
0.000691195
0.000691195
0.000859918
0.000859918
0.000859918
0.000959646
0.000959646
0.000959646
0.000599717
0.000599717
0.000599717
0.000682177
0.000682177
0.000682177
0.00265983
0.00265983
0.00265983
0.00226813
0.00226813
0.00226813
0.0510295
0.0510295
0.0510295
0.248883
0.248883
0.248883
0.261337
0.261337
0.261337
0.216107
0.216107
0.216107
0.244307
0.244307
0.244307
0.0200799
0.0200799
0.0200799
0.0233252
0.0233252
0.0233252
0.00125891
0.00125891
0.00125891
0.00112965
0.00112965
0.00112965
0.250783
0.250783
0.250783
0.0350074
0.0350074
0.0350074
0.00159691
0.00159691
0.00159691
0.0183692
0.0183692
0.0183692
0.058891
0.058891
0.058891
0.00090306
0.00090306
0.00090306
0.00243721
0.00243721
0.00243721
0.00909687
0.00909687
0.00909687
0.00789512
0.00789512
0.00789512
0.00521698
0.00521698
0.00521698
0.00608001
0.00608001
0.00608001
0.0357694
0.0357694
0.0357694
0.163812
0.163812
0.163812
0.218769
0.218769
0.218769
0.217581
0.217581
0.217581
0.245914
0.245914
0.245914
0.0193262
0.0193262
0.0193262
0.0120511
0.0120511
0.0120511
0.0142034
0.0142034
0.0142034
0.0310303
0.0310303
0.0310303
0.0362544
0.0362544
0.0362544
0.0306387
0.0306387
0.0306387
0.0223923
0.0223923
0.0223923
0.00950273
0.00950273
0.00950273
0.0125691
0.0125691
0.0125691
0.235213
0.235213
0.235213
0.246805
0.246805
0.246805
0.257578
0.257578
0.257578
0.234009
0.234009
0.234009
0.24508
0.24508
0.24508
0.234917
0.234917
0.234917
0.246617
0.246617
0.246617
0.259633
0.259633
0.259633
0.2635
0.2635
0.2635
0.254886
0.254886
0.254886
0.241594
0.241594
0.241594
0.283223
0.283223
0.283223
0.296217
0.296217
0.296217
0.296999
0.296999
0.296999
0.197937
0.197937
0.197937
0.210323
0.210323
0.210323
0.223855
0.223855
0.223855
0.208256
0.208256
0.208256
0.177231
0.177231
0.177231
0.166868
0.166868
0.166868
0.261477
0.261477
0.261477
0.236668
0.236668
0.236668
0.303288
0.303288
0.303288
0.301547
0.301547
0.301547
0.299704
0.299704
0.299704
0.301513
0.301513
0.301513
0.298107
0.298107
0.298107
0.177389
0.177389
0.177389
0.174833
0.174833
0.174833
0.164668
0.164668
0.164668
0.168325
0.168325
0.168325
0.15049
0.15049
0.15049
0.147607
0.147607
0.147607
0.154266
0.154266
0.154266
0.154127
0.154127
0.154127
0.157568
0.157568
0.157568
0.157622
0.157622
0.157622
0.150914
0.150914
0.150914
0.144257
0.144257
0.144257
0.147476
0.147476
0.147476
0.144435
0.144435
0.144435
0.147656
0.147656
0.147656
0.150909
0.150909
0.150909
0.140803
0.140803
0.140803
0.140361
0.140361
0.140361
0.13804
0.13804
0.13804
0.137729
0.137729
0.137729
0.134263
0.134263
0.134263
0.129003
0.129003
0.129003
0.134492
0.134492
0.134492
0.136694
0.136694
0.136694
0.133688
0.133688
0.133688
0.147605
0.147605
0.147605
0.15074
0.15074
0.15074
0.129228
0.129228
0.129228
0.135033
0.135033
0.135033
0.141521
0.141521
0.141521
0.144448
0.144448
0.144448
0.141363
0.141363
0.141363
0.100731
0.100731
0.100731
0.10716
0.10716
0.10716
0.104966
0.104966
0.104966
0.102315
0.102315
0.102315
0.104429
0.104429
0.104429
0.106944
0.106944
0.106944
0.100598
0.100598
0.100598
0.109104
0.109104
0.109104
0.10455
0.10455
0.10455
0.100141
0.100141
0.100141
0.102351
0.102351
0.102351
0.113464
0.113464
0.113464
0.115904
0.115904
0.115904
0.112878
0.112878
0.112878
0.114653
0.114653
0.114653
0.122114
0.122114
0.122114
0.121413
0.121413
0.121413
0.118903
0.118903
0.118903
0.117085
0.117085
0.117085
0.120269
0.120269
0.120269
0.117751
0.117751
0.117751
0.121492
0.121492
0.121492
0.124067
0.124067
0.124067
0.113765
0.113765
0.113765
0.116254
0.116254
0.116254
0.113886
0.113886
0.113886
0.1189
0.1189
0.1189
0.116335
0.116335
0.116335
0.118856
0.118856
0.118856
0.225266
0.225266
0.225266
0.224109
0.224109
0.224109
0.226719
0.226719
0.226719
0.245243
0.245243
0.245243
0.217999
0.217999
0.217999
0.213741
0.213741
0.213741
0.275692
0.275692
0.275692
0.277172
0.277172
0.277172
0.269319
0.269319
0.269319
0.27717
0.27717
0.27717
0.0148552
0.0148552
0.0148552
0.0127406
0.0127406
0.0127406
0.0127697
0.0127697
0.0127697
0.0149063
0.0149063
0.0149063
0.01489
0.01489
0.01489
0.0202043
0.0202043
0.0202043
0.0234805
0.0234805
0.0234805
0.0201922
0.0201922
0.0201922
0.0234752
0.0234752
0.0234752
0.0446274
0.0446274
0.0446274
0.261233
0.261233
0.261233
0.242346
0.242346
0.242346
0.0223004
0.0223004
0.0223004
0.0406708
0.0406708
0.0406708
0.0803097
0.0803097
0.0803097
0.140134
0.140134
0.140134
0.132063
0.132063
0.132063
0.103114
0.103114
0.103114
0.0892709
0.0892709
0.0892709