<VTKFile type="UnstructuredGrid" version="1.0">
<UnstructuredGrid>
<Piece NumberOfPoints="10830" NumberOfCells="3610">
<Points>
<DataArray type="Float64" NumberOfComponents="3" format="ascii">
3.10314 1.29552 7.34075
3.11025 1.28841 7.315
3.11025 1.28841 7.36646
3.11025 1.28841 7.87008
3.11025 1.28841 7.921
3.10226 1.2964 7.89553
3.11025 1.28841 7.87008
3.10226 1.2964 7.89553
3.09025 1.30841 7.8701
2.21656 2.1821 8.34259
2.22913 2.16953 8.36
2.19928 2.19938 8.36
2.19928 2.19938 8.36
2.19928 2.19938 8.32984
2.21656 2.1821 8.34259
3.11025 1.28841 7.87008
3.09025 1.30841 7.8701
3.10227 1.29639 7.84468
2.20538 2.19328 7.59179
2.19928 2.19938 7.61701
2.19928 2.19938 7.56657
3.10229 1.29637 7.5919
3.11025 1.28841 7.61709
3.09026 1.3084 7.61711
3.10214 1.29652 7.49134
3.11025 1.28841 7.46628
3.11025 1.28841 7.51639
3.09026 1.3084 7.61711
3.11025 1.28841 7.61709
3.1023 1.29636 7.64231
3.11025 1.28841 7.61709
3.11025 1.28841 7.66754
3.1023 1.29636 7.64231
3.09026 1.3084 7.66755
3.1023 1.29636 7.64231
3.11025 1.28841 7.66754
3.09025 1.30841 7.81931
3.10227 1.29639 7.84468
3.08043 1.31823 7.8447
3.08043 1.31823 7.8447
3.10227 1.29639 7.84468
3.09025 1.30841 7.8701
3.08043 1.31823 7.8447
3.06939 1.32927 7.81932
3.09025 1.30841 7.81931
3.08043 1.31823 7.8447
3.09025 1.30841 7.8701
3.06938 1.32928 7.87012
3.11025 1.28841 7.71804
3.11025 1.28841 7.76862
3.10229 1.29637 7.74333
3.10229 1.29637 7.74333
3.09026 1.3084 7.76863
3.08044 1.31822 7.74334
3.11025 1.28841 7.76862
3.09026 1.3084 7.76863
3.10229 1.29637 7.74333
3.11025 1.28841 7.81929
3.10227 1.29639 7.84468
3.09025 1.30841 7.81931
3.11025 1.28841 7.87008
3.10227 1.29639 7.84468
3.11025 1.28841 7.81929
3.0901 1.30856 7.46632
3.11025 1.28841 7.46628
3.10214 1.29652 7.49134
3.09024 1.30842 7.92102
3.10226 1.2964 7.89553
3.11025 1.28841 7.921
2.80657 1.59209 8.10075
2.81699 1.58167 8.07498
2.8274 1.57126 8.10072
2.19928 2.19938 7.315
2.21889 2.17977 7.315
2.20626 2.1924 7.3397
2.25868 2.13998 7.56659
2.23814 2.16052 7.56657
2.24806 2.1506 7.54137
2.21801 2.18065 7.56656
2.23814 2.16052 7.56657
2.22704 2.17162 7.59178
2.21801 2.18065 7.56656
2.20538 2.19328 7.59179
2.19928 2.19938 7.56657
2.22704 2.17162 7.59178
2.20538 2.19328 7.59179
2.21801 2.18065 7.56656
2.20547 2.19319 7.79394
2.19928 2.19938 7.8193
2.19928 2.19938 7.76861
2.21807 2.1806 7.8193
2.22712 2.17155 7.79393
2.23821 2.16045 7.81929
2.19928 2.19938 7.8193
2.20547 2.19319 7.79394
2.21807 2.1806 7.8193
2.21807 2.1806 7.8193
2.20547 2.19319 7.79394
2.22712 2.17155 7.79393
2.21805 2.18061 7.7686
2.2382 2.16046 7.7686
2.22712 2.17155 7.79393
2.21805 2.18061 7.7686
2.20547 2.19319 7.79394
2.19928 2.19938 7.76861
2.22712 2.17155 7.79393
2.20547 2.19319 7.79394
2.21805 2.18061 7.7686
2.19928 2.19938 7.61701
2.20538 2.19328 7.59179
2.21802 2.18064 7.617
2.21802 2.18064 7.617
2.20538 2.19328 7.59179
2.22704 2.17162 7.59178
2.23821 2.16045 7.81929
2.22712 2.17155 7.79393
2.24816 2.15051 7.79393
2.22712 2.17155 7.79393
2.2382 2.16046 7.7686
2.24816 2.15051 7.79393
2.40353 1.99513 7.76867
2.41386 1.9848 7.79401
2.3932 2.00546 7.794
2.3932 2.00546 7.794
2.41386 1.9848 7.79401
2.40354 1.99512 7.81937
2.40354 1.99512 7.81937
2.41386 1.9848 7.79401
2.4242 1.97446 7.81939
2.79618 1.60248 8.075
2.81699 1.58167 8.07498
2.80657 1.59209 8.10075
3.10224 1.29642 7.54156
3.11025 1.28841 7.51639
3.11025 1.28841 7.5667
3.11025 1.28841 7.61709
3.10229 1.29637 7.5919
3.11025 1.28841 7.5667
3.02715 1.37151 7.7181
3.006 1.39266 7.71811
3.01659 1.38207 7.69285
3.09026 1.3084 7.71805
3.10229 1.29637 7.74333
3.08044 1.31822 7.74334
3.11025 1.28841 7.71804
3.10229 1.29637 7.74333
3.09026 1.3084 7.71805
3.08044 1.31822 7.74334
3.09026 1.3084 7.76863
3.0694 1.32926 7.76865
3.10228 1.29638 7.79395
3.09026 1.3084 7.76863
3.11025 1.28841 7.76862
3.11025 1.28841 7.76862
3.11025 1.28841 7.81929
3.10228 1.29638 7.79395
3.10228 1.29638 7.79395
3.11025 1.28841 7.81929
3.09025 1.30841 7.81931
3.08027 1.31839 7.49137
3.0901 1.30856 7.46632
3.10214 1.29652 7.49134
3.10224 1.29642 7.54156
3.11025 1.28841 7.5667
3.09024 1.30842 7.56674
3.09024 1.30842 7.56674
3.11025 1.28841 7.5667
3.10229 1.29637 7.5919
3.0165 1.38216 7.54161
3.00588 1.39278 7.51643
3.02702 1.37164 7.51643
3.04817 1.35049 7.51645
3.03759 1.36107 7.49126
3.05884 1.33982 7.49131
3.04817 1.35049 7.51645
3.02702 1.37164 7.51643
3.03759 1.36107 7.49126
3.08043 1.31823 7.59193
3.10229 1.29637 7.5919
3.09026 1.3084 7.61711
3.08043 1.31823 7.59193
3.09024 1.30842 7.56674
3.10229 1.29637 7.5919
3.08042 1.31824 7.89555
3.09025 1.30841 7.8701
3.10226 1.2964 7.89553
3.10226 1.2964 7.89553
3.09024 1.30842 7.92102
3.08042 1.31824 7.89555
3.06938 1.32928 7.87012
3.09025 1.30841 7.8701
3.08042 1.31824 7.89555
3.08041 1.31825 8.04906
3.05901 1.33965 8.04906
3.06938 1.32928 8.02337
3.05901 1.33966 7.99774
3.08041 1.31825 7.99772
3.06938 1.32928 8.02337
3.10225 1.29641 7.94653
3.09024 1.30842 7.92102
3.11025 1.28841 7.921
3.08041 1.31825 7.94656
3.09024 1.30842 7.92102
3.10225 1.29641 7.94653
2.84822 1.55044 8.15232
2.85863 1.54003 8.17816
2.83776 1.5609 8.17819
2.96373 1.43493 8.02343
2.97428 1.42438 7.99779
2.98483 1.41383 8.02341
2.98483 1.41383 8.02341
2.97428 1.42438 7.99779
2.9954 1.40326 7.99778
3.06938 1.32929 7.97213
3.05901 1.33965 7.94658
3.08041 1.31825 7.94656
3.06938 1.32929 7.97213
3.08041 1.31825 7.99772
3.05901 1.33966 7.99774
2.95319 1.44547 7.99781
2.97428 1.42438 7.99779
2.96373 1.43493 8.02343
2.90067 1.49799 7.76874
2.87971 1.51895 7.76874
2.89018 1.50848 7.74344
2.84833 1.55033 7.74344
2.83789 1.56077 7.76875
2.82746 1.5712 7.74344
2.85878 1.53988 7.76875
2.83789 1.56077 7.76875
2.84833 1.55033 7.74344
2.83788 1.56078 7.66765
2.85877 1.53989 7.66765
2.84833 1.55034 7.69289
2.84833 1.55034 7.69289
2.82745 1.57121 7.69289
2.83788 1.56078 7.66765
2.83788 1.56078 7.66765
2.82745 1.57121 7.69289
2.81702 1.58164 7.66764
2.84833 1.55034 7.69289
2.85877 1.53989 7.66765
2.86924 1.52943 7.6929
2.87968 1.51898 7.61723
2.89017 1.50849 7.64244
2.86922 1.52944 7.64243
2.86922 1.52944 7.64243
2.85875 1.53991 7.61723
2.87968 1.51898 7.61723
2.72357 1.6751 7.79409
2.73392 1.66474 7.76875
2.74429 1.65437 7.79409
2.73392 1.66474 7.76875
2.75466 1.644 7.76875
2.74429 1.65437 7.79409
2.83789 1.56077 7.71816
2.82745 1.57121 7.69289
2.84833 1.55034 7.69289
2.83789 1.56077 7.71816
2.84833 1.55033 7.74344
2.82746 1.5712 7.74344
2.82746 1.5712 7.74344
2.80662 1.59204 7.74344
2.81703 1.58163 7.71815
2.81703 1.58163 7.71815
2.83789 1.56077 7.71816
2.82746 1.5712 7.74344
2.82745 1.57121 7.69289
2.83789 1.56077 7.71816
2.81703 1.58163 7.71815
2.81702 1.58164 7.66764
2.7962 1.60246 7.66764
2.8066 1.59206 7.64241
2.79618 1.60248 7.61719
2.81701 1.58166 7.61721
2.8066 1.59206 7.64241
2.42419 1.97447 7.76868
2.41386 1.9848 7.79401
2.40353 1.99513 7.76867
2.40353 1.99513 7.76867
2.41385 1.98481 7.74336
2.42419 1.97447 7.76868
2.20539 2.19327 7.38987
2.19928 2.19938 7.41509
2.19928 2.19938 7.36442
2.19928 2.19938 7.315
2.20626 2.1924 7.3397
2.19928 2.19938 7.36442
2.21797 2.1807 7.4657
2.19928 2.19938 7.46567
2.20528 2.19338 7.44042
2.19928 2.19938 7.46567
2.19928 2.19938 7.41509
2.20528 2.19338 7.44042
3.11025 1.28841 7.315
3.10314 1.29552 7.34075
3.0911 1.30756 7.315
2.19928 2.19938 7.56657
2.19928 2.19938 7.51614
2.20536 2.19331 7.54136
2.20536 2.19331 7.54136
2.21801 2.18065 7.56656
2.19928 2.19938 7.56657
2.21799 2.18067 7.51613
2.20536 2.19331 7.54136
2.19928 2.19938 7.51614
2.21799 2.18067 7.51613
2.22698 2.17168 7.49094
2.23811 2.16055 7.51616
2.22702 2.17165 7.54135
2.24806 2.1506 7.54137
2.23814 2.16052 7.56657
2.23814 2.16052 7.56657
2.21801 2.18065 7.56656
2.22702 2.17165 7.54135
2.23811 2.16055 7.51616
2.24806 2.1506 7.54137
2.22702 2.17165 7.54135
2.22702 2.17165 7.54135
2.21799 2.18067 7.51613
2.23811 2.16055 7.51616
2.21801 2.18065 7.56656
2.20536 2.19331 7.54136
2.22702 2.17165 7.54135
2.20536 2.19331 7.54136
2.21799 2.18067 7.51613
2.22702 2.17165 7.54135
2.20532 2.19334 7.49091
2.19928 2.19938 7.51614
2.19928 2.19938 7.46567
2.20532 2.19334 7.49091
2.19928 2.19938 7.46567
2.21797 2.1807 7.4657
2.21797 2.1807 7.4657
2.22698 2.17168 7.49094
2.20532 2.19334 7.49091
2.20532 2.19334 7.49091
2.21799 2.18067 7.51613
2.19928 2.19938 7.51614
2.22698 2.17168 7.49094
2.21799 2.18067 7.51613
2.20532 2.19334 7.49091
2.24814 2.15052 7.74329
2.2382 2.16046 7.7686
2.2271 2.17156 7.74329
2.2382 2.16046 7.7686
2.21805 2.18061 7.7686
2.2271 2.17156 7.74329
2.2271 2.17156 7.74329
2.23819 2.16048 7.718
2.24814 2.15052 7.74329
2.24809 2.15058 7.59179
2.23814 2.16052 7.56657
2.25868 2.13998 7.56659
2.22704 2.17162 7.59178
2.23814 2.16052 7.56657
2.24809 2.15058 7.59179
2.26891 2.12975 7.5918
2.24809 2.15058 7.59179
2.25868 2.13998 7.56659
2.2587 2.13996 7.61701
2.24809 2.15058 7.59179
2.26891 2.12975 7.5918
2.2587 2.13996 7.61701
2.26891 2.12975 7.5918
2.27936 2.1193 7.61702
2.41384 1.98482 7.6928
2.42418 1.97448 7.71807
2.40352 1.99515 7.71807
2.40352 1.99515 7.71807
2.42418 1.97448 7.71807
2.41385 1.98481 7.74336
2.33114 2.06753 7.74332
2.35183 2.04683 7.74333
2.34149 2.05717 7.76863
2.34148 2.05718 7.71804
2.35183 2.04683 7.74333
2.33114 2.06753 7.74332
2.35182 2.04684 7.69277
2.34147 2.05719 7.66752
2.36216 2.03651 7.66753
2.34148 2.05718 7.71804
2.33112 2.06754 7.69276
2.35182 2.04684 7.69277
2.35182 2.04684 7.69277
2.33112 2.06754 7.69276
2.34147 2.05719 7.66752
2.35184 2.04682 7.79398
2.37253 2.02613 7.79399
2.3622 2.03646 7.81934
2.31047 2.08819 7.8447
2.32082 2.07785 7.81932
2.33117 2.06749 7.84471
2.3208 2.07786 7.76862
2.33114 2.06753 7.74332
2.34149 2.05717 7.76863
2.31043 2.08823 7.74331
2.33114 2.06753 7.74332
2.3208 2.07786 7.76862
2.23821 2.16045 7.81929
2.24816 2.15051 7.79393
2.25876 2.1399 7.81929
2.24814 2.15052 7.74329
2.23819 2.16048 7.718
2.25873 2.13993 7.718
2.25873 2.13993 7.718
2.26896 2.1297 7.74329
2.24814 2.15052 7.74329
2.30008 2.09858 7.71801
2.31043 2.08823 7.74331
2.28971 2.10895 7.7433
2.25874 2.13992 7.7686
2.24816 2.15051 7.79393
2.2382 2.16046 7.7686
2.25874 2.13992 7.7686
[...]
<PointData Scalars="View Factor" >
<DataArray type="Float64" Name="View Factor" NumberOfComponents="1" format="ascii">
0.0945753
0.0945753
0.0945753
0.186253
0.186253
0.186253
0.182384
0.182384
0.182384
0.279989
0.279989
0.279989
0.283197
0.283197
0.283197
0.178721
0.178721
0.178721
0.0272062
0.0272062
0.0272062
0.131124
0.131124
0.131124
0.113727
0.113727
0.113727
0.133882
0.133882
0.133882
0.137003
0.137003
0.137003
0.139567
0.139567
0.139567
0.173032
0.173032
0.173032
0.176622
0.176622
0.176622
0.170881
0.170881
0.170881
0.178107
0.178107
0.178107
0.155078
0.155078
0.155078
0.156024
0.156024
0.156024
0.158046
0.158046
0.158046
0.171584
0.171584
0.171584
0.175315
0.175315
0.175315
0.111069
0.111069
0.111069
0.189889
0.189889
0.189889
0.0096999
0.0096999
0.0096999
0.0203105
0.0203105
0.0203105
0.0291492
0.0291492
0.0291492
0.0365277
0.0365277
0.0365277
0.0291115
0.0291115
0.0291115
0.0344982
0.0344982
0.0344982
0.0459875
0.0459875
0.0459875
0.0560193
0.0560193
0.0560193
0.0514891
0.0514891
0.0514891
0.05458
0.05458
0.05458
0.0524575
0.0524575
0.0524575
0.0472438
0.0472438
0.0472438
0.0525605
0.0525605
0.0525605
0.0314432
0.0314432
0.0314432
0.0356597
0.0356597
0.0356597
0.049873
0.049873
0.049873
0.0483449
0.0483449
0.0483449
8.12794e-05
8.12794e-05
8.12794e-05
0.000115735
0.000115735
0.000115735
0.000127404
0.000127404
0.000127404
0.00838245
0.00838245
0.00838245
0.120992
0.120992
0.120992
0.128747
0.128747
0.128747
0.14131
0.14131
0.14131
0.15281
0.15281
0.15281
0.151646
0.151646
0.151646
0.157199
0.157199
0.157199
0.161338
0.161338
0.161338
0.164923
0.164923
0.164923
0.168106
0.168106
0.168106
0.111698
0.111698
0.111698
0.123192
0.123192
0.123192
0.125781
0.125781
0.125781
0.111152
0.111152
0.111152
0.111461
0.111461
0.111461
0.111461
0.111461
0.111461
0.129276
0.129276
0.129276
0.126599
0.126599
0.126599
0.183991
0.183991
0.183991
0.187769
0.187769
0.187769
0.181817
0.181817
0.181817
0.220124
0.220124
0.220124
0.211537
0.211537
0.211537
0.193734
0.193734
0.193734
0.19551
0.19551
0.19551
0.0703987
0.0703987
0.0703987
0.200017
0.200017
0.200017
0.200264
0.200264
0.200264
0.199099
0.199099
0.199099
0.20733
0.20733
0.20733
0.192658
0.192658
0.192658
0.0903765
0.0903765
0.0903765
0.0108251
0.0108251
0.0108251
0.0266682
0.0266682
0.0266682
0.0251913
0.0251913
0.0251913
0.0104156
0.0104156
0.0104156
5.25567e-06
5.25567e-06
5.25567e-06
0.0407149
0.0407149
0.0407149
0.0671139
0.0671139
0.0671139
0.0534416
0.0534416
0.0534416
9.22479e-05
9.22479e-05
9.22479e-05
8.34445e-05
8.34445e-05
8.34445e-05
0.0105145
0.0105145
0.0105145
0.0107153
0.0107153
0.0107153
3.37697e-05
3.37697e-05
3.37697e-05
2.43155e-05
2.43155e-05
2.43155e-05
2.06655e-05
2.06655e-05
2.06655e-05
2.48802e-06
2.48802e-06
2.48802e-06
0
0
0
7.18402e-05
7.18402e-05
7.18402e-05
5.01116e-05
5.01116e-05
5.01116e-05
0.0169446
0.0169446
0.0169446
0.0163817
0.0163817
0.0163817
0.0224647
0.0224647
0.0224647
0.0190776
0.0190776
0.0190776
0.0922964
0.0922964
0.0922964
0.0240615
0.0240615
0.0240615
0.0280265
0.0280265
0.0280265
0.0260013
0.0260013
0.0260013
0.0327203
0.0327203
0.0327203
0.0323855
0.0323855
0.0323855
0.0355206
0.0355206
0.0355206
0.0315398
0.0315398
0.0315398
0.0336184
0.0336184
0.0336184
0.0323196
0.0323196
0.0323196
0.0312983
0.0312983
0.0312983
0.0213467
0.0213467
0.0213467
0.0232899
0.0232899
0.0232899
0.0283099
0.0283099
0.0283099
0.0250569
0.0250569
0.0250569
0.0292125
0.0292125
0.0292125
0.0454773
0.0454773
0.0454773
0.0507923
0.0507923
0.0507923
0.0441321
0.0441321
0.0441321
0.0298875
0.0298875
0.0298875
0.0341717
0.0341717
0.0341717
0.0262908
0.0262908
0.0262908
0.0269042
0.0269042
0.0269042
0.0211892
0.0211892
0.0211892
1.63798e-05
1.63798e-05
1.63798e-05
2.09452e-05
2.09452e-05
2.09452e-05
4.21742e-05
4.21742e-05
4.21742e-05
2.87413e-05
2.87413e-05
2.87413e-05
4.32385e-06
4.32385e-06
4.32385e-06
1.10201e-05
1.10201e-05
1.10201e-05
4.38261e-06
4.38261e-06
4.38261e-06
0.000115639
0.000115639
0.000115639
0.000200173
0.000200173
0.000200173
5.05243e-05
5.05243e-05
5.05243e-05
4.20947e-05
4.20947e-05
4.20947e-05
0.0432941
0.0432941
0.0432941
0.0376773
0.0376773
0.0376773
0.0325305
0.0325305
0.0325305
2.89721e-05
2.89721e-05
2.89721e-05
0.0409191
0.0409191
0.0409191
0.0397966
0.0397966
0.0397966
0.0333377
0.0333377
0.0333377
0.000543466
0.000543466
0.000543466
0.170282
0.170282
0.170282
0.278403
0.278403
0.278403
7.2007e-05
7.2007e-05
7.2007e-05
8.15945e-05
8.15945e-05
8.15945e-05
0.000171551
0.000171551
0.000171551
0.000127917
0.000127917
0.000127917
0.000128373
0.000128373
0.000128373
0.000115718
0.000115718
0.000115718
0.000171102
0.000171102
0.000171102
0.000201343
0.000201343
0.000201343
0.000297008
0.000297008
0.000297008
0.000259421
0.000259421
0.000259421
0.000260636
0.000260636
0.000260636
0.000200217
0.000200217
0.000200217
0.00053611
0.00053611
0.00053611
0.000764118
0.000764118
0.000764118
0.000853395
0.000853395
0.000853395
0.00122445
0.00122445
0.00122445
0.0011127
0.0011127
0.0011127
0.000258635
0.000258635
0.000258635
0.000170578
0.000170578
0.000170578
0.000200984
0.000200984
0.000200984
0.00823828
0.00823828
0.00823828
0.00956819
0.00956819
0.00956819
0.00968551
0.00968551
0.00968551
0.00836053
0.00836053
0.00836053
0.00635443
0.00635443
0.00635443
0.00553087
0.00553087
0.00553087
0.00255358
0.00255358
0.00255358
0.00646539
0.00646539
0.00646539
0.255041
0.255041
0.255041
0.257854
0.257854
0.257854
0.242991
0.242991
0.242991
0.23114
0.23114
0.23114
0.261861
0.261861
0.261861
0.26345
0.26345
0.26345
0.263714
0.263714
0.263714
0.259508
0.259508
0.259508
0.265261
0.265261
0.265261
0.265236
0.265236
0.265236
0.247206
0.247206
0.247206
0.23233
0.23233
0.23233
0.260868
0.260868
0.260868
0.256444
0.256444
0.256444
0.244159
0.244159
0.244159
0.233278
0.233278
0.233278
0.235133
0.235133
0.235133
0.300888
0.300888
0.300888
0.253584
0.253584
0.253584
0.17922
0.17922
0.17922
0.207946
0.207946
0.207946
0.199507
0.199507
0.199507
0.170077
0.170077
0.170077
0.175924
0.175924
0.175924
0.17229
0.17229
0.17229
0.171167
0.171167
0.171167
0.0761243
0.0761243
0.0761243
0.0775883
0.0775883
0.0775883
0.083048
0.083048
0.083048
0.147187
0.147187
0.147187
0.143521
0.143521
0.143521
0.148536
0.148536
0.148536
0.146566
0.146566
0.146566
0.145776
0.145776
0.145776
0.142498
0.142498
0.142498
0.143536
0.143536
0.143536
0.164026
0.164026
0.164026
0.166521
0.166521
0.166521
0.167364
0.167364
0.167364
0.160524
0.160524
0.160524
0.165216
0.165216
0.165216
0.161779
0.161779
0.161779
0.166041
0.166041
0.166041
0.162639
0.162639
0.162639
0.118181
0.118181
0.118181
0.115755
0.115755
0.115755
0.114046
0.114046
0.114046
0.108805
0.108805
0.108805
0.108765
0.108765
0.108765
0.108952
0.108952
0.108952
0.124712
0.124712
0.124712
0.120949
0.120949
0.120949
0.125475
0.125475
0.125475
0.123556
0.123556
0.123556
0.189427
0.189427
0.189427
0.193327
0.193327
0.193327
0.195077
0.195077
0.195077
0.224502
0.224502
0.224502
0.241566
0.241566
0.241566
0.273496
0.273496
0.273496
0.0127828
0.0127828
0.0127828
0.00649799
0.00649799
0.00649799
0.00839419
0.00839419
0.00839419
0.204474
0.204474
0.204474
0.213843
0.213843
0.213843
0.221604
0.221604
0.221604
0.217104
0.217104
0.217104
0.128141
0.128141
0.128141
0.14294
0.14294
0.14294
0.134866
0.134866
0.134866
0.137527
0.137527
0.137527
0.153808
0.153808
0.153808
0.147444
0.147444
0.147444
0.143986
0.143986
0.143986
0.201313
0.201313
0.201313
0.205395
0.205395
0.205395
0.199471
0.199471
0.199471
0.217886
0.217886
0.217886
0.21967
0.21967
0.21967
0.213554
0.213554
0.213554
0.210918
0.210918
0.210918
0.216286
0.216286
0.216286
0.211895
0.211895
0.211895
0.125359
0.125359
0.125359
0.126059
0.126059
0.126059
0.128875
0.128875
0.128875
0.086985
0.086985
0.086985
6.14428e-05
6.14428e-05
6.14428e-05
5.27404e-05
5.27404e-05
5.27404e-05
0.0269834
0.0269834
0.0269834
0.000198498
0.000198498
0.000198498
0.000236535
0.000236535
0.000236535
9.62168e-05
9.62168e-05
9.62168e-05
8.69123e-05
8.69123e-05
8.69123e-05
6.07114e-05
6.07114e-05
6.07114e-05
5.20807e-05
5.20807e-05
5.20807e-05
8.58311e-05
8.58311e-05
8.58311e-05
5.99302e-05
5.99302e-05
5.99302e-05
0.000140641
0.000140641
0.000140641
0.000157779
0.000157779
0.000157779
0.000203373
0.000203373
0.000203373
0.00023937
0.00023937
0.00023937
0.000201022
0.000201022
0.000201022
0.000155908
0.000155908
0.000155908
0.0429888
0.0429888
0.0429888
0.0606197
0.0606197
0.0606197
0.0759218
0.0759218
0.0759218
0.0745933
0.0745933
0.0745933
0.000971034
0.000971034
0.000971034
0.000304306
0.000304306
0.000304306
0.000880567
0.000880567
0.000880567
2.52177e-06
2.52177e-06
2.52177e-06
0
0
0
0
0
0
0
0
0
0.0243536
0.0243536
0.0243536
0.0101412
0.0101412
0.0101412
0.0102307
0.0102307
0.0102307
0.0249095
0.0249095
0.0249095
0.0396276
0.0396276
0.0396276
0.039094
0.039094
0.039094
0.0720133
0.0720133
0.0720133
0.0853477
0.0853477
0.0853477
4.42248e-05
4.42248e-05
4.42248e-05
2.82521e-05
2.82521e-05
2.82521e-05
0.000210416
0.000210416
0.000210416
0.000175602
0.000175602
0.000175602
4.52642e-05
4.52642e-05
4.52642e-05
5.18794e-05
5.18794e-05
5.18794e-05
0.000312492
0.000312492
0.000312492
0.000268105
0.000268105
0.000268105
0.000306048
0.000306048
0.000306048
0.000395694
0.000395694
0.000395694
0.000450634
0.000450634
0.000450634
0.000387541
0.000387541
0.000387541
5.8216e-05
5.8216e-05
5.8216e-05
2.30002e-05
2.30002e-05
2.30002e-05
3.18798e-05
3.18798e-05
3.18798e-05
4.98444e-05
4.98444e-05
4.98444e-05
0.000151744
0.000151744
0.000151744
0.000135018
0.000135018
0.000135018
2.26223e-05
2.26223e-05
2.26223e-05
8.2137e-05
8.2137e-05
8.2137e-05
5.72846e-05
5.72846e-05
5.72846e-05
1.95309e-05
1.95309e-05
1.95309e-05
0
0
0
0
0
0
0
0
0
2.40164e-05
2.40164e-05
2.40164e-05
3.33383e-05
3.33383e-05
3.33383e-05
2.01306e-05
2.01306e-05
2.01306e-05
2.3697e-05
2.3697e-05
2.3697e-05
0
0
0
2.05533e-06
2.05533e-06
2.05533e-06
4.30986e-06
4.30986e-06
4.30986e-06
4.36952e-06
4.36952e-06
4.36952e-06
0
0
0
0
0
0
0
0
0
0.0203819
0.0203819
0.0203819
0.0251153
0.0251153
0.0251153
0.0199912
0.0199912
0.0199912
4.31928e-06
4.31928e-06
4.31928e-06
1.10645e-05
1.10645e-05
1.10645e-05
4.31475e-05
4.31475e-05
4.31475e-05
5.06567e-05
5.06567e-05
5.06567e-05
7.27805e-05
7.27805e-05
7.27805e-05
8.01195e-05
8.01195e-05
8.01195e-05
0.000132768
0.000132768
0.000132768
0.000117551
0.000117551
0.000117551
0.0868254
0.0868254
0.0868254
0.0927639
0.0927639
0.0927639
0.0912326
0.0912326
0.0912326
0.0799881
0.0799881
0.0799881
0.0915766
0.0915766
0.0915766
0.0896838
0.0896838
0.0896838
0.0969167
0.0969167
0.0969167
0.0927982
0.0927982
0.0927982
0.0528881
0.0528881
0.0528881
0.0537816
0.0537816
0.0537816
0.0401237
0.0401237
0.0401237
0.0452818
0.0452818
0.0452818
0.0488086
0.0488086
0.0488086
0.0351292
0.0351292
0.0351292
0.036837
0.036837
0.036837
0.0434902
0.0434902
0.0434902
0.0422959
0.0422959
0.0422959
0.0326943
0.0326943
0.0326943
0.0308627
0.0308627
0.0308627
0.0353886
0.0353886
0.0353886
0.0381391
0.0381391
0.0381391
0.0394624
0.0394624
0.0394624
0.0422085
0.0422085
0.0422085
0.0381676
0.0381676
0.0381676
0.0281851
0.0281851
0.0281851
0.0216061
0.0216061
0.0216061
0.0386645
0.0386645
0.0386645
0.0351154
0.0351154
0.0351154
0.039798
0.039798
0.039798
0.0371114
0.0371114
0.0371114
0.0314396
0.0314396
0.0314396
0.0322551
0.0322551
0.0322551
0.0404091
0.0404091
0.0404091
0.0416013
0.0416013
0.0416013
0.0366782
0.0366782
0.0366782
0.03099
0.03099
0.03099
1.6374e-05
1.6374e-05
1.6374e-05
1.10521e-05
1.10521e-05
1.10521e-05
4.35449e-06
4.35449e-06
4.35449e-06
1.1061e-05
1.1061e-05
1.1061e-05
4.22968e-05
4.22968e-05
4.22968e-05
2.8302e-05
2.8302e-05
2.8302e-05
5.0248e-05
5.0248e-05
5.0248e-05
2.11682e-05
2.11682e-05
2.11682e-05
2.84612e-05
2.84612e-05
2.84612e-05
4.22746e-05
4.22746e-05
4.22746e-05
2.88623e-05
2.88623e-05
2.88623e-05
1.09974e-05
1.09974e-05
1.09974e-05
2.17875e-05
2.17875e-05
2.17875e-05
1.63131e-05
1.63131e-05
1.63131e-05
2.19759e-05
2.19759e-05
2.19759e-05
1.62778e-05
1.62778e-05
1.62778e-05
8.21164e-05
8.21164e-05
8.21164e-05
7.23095e-05
7.23095e-05
7.23095e-05
0.00012877
0.00012877
0.00012877
0.000172215
0.000172215
0.000172215
0.000129107
0.000129107
0.000129107
0.000115506
0.000115506
0.000115506
0.000200243
0.000200243
0.000200243
0.000171925
0.000171925
0.000171925
0.000435105
0.000435105
0.000435105
0.00038019
0.00038019
0.00038019
0.000298207
0.000298207
0.000298207
0.000261061
0.000261061
0.000261061
0.000298322
0.000298322
0.000298322
0.000435148
0.000435148
0.000435148
0.000380582
0.000380582
0.000380582
0.000172425
0.000172425
0.000172425
0.0238445
0.0238445
0.0238445
0.00631116
0.00631116
0.00631116
0.0243236
0.0243236
0.0243236
0.0160107
0.0160107
0.0160107
0.0356982
0.0356982
0.0356982
0.0348759
0.0348759
0.0348759
0.0167853
0.0167853
0.0167853
0.0258521
0.0258521
0.0258521
0.016261
0.016261
0.016261
0.0253275
0.0253275
0.0253275
0.000544481
0.000544481
0.000544481
0.00734138
0.00734138
0.00734138
0.000618663
0.000618663
0.000618663
0.0186305
0.0186305
0.0186305
0.0307893
0.0307893
0.0307893
0.00756047
0.00756047
0.00756047
0.000616635
0.000616635
0.000616635
0.000617748
0.000617748
0.000617748
0.000780791
0.000780791
0.000780791
0.000876922
0.000876922
0.000876922
0.000779429
0.000779429
0.000779429
0.27553
0.27553
0.27553
0.270875
0.270875
0.270875
0.273559
0.273559
0.273559
0.112256
0.112256
0.112256
0.12154
0.12154
0.12154
0.118414
0.118414
0.118414
0.15746
0.15746
0.15746
0.134537
0.134537
0.134537
0.146119
0.146119
0.146119
0.140493
0.140493
0.140493
0.128699
0.128699
0.128699
0.132231
0.132231
0.132231
0.113687
0.113687
0.113687
0.120079
0.120079
0.120079
8.18729e-05
8.18729e-05
8.18729e-05
7.21399e-05
7.21399e-05
7.21399e-05
5.03606e-05
5.03606e-05
5.03606e-05
4.22336e-05
4.22336e-05
4.22336e-05
5.04546e-05
5.04546e-05
5.04546e-05
7.224e-05
7.224e-05
7.224e-05
0.000297551
0.000297551
0.000297551
0.000297951
0.000297951
0.000297951
0.000260088
0.000260088
0.000260088
0.00037882
0.00037882
0.00037882
0.000600768
0.000600768
0.000600768
0.000366508
0.000366508
0.000366508
0.000420672
0.000420672
0.000420672
0.000430298
0.000430298
0.000430298
0.000767884
0.000767884
0.000767884
0.000607142
0.000607142
0.000607142
0.000609932
0.000609932
0.000609932
0.000533329
0.000533329
0.000533329
0.000296315
0.000296315
0.000296315
0.000376751
0.000376751
0.000376751
0.000375465
0.000375465
0.000375465
0.000431619
0.000431619
0.000431619
0.000200525
0.000200525
0.000200525
0.000257724
0.000257724
0.000257724
0.000256703
0.000256703
0.000256703
0.000295481
0.000295481
0.000295481
0.0147259
0.0147259
0.0147259
0.0199896
0.0199896
0.0199896
0.0148007
0.0148007
0.0148007
0.0126501
0.0126501
0.0126501
0.00829386
0.00829386
0.00829386
0.00640006
0.00640006
0.00640006
0.0126951
0.0126951
0.0126951
0.00962037
0.00962037
0.00962037
0.00965915
0.00965915
0.00965915
0.00832796
0.00832796
0.00832796
0.0019912
0.0019912
0.0019912
0.00293235
0.00293235
0.00293235
0.00368348
0.00368348
0.00368348
0.00290523
0.00290523
0.00290523
0.00252938
0.00252938
0.00252938
0.00365144
0.00365144
0.00365144
0.0044633
0.0044633
0.0044633
0.00180311
0.00180311
0.00180311
0.00201098
0.00201098
0.00201098
0.00139253
0.00139253
0.00139253
0.00126888
0.00126888
0.00126888
0.00449727
0.00449727
0.00449727
0.00560188
0.00560188
0.00560188
0.00643681
0.00643681
0.00643681
0.00556996
0.00556996
0.00556996
0.0029557
0.0029557
0.0029557
0.00371074
0.00371074
0.00371074
0.00452543
0.00452543
0.00452543
0.00648554
0.00648554
0.00648554
0.0056264
0.0056264
0.0056264
0.00564399
0.00564399
0.00564399
0.00456472
0.00456472
0.00456472
0.000483462
0.000483462
0.000483462
0.000591405
0.000591405
0.000591405
0.001255
0.001255
0.001255
0.000870729
0.000870729
0.000870729
0.000691195
0.000691195
0.000691195
0.000859918
0.000859918
0.000859918
0.000959645
0.000959645
0.000959645
0.000599717
0.000599717
0.000599717
0.000682177
0.000682177
0.000682177
0.00265983
0.00265983
0.00265983
0.00226813
0.00226813
0.00226813
0.0510191
0.0510191
0.0510191
0.248883
0.248883
0.248883
0.261338
0.261338
0.261338
0.216107
0.216107
0.216107
0.244307
0.244307
0.244307
0.0200799
0.0200799
0.0200799
0.0233252
0.0233252
0.0233252
0.00125891
0.00125891
0.00125891
0.00112965
0.00112965
0.00112965
0.250783
0.250783
0.250783
0.0350075
0.0350075
0.0350075
0.00159691
0.00159691
0.00159691
0.0183691
0.0183691
0.0183691
0.0588909
0.0588909
0.0588909
0.000903059
0.000903059
0.000903059
0.00243721
0.00243721
0.00243721
0.00909688
0.00909688
0.00909688
0.00789512
0.00789512
0.00789512
0.00521698
0.00521698
0.00521698
0.00608
0.00608
0.00608
0.0357694
0.0357694
0.0357694
0.163812
0.163812
0.163812
0.21877
0.21877
0.21877
0.217581
0.217581
0.217581
0.245914
0.245914
0.245914
0.0193262
0.0193262
0.0193262
0.0120511
0.0120511
0.0120511
0.0142034
0.0142034
0.0142034
0.0310303
0.0310303
0.0310303
0.0362544
0.0362544
0.0362544
0.0306387
0.0306387
0.0306387
0.0223923
0.0223923
0.0223923
0.00950272
0.00950272
0.00950272
0.0125691
0.0125691
0.0125691
0.235213
0.235213
0.235213
0.246806
0.246806
0.246806
0.257578
0.257578
0.257578
0.234009
0.234009
0.234009
0.24508
0.24508
0.24508
0.234917
0.234917
0.234917
0.246617
0.246617
0.246617
0.259633
0.259633
0.259633
0.2635
0.2635
0.2635
0.254886
0.254886
0.254886
0.241594
0.241594
0.241594
0.283223
0.283223
0.283223
0.296217
0.296217
0.296217
0.296999
0.296999
0.296999
0.197937
0.197937
0.197937
0.210322
0.210322
0.210322
0.223855
0.223855
0.223855
0.208257
0.208257
0.208257
0.177231
0.177231
0.177231
0.166868
0.166868
0.166868
0.261477
0.261477
0.261477
0.236668
0.236668
0.236668
0.303288
0.303288
0.303288
0.301547
0.301547
0.301547
0.299704
0.299704
0.299704
0.301513
0.301513
0.301513
0.298108
0.298108
0.298108
0.177389
0.177389
0.177389
0.174833
0.174833
0.174833
0.164668
0.164668
0.164668
0.168325
0.168325
0.168325
0.15049
0.15049
0.15049
0.147607
0.147607
0.147607
0.154266
0.154266
0.154266
0.154127
0.154127
0.154127
0.157568
0.157568
0.157568
0.157622
0.157622
0.157622
0.150914
0.150914
0.150914
0.144257
0.144257
0.144257
0.147476
0.147476
0.147476
0.144435
0.144435
0.144435
0.147656
0.147656
0.147656
0.150909
0.150909
0.150909
0.140803
0.140803
0.140803
0.140361
0.140361
0.140361
0.13804
0.13804
0.13804
0.137729
0.137729
0.137729
0.134263
0.134263
0.134263
0.129003
0.129003
0.129003
0.134492
0.134492
0.134492
0.136694
0.136694
0.136694
0.133688
0.133688
0.133688
0.147605
0.147605
0.147605
0.15074
0.15074
0.15074
0.129228
0.129228
0.129228
0.135033
0.135033
0.135033
0.141521
0.141521
0.141521
0.144448
0.144448
0.144448
0.141363
0.141363
0.141363
0.100731
0.100731
0.100731
0.10716
0.10716
0.10716
0.104966
0.104966
0.104966
0.102315
0.102315
0.102315
0.104429
0.104429
0.104429
0.106944
0.106944
0.106944
0.100598
0.100598
0.100598
0.109104
0.109104
0.109104
0.10455
0.10455
0.10455
0.100141
0.100141
0.100141
0.102351
0.102351
0.102351
0.113464
0.113464
0.113464
0.115904
0.115904
0.115904
0.112878
0.112878
0.112878
0.114653
0.114653
0.114653
0.122114
0.122114
0.122114
0.121413
0.121413
0.121413
0.118903
0.118903
0.118903
0.117085
0.117085
0.117085
0.120269
0.120269
0.120269
0.117751
0.117751
0.117751
0.121492
0.121492
0.121492
0.124067
0.124067
0.124067
0.113765
0.113765
0.113765
0.116254
0.116254
0.116254
0.113886
0.113886
0.113886
0.1189
0.1189
0.1189
0.116335
0.116335
0.116335
0.118856
0.118856
0.118856
0.225266
0.225266
0.225266
0.22411
0.22411
0.22411
0.226719
0.226719
0.226719
0.245244
0.245244
0.245244
0.217999
0.217999
0.217999
0.213741
0.213741
0.213741
0.275692
0.275692
0.275692
0.277172
0.277172
0.277172
0.269319
0.269319
0.269319
0.27717
0.27717
0.27717
0.0148552
0.0148552
0.0148552
0.0127406
0.0127406
0.0127406
0.0127697
0.0127697
0.0127697
0.0149063
0.0149063
0.0149063
0.01489
0.01489
0.01489
0.0202043
0.0202043
0.0202043
0.0234805
0.0234805
0.0234805
0.0201922
0.0201922
0.0201922
0.0234752
0.0234752
0.0234752
0.0446274
0.0446274
0.0446274
0.261233
0.261233
0.261233
0.242346
0.242346
0.242346
0.0223004
0.0223004
0.0223004
0.0406708
0.0406708
0.0406708
0.0803097
0.0803097
0.0803097
0.140134
0.140134
0.140134
0.132063
0.132063
0.132063
0.103114
0.103114
0.103114
0.089271