<VTKFile type="UnstructuredGrid" version="1.0">
<UnstructuredGrid>
<Piece NumberOfPoints="10830" NumberOfCells="3610">
<Points>
<DataArray type="Float64" NumberOfComponents="3" format="ascii">
3.10314 1.29552 1.07075
3.11025 1.28841 1.045
3.11025 1.28841 1.09646
3.11025 1.28841 1.60008
3.11025 1.28841 1.651
3.10226 1.2964 1.62553
3.11025 1.28841 1.60008
3.10226 1.2964 1.62553
3.09025 1.30841 1.6001
2.21656 2.1821 2.07259
2.22913 2.16953 2.09
2.19928 2.19938 2.09
2.19928 2.19938 2.09
2.19928 2.19938 2.05984
2.21656 2.1821 2.07259
3.11025 1.28841 1.60008
3.09025 1.30841 1.6001
3.10227 1.29639 1.57468
2.20538 2.19328 1.32179
2.19928 2.19938 1.34701
2.19928 2.19938 1.29657
3.10229 1.29637 1.3219
3.11025 1.28841 1.34709
3.09026 1.3084 1.34711
3.10214 1.29652 1.22134
3.11025 1.28841 1.19628
3.11025 1.28841 1.24639
3.09026 1.3084 1.34711
3.11025 1.28841 1.34709
3.1023 1.29636 1.37231
3.11025 1.28841 1.34709
3.11025 1.28841 1.39754
3.1023 1.29636 1.37231
3.09026 1.3084 1.39755
3.1023 1.29636 1.37231
3.11025 1.28841 1.39754
3.09025 1.30841 1.54931
3.10227 1.29639 1.57468
3.08043 1.31823 1.5747
3.08043 1.31823 1.5747
3.10227 1.29639 1.57468
3.09025 1.30841 1.6001
3.08043 1.31823 1.5747
3.06939 1.32927 1.54932
3.09025 1.30841 1.54931
3.08043 1.31823 1.5747
3.09025 1.30841 1.6001
3.06938 1.32928 1.60012
3.11025 1.28841 1.44804
3.11025 1.28841 1.49862
3.10229 1.29637 1.47333
3.10229 1.29637 1.47333
3.09026 1.3084 1.49863
3.08044 1.31822 1.47334
3.11025 1.28841 1.49862
3.09026 1.3084 1.49863
3.10229 1.29637 1.47333
3.11025 1.28841 1.54929
3.10227 1.29639 1.57468
3.09025 1.30841 1.54931
3.11025 1.28841 1.60008
3.10227 1.29639 1.57468
3.11025 1.28841 1.54929
3.0901 1.30856 1.19632
3.11025 1.28841 1.19628
3.10214 1.29652 1.22134
3.09024 1.30842 1.65102
3.10226 1.2964 1.62553
3.11025 1.28841 1.651
2.80657 1.59209 1.83075
2.81699 1.58167 1.80498
2.8274 1.57126 1.83072
2.19928 2.19938 1.045
2.21889 2.17977 1.045
2.20626 2.1924 1.06971
2.25868 2.13998 1.29659
2.23814 2.16052 1.29657
2.24806 2.1506 1.27137
2.21801 2.18065 1.29656
2.23814 2.16052 1.29657
2.22704 2.17162 1.32178
2.21801 2.18065 1.29656
2.20538 2.19328 1.32179
2.19928 2.19938 1.29657
2.22704 2.17162 1.32178
2.20538 2.19328 1.32179
2.21801 2.18065 1.29656
2.20547 2.19319 1.52394
2.19928 2.19938 1.5493
2.19928 2.19938 1.49861
2.21807 2.1806 1.5493
2.22712 2.17155 1.52393
2.23821 2.16045 1.54929
2.19928 2.19938 1.5493
2.20547 2.19319 1.52394
2.21807 2.1806 1.5493
2.21807 2.1806 1.5493
2.20547 2.19319 1.52394
2.22712 2.17155 1.52393
2.21805 2.18061 1.4986
2.2382 2.16046 1.4986
2.22712 2.17155 1.52393
2.21805 2.18061 1.4986
2.20547 2.19319 1.52394
2.19928 2.19938 1.49861
2.22712 2.17155 1.52393
2.20547 2.19319 1.52394
2.21805 2.18061 1.4986
2.19928 2.19938 1.34701
2.20538 2.19328 1.32179
2.21802 2.18064 1.347
2.21802 2.18064 1.347
2.20538 2.19328 1.32179
2.22704 2.17162 1.32178
2.23821 2.16045 1.54929
2.22712 2.17155 1.52393
2.24816 2.15051 1.52393
2.22712 2.17155 1.52393
2.2382 2.16046 1.4986
2.24816 2.15051 1.52393
2.40353 1.99513 1.49867
2.41386 1.9848 1.52401
2.3932 2.00546 1.524
2.3932 2.00546 1.524
2.41386 1.9848 1.52401
2.40354 1.99512 1.54937
2.40354 1.99512 1.54937
2.41386 1.9848 1.52401
2.4242 1.97446 1.54938
2.79618 1.60248 1.805
2.81699 1.58167 1.80498
2.80657 1.59209 1.83075
3.10224 1.29642 1.27156
3.11025 1.28841 1.24639
3.11025 1.28841 1.2967
3.11025 1.28841 1.34709
3.10229 1.29637 1.3219
3.11025 1.28841 1.2967
3.02715 1.37151 1.4481
3.006 1.39266 1.44811
3.01659 1.38207 1.42285
3.09026 1.3084 1.44805
3.10229 1.29637 1.47333
3.08044 1.31822 1.47334
3.11025 1.28841 1.44804
3.10229 1.29637 1.47333
3.09026 1.3084 1.44805
3.08044 1.31822 1.47334
3.09026 1.3084 1.49863
3.0694 1.32926 1.49865
3.10228 1.29638 1.52395
3.09026 1.3084 1.49863
3.11025 1.28841 1.49862
3.11025 1.28841 1.49862
3.11025 1.28841 1.54929
3.10228 1.29638 1.52395
3.10228 1.29638 1.52395
3.11025 1.28841 1.54929
3.09025 1.30841 1.54931
3.08027 1.31839 1.22137
3.0901 1.30856 1.19632
3.10214 1.29652 1.22134
3.10224 1.29642 1.27156
3.11025 1.28841 1.2967
3.09024 1.30842 1.29674
3.09024 1.30842 1.29674
3.11025 1.28841 1.2967
3.10229 1.29637 1.3219
3.0165 1.38216 1.27161
3.00588 1.39278 1.24643
3.02702 1.37164 1.24643
3.04817 1.35049 1.24645
3.03759 1.36107 1.22126
3.05884 1.33982 1.22131
3.04817 1.35049 1.24645
3.02702 1.37164 1.24643
3.03759 1.36107 1.22126
3.08043 1.31823 1.32193
3.10229 1.29637 1.3219
3.09026 1.3084 1.34711
3.08043 1.31823 1.32193
3.09024 1.30842 1.29674
3.10229 1.29637 1.3219
3.08042 1.31824 1.62555
3.09025 1.30841 1.6001
3.10226 1.2964 1.62553
3.10226 1.2964 1.62553
3.09024 1.30842 1.65102
3.08042 1.31824 1.62555
3.06938 1.32928 1.60012
3.09025 1.30841 1.6001
3.08042 1.31824 1.62555
3.08041 1.31825 1.77905
3.05901 1.33965 1.77906
3.06938 1.32928 1.75337
3.05901 1.33966 1.72774
3.08041 1.31825 1.72772
3.06938 1.32928 1.75337
3.10225 1.29641 1.67653
3.09024 1.30842 1.65102
3.11025 1.28841 1.651
3.08041 1.31825 1.67656
3.09024 1.30842 1.65102
3.10225 1.29641 1.67653
2.84822 1.55044 1.88232
2.85863 1.54003 1.90816
2.83776 1.5609 1.9082
2.96373 1.43493 1.75343
2.97428 1.42438 1.72779
2.98483 1.41383 1.75341
2.98483 1.41383 1.75341
2.97428 1.42438 1.72779
2.9954 1.40326 1.72778
3.06938 1.32929 1.70213
3.05901 1.33965 1.67658
3.08041 1.31825 1.67656
3.06938 1.32929 1.70213
3.08041 1.31825 1.72772
3.05901 1.33966 1.72774
2.95319 1.44547 1.72781
2.97428 1.42438 1.72779
2.96373 1.43493 1.75343
2.90067 1.49799 1.49874
2.87971 1.51895 1.49874
2.89018 1.50848 1.47344
2.84833 1.55033 1.47344
2.83789 1.56077 1.49875
2.82746 1.5712 1.47344
2.85878 1.53988 1.49875
2.83789 1.56077 1.49875
2.84833 1.55033 1.47344
2.83788 1.56078 1.39765
2.85877 1.53989 1.39765
2.84833 1.55034 1.42289
2.84833 1.55034 1.42289
2.82745 1.57121 1.42289
2.83788 1.56078 1.39765
2.83788 1.56078 1.39765
2.82745 1.57121 1.42289
2.81702 1.58164 1.39764
2.84833 1.55034 1.42289
2.85877 1.53989 1.39765
2.86924 1.52943 1.4229
2.87968 1.51898 1.34723
2.89017 1.50849 1.37244
2.86922 1.52944 1.37243
2.86922 1.52944 1.37243
2.85875 1.53991 1.34723
2.87968 1.51898 1.34723
2.72357 1.6751 1.52409
2.73392 1.66474 1.49875
2.74429 1.65437 1.52409
2.73392 1.66474 1.49875
2.75466 1.644 1.49875
2.74429 1.65437 1.52409
2.83789 1.56077 1.44816
2.82745 1.57121 1.42289
2.84833 1.55034 1.42289
2.83789 1.56077 1.44816
2.84833 1.55033 1.47344
2.82746 1.5712 1.47344
2.82746 1.5712 1.47344
2.80662 1.59204 1.47344
2.81703 1.58163 1.44815
2.81703 1.58163 1.44815
2.83789 1.56077 1.44816
2.82746 1.5712 1.47344
2.82745 1.57121 1.42289
2.83789 1.56077 1.44816
2.81703 1.58163 1.44815
2.81702 1.58164 1.39764
2.7962 1.60246 1.39764
2.8066 1.59206 1.37241
2.79618 1.60248 1.34719
2.81701 1.58166 1.34721
2.8066 1.59206 1.37241
2.42419 1.97447 1.49868
2.41386 1.9848 1.52401
2.40353 1.99513 1.49867
2.40353 1.99513 1.49867
2.41385 1.98481 1.47336
2.42419 1.97447 1.49868
2.20539 2.19327 1.11987
2.19928 2.19938 1.14509
2.19928 2.19938 1.09442
2.19928 2.19938 1.045
2.20626 2.1924 1.06971
2.19928 2.19938 1.09442
2.21797 2.1807 1.1957
2.19928 2.19938 1.19567
2.20528 2.19338 1.17042
2.19928 2.19938 1.19567
2.19928 2.19938 1.14509
2.20528 2.19338 1.17042
3.11025 1.28841 1.045
3.10314 1.29552 1.07075
3.0911 1.30756 1.045
2.19928 2.19938 1.29657
2.19928 2.19938 1.24614
2.20536 2.19331 1.27136
2.20536 2.19331 1.27136
2.21801 2.18065 1.29656
2.19928 2.19938 1.29657
2.21799 2.18067 1.24613
2.20536 2.19331 1.27136
2.19928 2.19938 1.24614
2.21799 2.18067 1.24613
2.22698 2.17168 1.22094
2.23811 2.16055 1.24616
2.22702 2.17165 1.27135
2.24806 2.1506 1.27137
2.23814 2.16052 1.29657
2.23814 2.16052 1.29657
2.21801 2.18065 1.29656
2.22702 2.17165 1.27135
2.23811 2.16055 1.24616
2.24806 2.1506 1.27137
2.22702 2.17165 1.27135
2.22702 2.17165 1.27135
2.21799 2.18067 1.24613
2.23811 2.16055 1.24616
2.21801 2.18065 1.29656
2.20536 2.19331 1.27136
2.22702 2.17165 1.27135
2.20536 2.19331 1.27136
2.21799 2.18067 1.24613
2.22702 2.17165 1.27135
2.20532 2.19334 1.22091
2.19928 2.19938 1.24614
2.19928 2.19938 1.19567
2.20532 2.19334 1.22091
2.19928 2.19938 1.19567
2.21797 2.1807 1.1957
2.21797 2.1807 1.1957
2.22698 2.17168 1.22094
2.20532 2.19334 1.22091
2.20532 2.19334 1.22091
2.21799 2.18067 1.24613
2.19928 2.19938 1.24614
2.22698 2.17168 1.22094
2.21799 2.18067 1.24613
2.20532 2.19334 1.22091
2.24814 2.15052 1.47329
2.2382 2.16046 1.4986
2.2271 2.17156 1.47329
2.2382 2.16046 1.4986
2.21805 2.18061 1.4986
2.2271 2.17156 1.47329
2.2271 2.17156 1.47329
2.23819 2.16048 1.448
2.24814 2.15052 1.47329
2.24809 2.15058 1.32179
2.23814 2.16052 1.29657
2.25868 2.13998 1.29659
2.22704 2.17162 1.32178
2.23814 2.16052 1.29657
2.24809 2.15058 1.32179
2.26891 2.12975 1.3218
2.24809 2.15058 1.32179
2.25868 2.13998 1.29659
2.2587 2.13996 1.34701
2.24809 2.15058 1.32179
2.26891 2.12975 1.3218
2.2587 2.13996 1.34701
2.26891 2.12975 1.3218
2.27936 2.1193 1.34702
2.41384 1.98482 1.4228
2.42418 1.97448 1.44807
2.40352 1.99515 1.44807
2.40352 1.99515 1.44807
2.42418 1.97448 1.44807
2.41385 1.98481 1.47336
2.33114 2.06753 1.47332
2.35183 2.04683 1.47333
2.34149 2.05717 1.49863
2.34148 2.05718 1.44804
2.35183 2.04683 1.47333
2.33114 2.06753 1.47332
2.35182 2.04684 1.42277
2.34147 2.05719 1.39752
2.36216 2.03651 1.39753
2.34148 2.05718 1.44804
2.33112 2.06754 1.42276
2.35182 2.04684 1.42277
2.35182 2.04684 1.42277
2.33112 2.06754 1.42276
2.34147 2.05719 1.39752
2.35184 2.04682 1.52398
2.37253 2.02613 1.52399
2.3622 2.03646 1.54934
2.31047 2.08819 1.5747
2.32082 2.07785 1.54932
2.33117 2.06749 1.57471
2.3208 2.07786 1.49862
2.33114 2.06753 1.47332
2.34149 2.05717 1.49863
2.31043 2.08823 1.47331
2.33114 2.06753 1.47332
2.3208 2.07786 1.49862
2.23821 2.16045 1.54929
2.24816 2.15051 1.52393
2.25876 2.1399 1.54929
2.24814 2.15052 1.47329
2.23819 2.16048 1.448
2.25873 2.13993 1.448
2.25873 2.13993 1.448
2.26896 2.1297 1.47329
2.24814 2.15052 1.47329
2.30008 2.09858 1.44801
2.31043 2.08823 1.47331
2.28971 2.10895 1.4733
2.25874 2.13992 1.4986
2.24816 2.15051 1.52393
2.2382 2.16046 1.4986
2.25874 2.13992 1.4986
[...]
<PointData Scalars="View Factor" >
<DataArray type="Float64" Name="View Factor" NumberOfComponents="1" format="ascii">
5.99337e-05
5.99337e-05
5.99337e-05
5.26751e-05
5.26751e-05
5.26751e-05
5.25689e-05
5.25689e-05
5.25689e-05
6.92251e-06
6.92251e-06
6.92251e-06
5.20958e-06
5.20958e-06
5.20958e-06
5.27773e-05
5.27773e-05
5.27773e-05
5.66813e-06
5.66813e-06
5.66813e-06
5.59482e-05
5.59482e-05
5.59482e-05
5.78332e-05
5.78332e-05
5.78332e-05
5.57264e-05
5.57264e-05
5.57264e-05
5.58377e-05
5.58377e-05
5.58377e-05
5.52958e-05
5.52958e-05
5.52958e-05
5.26158e-05
5.26158e-05
5.26158e-05
5.24137e-05
5.24137e-05
5.24137e-05
5.22015e-05
5.22015e-05
5.22015e-05
5.18003e-05
5.18003e-05
5.18003e-05
5.45486e-05
5.45486e-05
5.45486e-05
5.3649e-05
5.3649e-05
5.3649e-05
5.40197e-05
5.40197e-05
5.40197e-05
5.31836e-05
5.31836e-05
5.31836e-05
5.32919e-05
5.32919e-05
5.32919e-05
5.77162e-05
5.77162e-05
5.77162e-05
5.21646e-05
5.21646e-05
5.21646e-05
1.15245e-05
1.15245e-05
1.15245e-05
9.81338e-06
9.81338e-06
9.81338e-06
2.0124e-05
2.0124e-05
2.0124e-05
2.08985e-05
2.08985e-05
2.08985e-05
5.85899e-06
5.85899e-06
5.85899e-06
9.24973e-06
9.24973e-06
9.24973e-06
5.20353e-06
5.20353e-06
5.20353e-06
1.94121e-05
1.94121e-05
1.94121e-05
6.72957e-06
6.72957e-06
6.72957e-06
9.80099e-06
9.80099e-06
9.80099e-06
1.92857e-05
1.92857e-05
1.92857e-05
5.0966e-06
5.0966e-06
5.0966e-06
8.99123e-06
8.99123e-06
8.99123e-06
5.519e-06
5.519e-06
5.519e-06
9.14702e-06
9.14702e-06
9.14702e-06
1.88658e-05
1.88658e-05
1.88658e-05
1.87875e-05
1.87875e-05
1.87875e-05
4.41018e-06
4.41018e-06
4.41018e-06
4.93254e-06
4.93254e-06
4.93254e-06
5.27828e-06
5.27828e-06
5.27828e-06
1.16871e-05
1.16871e-05
1.16871e-05
5.71607e-05
5.71607e-05
5.71607e-05
5.64951e-05
5.64951e-05
5.64951e-05
5.05723e-05
5.05723e-05
5.05723e-05
5.3856e-05
5.3856e-05
5.3856e-05
5.44392e-05
5.44392e-05
5.44392e-05
5.30208e-05
5.30208e-05
5.30208e-05
5.3808e-05
5.3808e-05
5.3808e-05
5.39163e-05
5.39163e-05
5.39163e-05
5.33931e-05
5.33931e-05
5.33931e-05
5.70963e-05
5.70963e-05
5.70963e-05
5.66039e-05
5.66039e-05
5.66039e-05
5.63813e-05
5.63813e-05
5.63813e-05
5.27828e-05
5.27828e-05
5.27828e-05
5.4707e-05
5.4707e-05
5.4707e-05
5.4064e-05
5.4064e-05
5.4064e-05
5.55624e-05
5.55624e-05
5.55624e-05
5.57796e-05
5.57796e-05
5.57796e-05
5.20065e-05
5.20065e-05
5.20065e-05
5.18051e-05
5.18051e-05
5.18051e-05
5.15979e-05
5.15979e-05
5.15979e-05
4.92625e-05
4.92625e-05
4.92625e-05
4.96472e-05
4.96472e-05
4.96472e-05
5.19586e-05
5.19586e-05
5.19586e-05
5.14037e-05
5.14037e-05
5.14037e-05
2.72058e-05
2.72058e-05
2.72058e-05
4.52524e-05
4.52524e-05
4.52524e-05
4.58176e-05
4.58176e-05
4.58176e-05
5.02278e-05
5.02278e-05
5.02278e-05
4.98418e-05
4.98418e-05
4.98418e-05
4.48634e-05
4.48634e-05
4.48634e-05
4.3942e-05
4.3942e-05
4.3942e-05
2.25598e-05
2.25598e-05
2.25598e-05
3.24585e-05
3.24585e-05
3.24585e-05
3.39461e-05
3.39461e-05
3.39461e-05
2.35636e-05
2.35636e-05
2.35636e-05
6.98264e-06
6.98264e-06
6.98264e-06
3.93302e-05
3.93302e-05
3.93302e-05
4.47249e-05
4.47249e-05
4.47249e-05
4.40501e-05
4.40501e-05
4.40501e-05
5.21324e-06
5.21324e-06
5.21324e-06
5.30064e-06
5.30064e-06
5.30064e-06
2.32969e-05
2.32969e-05
2.32969e-05
2.2787e-05
2.2787e-05
2.2787e-05
6.21482e-06
6.21482e-06
6.21482e-06
6.38442e-06
6.38442e-06
6.38442e-06
6.57515e-06
6.57515e-06
6.57515e-06
7.02989e-06
7.02989e-06
7.02989e-06
7.4634e-06
7.4634e-06
7.4634e-06
4.29655e-06
4.29655e-06
4.29655e-06
4.24612e-06
4.24612e-06
4.24612e-06
8.48072e-06
8.48072e-06
8.48072e-06
9.46263e-06
9.46263e-06
9.46263e-06
7.3659e-06
7.3659e-06
7.3659e-06
7.62303e-06
7.62303e-06
7.62303e-06
5.9836e-05
5.9836e-05
5.9836e-05
6.24032e-06
6.24032e-06
6.24032e-06
6.04371e-06
6.04371e-06
6.04371e-06
6.44219e-06
6.44219e-06
6.44219e-06
2.15433e-05
2.15433e-05
2.15433e-05
2.06807e-05
2.06807e-05
2.06807e-05
2.10517e-05
2.10517e-05
2.10517e-05
2.08442e-05
2.08442e-05
2.08442e-05
2.13749e-05
2.13749e-05
2.13749e-05
9.47093e-06
9.47093e-06
9.47093e-06
9.58409e-06
9.58409e-06
9.58409e-06
6.88618e-06
6.88618e-06
6.88618e-06
7.12086e-06
7.12086e-06
7.12086e-06
9.79513e-06
9.79513e-06
9.79513e-06
6.65408e-06
6.65408e-06
6.65408e-06
9.66753e-06
9.66753e-06
9.66753e-06
1.90118e-05
1.90118e-05
1.90118e-05
1.94053e-05
1.94053e-05
1.94053e-05
1.91307e-05
1.91307e-05
1.91307e-05
1.9969e-05
1.9969e-05
1.9969e-05
2.03619e-05
2.03619e-05
2.03619e-05
1.9421e-05
1.9421e-05
1.9421e-05
1.92684e-05
1.92684e-05
1.92684e-05
1.87231e-05
1.87231e-05
1.87231e-05
4.58125e-06
4.58125e-06
4.58125e-06
4.45004e-06
4.45004e-06
4.45004e-06
4.27658e-06
4.27658e-06
4.27658e-06
4.3838e-06
4.3838e-06
4.3838e-06
4.86411e-06
4.86411e-06
4.86411e-06
4.65317e-06
4.65317e-06
4.65317e-06
4.7901e-06
4.7901e-06
4.7901e-06
5.07472e-06
5.07472e-06
5.07472e-06
7.22323e-06
7.22323e-06
7.22323e-06
4.26953e-06
4.26953e-06
4.26953e-06
4.27704e-06
4.27704e-06
4.27704e-06
1.85032e-05
1.85032e-05
1.85032e-05
1.8712e-05
1.8712e-05
1.8712e-05
1.81804e-05
1.81804e-05
1.81804e-05
4.38441e-06
4.38441e-06
4.38441e-06
1.83454e-05
1.83454e-05
1.83454e-05
1.84662e-05
1.84662e-05
1.84662e-05
1.80633e-05
1.80633e-05
1.80633e-05
1.13648e-05
1.13648e-05
1.13648e-05
6.26491e-06
6.26491e-06
6.26491e-06
6.42655e-06
6.42655e-06
6.42655e-06
4.32523e-06
4.32523e-06
4.32523e-06
4.45381e-06
4.45381e-06
4.45381e-06
6.41619e-06
6.41619e-06
6.41619e-06
5.36044e-06
5.36044e-06
5.36044e-06
5.44296e-06
5.44296e-06
5.44296e-06
5.00296e-06
5.00296e-06
5.00296e-06
6.31454e-06
6.31454e-06
6.31454e-06
6.90951e-06
6.90951e-06
6.90951e-06
8.55661e-06
8.55661e-06
8.55661e-06
8.04517e-06
8.04517e-06
8.04517e-06
8.2607e-06
8.2607e-06
8.2607e-06
7.00874e-06
7.00874e-06
7.00874e-06
1.0855e-05
1.0855e-05
1.0855e-05
1.17201e-05
1.17201e-05
1.17201e-05
1.19904e-05
1.19904e-05
1.19904e-05
1.20463e-05
1.20463e-05
1.20463e-05
1.2115e-05
1.2115e-05
1.2115e-05
7.93685e-06
7.93685e-06
7.93685e-06
6.21277e-06
6.21277e-06
6.21277e-06
6.80325e-06
6.80325e-06
6.80325e-06
1.053e-05
1.053e-05
1.053e-05
1.03971e-05
1.03971e-05
1.03971e-05
1.12422e-05
1.12422e-05
1.12422e-05
1.13969e-05
1.13969e-05
1.13969e-05
1.11335e-05
1.11335e-05
1.11335e-05
1.16146e-05
1.16146e-05
1.16146e-05
1.42316e-05
1.42316e-05
1.42316e-05
1.20508e-05
1.20508e-05
1.20508e-05
4.99314e-06
4.99314e-06
4.99314e-06
5.01693e-06
5.01693e-06
5.01693e-06
4.79492e-06
4.79492e-06
4.79492e-06
4.64141e-06
4.64141e-06
4.64141e-06
5.23883e-06
5.23883e-06
5.23883e-06
5.44523e-06
5.44523e-06
5.44523e-06
5.39631e-06
5.39631e-06
5.39631e-06
5.16741e-06
5.16741e-06
5.16741e-06
5.5536e-06
5.5536e-06
5.5536e-06
5.60672e-06
5.60672e-06
5.60672e-06
5.83989e-06
5.83989e-06
5.83989e-06
4.78065e-06
4.78065e-06
4.78065e-06
5.31825e-06
5.31825e-06
5.31825e-06
5.14056e-06
5.14056e-06
5.14056e-06
4.93642e-06
4.93642e-06
4.93642e-06
4.91942e-06
4.91942e-06
4.91942e-06
5.47676e-06
5.47676e-06
5.47676e-06
4.23337e-05
4.23337e-05
4.23337e-05
3.53377e-05
3.53377e-05
3.53377e-05
4.04945e-05
4.04945e-05
4.04945e-05
4.14804e-05
4.14804e-05
4.14804e-05
4.09426e-05
4.09426e-05
4.09426e-05
5.12074e-05
5.12074e-05
5.12074e-05
5.14139e-05
5.14139e-05
5.14139e-05
5.16104e-05
5.16104e-05
5.16104e-05
5.06146e-05
5.06146e-05
5.06146e-05
4.55047e-05
4.55047e-05
4.55047e-05
4.53267e-05
4.53267e-05
4.53267e-05
4.61155e-05
4.61155e-05
4.61155e-05
4.89755e-05
4.89755e-05
4.89755e-05
4.85646e-05
4.85646e-05
4.85646e-05
5.46537e-05
5.46537e-05
5.46537e-05
5.42788e-05
5.42788e-05
5.42788e-05
5.51889e-05
5.51889e-05
5.51889e-05
5.50786e-05
5.50786e-05
5.50786e-05
5.44885e-05
5.44885e-05
5.44885e-05
5.10084e-05
5.10084e-05
5.10084e-05
5.14084e-05
5.14084e-05
5.14084e-05
5.24063e-05
5.24063e-05
5.24063e-05
5.28133e-05
5.28133e-05
5.28133e-05
5.20164e-05
5.20164e-05
5.20164e-05
5.22171e-05
5.22171e-05
5.22171e-05
5.30254e-05
5.30254e-05
5.30254e-05
5.32316e-05
5.32316e-05
5.32316e-05
5.70458e-05
5.70458e-05
5.70458e-05
5.72698e-05
5.72698e-05
5.72698e-05
5.68731e-05
5.68731e-05
5.68731e-05
5.79388e-05
5.79388e-05
5.79388e-05
5.29921e-05
5.29921e-05
5.29921e-05
5.36342e-05
5.36342e-05
5.36342e-05
5.53408e-05
5.53408e-05
5.53408e-05
5.44954e-05
5.44954e-05
5.44954e-05
5.47134e-05
5.47134e-05
5.47134e-05
5.42857e-05
5.42857e-05
5.42857e-05
5.11997e-05
5.11997e-05
5.11997e-05
5.09998e-05
5.09998e-05
5.09998e-05
5.04214e-05
5.04214e-05
5.04214e-05
4.90716e-05
4.90716e-05
4.90716e-05
4.5891e-05
4.5891e-05
4.5891e-05
3.99874e-05
3.99874e-05
3.99874e-05
1.09265e-05
1.09265e-05
1.09265e-05
1.26783e-05
1.26783e-05
1.26783e-05
1.19773e-05
1.19773e-05
1.19773e-05
4.50755e-05
4.50755e-05
4.50755e-05
4.47266e-05
4.47266e-05
4.47266e-05
4.71764e-05
4.71764e-05
4.71764e-05
4.73599e-05
4.73599e-05
4.73599e-05
4.57715e-05
4.57715e-05
4.57715e-05
4.79637e-05
4.79637e-05
4.79637e-05
4.69551e-05
4.69551e-05
4.69551e-05
4.75507e-05
4.75507e-05
4.75507e-05
4.6638e-05
4.6638e-05
4.6638e-05
4.62307e-05
4.62307e-05
4.62307e-05
4.56446e-05
4.56446e-05
4.56446e-05
5.06055e-05
5.06055e-05
5.06055e-05
5.04127e-05
5.04127e-05
5.04127e-05
5.12061e-05
5.12061e-05
5.12061e-05
4.88779e-05
4.88779e-05
4.88779e-05
4.83097e-05
4.83097e-05
4.83097e-05
4.90696e-05
4.90696e-05
4.90696e-05
4.86886e-05
4.86886e-05
4.86886e-05
4.79261e-05
4.79261e-05
4.79261e-05
4.81141e-05
4.81141e-05
4.81141e-05
4.59495e-05
4.59495e-05
4.59495e-05
4.67243e-05
4.67243e-05
4.67243e-05
4.65432e-05
4.65432e-05
4.65432e-05
4.42815e-05
4.42815e-05
4.42815e-05
6.02948e-06
6.02948e-06
6.02948e-06
6.0555e-06
6.0555e-06
6.0555e-06
3.21864e-05
3.21864e-05
3.21864e-05
7.3237e-06
7.3237e-06
7.3237e-06
8.11331e-06
8.11331e-06
8.11331e-06
5.63078e-06
5.63078e-06
5.63078e-06
5.71997e-06
5.71997e-06
5.71997e-06
5.88583e-06
5.88583e-06
5.88583e-06
5.90932e-06
5.90932e-06
5.90932e-06
5.58009e-06
5.58009e-06
5.58009e-06
5.74188e-06
5.74188e-06
5.74188e-06
6.07247e-06
6.07247e-06
6.07247e-06
6.588e-06
6.588e-06
6.588e-06
7.70398e-06
7.70398e-06
7.70398e-06
8.322e-06
8.322e-06
8.322e-06
7.51444e-06
7.51444e-06
7.51444e-06
6.42592e-06
6.42592e-06
6.42592e-06
3.80657e-05
3.80657e-05
3.80657e-05
4.15358e-05
4.15358e-05
4.15358e-05
4.35259e-05
4.35259e-05
4.35259e-05
4.36923e-05
4.36923e-05
4.36923e-05
1.55183e-05
1.55183e-05
1.55183e-05
9.8907e-06
9.8907e-06
9.8907e-06
1.53138e-05
1.53138e-05
1.53138e-05
7.20208e-06
7.20208e-06
7.20208e-06
7.64655e-06
7.64655e-06
7.64655e-06
7.23029e-06
7.23029e-06
7.23029e-06
7.4443e-06
7.4443e-06
7.4443e-06
3.49389e-05
3.49389e-05
3.49389e-05
2.44273e-05
2.44273e-05
2.44273e-05
2.4143e-05
2.4143e-05
2.4143e-05
3.42727e-05
3.42727e-05
3.42727e-05
4.00393e-05
4.00393e-05
4.00393e-05
4.03933e-05
4.03933e-05
4.03933e-05
4.40323e-05
4.40323e-05
4.40323e-05
4.44553e-05
4.44553e-05
4.44553e-05
4.5954e-06
4.5954e-06
4.5954e-06
4.71586e-06
4.71586e-06
4.71586e-06
6.66009e-06
6.66009e-06
6.66009e-06
5.9979e-06
5.9979e-06
5.9979e-06
4.74109e-06
4.74109e-06
4.74109e-06
4.59297e-06
4.59297e-06
4.59297e-06
8.69176e-06
8.69176e-06
8.69176e-06
7.91084e-06
7.91084e-06
7.91084e-06
8.4248e-06
8.4248e-06
8.4248e-06
9.90736e-06
9.90736e-06
9.90736e-06
1.02894e-05
1.02894e-05
1.02894e-05
9.60307e-06
9.60307e-06
9.60307e-06
5.45429e-06
5.45429e-06
5.45429e-06
5.77445e-06
5.77445e-06
5.77445e-06
5.61487e-06
5.61487e-06
5.61487e-06
5.47023e-06
5.47023e-06
5.47023e-06
6.10227e-06
6.10227e-06
6.10227e-06
5.62038e-06
5.62038e-06
5.62038e-06
5.62288e-06
5.62288e-06
5.62288e-06
5.16139e-06
5.16139e-06
5.16139e-06
5.30987e-06
5.30987e-06
5.30987e-06
5.94769e-06
5.94769e-06
5.94769e-06
7.28048e-06
7.28048e-06
7.28048e-06
7.26324e-06
7.26324e-06
7.26324e-06
7.05492e-06
7.05492e-06
7.05492e-06
6.23121e-06
6.23121e-06
6.23121e-06
6.06436e-06
6.06436e-06
6.06436e-06
6.2612e-06
6.2612e-06
6.2612e-06
6.07878e-06
6.07878e-06
6.07878e-06
5.3328e-06
5.3328e-06
5.3328e-06
5.01316e-06
5.01316e-06
5.01316e-06
4.86535e-06
4.86535e-06
4.86535e-06
4.7903e-06
4.7903e-06
4.7903e-06
5.3328e-06
5.3328e-06
5.3328e-06
5.09527e-06
5.09527e-06
5.09527e-06
5.24818e-06
5.24818e-06
5.24818e-06
1.90359e-05
1.90359e-05
1.90359e-05
1.97442e-05
1.97442e-05
1.97442e-05
1.91927e-05
1.91927e-05
1.91927e-05
4.78856e-06
4.78856e-06
4.78856e-06
4.65004e-06
4.65004e-06
4.65004e-06
4.44924e-06
4.44924e-06
4.44924e-06
4.44933e-06
4.44933e-06
4.44933e-06
4.32439e-06
4.32439e-06
4.32439e-06
4.24011e-06
4.24011e-06
4.24011e-06
4.97318e-06
4.97318e-06
4.97318e-06
4.56862e-06
4.56862e-06
4.56862e-06
5.5645e-05
5.5645e-05
5.5645e-05
5.92069e-05
5.92069e-05
5.92069e-05
5.87683e-05
5.87683e-05
5.87683e-05
5.2949e-05
5.2949e-05
5.2949e-05
5.46706e-05
5.46706e-05
5.46706e-05
5.48777e-05
5.48777e-05
5.48777e-05
4.97766e-05
4.97766e-05
4.97766e-05
5.0164e-05
5.0164e-05
5.0164e-05
8.43201e-06
8.43201e-06
8.43201e-06
7.9006e-06
7.9006e-06
7.9006e-06
4.32627e-06
4.32627e-06
4.32627e-06
4.75061e-06
4.75061e-06
4.75061e-06
8.3735e-06
8.3735e-06
8.3735e-06
4.72118e-06
4.72118e-06
4.72118e-06
5.03166e-06
5.03166e-06
5.03166e-06
2.0042e-05
2.0042e-05
2.0042e-05
8.68508e-06
8.68508e-06
8.68508e-06
5.38177e-06
5.38177e-06
5.38177e-06
5.16637e-06
5.16637e-06
5.16637e-06
5.13501e-06
5.13501e-06
5.13501e-06
8.95778e-06
8.95778e-06
8.95778e-06
8.86752e-06
8.86752e-06
8.86752e-06
2.01769e-05
2.01769e-05
2.01769e-05
1.97909e-05
1.97909e-05
1.97909e-05
1.89827e-05
1.89827e-05
1.89827e-05
1.85828e-05
1.85828e-05
1.85828e-05
2.05959e-05
2.05959e-05
2.05959e-05
2.02111e-05
2.02111e-05
2.02111e-05
2.0455e-05
2.0455e-05
2.0455e-05
1.99276e-05
1.99276e-05
1.99276e-05
1.96626e-05
1.96626e-05
1.96626e-05
1.95206e-05
1.95206e-05
1.95206e-05
1.95159e-05
1.95159e-05
1.95159e-05
1.93843e-05
1.93843e-05
1.93843e-05
1.88381e-05
1.88381e-05
1.88381e-05
1.84375e-05
1.84375e-05
1.84375e-05
4.58081e-06
4.58081e-06
4.58081e-06
4.64963e-06
4.64963e-06
4.64963e-06
4.79089e-06
4.79089e-06
4.79089e-06
4.64941e-06
4.64941e-06
4.64941e-06
4.27554e-06
4.27554e-06
4.27554e-06
4.38455e-06
4.38455e-06
4.38455e-06
4.25187e-06
4.25187e-06
4.25187e-06
4.45087e-06
4.45087e-06
4.45087e-06
4.38374e-06
4.38374e-06
4.38374e-06
4.27612e-06
4.27612e-06
4.27612e-06
4.38438e-06
4.38438e-06
4.38438e-06
4.65248e-06
4.65248e-06
4.65248e-06
4.4511e-06
4.4511e-06
4.4511e-06
4.57973e-06
4.57973e-06
4.57973e-06
4.45156e-06
4.45156e-06
4.45156e-06
4.57987e-06
4.57987e-06
4.57987e-06
4.54159e-06
4.54159e-06
4.54159e-06
4.41233e-06
4.41233e-06
4.41233e-06
5.52615e-06
5.52615e-06
5.52615e-06
6.61361e-06
6.61361e-06
6.61361e-06
5.61002e-06
5.61002e-06
5.61002e-06
5.14648e-06
5.14648e-06
5.14648e-06
7.11569e-06
7.11569e-06
7.11569e-06
6.51805e-06
6.51805e-06
6.51805e-06
1.0461e-05
1.0461e-05
1.0461e-05
9.92843e-06
9.92843e-06
9.92843e-06
8.87731e-06
8.87731e-06
8.87731e-06
8.37233e-06
8.37233e-06
8.37233e-06
8.98319e-06
8.98319e-06
8.98319e-06
1.0571e-05
1.0571e-05
1.0571e-05
1.0038e-05
1.0038e-05
1.0038e-05
6.71616e-06
6.71616e-06
6.71616e-06
1.78967e-05
1.78967e-05
1.78967e-05
1.47448e-05
1.47448e-05
1.47448e-05
1.77689e-05
1.77689e-05
1.77689e-05
1.72355e-05
1.72355e-05
1.72355e-05
1.79345e-05
1.79345e-05
1.79345e-05
1.784e-05
1.784e-05
1.784e-05
1.68976e-05
1.68976e-05
1.68976e-05
1.74033e-05
1.74033e-05
1.74033e-05
1.71186e-05
1.71186e-05
1.71186e-05
1.75238e-05
1.75238e-05
1.75238e-05
1.14713e-05
1.14713e-05
1.14713e-05
1.70075e-05
1.70075e-05
1.70075e-05
1.17715e-05
1.17715e-05
1.17715e-05
1.96611e-05
1.96611e-05
1.96611e-05
2.02399e-05
2.02399e-05
2.02399e-05
1.7367e-05
1.7367e-05
1.7367e-05
1.14785e-05
1.14785e-05
1.14785e-05
1.16734e-05
1.16734e-05
1.16734e-05
1.21892e-05
1.21892e-05
1.21892e-05
1.23097e-05
1.23097e-05
1.23097e-05
1.2121e-05
1.2121e-05
1.2121e-05
5.47109e-06
5.47109e-06
5.47109e-06
1.7195e-05
1.7195e-05
1.7195e-05
1.50695e-05
1.50695e-05
1.50695e-05
8.14629e-06
8.14629e-06
8.14629e-06
8.712e-06
8.712e-06
8.712e-06
1.2273e-05
1.2273e-05
1.2273e-05
7.46677e-06
7.46677e-06
7.46677e-06
7.0889e-06
7.0889e-06
7.0889e-06
7.74314e-06
7.74314e-06
7.74314e-06
1.10185e-05
1.10185e-05
1.10185e-05
8.36808e-06
8.36808e-06
8.36808e-06
1.14352e-05
1.14352e-05
1.14352e-05
1.94707e-05
1.94707e-05
1.94707e-05
1.92628e-05
1.92628e-05
1.92628e-05
4.49776e-06
4.49776e-06
4.49776e-06
4.35433e-06
4.35433e-06
4.35433e-06
4.25827e-06
4.25827e-06
4.25827e-06
4.27647e-06
4.27647e-06
4.27647e-06
4.26357e-06
4.26357e-06
4.26357e-06
4.38356e-06
4.38356e-06
4.38356e-06
8.66389e-06
8.66389e-06
8.66389e-06
8.7718e-06
8.7718e-06
8.7718e-06
8.15406e-06
8.15406e-06
8.15406e-06
9.71506e-06
9.71506e-06
9.71506e-06
1.09211e-05
1.09211e-05
1.09211e-05
8.91203e-06
8.91203e-06
8.91203e-06
9.34259e-06
9.34259e-06
9.34259e-06
9.83632e-06
9.83632e-06
9.83632e-06
1.17794e-05
1.17794e-05
1.17794e-05
1.11026e-05
1.11026e-05
1.11026e-05
1.11949e-05
1.11949e-05
1.11949e-05
1.07559e-05
1.07559e-05
1.07559e-05
8.45066e-06
8.45066e-06
8.45066e-06
9.50649e-06
9.50649e-06
9.50649e-06
9.40187e-06
9.40187e-06
9.40187e-06
9.93945e-06
9.93945e-06
9.93945e-06
6.69825e-06
6.69825e-06
6.69825e-06
7.82995e-06
7.82995e-06
7.82995e-06
7.72327e-06
7.72327e-06
7.72327e-06
8.34534e-06
8.34534e-06
8.34534e-06
9.44351e-06
9.44351e-06
9.44351e-06
9.0335e-06
9.0335e-06
9.0335e-06
9.70272e-06
9.70272e-06
9.70272e-06
9.8506e-06
9.8506e-06
9.8506e-06
1.08179e-05
1.08179e-05
1.08179e-05
1.14389e-05
1.14389e-05
1.14389e-05
1.01167e-05
1.01167e-05
1.01167e-05
1.06773e-05
1.06773e-05
1.06773e-05
1.09599e-05
1.09599e-05
1.09599e-05
1.1107e-05
1.1107e-05
1.1107e-05
1.46755e-05
1.46755e-05
1.46755e-05
1.36382e-05
1.36382e-05
1.36382e-05
1.28524e-05
1.28524e-05
1.28524e-05
1.3261e-05
1.3261e-05
1.3261e-05
1.38552e-05
1.38552e-05
1.38552e-05
1.25079e-05
1.25079e-05
1.25079e-05
1.23178e-05
1.23178e-05
1.23178e-05
1.52124e-05
1.52124e-05
1.52124e-05
1.50741e-05
1.50741e-05
1.50741e-05
1.56513e-05
1.56513e-05
1.56513e-05
1.58488e-05
1.58488e-05
1.58488e-05
1.26524e-05
1.26524e-05
1.26524e-05
1.22445e-05
1.22445e-05
1.22445e-05
1.17454e-05
1.17454e-05
1.17454e-05
1.19303e-05
1.19303e-05
1.19303e-05
1.40042e-05
1.40042e-05
1.40042e-05
1.31965e-05
1.31965e-05
1.31965e-05
1.2987e-05
1.2987e-05
1.2987e-05
1.23709e-05
1.23709e-05
1.23709e-05
1.25605e-05
1.25605e-05
1.25605e-05
1.28693e-05
1.28693e-05
1.28693e-05
1.36567e-05
1.36567e-05
1.36567e-05
1.15772e-05
1.15772e-05
1.15772e-05
1.27492e-05
1.27492e-05
1.27492e-05
1.54287e-05
1.54287e-05
1.54287e-05
1.49126e-05
1.49126e-05
1.49126e-05
1.38446e-05
1.38446e-05
1.38446e-05
1.45119e-05
1.45119e-05
1.45119e-05
1.51063e-05
1.51063e-05
1.51063e-05
1.3105e-05
1.3105e-05
1.3105e-05
1.34738e-05
1.34738e-05
1.34738e-05
1.10728e-05
1.10728e-05
1.10728e-05
1.12338e-05
1.12338e-05
1.12338e-05
6.70257e-06
6.70257e-06
6.70257e-06
4.55073e-06
4.55073e-06
4.55073e-06
5.2844e-06
5.2844e-06
5.2844e-06
5.53453e-06
5.53453e-06
5.53453e-06
5.49786e-06
5.49786e-06
5.49786e-06
9.28048e-06
9.28048e-06
9.28048e-06
8.89815e-06
8.89815e-06
8.89815e-06
1.2144e-05
1.2144e-05
1.2144e-05
1.22732e-05
1.22732e-05
1.22732e-05
4.56601e-06
4.56601e-06
4.56601e-06
6.41506e-06
6.41506e-06
6.41506e-06
1.16533e-05
1.16533e-05
1.16533e-05
7.12941e-06
7.12941e-06
7.12941e-06
5.96474e-06
5.96474e-06
5.96474e-06
1.34757e-05
1.34757e-05
1.34757e-05
1.27295e-05
1.27295e-05
1.27295e-05
8.98685e-06
8.98685e-06
8.98685e-06
9.37795e-06
9.37795e-06
9.37795e-06
1.00474e-05
1.00474e-05
1.00474e-05
9.91577e-06
9.91577e-06
9.91577e-06
6.79545e-06
6.79545e-06
6.79545e-06
5.97306e-06
5.97306e-06
5.97306e-06
5.8841e-06
5.8841e-06
5.8841e-06
5.7127e-06
5.7127e-06
5.7127e-06
5.67251e-06
5.67251e-06
5.67251e-06
8.04783e-06
8.04783e-06
8.04783e-06
8.5292e-06
8.5292e-06
8.5292e-06
8.41909e-06
8.41909e-06
8.41909e-06
7.31023e-06
7.31023e-06
7.31023e-06
7.01635e-06
7.01635e-06
7.01635e-06
7.08336e-06
7.08336e-06
7.08336e-06
7.70106e-06
7.70106e-06
7.70106e-06
1.01161e-05
1.01161e-05
1.01161e-05
9.58377e-06
9.58377e-06
9.58377e-06
5.61651e-06
5.61651e-06
5.61651e-06
5.64557e-06
5.64557e-06
5.64557e-06
5.28863e-06
5.28863e-06
5.28863e-06
5.05866e-06
5.05866e-06
5.05866e-06
5.07771e-06
5.07771e-06
5.07771e-06
5.3374e-06
5.3374e-06
5.3374e-06
5.5035e-06
5.5035e-06
5.5035e-06
5.73947e-06
5.73947e-06
5.73947e-06
5.77051e-06
5.77051e-06
5.77051e-06
3.32366e-05
3.32366e-05
3.32366e-05
3.02965e-05
3.02965e-05
3.02965e-05
4.16052e-05
4.16052e-05