<VTKFile type="UnstructuredGrid" version="1.0">
<UnstructuredGrid>
<Piece NumberOfPoints="10830" NumberOfCells="3610">
<Points>
<DataArray type="Float64" NumberOfComponents="3" format="ascii">
2.19217 2.20649 6.29575
2.19928 2.19938 6.27
2.19928 2.19938 6.32146
2.19928 2.19938 6.82508
2.19928 2.19938 6.876
2.19129 2.20737 6.85053
2.19928 2.19938 6.82508
2.19129 2.20737 6.85053
2.17928 2.21938 6.8251
1.30559 3.09307 7.29759
1.31816 3.0805 7.315
1.28831 3.11035 7.315
1.28831 3.11035 7.315
1.28831 3.11035 7.28484
1.30559 3.09307 7.29759
2.19928 2.19938 6.82508
2.17928 2.21938 6.8251
2.1913 2.20736 6.79968
1.29441 3.10425 6.54679
1.28831 3.11035 6.57201
1.28831 3.11035 6.52157
2.19132 2.20734 6.5469
2.19928 2.19938 6.57209
2.17929 2.21937 6.57211
2.19117 2.20749 6.44634
2.19928 2.19938 6.42128
2.19928 2.19938 6.47139
2.17929 2.21937 6.57211
2.19928 2.19938 6.57209
2.19133 2.20733 6.59731
2.19928 2.19938 6.57209
2.19928 2.19938 6.62254
2.19133 2.20733 6.59731
2.17929 2.21937 6.62255
2.19133 2.20733 6.59731
2.19928 2.19938 6.62254
2.17928 2.21938 6.77431
2.1913 2.20736 6.79968
2.16946 2.22921 6.7997
2.16946 2.22921 6.7997
2.1913 2.20736 6.79968
2.17928 2.21938 6.8251
2.16946 2.22921 6.7997
2.15842 2.24024 6.77432
2.17928 2.21938 6.77431
2.16946 2.22921 6.7997
2.17928 2.21938 6.8251
2.15841 2.24025 6.82512
2.19928 2.19938 6.67304
2.19928 2.19938 6.72362
2.19132 2.20734 6.69833
2.19132 2.20734 6.69833
2.17929 2.21937 6.72363
2.16947 2.22919 6.69834
2.19928 2.19938 6.72362
2.17929 2.21937 6.72363
2.19132 2.20734 6.69833
2.19928 2.19938 6.77429
2.1913 2.20736 6.79968
2.17928 2.21938 6.77431
2.19928 2.19938 6.82508
2.1913 2.20736 6.79968
2.19928 2.19938 6.77429
2.17913 2.21954 6.42132
2.19928 2.19938 6.42128
2.19117 2.20749 6.44634
2.17927 2.21939 6.87602
2.19129 2.20737 6.85053
2.19928 2.19938 6.876
1.8956 2.50306 7.05575
1.90602 2.49264 7.02998
1.91643 2.48223 7.05572
1.28831 3.11035 6.27
1.30792 3.09074 6.27
1.29529 3.10337 6.2947
1.34771 3.05096 6.52159
1.32717 3.07149 6.52157
1.33709 3.06157 6.49637
1.30704 3.09162 6.52156
1.32717 3.07149 6.52157
1.31607 3.08259 6.54678
1.30704 3.09162 6.52156
1.29441 3.10425 6.54679
1.28831 3.11035 6.52157
1.31607 3.08259 6.54678
1.29441 3.10425 6.54679
1.30704 3.09162 6.52156
1.2945 3.10417 6.74894
1.28831 3.11035 6.7743
1.28831 3.11035 6.72361
1.3071 3.09157 6.7743
1.31615 3.08252 6.74893
1.32724 3.07142 6.77429
1.28831 3.11035 6.7743
1.2945 3.10417 6.74894
1.3071 3.09157 6.7743
1.3071 3.09157 6.7743
1.2945 3.10417 6.74894
1.31615 3.08252 6.74893
1.30708 3.09158 6.7236
1.32723 3.07143 6.7236
1.31615 3.08252 6.74893
1.30708 3.09158 6.7236
1.2945 3.10417 6.74894
1.28831 3.11035 6.72361
1.31615 3.08252 6.74893
1.2945 3.10417 6.74894
1.30708 3.09158 6.7236
1.28831 3.11035 6.57201
1.29441 3.10425 6.54679
1.30705 3.09161 6.572
1.30705 3.09161 6.572
1.29441 3.10425 6.54679
1.31607 3.08259 6.54678
1.32724 3.07142 6.77429
1.31615 3.08252 6.74893
1.33718 3.06148 6.74893
1.31615 3.08252 6.74893
1.32723 3.07143 6.7236
1.33718 3.06148 6.74893
1.49256 2.90611 6.72367
1.50289 2.89577 6.74901
1.48223 2.91643 6.749
1.48223 2.91643 6.749
1.50289 2.89577 6.74901
1.49257 2.90609 6.77437
1.49257 2.90609 6.77437
1.50289 2.89577 6.74901
1.51323 2.88543 6.77438
1.88521 2.51346 7.03
1.90602 2.49264 7.02998
1.8956 2.50306 7.05575
2.19127 2.20739 6.49656
2.19928 2.19938 6.47139
2.19928 2.19938 6.5217
2.19928 2.19938 6.57209
2.19132 2.20734 6.5469
2.19928 2.19938 6.5217
2.11618 2.28248 6.6731
2.09503 2.30363 6.67311
2.10562 2.29304 6.64785
2.17929 2.21937 6.67305
2.19132 2.20734 6.69833
2.16947 2.22919 6.69834
2.19928 2.19938 6.67304
2.19132 2.20734 6.69833
2.17929 2.21937 6.67305
2.16947 2.22919 6.69834
2.17929 2.21937 6.72363
2.15843 2.24024 6.72365
2.19131 2.20735 6.74895
2.17929 2.21937 6.72363
2.19928 2.19938 6.72362
2.19928 2.19938 6.72362
2.19928 2.19938 6.77429
2.19131 2.20735 6.74895
2.19131 2.20735 6.74895
2.19928 2.19938 6.77429
2.17928 2.21938 6.77431
2.1693 2.22936 6.44637
2.17913 2.21954 6.42132
2.19117 2.20749 6.44634
2.19127 2.20739 6.49656
2.19928 2.19938 6.5217
2.17927 2.21939 6.52174
2.17927 2.21939 6.52174
2.19928 2.19938 6.5217
2.19132 2.20734 6.5469
2.10553 2.29313 6.49661
2.09491 2.30375 6.47143
2.11605 2.28261 6.47143
2.1372 2.26147 6.47145
2.12662 2.27204 6.44626
2.14787 2.25079 6.44631
2.1372 2.26147 6.47145
2.11605 2.28261 6.47143
2.12662 2.27204 6.44626
2.16946 2.2292 6.54693
2.19132 2.20734 6.5469
2.17929 2.21937 6.57211
2.16946 2.2292 6.54693
2.17927 2.21939 6.52174
2.19132 2.20734 6.5469
2.16945 2.22921 6.85055
2.17928 2.21938 6.8251
2.19129 2.20737 6.85053
2.19129 2.20737 6.85053
2.17927 2.21939 6.87602
2.16945 2.22921 6.85055
2.15841 2.24025 6.82512
2.17928 2.21938 6.8251
2.16945 2.22921 6.85055
2.16944 2.22922 7.00405
2.14804 2.25062 7.00406
2.15841 2.24025 6.97837
2.14804 2.25063 6.95274
2.16944 2.22922 6.95272
2.15841 2.24025 6.97837
2.19128 2.20738 6.90153
2.17927 2.21939 6.87602
2.19928 2.19938 6.876
2.16944 2.22922 6.90156
2.17927 2.21939 6.87602
2.19128 2.20738 6.90153
1.93725 2.46141 7.10732
1.94766 2.451 7.13316
1.92679 2.47187 7.1332
2.05276 2.34591 6.97843
2.06331 2.33535 6.95279
2.07386 2.3248 6.97841
2.07386 2.3248 6.97841
2.06331 2.33535 6.95279
2.08443 2.31423 6.95278
2.15841 2.24026 6.92713
2.14804 2.25062 6.90158
2.16944 2.22922 6.90156
2.15841 2.24026 6.92713
2.16944 2.22922 6.95272
2.14804 2.25063 6.95274
2.04222 2.35644 6.95281
2.06331 2.33535 6.95279
2.05276 2.34591 6.97843
1.9897 2.40896 6.72374
1.96874 2.42992 6.72374
1.97921 2.41945 6.69844
1.93736 2.4613 6.69844
1.92692 2.47174 6.72375
1.91649 2.48217 6.69844
1.94781 2.45085 6.72375
1.92692 2.47174 6.72375
1.93736 2.4613 6.69844
1.92691 2.47175 6.62265
1.9478 2.45086 6.62265
1.93736 2.46131 6.64789
1.93736 2.46131 6.64789
1.91648 2.48218 6.64789
1.92691 2.47175 6.62265
1.92691 2.47175 6.62265
1.91648 2.48218 6.64789
1.90605 2.49261 6.62264
1.93736 2.46131 6.64789
1.9478 2.45086 6.62265
1.95826 2.4404 6.6479
1.96871 2.42995 6.57223
1.9792 2.41946 6.59744
1.95825 2.44041 6.59743
1.95825 2.44041 6.59743
1.94778 2.45088 6.57223
1.96871 2.42995 6.57223
1.8126 2.58607 6.74909
1.82295 2.57571 6.72375
1.83332 2.56534 6.74909
1.82295 2.57571 6.72375
1.84369 2.55497 6.72375
1.83332 2.56534 6.74909
1.92692 2.47174 6.67316
1.91648 2.48218 6.64789
1.93736 2.46131 6.64789
1.92692 2.47174 6.67316
1.93736 2.4613 6.69844
1.91649 2.48217 6.69844
1.91649 2.48217 6.69844
1.89565 2.50301 6.69844
1.90606 2.4926 6.67315
1.90606 2.4926 6.67315
1.92692 2.47174 6.67316
1.91649 2.48217 6.69844
1.91648 2.48218 6.64789
1.92692 2.47174 6.67316
1.90606 2.4926 6.67315
1.90605 2.49261 6.62264
1.88523 2.51343 6.62264
1.89563 2.50303 6.59741
1.88521 2.51345 6.57219
1.90603 2.49263 6.57221
1.89563 2.50303 6.59741
1.51322 2.88545 6.72368
1.50289 2.89577 6.74901
1.49256 2.90611 6.72367
1.49256 2.90611 6.72367
1.50288 2.89578 6.69836
1.51322 2.88545 6.72368
1.29442 3.10424 6.34487
1.28831 3.11035 6.37009
1.28831 3.11035 6.31942
1.28831 3.11035 6.27
1.29529 3.10337 6.2947
1.28831 3.11035 6.31942
1.307 3.09167 6.4207
1.28831 3.11035 6.42067
1.29431 3.10435 6.39542
1.28831 3.11035 6.42067
1.28831 3.11035 6.37009
1.29431 3.10435 6.39542
2.19928 2.19938 6.27
2.19217 2.20649 6.29575
2.18013 2.21854 6.27
1.28831 3.11035 6.52157
1.28831 3.11035 6.47114
1.29438 3.10428 6.49636
1.29438 3.10428 6.49636
1.30704 3.09162 6.52156
1.28831 3.11035 6.52157
1.30702 3.09164 6.47113
1.29438 3.10428 6.49636
1.28831 3.11035 6.47114
1.30702 3.09164 6.47113
1.31601 3.08265 6.44594
1.32714 3.07152 6.47116
1.31605 3.08262 6.49635
1.33709 3.06157 6.49637
1.32717 3.07149 6.52157
1.32717 3.07149 6.52157
1.30704 3.09162 6.52156
1.31605 3.08262 6.49635
1.32714 3.07152 6.47116
1.33709 3.06157 6.49637
1.31605 3.08262 6.49635
1.31605 3.08262 6.49635
1.30702 3.09164 6.47113
1.32714 3.07152 6.47116
1.30704 3.09162 6.52156
1.29438 3.10428 6.49636
1.31605 3.08262 6.49635
1.29438 3.10428 6.49636
1.30702 3.09164 6.47113
1.31605 3.08262 6.49635
1.29435 3.10432 6.44591
1.28831 3.11035 6.47114
1.28831 3.11035 6.42067
1.29435 3.10432 6.44591
1.28831 3.11035 6.42067
1.307 3.09167 6.4207
1.307 3.09167 6.4207
1.31601 3.08265 6.44594
1.29435 3.10432 6.44591
1.29435 3.10432 6.44591
1.30702 3.09164 6.47113
1.28831 3.11035 6.47114
1.31601 3.08265 6.44594
1.30702 3.09164 6.47113
1.29435 3.10432 6.44591
1.33717 3.06149 6.69829
1.32723 3.07143 6.7236
1.31613 3.08254 6.69829
1.32723 3.07143 6.7236
1.30708 3.09158 6.7236
1.31613 3.08254 6.69829
1.31613 3.08254 6.69829
1.32722 3.07145 6.673
1.33717 3.06149 6.69829
1.33711 3.06155 6.54679
1.32717 3.07149 6.52157
1.34771 3.05096 6.52159
1.31607 3.08259 6.54678
1.32717 3.07149 6.52157
1.33711 3.06155 6.54679
1.35794 3.04072 6.5468
1.33711 3.06155 6.54679
1.34771 3.05096 6.52159
1.34773 3.05094 6.57201
1.33711 3.06155 6.54679
1.35794 3.04072 6.5468
1.34773 3.05094 6.57201
1.35794 3.04072 6.5468
1.36839 3.03027 6.57202
1.50287 2.89579 6.6478
1.51321 2.88546 6.67307
1.49255 2.90612 6.67307
1.49255 2.90612 6.67307
1.51321 2.88546 6.67307
1.50288 2.89578 6.69836
1.42017 2.9785 6.69832
1.44086 2.9578 6.69833
1.43052 2.96814 6.72363
1.43051 2.96815 6.67304
1.44086 2.9578 6.69833
1.42017 2.9785 6.69832
1.44085 2.95782 6.64777
1.4305 2.96817 6.62252
1.45119 2.94748 6.62253
1.43051 2.96815 6.67304
1.42015 2.97851 6.64776
1.44085 2.95782 6.64777
1.44085 2.95782 6.64777
1.42015 2.97851 6.64776
1.4305 2.96817 6.62252
1.44087 2.95779 6.74898
1.46156 2.9371 6.74899
1.45123 2.94744 6.77434
1.3995 2.99917 6.7997
1.40985 2.98882 6.77432
1.4202 2.97846 6.79971
1.40983 2.98883 6.72362
1.42017 2.9785 6.69832
1.43052 2.96814 6.72363
1.39946 2.9992 6.69831
1.42017 2.9785 6.69832
1.40983 2.98883 6.72362
1.32724 3.07142 6.77429
1.33718 3.06148 6.74893
1.34779 3.05087 6.77429
1.33717 3.06149 6.69829
1.32722 3.07145 6.673
1.34776 3.0509 6.673
1.34776 3.0509 6.673
1.35799 3.04067 6.69829
1.33717 3.06149 6.69829
1.38911 3.00955 6.67301
1.39946 2.9992 6.69831
1.37874 3.01992 6.6983
1.34777 3.05089 6.7236
1.33718 3.06148 6.74893
1.32723 3.07143 6.7236
1.34777 3.05089 6.7236
[...]
<PointData Scalars="View Factor" >
<DataArray type="Float64" Name="View Factor" NumberOfComponents="1" format="ascii">
6.52211e-05
6.52211e-05
6.52211e-05
0.000253314
0.000253314
0.000253314
0.000231373
0.000231373
0.000231373
0.0031749
0.0031749
0.0031749
0.00318221
0.00318221
0.00318221
0.000215594
0.000215594
0.000215594
0.00210558
0.00210558
0.00210558
9.73191e-05
9.73191e-05
9.73191e-05
7.51465e-05
7.51465e-05
7.51465e-05
0.000102115
0.000102115
0.000102115
0.000104791
0.000104791
0.000104791
0.00011318
0.00011318
0.00011318
0.000202601
0.000202601
0.000202601
0.000217103
0.000217103
0.000217103
0.000413302
0.000413302
0.000413302
0.000435598
0.000435598
0.000435598
0.000145218
0.000145218
0.000145218
0.000156632
0.000156632
0.000156632
0.000151903
0.000151903
0.000151903
0.000189546
0.000189546
0.000189546
0.00020568
0.00020568
0.00020568
6.87435e-05
6.87435e-05
6.87435e-05
0.000269108
0.000269108
0.000269108
0.000759258
0.000759258
0.000759258
0.00182168
0.00182168
0.00182168
0.0019804
0.0019804
0.0019804
0.00204098
0.00204098
0.00204098
0.00207643
0.00207643
0.00207643
0.00206992
0.00206992
0.00206992
0.00234546
0.00234546
0.00234546
0.0023146
0.0023146
0.0023146
0.00235503
0.00235503
0.00235503
0.00232648
0.00232648
0.00232648
0.00227279
0.00227279
0.00227279
0.0023123
0.0023123
0.0023123
0.00230532
0.00230532
0.00230532
0.0021136
0.0021136
0.0021136
0.00208831
0.00208831
0.00208831
0.00228142
0.00228142
0.00228142
0.00226078
0.00226078
0.00226078
0.00176646
0.00176646
0.00176646
0.00177774
0.00177774
0.00177774
0.00174198
0.00174198
0.00174198
0.000751381
0.000751381
0.000751381
8.20238e-05
8.20238e-05
8.20238e-05
9.17142e-05
9.17142e-05
9.17142e-05
0.000231602
0.000231602
0.000231602
0.00015106
0.00015106
0.00015106
0.000137686
0.000137686
0.000137686
0.000378658
0.000378658
0.000378658
0.000160131
0.000160131
0.000160131
0.000172659
0.000172659
0.000172659
0.000178842
0.000178842
0.000178842
0.000108165
0.000108165
0.000108165
8.39908e-05
8.39908e-05
8.39908e-05
8.79766e-05
8.79766e-05
8.79766e-05
0.000183688
0.000183688
0.000183688
0.000248081
0.000248081
0.000248081
0.000233325
0.000233325
0.000233325
0.000122303
0.000122303
0.000122303
0.000119944
0.000119944
0.000119944
0.000255252
0.000255252
0.000255252
0.00027791
0.00027791
0.00027791
0.000448436
0.000448436
0.000448436
0.000681373
0.000681373
0.000681373
0.000595206
0.000595206
0.000595206
0.000292126
0.000292126
0.000292126
0.000331197
0.000331197
0.000331197
0.000504609
0.000504609
0.000504609
0.000402054
0.000402054
0.000402054
0.000375494
0.000375494
0.000375494
0.000508334
0.000508334
0.000508334
0.000562276
0.000562276
0.000562276
0.000377053
0.000377053
0.000377053
8.18677e-05
8.18677e-05
8.18677e-05
8.2823e-05
8.2823e-05
8.2823e-05
8.51715e-05
8.51715e-05
8.51715e-05
5.6599e-05
5.6599e-05
5.6599e-05
5.95728e-05
5.95728e-05
5.95728e-05
5.8496e-05
5.8496e-05
5.8496e-05
5.76034e-05
5.76034e-05
5.76034e-05
4.48469e-05
4.48469e-05
4.48469e-05
4.34402e-05
4.34402e-05
4.34402e-05
0.000115829
0.000115829
0.000115829
0.000109
0.000109
0.000109
6.48895e-05
6.48895e-05
6.48895e-05
7.61402e-05
7.61402e-05
7.61402e-05
7.86606e-05
7.86606e-05
7.86606e-05
7.44589e-05
7.44589e-05
7.44589e-05
6.89872e-05
6.89872e-05
6.89872e-05
5.58875e-05
5.58875e-05
5.58875e-05
4.78447e-05
4.78447e-05
4.78447e-05
0.00172717
0.00172717
0.00172717
0.00171978
0.00171978
0.00171978
0.00189534
0.00189534
0.00189534
0.00184685
0.00184685
0.00184685
0.00195274
0.00195274
0.00195274
0.00194554
0.00194554
0.00194554
5.7435e-05
5.7435e-05
5.7435e-05
0.00205052
0.00205052
0.00205052
0.0020582
0.0020582
0.0020582
0.00202229
0.00202229
0.00202229
0.00197019
0.00197019
0.00197019
0.00199348
0.00199348
0.00199348
0.00202297
0.00202297
0.00202297
0.00197605
0.00197605
0.00197605
0.00198763
0.00198763
0.00198763
0.00203367
0.00203367
0.00203367
0.0020159
0.0020159
0.0020159
0.00199722
0.00199722
0.00199722
0.0019698
0.0019698
0.0019698
0.00196355
0.00196355
0.00196355
0.00200464
0.00200464
0.00200464
0.00198083
0.00198083
0.00198083
0.00221996
0.00221996
0.00221996
0.0022521
0.0022521
0.0022521
0.0022
0.0022
0.0022
0.00199796
0.00199796
0.00199796
0.00202917
0.00202917
0.00202917
0.00198606
0.00198606
0.00198606
0.00200394
0.00200394
0.00200394
0.00199353
0.00199353
0.00199353
0.00168967
0.00168967
0.00168967
0.00170139
0.00170139
0.00170139
0.00196424
0.00196424
0.00196424
0.00194642
0.00194642
0.00194642
0.00185622
0.00185622
0.00185622
0.00191135
0.00191135
0.00191135
0.00189407
0.00189407
0.00189407
0.0019508
0.0019508
0.0019508
0.0021182
0.0021182
0.0021182
0.00200573
0.00200573
0.00200573
0.0020226
0.0020226
0.0020226
0.00226775
0.00226775
0.00226775
0.00216652
0.00216652
0.00216652
0.00215389
0.00215389
0.00215389
0.00205965
0.00205965
0.00205965
0.0022265
0.0022265
0.0022265
0.00220636
0.00220636
0.00220636
0.0021736
0.0021736
0.0021736
0.00219926
0.00219926
0.00219926
0.00294726
0.00294726
0.00294726
0.00313983
0.00313983
0.00313983
0.00180266
0.00180266
0.00180266
0.00185402
0.00185402
0.00185402
0.00194223
0.00194223
0.00194223
0.00183382
0.00183382
0.00183382
0.00192416
0.00192416
0.00192416
0.00187108
0.00187108
0.00187108
0.00185098
0.00185098
0.00185098
0.00190612
0.00190612
0.00190612
0.00188581
0.00188581
0.00188581
0.00192417
0.00192417
0.00192417
0.00207647
0.00207647
0.00207647
0.00198712
0.00198712
0.00198712
0.00173439
0.00173439
0.00173439
0.000587882
0.000587882
0.000587882
0.00125366
0.00125366
0.00125366
0.000695009
0.000695009
0.000695009
0.0013136
0.0013136
0.0013136
0.00181918
0.00181918
0.00181918
0.00175037
0.00175037
0.00175037
0.00180416
0.00180416
0.00180416
0.000856279
0.000856279
0.000856279
0.00086824
0.00086824
0.00086824
0.000786636
0.000786636
0.000786636
0.000777121
0.000777121
0.000777121
0.000781818
0.000781818
0.000781818
0.00072737
0.00072737
0.00072737
0.000467025
0.000467025
0.000467025
0.000710492
0.000710492
0.000710492
2.23133e-05
2.23133e-05
2.23133e-05
2.19111e-05
2.19111e-05
2.19111e-05
2.35993e-05
2.35993e-05
2.35993e-05
2.46459e-05
2.46459e-05
2.46459e-05
2.09022e-05
2.09022e-05
2.09022e-05
1.98565e-05
1.98565e-05
1.98565e-05
2.04165e-05
2.04165e-05
2.04165e-05
2.14011e-05
2.14011e-05
2.14011e-05
1.99267e-05
1.99267e-05
1.99267e-05
1.93883e-05
1.93883e-05
1.93883e-05
1.85174e-05
1.85174e-05
1.85174e-05
2.40712e-05
2.40712e-05
2.40712e-05
2.08868e-05
2.08868e-05
2.08868e-05
2.17851e-05
2.17851e-05
2.17851e-05
2.30405e-05
2.30405e-05
2.30405e-05
2.34913e-05
2.34913e-05
2.34913e-05
2.11317e-05
2.11317e-05
2.11317e-05
1.83525e-05
1.83525e-05
1.83525e-05
1.83369e-05
1.83369e-05
1.83369e-05
0.000512728
0.000512728
0.000512728
0.000505528
0.000505528
0.000505528
0.000470469
0.000470469
0.000470469
0.000372109
0.000372109
0.000372109
0.000408532
0.000408532
0.000408532
0.000397635
0.000397635
0.000397635
0.000360017
0.000360017
0.000360017
4.04393e-05
4.04393e-05
4.04393e-05
4.32549e-05
4.32549e-05
4.32549e-05
3.85268e-05
3.85268e-05
3.85268e-05
8.10288e-05
8.10288e-05
8.10288e-05
7.76076e-05
7.76076e-05
7.76076e-05
0.000131323
0.000131323
0.000131323
0.000142297
0.000142297
0.000142297
0.000123145
0.000123145
0.000123145
0.000118972
0.000118972
0.000118972
0.000138163
0.000138163
0.000138163
0.000340266
0.000340266
0.000340266
0.000362398
0.000362398
0.000362398
0.000403636
0.000403636
0.000403636
0.000386423
0.000386423
0.000386423
0.000378139
0.000378139
0.000378139
0.000369548
0.000369548
0.000369548
0.000179736
0.000179736
0.000179736
0.000170889
0.000170889
0.000170889
7.66838e-05
7.66838e-05
7.66838e-05
7.3729e-05
7.3729e-05
7.3729e-05
0.000110486
0.000110486
0.000110486
6.66515e-05
6.66515e-05
6.66515e-05
0.000179309
0.000179309
0.000179309
0.000212073
0.000212073
0.000212073
0.000319118
0.000319118
0.000319118
0.00027685
0.00027685
0.00027685
0.000301758
0.000301758
0.000301758
0.000280529
0.000280529
0.000280529
0.000478906
0.000478906
0.000478906
0.000496904
0.000496904
0.000496904
0.000485907
0.000485907
0.000485907
0.000728776
0.000728776
0.000728776
0.000673462
0.000673462
0.000673462
1.42919e-05
1.42919e-05
1.42919e-05
0.00076547
0.00076547
0.00076547
0.000663211
0.000663211
0.000663211
0.000725387
0.000725387
0.000725387
0.000459865
0.000459865
0.000459865
0.000590961
0.000590961
0.000590961
0.000677717
0.000677717
0.000677717
0.000625789
0.000625789
0.000625789
8.91098e-05
8.91098e-05
8.91098e-05
8.11944e-05
8.11944e-05
8.11944e-05
8.13581e-05
8.13581e-05
8.13581e-05
7.77386e-05
7.77386e-05
7.77386e-05
0.000122879
0.000122879
0.000122879
0.000117032
0.000117032
0.000117032
0.000123171
0.000123171
0.000123171
0.000540392
0.000540392
0.000540392
0.000566329
0.000566329
0.000566329
0.000363991
0.000363991
0.000363991
0.000640972
0.000640972
0.000640972
0.000654802
0.000654802
0.000654802
0.000598248
0.000598248
0.000598248
0.000564601
0.000564601
0.000564601
0.00061609
0.00061609
0.00061609
0.000571301
0.000571301
0.000571301
8.15141e-05
8.15141e-05
8.15141e-05
7.16655e-05
7.16655e-05
7.16655e-05
7.78804e-05
7.78804e-05
7.78804e-05
6.92536e-05
6.92536e-05
6.92536e-05
8.8058e-05
8.8058e-05
8.8058e-05
8.55743e-05
8.55743e-05
8.55743e-05
9.32649e-05
9.32649e-05
9.32649e-05
0.000139509
0.000139509
0.000139509
0.000144647
0.000144647
0.000144647
0.000105966
0.000105966
0.000105966
9.95845e-05
9.95845e-05
9.95845e-05
9.09337e-05
9.09337e-05
9.09337e-05
8.83172e-05
8.83172e-05
8.83172e-05
0.000102731
0.000102731
0.000102731
9.38036e-05
9.38036e-05
9.38036e-05
0.000115761
0.000115761
0.000115761
0.000119485
0.000119485
0.000119485
0.000131153
0.000131153
0.000131153
0.000140244
0.000140244
0.000140244
0.000135338
0.000135338
0.000135338
0.000123284
0.000123284
0.000123284
8.00632e-05
8.00632e-05
8.00632e-05
8.22821e-05
8.22821e-05
8.22821e-05
7.83802e-05
7.83802e-05
7.83802e-05
7.20661e-05
7.20661e-05
7.20661e-05
0.000282487
0.000282487
0.000282487
0.00015533
0.00015533
0.00015533
0.000263455
0.000263455
0.000263455
5.41407e-05
5.41407e-05
5.41407e-05
4.63551e-05
4.63551e-05
4.63551e-05
5.26565e-05
5.26565e-05
5.26565e-05
4.88903e-05
4.88903e-05
4.88903e-05
4.48597e-05
4.48597e-05
4.48597e-05
4.73402e-05
4.73402e-05
4.73402e-05
5.09819e-05
5.09819e-05
5.09819e-05
5.2388e-05
5.2388e-05
5.2388e-05
4.93037e-05
4.93037e-05
4.93037e-05
4.57832e-05
4.57832e-05
4.57832e-05
6.14279e-05
6.14279e-05
6.14279e-05
6.41518e-05
6.41518e-05
6.41518e-05
0.000112579
0.000112579
0.000112579
0.000103407
0.000103407
0.000103407
0.000175154
0.000175154
0.000175154
0.000168393
0.000168393
0.000168393
0.000109923
0.000109923
0.000109923
0.000116394
0.000116394
0.000116394
0.000201257
0.000201257
0.000201257
0.000194165
0.000194165
0.000194165
0.00020631
0.00020631
0.00020631
0.000223266
0.000223266
0.000223266
0.00023943
0.00023943
0.00023943
0.000228898
0.000228898
0.000228898
9.95094e-05
9.95094e-05
9.95094e-05
8.40878e-05
8.40878e-05
8.40878e-05
8.86689e-05
8.86689e-05
8.86689e-05
9.64875e-05
9.64875e-05
9.64875e-05
0.000130851
0.000130851
0.000130851
0.00012657
0.00012657
0.00012657
8.64772e-05
8.64772e-05
8.64772e-05
0.000112118
0.000112118
0.000112118
0.000102342
0.000102342
0.000102342
7.78915e-05
7.78915e-05
7.78915e-05
4.93289e-05
4.93289e-05
4.93289e-05
5.04355e-05
5.04355e-05
5.04355e-05
5.43236e-05
5.43236e-05
5.43236e-05
7.68775e-05
7.68775e-05
7.68775e-05
8.11727e-05
8.11727e-05
8.11727e-05
7.34556e-05
7.34556e-05
7.34556e-05
7.92878e-05
7.92878e-05
7.92878e-05
0.00144981
0.00144981
0.00144981
0.001775
0.001775
0.001775
0.00178954
0.00178954
0.00178954
0.00183029
0.00183029
0.00183029
0.00161542
0.00161542
0.00161542
0.00157084
0.00157084
0.00157084
0.00155218
0.00155218
0.00155218
0.0019581
0.0019581
0.0019581
0.00195101
0.00195101
0.00195101
0.00194081
0.00194081
0.00194081
0.00160803
0.00160803
0.00160803
0.00162646
0.00162646
0.00162646
0.000115222
0.000115222
0.000115222
0.000119171
0.000119171
0.000119171
0.000130609
0.000130609
0.000130609
0.000138291
0.000138291
0.000138291
0.000156976
0.000156976
0.000156976
0.000151395
0.000151395
0.000151395
0.000178766
0.000178766
0.000178766
8.33872e-05
8.33872e-05
8.33872e-05
0.000272445
0.000272445
0.000272445
1.41022e-05
1.41022e-05
1.41022e-05
0.000158253
0.000158253
0.000158253
0.000156234
0.000156234
0.000156234
2.65187e-05
2.65187e-05
2.65187e-05
2.33755e-05
2.33755e-05
2.33755e-05
0.00241089
0.00241089
0.00241089
0.00237663
0.00237663
0.00237663
0.00228233
0.00228233
0.00228233
0.00229145
0.00229145
0.00229145
0.00226376
0.00226376
0.00226376
0.00222138
0.00222138
0.00222138
0.00219034
0.00219034
0.00219034
0.0021529
0.0021529
0.0021529
0.00218356
0.00218356
0.00218356
0.00213242
0.00213242
0.00213242
0.0021625
0.0021625
0.0021625
0.00217086
0.00217086
0.00217086
0.00212577
0.00212577
0.00212577
0.00214482
0.00214482
0.00214482
0.00213387
0.00213387
0.00213387
0.00210313
0.00210313
0.00210313
0.00203997
0.00203997
0.00203997
0.00201137
0.00201137
0.00201137
0.00207747
0.00207747
0.00207747
0.00204742
0.00204742
0.00204742
0.00209607
0.00209607
0.00209607
0.00208427
0.00208427
0.00208427
0.00203414
0.00203414
0.00203414
0.00205235
0.00205235
0.00205235
0.00214121
0.00214121
0.00214121
0.00216058
0.00216058
0.00216058
0.00214697
0.00214697
0.00214697
0.00211503
0.00211503
0.00211503
0.00174991
0.00174991
0.00174991
0.00177626
0.00177626
0.00177626
0.00176217
0.00176217
0.00176217
0.00171688
0.00171688
0.00171688
0.00174531
0.00174531
0.00174531
0.00173522
0.00173522
0.00173522
0.00178838
0.00178838
0.00178838
0.00176281
0.00176281
0.00176281
0.00180478
0.00180478
0.00180478
0.00182053
0.00182053
0.00182053
0.0020042
0.0020042
0.0020042
0.00196811
0.00196811
0.00196811
0.00196947
0.00196947
0.00196947
0.00195171
0.00195171
0.00195171
0.00202557
0.00202557
0.00202557
0.00200727
0.00200727
0.00200727
0.0020005
0.0020005
0.0020005
0.00202411
0.00202411
0.00202411
0.00199641
0.00199641
0.00199641
0.00208118
0.00208118
0.00208118
0.00206176
0.00206176
0.00206176
0.002019
0.002019
0.002019
0.00205694
0.00205694
0.00205694
0.00201503
0.00201503
0.00201503
0.00217867
0.00217867
0.00217867
0.00214048
0.00214048
0.00214048
0.00212051
0.00212051
0.00212051
0.00213829
0.00213829
0.00213829
0.00218109
0.00218109
0.00218109
0.00223907
0.00223907
0.00223907
0.00220164
0.00220164
0.00220164
0.00214059
0.00214059
0.00214059
0.00210433
0.00210433
0.00210433
0.00207489
0.00207489
0.00207489
0.00212359
0.00212359
0.00212359
0.00210893
0.00210893
0.00210893
0.00223393
0.00223393
0.00223393
0.00221352
0.00221352
0.00221352
0.00216768
0.00216768
0.00216768
0.00218259
0.00218259
0.00218259
0.00212826
0.00212826
0.00212826
0.00216272
0.00216272
0.00216272
0.00226023
0.00226023
0.00226023
0.00229834
0.00229834
0.00229834
0.00224359
0.00224359
0.00224359
0.00231407
0.00231407
0.00231407
0.00235088
0.00235088
0.00235088
0.00232042
0.00232042
0.00232042
0.00203533
0.00203533
0.00203533
0.00218128
0.00218128
0.00218128
0.0022022
0.0022022
0.0022022
0.00217663
0.00217663
0.00217663
0.00213202
0.00213202
0.00213202
0.00312866
0.00312866
0.00312866
0.00312244
0.00312244
0.00312244
0.00310683
0.00310683
0.00310683
0.00277733
0.00277733
0.00277733
0.00279012
0.00279012
0.00279012
0.00275539
0.00275539
0.00275539
0.00290221
0.00290221
0.00290221
0.00286004
0.00286004
0.00286004
0.00287352
0.00287352
0.00287352
0.00283733
0.00283733
0.00283733
0.00281752
0.00281752
0.00281752
0.00280968
0.00280968
0.00280968
0.00274217
0.00274217
0.00274217
0.00276901
0.00276901
0.00276901
0.00193299
0.00193299
0.00193299
0.00188913
0.00188913
0.00188913
0.00187201
0.00187201
0.00187201
0.00189796
0.00189796
0.00189796
0.00194218
0.00194218
0.00194218
0.00195995
0.00195995
0.00195995
0.00197883
0.00197883
0.00197883
0.00205311
0.00205311
0.00205311
0.00200594
0.00200594
0.00200594
0.00199743
0.00199743
0.00199743
0.000328053
0.000328053
0.000328053
0.000251279
0.000251279
0.000251279
0.000263233
0.000263233
0.000263233
0.0016479
0.0016479
0.0016479
0.00155656
0.00155656
0.00155656
0.00152742
0.00152742
0.00152742
0.00168977
0.00168977
0.00168977
0.00165709
0.00165709
0.00165709
0.00176898
0.00176898
0.00176898
0.00177939
0.00177939
0.00177939
0.00169448
0.00169448
0.00169448
0.00172961
0.00172961
0.00172961
0.00171772
0.00171772
0.00171772
0.00172143
0.00172143
0.00172143
0.00161007
0.00161007
0.00161007
0.00169471
0.00169471
0.00169471
0.000866056
0.000866056
0.000866056
0.000797754
0.000797754
0.000797754
0.000839113
0.000839113
0.000839113
0.000875597
0.000875597
0.000875597
0.000829954
0.000829954
0.000829954
0.000757984
0.000757984
0.000757984
0.000848016
0.000848016
0.000848016
0.000841075
0.000841075
0.000841075
0.000814014
0.000814014
0.000814014
0.00080373
0.00080373
0.00080373
0.000422903
0.000422903
0.000422903
0.000507338
0.000507338
0.000507338
0.000582613
0.000582613
0.000582613
0.000523281
0.000523281
0.000523281
0.000481501
0.000481501
0.000481501
0.000600606
0.000600606
0.000600606
0.000637621
0.000637621
0.000637621
0.000390466
0.000390466
0.000390466
0.000410276
0.000410276
0.000410276
0.000344529
0.000344529
0.000344529
0.000319158
0.000319158
0.000319158
0.000618153
0.000618153
0.000618153
0.000682622
0.000682622
0.000682622
0.00073421
0.00073421
0.00073421
0.000704973
0.000704973
0.000704973
0.000491796
0.000491796
0.000491796
0.000564635
0.000564635
0.000564635
0.000598713
0.000598713
0.000598713
0.000686847
0.000686847
0.000686847
0.000659741
0.000659741
0.000659741
0.000637531
0.000637531
0.000637531
0.000559934
0.000559934
0.000559934
0.0002154
0.0002154
0.0002154
0.000239529
0.000239529
0.000239529
0.000329041
0.000329041
0.000329041
0.00027152
0.00027152
0.00027152
0.00024291
0.00024291
0.00024291
0.000279573
0.000279573
0.000279573
0.000291019
0.000291019
0.000291019
0.000232785
0.000232785
0.000232785
0.000250085
0.000250085
0.000250085
0.000616857
0.000616857
0.000616857
0.000582994
0.000582994
0.000582994
0.000571476
0.000571476
0.000571476
2.38707e-05
2.38707e-05
2.38707e-05
2.03229e-05
2.03229e-05
2.03229e-05
1.95209e-05
1.95209e-05
1.95209e-05
1.94097e-05
1.94097e-05
1.94097e-05
0.000772837
0.000772837
0.000772837
0.000745774
0.000745774
0.000745774
0.00224484
0.00224484
0.00224484
0.00219763
0.00219763
0.00219763
2.34165e-05
2.34165e-05
2.34165e-05
0.000799229
0.000799229
0.000799229
0.000761422
0.000761422
0.000761422
0.00102624
0.00102624
0.00102624
0.00167621
0.00167621
0.00167621
0.000325064
0.000325064
0.000325064
0.000524975
0.000524975
0.000524975
0.00100533
0.00100533
0.00100533
0.000962039
0.000962039
0.000962039
0.000840038
0.000840038
0.000840038
0.000878041
0.000878041
0.000878041
0.000738695
0.000738695
0.000738695
7.02223e-05
7.02223e-05
7.02223e-05
1.86374e-05
1.86374e-05
1.86374e-05
1.90815e-05
1.90815e-05
1.90815e-05
1.89651e-05
1.89651e-05
1.89651e-05
0.000898384
0.000898384
0.000898384
0.00101449
0.00101449
0.00101449
0.000974455
0.000974455
0.000974455
0.000764808
0.000764808
0.000764808
0.000718662
0.000718662
0.000718662
0.000786302
0.000786302
0.000786302
0.000865514
0.000865514
0.000865514
0.000895495
0.000895495
0.000895495
0.000903257
0.000903257
0.000903257
2.05305e-05
2.05305e-05
2.05305e-05
2.01833e-05
2.01833e-05
2.01833e-05
2.12522e-05
2.12522e-05
2.12522e-05
2.29086e-05
2.29086e-05
2.29086e-05
2.24775e-05
2.24775e-05
2.24775e-05
2.17289e-05
2.17289e-05
2.17289e-05
2.07641e-05
2.07641e-05
2.07641e-05
1.96326e-05
1.96326e-05
1.96326e-05
1.93195e-05
1.93195e-05
1.93195e-05
1.78278e-05
1.78278e-05
1.78278e-05
1.87069e-05
1.87069e-05
1.87069e-05
1.50071e-05
1.50071e-05
1.50071e-05
1.83499e-05
1.83499e-05
1.83499e-05
1.78025e-05
1.78025e-05
1.78025e-05
0.000331505
0.000331505
0.000331505
0.000224775
0.000224775
0.000224775
0.000325662
0.000325662
0.000325662
0.000381741
0.000381741
0.000381741
0.000388103
0.000388103
0.000388103
0.000477276
0.000477276
0.000477276
0.000208859
0.000208859
0.000208859
0.000712274
0.000712274
0.000712274
0.000288451
0.000288451
0.000288451
0.000107729
0.000107729
0.000107729
0.000114511
0.000114511
0.000114511
0.00044374
0.00044374
0.00044374
0.000389789
0.000389789
0.000389789
0.000394868
0.000394868
0.000394868
0.000371437
0.000371437
0.000371437