<VTKFile type="UnstructuredGrid" version="1.0">
<UnstructuredGrid>
<Piece NumberOfPoints="10830" NumberOfCells="3610">
<Points>
<DataArray type="Float64" NumberOfComponents="3" format="ascii">
2.19217 2.20649 17.7907
2.19928 2.19938 17.765
2.19928 2.19938 17.8165
2.19928 2.19938 18.3201
2.19928 2.19938 18.371
2.19129 2.20737 18.3455
2.19928 2.19938 18.3201
2.19129 2.20737 18.3455
2.17928 2.21938 18.3201
1.30559 3.09307 18.7926
1.31816 3.0805 18.81
1.28831 3.11035 18.81
1.28831 3.11035 18.81
1.28831 3.11035 18.7798
1.30559 3.09307 18.7926
2.19928 2.19938 18.3201
2.17928 2.21938 18.3201
2.1913 2.20736 18.2947
1.29441 3.10425 18.0418
1.28831 3.11035 18.067
1.28831 3.11035 18.0166
2.19132 2.20734 18.0419
2.19928 2.19938 18.0671
2.17929 2.21937 18.0671
2.19117 2.20749 17.9413
2.19928 2.19938 17.9163
2.19928 2.19938 17.9664
2.17929 2.21937 18.0671
2.19928 2.19938 18.0671
2.19133 2.20733 18.0923
2.19928 2.19938 18.0671
2.19928 2.19938 18.1175
2.19133 2.20733 18.0923
2.17929 2.21937 18.1176
2.19133 2.20733 18.0923
2.19928 2.19938 18.1175
2.17928 2.21938 18.2693
2.1913 2.20736 18.2947
2.16946 2.22921 18.2947
2.16946 2.22921 18.2947
2.1913 2.20736 18.2947
2.17928 2.21938 18.3201
2.16946 2.22921 18.2947
2.15842 2.24024 18.2693
2.17928 2.21938 18.2693
2.16946 2.22921 18.2947
2.17928 2.21938 18.3201
2.15841 2.24025 18.3201
2.19928 2.19938 18.168
2.19928 2.19938 18.2186
2.19132 2.20734 18.1933
2.19132 2.20734 18.1933
2.17929 2.21937 18.2186
2.16947 2.22919 18.1933
2.19928 2.19938 18.2186
2.17929 2.21937 18.2186
2.19132 2.20734 18.1933
2.19928 2.19938 18.2693
2.1913 2.20736 18.2947
2.17928 2.21938 18.2693
2.19928 2.19938 18.3201
2.1913 2.20736 18.2947
2.19928 2.19938 18.2693
2.17913 2.21954 17.9163
2.19928 2.19938 17.9163
2.19117 2.20749 17.9413
2.17927 2.21939 18.371
2.19129 2.20737 18.3455
2.19928 2.19938 18.371
1.8956 2.50306 18.5507
1.90602 2.49264 18.525
1.91643 2.48223 18.5507
1.28831 3.11035 17.765
1.30792 3.09074 17.765
1.29529 3.10337 17.7897
1.34771 3.05096 18.0166
1.32717 3.07149 18.0166
1.33709 3.06157 17.9914
1.30704 3.09162 18.0166
1.32717 3.07149 18.0166
1.31607 3.08259 18.0418
1.30704 3.09162 18.0166
1.29441 3.10425 18.0418
1.28831 3.11035 18.0166
1.31607 3.08259 18.0418
1.29441 3.10425 18.0418
1.30704 3.09162 18.0166
1.2945 3.10417 18.2439
1.28831 3.11035 18.2693
1.28831 3.11035 18.2186
1.3071 3.09157 18.2693
1.31615 3.08252 18.2439
1.32724 3.07142 18.2693
1.28831 3.11035 18.2693
1.2945 3.10417 18.2439
1.3071 3.09157 18.2693
1.3071 3.09157 18.2693
1.2945 3.10417 18.2439
1.31615 3.08252 18.2439
1.30708 3.09158 18.2186
1.32723 3.07143 18.2186
1.31615 3.08252 18.2439
1.30708 3.09158 18.2186
1.2945 3.10417 18.2439
1.28831 3.11035 18.2186
1.31615 3.08252 18.2439
1.2945 3.10417 18.2439
1.30708 3.09158 18.2186
1.28831 3.11035 18.067
1.29441 3.10425 18.0418
1.30705 3.09161 18.067
1.30705 3.09161 18.067
1.29441 3.10425 18.0418
1.31607 3.08259 18.0418
1.32724 3.07142 18.2693
1.31615 3.08252 18.2439
1.33718 3.06148 18.2439
1.31615 3.08252 18.2439
1.32723 3.07143 18.2186
1.33718 3.06148 18.2439
1.49256 2.90611 18.2187
1.50289 2.89577 18.244
1.48223 2.91643 18.244
1.48223 2.91643 18.244
1.50289 2.89577 18.244
1.49257 2.90609 18.2694
1.49257 2.90609 18.2694
1.50289 2.89577 18.244
1.51323 2.88543 18.2694
1.88521 2.51346 18.525
1.90602 2.49264 18.525
1.8956 2.50306 18.5507
2.19127 2.20739 17.9916
2.19928 2.19938 17.9664
2.19928 2.19938 18.0167
2.19928 2.19938 18.0671
2.19132 2.20734 18.0419
2.19928 2.19938 18.0167
2.11618 2.28248 18.1681
2.09503 2.30363 18.1681
2.10562 2.29304 18.1428
2.17929 2.21937 18.1681
2.19132 2.20734 18.1933
2.16947 2.22919 18.1933
2.19928 2.19938 18.168
2.19132 2.20734 18.1933
2.17929 2.21937 18.1681
2.16947 2.22919 18.1933
2.17929 2.21937 18.2186
2.15843 2.24024 18.2186
2.19131 2.20735 18.2439
2.17929 2.21937 18.2186
2.19928 2.19938 18.2186
2.19928 2.19938 18.2186
2.19928 2.19938 18.2693
2.19131 2.20735 18.2439
2.19131 2.20735 18.2439
2.19928 2.19938 18.2693
2.17928 2.21938 18.2693
2.1693 2.22936 17.9414
2.17913 2.21954 17.9163
2.19117 2.20749 17.9413
2.19127 2.20739 17.9916
2.19928 2.19938 18.0167
2.17927 2.21939 18.0167
2.17927 2.21939 18.0167
2.19928 2.19938 18.0167
2.19132 2.20734 18.0419
2.10553 2.29313 17.9916
2.09491 2.30375 17.9664
2.11605 2.28261 17.9664
2.1372 2.26147 17.9665
2.12662 2.27204 17.9413
2.14787 2.25079 17.9413
2.1372 2.26147 17.9665
2.11605 2.28261 17.9664
2.12662 2.27204 17.9413
2.16946 2.2292 18.0419
2.19132 2.20734 18.0419
2.17929 2.21937 18.0671
2.16946 2.2292 18.0419
2.17927 2.21939 18.0167
2.19132 2.20734 18.0419
2.16945 2.22921 18.3456
2.17928 2.21938 18.3201
2.19129 2.20737 18.3455
2.19129 2.20737 18.3455
2.17927 2.21939 18.371
2.16945 2.22921 18.3456
2.15841 2.24025 18.3201
2.17928 2.21938 18.3201
2.16945 2.22921 18.3456
2.16944 2.22922 18.4991
2.14804 2.25062 18.4991
2.15841 2.24025 18.4734
2.14804 2.25063 18.4477
2.16944 2.22922 18.4477
2.15841 2.24025 18.4734
2.19128 2.20738 18.3965
2.17927 2.21939 18.371
2.19928 2.19938 18.371
2.16944 2.22922 18.3966
2.17927 2.21939 18.371
2.19128 2.20738 18.3965
1.93725 2.46141 18.6023
1.94766 2.451 18.6282
1.92679 2.47187 18.6282
2.05276 2.34591 18.4734
2.06331 2.33535 18.4478
2.07386 2.3248 18.4734
2.07386 2.3248 18.4734
2.06331 2.33535 18.4478
2.08443 2.31423 18.4478
2.15841 2.24026 18.4221
2.14804 2.25062 18.3966
2.16944 2.22922 18.3966
2.15841 2.24026 18.4221
2.16944 2.22922 18.4477
2.14804 2.25063 18.4477
2.04222 2.35644 18.4478
2.06331 2.33535 18.4478
2.05276 2.34591 18.4734
1.9897 2.40896 18.2187
1.96874 2.42992 18.2187
1.97921 2.41945 18.1934
1.93736 2.4613 18.1934
1.92692 2.47174 18.2188
1.91649 2.48217 18.1934
1.94781 2.45085 18.2187
1.92692 2.47174 18.2188
1.93736 2.4613 18.1934
1.92691 2.47175 18.1177
1.9478 2.45086 18.1177
1.93736 2.46131 18.1429
1.93736 2.46131 18.1429
1.91648 2.48218 18.1429
1.92691 2.47175 18.1177
1.92691 2.47175 18.1177
1.91648 2.48218 18.1429
1.90605 2.49261 18.1176
1.93736 2.46131 18.1429
1.9478 2.45086 18.1177
1.95826 2.4404 18.1429
1.96871 2.42995 18.0672
1.9792 2.41946 18.0924
1.95825 2.44041 18.0924
1.95825 2.44041 18.0924
1.94778 2.45088 18.0672
1.96871 2.42995 18.0672
1.8126 2.58607 18.2441
1.82295 2.57571 18.2188
1.83332 2.56534 18.2441
1.82295 2.57571 18.2188
1.84369 2.55497 18.2188
1.83332 2.56534 18.2441
1.92692 2.47174 18.1682
1.91648 2.48218 18.1429
1.93736 2.46131 18.1429
1.92692 2.47174 18.1682
1.93736 2.4613 18.1934
1.91649 2.48217 18.1934
1.91649 2.48217 18.1934
1.89565 2.50301 18.1934
1.90606 2.4926 18.1682
1.90606 2.4926 18.1682
1.92692 2.47174 18.1682
1.91649 2.48217 18.1934
1.91648 2.48218 18.1429
1.92692 2.47174 18.1682
1.90606 2.4926 18.1682
1.90605 2.49261 18.1176
1.88523 2.51343 18.1176
1.89563 2.50303 18.0924
1.88521 2.51345 18.0672
1.90603 2.49263 18.0672
1.89563 2.50303 18.0924
1.51322 2.88545 18.2187
1.50289 2.89577 18.244
1.49256 2.90611 18.2187
1.49256 2.90611 18.2187
1.50288 2.89578 18.1934
1.51322 2.88545 18.2187
1.29442 3.10424 17.8399
1.28831 3.11035 17.8651
1.28831 3.11035 17.8144
1.28831 3.11035 17.765
1.29529 3.10337 17.7897
1.28831 3.11035 17.8144
1.307 3.09167 17.9157
1.28831 3.11035 17.9157
1.29431 3.10435 17.8904
1.28831 3.11035 17.9157
1.28831 3.11035 17.8651
1.29431 3.10435 17.8904
2.19928 2.19938 17.765
2.19217 2.20649 17.7907
2.18013 2.21854 17.765
1.28831 3.11035 18.0166
1.28831 3.11035 17.9661
1.29438 3.10428 17.9914
1.29438 3.10428 17.9914
1.30704 3.09162 18.0166
1.28831 3.11035 18.0166
1.30702 3.09164 17.9661
1.29438 3.10428 17.9914
1.28831 3.11035 17.9661
1.30702 3.09164 17.9661
1.31601 3.08265 17.9409
1.32714 3.07152 17.9662
1.31605 3.08262 17.9914
1.33709 3.06157 17.9914
1.32717 3.07149 18.0166
1.32717 3.07149 18.0166
1.30704 3.09162 18.0166
1.31605 3.08262 17.9914
1.32714 3.07152 17.9662
1.33709 3.06157 17.9914
1.31605 3.08262 17.9914
1.31605 3.08262 17.9914
1.30702 3.09164 17.9661
1.32714 3.07152 17.9662
1.30704 3.09162 18.0166
1.29438 3.10428 17.9914
1.31605 3.08262 17.9914
1.29438 3.10428 17.9914
1.30702 3.09164 17.9661
1.31605 3.08262 17.9914
1.29435 3.10432 17.9409
1.28831 3.11035 17.9661
1.28831 3.11035 17.9157
1.29435 3.10432 17.9409
1.28831 3.11035 17.9157
1.307 3.09167 17.9157
1.307 3.09167 17.9157
1.31601 3.08265 17.9409
1.29435 3.10432 17.9409
1.29435 3.10432 17.9409
1.30702 3.09164 17.9661
1.28831 3.11035 17.9661
1.31601 3.08265 17.9409
1.30702 3.09164 17.9661
1.29435 3.10432 17.9409
1.33717 3.06149 18.1933
1.32723 3.07143 18.2186
1.31613 3.08254 18.1933
1.32723 3.07143 18.2186
1.30708 3.09158 18.2186
1.31613 3.08254 18.1933
1.31613 3.08254 18.1933
1.32722 3.07145 18.168
1.33717 3.06149 18.1933
1.33711 3.06155 18.0418
1.32717 3.07149 18.0166
1.34771 3.05096 18.0166
1.31607 3.08259 18.0418
1.32717 3.07149 18.0166
1.33711 3.06155 18.0418
1.35794 3.04072 18.0418
1.33711 3.06155 18.0418
1.34771 3.05096 18.0166
1.34773 3.05094 18.067
1.33711 3.06155 18.0418
1.35794 3.04072 18.0418
1.34773 3.05094 18.067
1.35794 3.04072 18.0418
1.36839 3.03027 18.067
1.50287 2.89579 18.1428
1.51321 2.88546 18.1681
1.49255 2.90612 18.1681
1.49255 2.90612 18.1681
1.51321 2.88546 18.1681
1.50288 2.89578 18.1934
1.42017 2.9785 18.1933
1.44086 2.9578 18.1933
1.43052 2.96814 18.2186
1.43051 2.96815 18.168
1.44086 2.9578 18.1933
1.42017 2.9785 18.1933
1.44085 2.95782 18.1428
1.4305 2.96817 18.1175
1.45119 2.94748 18.1175
1.43051 2.96815 18.168
1.42015 2.97851 18.1428
1.44085 2.95782 18.1428
1.44085 2.95782 18.1428
1.42015 2.97851 18.1428
1.4305 2.96817 18.1175
1.44087 2.95779 18.244
1.46156 2.9371 18.244
1.45123 2.94744 18.2693
1.3995 2.99917 18.2947
1.40985 2.98882 18.2693
1.4202 2.97846 18.2947
1.40983 2.98883 18.2186
1.42017 2.9785 18.1933
1.43052 2.96814 18.2186
1.39946 2.9992 18.1933
1.42017 2.9785 18.1933
1.40983 2.98883 18.2186
1.32724 3.07142 18.2693
1.33718 3.06148 18.2439
1.34779 3.05087 18.2693
1.33717 3.06149 18.1933
1.32722 3.07145 18.168
1.34776 3.0509 18.168
1.34776 3.0509 18.168
1.35799 3.04067 18.1933
1.33717 3.06149 18.1933
1.38911 3.00955 18.168
1.39946 2.9992 18.1933
1.37874 3.01992 18.1933
1.34777 3.05089 18.2186
[...]
<PointData Scalars="View Factor" >
<DataArray type="Float64" Name="View Factor" NumberOfComponents="1" format="ascii">
1.87271e-05
1.87271e-05
1.87271e-05
4.41826e-05
4.41826e-05
4.41826e-05
4.66165e-05
4.66165e-05
4.66165e-05
0.000322191
0.000322191
0.000322191
0.000325895
0.000325895
0.000325895
4.99923e-05
4.99923e-05
4.99923e-05
0.000425049
0.000425049
0.000425049
3.65688e-05
3.65688e-05
3.65688e-05
1.48388e-05
1.48388e-05
1.48388e-05
4.73286e-05
4.73286e-05
4.73286e-05
5.86919e-05
5.86919e-05
5.86919e-05
6.69528e-05
6.69528e-05
6.69528e-05
6.19792e-05
6.19792e-05
6.19792e-05
5.78347e-05
5.78347e-05
5.78347e-05
8.96687e-05
8.96687e-05
8.96687e-05
8.36386e-05
8.36386e-05
8.36386e-05
8.70105e-05
8.70105e-05
8.70105e-05
9.05155e-05
9.05155e-05
9.05155e-05
8.08591e-05
8.08591e-05
8.08591e-05
5.80352e-05
5.80352e-05
5.80352e-05
5.46231e-05
5.46231e-05
5.46231e-05
1.52092e-05
1.52092e-05
1.52092e-05
4.06933e-05
4.06933e-05
4.06933e-05
1.62968e-05
1.62968e-05
1.62968e-05
0.000466223
0.000466223
0.000466223
0.000412828
0.000412828
0.000412828
0.00041834
0.00041834
0.00041834
0.000425505
0.000425505
0.000425505
0.00042105
0.00042105
0.00042105
0.000395421
0.000395421
0.000395421
0.000384489
0.000384489
0.000384489
0.00039108
0.00039108
0.00039108
0.000389335
0.000389335
0.000389335
0.000389116
0.000389116
0.000389116
0.00039582
0.00039582
0.00039582
0.000391679
0.000391679
0.000391679
0.000420366
0.000420366
0.000420366
0.000418514
0.000418514
0.000418514
0.000382011
0.000382011
0.000382011
0.000384293
0.000384293
0.000384293
0.00030598
0.00030598
0.00030598
0.000304073
0.000304073
0.000304073
0.000292382
0.000292382
0.000292382
1.71294e-05
1.71294e-05
1.71294e-05
1.41944e-05
1.41944e-05
1.41944e-05
2.73879e-05
2.73879e-05
2.73879e-05
9.91376e-05
9.91376e-05
9.91376e-05
9.47489e-05
9.47489e-05
9.47489e-05
8.86574e-05
8.86574e-05
8.86574e-05
0.000106614
0.000106614
0.000106614
7.46584e-05
7.46584e-05
7.46584e-05
6.94123e-05
6.94123e-05
6.94123e-05
6.29702e-05
6.29702e-05
6.29702e-05
2.17128e-05
2.17128e-05
2.17128e-05
1.45357e-05
1.45357e-05
1.45357e-05
1.88991e-05
1.88991e-05
1.88991e-05
3.99278e-05
3.99278e-05
3.99278e-05
5.54627e-05
5.54627e-05
5.54627e-05
5.18498e-05
5.18498e-05
5.18498e-05
3.87677e-05
3.87677e-05
3.87677e-05
2.96986e-05
2.96986e-05
2.96986e-05
5.06111e-05
5.06111e-05
5.06111e-05
4.77583e-05
4.77583e-05
4.77583e-05
8.10959e-05
8.10959e-05
8.10959e-05
6.20711e-05
6.20711e-05
6.20711e-05
6.45004e-05
6.45004e-05
6.45004e-05
3.81847e-05
3.81847e-05
3.81847e-05
4.25746e-05
4.25746e-05
4.25746e-05
1.16781e-05
1.16781e-05
1.16781e-05
2.0212e-05
2.0212e-05
2.0212e-05
2.08673e-05
2.08673e-05
2.08673e-05
6.89468e-05
6.89468e-05
6.89468e-05
6.59304e-05
6.59304e-05
6.59304e-05
2.08894e-05
2.08894e-05
2.08894e-05
7.43248e-05
7.43248e-05
7.43248e-05
8.26794e-05
8.26794e-05
8.26794e-05
7.75409e-05
7.75409e-05
7.75409e-05
7.81217e-05
7.81217e-05
7.81217e-05
8.36311e-05
8.36311e-05
8.36311e-05
8.08644e-05
8.08644e-05
8.08644e-05
8.07492e-05
8.07492e-05
8.07492e-05
5.18049e-05
5.18049e-05
5.18049e-05
4.67224e-05
4.67224e-05
4.67224e-05
7.90007e-05
7.90007e-05
7.90007e-05
8.20325e-05
8.20325e-05
8.20325e-05
9.04106e-05
9.04106e-05
9.04106e-05
8.90689e-05
8.90689e-05
8.90689e-05
9.21277e-05
9.21277e-05
9.21277e-05
9.23224e-05
9.23224e-05
9.23224e-05
9.33706e-05
9.33706e-05
9.33706e-05
7.41334e-05
7.41334e-05
7.41334e-05
5.17927e-05
5.17927e-05
5.17927e-05
0.000296092
0.000296092
0.000296092
0.000297957
0.000297957
0.000297957
0.000457446
0.000457446
0.000457446
0.00046584
0.00046584
0.00046584
0.000444074
0.000444074
0.000444074
0.000449063
0.000449063
0.000449063
1.97568e-05
1.97568e-05
1.97568e-05
0.000432866
0.000432866
0.000432866
0.000428097
0.000428097
0.000428097
0.000433336
0.000433336
0.000433336
0.00042867
0.00042867
0.00042867
0.00041824
0.00041824
0.00041824
0.000420886
0.000420886
0.000420886
0.000420797
0.000420797
0.000420797
0.000426068
0.000426068
0.000426068
0.000426213
0.000426213
0.000426213
0.0004288
0.0004288
0.0004288
0.000440867
0.000440867
0.000440867
0.000441371
0.000441371
0.000441371
0.000436752
0.000436752
0.000436752
0.000435989
0.000435989
0.000435989
0.000434079
0.000434079
0.000434079
0.000388941
0.000388941
0.000388941
0.000391485
0.000391485
0.000391485
0.000391303
0.000391303
0.000391303
0.000410292
0.000410292
0.000410292
0.000413189
0.000413189
0.000413189
0.000405018
0.000405018
0.000405018
0.000402507
0.000402507
0.000402507
0.000397572
0.000397572
0.000397572
0.000303851
0.000303851
0.000303851
0.000301862
0.000301862
0.000301862
0.000346412
0.000346412
0.000346412
0.000348444
0.000348444
0.000348444
0.000351011
0.000351011
0.000351011
0.00035251
0.00035251
0.00035251
0.000354607
0.000354607
0.000354607
0.000331946
0.000331946
0.000331946
0.000345007
0.000345007
0.000345007
0.000350177
0.000350177
0.000350177
0.000355534
0.000355534
0.000355534
0.000376891
0.000376891
0.000376891
0.000388485
0.000388485
0.000388485
0.000383397
0.000383397
0.000383397
0.000367187
0.000367187
0.000367187
0.000381502
0.000381502
0.000381502
0.0003838
0.0003838
0.0003838
0.000381051
0.000381051
0.000381051
0.000336998
0.000336998
0.000336998
0.00034263
0.00034263
0.00034263
0.000326128
0.000326128
0.000326128
0.000315798
0.000315798
0.000315798
0.00032198
0.00032198
0.00032198
0.00032382
0.00032382
0.00032382
0.000311841
0.000311841
0.000311841
0.000325832
0.000325832
0.000325832
0.000319967
0.000319967
0.000319967
0.000309921
0.000309921
0.000309921
0.000315887
0.000315887
0.000315887
0.000305927
0.000305927
0.000305927
0.000313873
0.000313873
0.000313873
0.000334923
0.000334923
0.000334923
0.000327949
0.000327949
0.000327949
0.000269776
0.000269776
0.000269776
8.73529e-05
8.73529e-05
8.73529e-05
0.00018803
0.00018803
0.00018803
7.96259e-05
7.96259e-05
7.96259e-05
0.000183472
0.000183472
0.000183472
0.00029827
0.00029827
0.00029827
0.000290578
0.000290578
0.000290578
0.000300181
0.000300181
0.000300181
1.92836e-05
1.92836e-05
1.92836e-05
1.83234e-05
1.83234e-05
1.83234e-05
1.68179e-05
1.68179e-05
1.68179e-05
1.7669e-05
1.7669e-05
1.7669e-05
2.06134e-05
2.06134e-05
2.06134e-05
2.10165e-05
2.10165e-05
2.10165e-05
2.51774e-05
2.51774e-05
2.51774e-05
1.88872e-05
1.88872e-05
1.88872e-05
9.21465e-06
9.21465e-06
9.21465e-06
9.54509e-06
9.54509e-06
9.54509e-06
8.69206e-06
8.69206e-06
8.69206e-06
8.65403e-06
8.65403e-06
8.65403e-06
1.01461e-05
1.01461e-05
1.01461e-05
1.02612e-05
1.02612e-05
1.02612e-05
9.8922e-06
9.8922e-06
9.8922e-06
9.30672e-06
9.30672e-06
9.30672e-06
9.63789e-06
9.63789e-06
9.63789e-06
1.00007e-05
1.00007e-05
1.00007e-05
1.04841e-05
1.04841e-05
1.04841e-05
8.43834e-06
8.43834e-06
8.43834e-06
9.06792e-06
9.06792e-06
9.06792e-06
8.98166e-06
8.98166e-06
8.98166e-06
8.47241e-06
8.47241e-06
8.47241e-06
8.2224e-06
8.2224e-06
8.2224e-06
7.35325e-06
7.35325e-06
7.35325e-06
6.31022e-06
6.31022e-06
6.31022e-06
6.34235e-06
6.34235e-06
6.34235e-06
1.15491e-05
1.15491e-05
1.15491e-05
1.15363e-05
1.15363e-05
1.15363e-05
1.12245e-05
1.12245e-05
1.12245e-05
8.40952e-05
8.40952e-05
8.40952e-05
8.21757e-05
8.21757e-05
8.21757e-05
8.5204e-05
8.5204e-05
8.5204e-05
7.99878e-05
7.99878e-05
7.99878e-05
3.37881e-05
3.37881e-05
3.37881e-05
4.58559e-05
4.58559e-05
4.58559e-05
2.7433e-05
2.7433e-05
2.7433e-05
7.29288e-05
7.29288e-05
7.29288e-05
7.62903e-05
7.62903e-05
7.62903e-05
8.7531e-05
8.7531e-05
8.7531e-05
9.28055e-05
9.28055e-05
9.28055e-05
8.34737e-05
8.34737e-05
8.34737e-05
7.5165e-05
7.5165e-05
7.5165e-05
8.63874e-05
8.63874e-05
8.63874e-05
8.74906e-05
8.74906e-05
8.74906e-05
8.77179e-05
8.77179e-05
8.77179e-05
9.32149e-05
9.32149e-05
9.32149e-05
0.000101654
0.000101654
0.000101654
9.24154e-05
9.24154e-05
9.24154e-05
9.67152e-05
9.67152e-05
9.67152e-05
7.19465e-05
7.19465e-05
7.19465e-05
7.79164e-05
7.79164e-05
7.79164e-05
1.39711e-05
1.39711e-05
1.39711e-05
1.43485e-05
1.43485e-05
1.43485e-05
2.14758e-05
2.14758e-05
2.14758e-05
1.56531e-05
1.56531e-05
1.56531e-05
4.00536e-05
4.00536e-05
4.00536e-05
4.77222e-05
4.77222e-05
4.77222e-05
7.057e-05
7.057e-05
7.057e-05
5.88252e-05
5.88252e-05
5.88252e-05
6.95932e-05
6.95932e-05
6.95932e-05
6.30427e-05
6.30427e-05
6.30427e-05
7.6536e-05
7.6536e-05
7.6536e-05
7.45343e-05
7.45343e-05
7.45343e-05
7.06492e-05
7.06492e-05
7.06492e-05
6.10065e-05
6.10065e-05
6.10065e-05
3.89563e-05
3.89563e-05
3.89563e-05
7.96693e-06
7.96693e-06
7.96693e-06
1.52365e-05
1.52365e-05
1.52365e-05
1.76992e-05
1.76992e-05
1.76992e-05
1.65896e-05
1.65896e-05
1.65896e-05
1.88097e-05
1.88097e-05
1.88097e-05
1.63944e-05
1.63944e-05
1.63944e-05
4.94023e-05
4.94023e-05
4.94023e-05
5.04891e-05
5.04891e-05
5.04891e-05
6.67095e-05
6.67095e-05
6.67095e-05
7.3242e-05
7.3242e-05
7.3242e-05
7.35003e-05
7.35003e-05
7.35003e-05
7.66041e-05
7.66041e-05
7.66041e-05
4.74081e-05
4.74081e-05
4.74081e-05
4.96835e-05
4.96835e-05
4.96835e-05
4.75004e-05
4.75004e-05
4.75004e-05
7.11405e-05
7.11405e-05
7.11405e-05
6.94285e-05
6.94285e-05
6.94285e-05
4.03994e-05
4.03994e-05
4.03994e-05
5.95679e-05
5.95679e-05
5.95679e-05
5.62151e-05
5.62151e-05
5.62151e-05
6.08153e-05
6.08153e-05
6.08153e-05
5.8646e-05
5.8646e-05
5.8646e-05
5.41107e-05
5.41107e-05
5.41107e-05
5.53793e-05
5.53793e-05
5.53793e-05
7.37311e-05
7.37311e-05
7.37311e-05
8.23636e-05
8.23636e-05
8.23636e-05
7.69364e-05
7.69364e-05
7.69364e-05
8.52399e-05
8.52399e-05
8.52399e-05
8.02355e-05
8.02355e-05
8.02355e-05
8.55093e-05
8.55093e-05
8.55093e-05
6.99006e-05
6.99006e-05
6.99006e-05
5.92412e-05
5.92412e-05
5.92412e-05
5.56501e-05
5.56501e-05
5.56501e-05
7.21003e-05
7.21003e-05
7.21003e-05
7.47525e-05
7.47525e-05
7.47525e-05
8.29332e-05
8.29332e-05
8.29332e-05
8.83404e-05
8.83404e-05
8.83404e-05
7.71793e-05
7.71793e-05
7.71793e-05
8.56302e-05
8.56302e-05
8.56302e-05
6.54483e-05
6.54483e-05
6.54483e-05
6.11141e-05
6.11141e-05
6.11141e-05
5.56237e-05
5.56237e-05
5.56237e-05
5.3941e-05
5.3941e-05
5.3941e-05
5.74152e-05
5.74152e-05
5.74152e-05
6.3088e-05
6.3088e-05
6.3088e-05
7.98518e-05
7.98518e-05
7.98518e-05
7.48433e-05
7.48433e-05
7.48433e-05
7.80347e-05
7.80347e-05
7.80347e-05
8.39981e-05
8.39981e-05
8.39981e-05
3.42176e-05
3.42176e-05
3.42176e-05
4.92968e-05
4.92968e-05
4.92968e-05
3.50944e-05
3.50944e-05
3.50944e-05
7.16975e-05
7.16975e-05
7.16975e-05
5.01293e-05
5.01293e-05
5.01293e-05
6.78674e-05
6.78674e-05
6.78674e-05
5.70018e-05
5.70018e-05
5.70018e-05
4.84245e-05
4.84245e-05
4.84245e-05
5.51635e-05
5.51635e-05
5.51635e-05
6.56639e-05
6.56639e-05
6.56639e-05
6.92633e-05
6.92633e-05
6.92633e-05
6.33957e-05
6.33957e-05
6.33957e-05
5.32573e-05
5.32573e-05
5.32573e-05
8.51078e-05
8.51078e-05
8.51078e-05
8.60265e-05
8.60265e-05
8.60265e-05
0.000113905
0.000113905
0.000113905
0.000122824
0.000122824
0.000122824
6.76053e-05
6.76053e-05
6.76053e-05
7.17505e-05
7.17505e-05
7.17505e-05
0.000111056
0.000111056
0.000111056
0.000107273
0.000107273
0.000107273
5.8187e-05
5.8187e-05
5.8187e-05
6.17433e-05
6.17433e-05
6.17433e-05
5.96699e-05
5.96699e-05
5.96699e-05
5.3347e-05
5.3347e-05
5.3347e-05
5.14568e-05
5.14568e-05
5.14568e-05
5.47034e-05
5.47034e-05
5.47034e-05
9.10316e-05
9.10316e-05
9.10316e-05
0.000104817
0.000104817
0.000104817
0.000104376
0.000104376
0.000104376
9.68476e-05
9.68476e-05
9.68476e-05
6.7035e-05
6.7035e-05
6.7035e-05
7.16954e-05
7.16954e-05
7.16954e-05
0.000107945
0.000107945
0.000107945
8.4461e-05
8.4461e-05
8.4461e-05
9.37389e-05
9.37389e-05
9.37389e-05
0.000105995
0.000105995
0.000105995
5.34997e-05
5.34997e-05
5.34997e-05
5.89101e-05
5.89101e-05
5.89101e-05
7.01375e-05
7.01375e-05
7.01375e-05
9.54435e-05
9.54435e-05
9.54435e-05
9.51884e-05
9.51884e-05
9.51884e-05
9.96967e-05
9.96967e-05
9.96967e-05
9.85666e-05
9.85666e-05
9.85666e-05
0.000283218
0.000283218
0.000283218
0.000343811
0.000343811
0.000343811
0.00034196
0.00034196
0.00034196
0.000345616
0.000345616
0.000345616
0.000314013
0.000314013
0.000314013
0.000297097
0.000297097
0.000297097
0.000299119
0.000299119
0.000299119
0.000402514
0.000402514
0.000402514
0.000410029
0.000410029
0.000410029
0.000405019
0.000405019
0.000405019
0.000293281
0.000293281
0.000293281
0.000291299
0.000291299
0.000291299
0.000116759
0.000116759
0.000116759
0.000109988
0.000109988
0.000109988
9.91306e-05
9.91306e-05
9.91306e-05
9.52141e-05
9.52141e-05
9.52141e-05
8.08591e-05
8.08591e-05
8.08591e-05
8.6291e-05
8.6291e-05
8.6291e-05
4.98649e-05
4.98649e-05
4.98649e-05
2.23801e-05
2.23801e-05
2.23801e-05
7.35413e-05
7.35413e-05
7.35413e-05
7.31084e-06
7.31084e-06
7.31084e-06
4.34131e-05
4.34131e-05
4.34131e-05
4.38991e-05
4.38991e-05
4.38991e-05
4.40252e-06
4.40252e-06
4.40252e-06
4.83532e-06
4.83532e-06
4.83532e-06
0.000388388
0.000388388
0.000388388
0.000388769
0.000388769
0.000388769
0.000402596
0.000402596
0.000402596
0.000398182
0.000398182
0.000398182
0.000396412
0.000396412
0.000396412
0.000409922
0.000409922
0.000409922
0.000410342
0.000410342
0.000410342
0.000403422
0.000403422
0.000403422
0.000406055
0.000406055
0.000406055
0.000417841
0.000417841
0.000417841
0.000417403
0.000417403
0.000417403
0.000412813
0.000412813
0.000412813
0.000413473
0.000413473
0.000413473
0.000410983
0.000410983
0.000410983
0.000405858
0.000405858
0.000405858
0.000403265
0.000403265
0.000403265
0.000397669
0.000397669
0.000397669
0.000395201
0.000395201
0.000395201
0.000413297
0.000413297
0.000413297
0.000410656
0.000410656
0.000410656
0.000410802
0.000410802
0.000410802
0.000405744
0.000405744
0.000405744
0.000405282
0.000405282
0.000405282
0.000402897
0.000402897
0.000402897
0.000398445
0.000398445
0.000398445
0.000396039
0.000396039
0.000396039
0.000390872
0.000390872
0.000390872
0.000388086
0.000388086
0.000388086
0.000324064
0.000324064
0.000324064
0.000332535
0.000332535
0.000332535
0.000334727
0.000334727
0.000334727
0.000316014
0.000316014
0.000316014
0.00030986
0.00030986
0.00030986
0.00031192
0.00031192
0.00031192
0.00031778
0.00031778
0.00031778
0.000321936
0.000321936
0.000321936
0.000328217
0.000328217
0.000328217
0.000326066
0.000326066
0.000326066
0.000357728
0.000357728
0.000357728
0.000362135
0.000362135
0.000362135
0.000354447
0.000354447
0.000354447
0.000356629
0.000356629
0.000356629
0.000364035
0.000364035
0.000364035
0.000366276
0.000366276
0.000366276
0.000342569
0.000342569
0.000342569
0.00034814
0.00034814
0.00034814
0.000335817
0.000335817
0.000335817
0.0003421
0.0003421
0.0003421
0.000344065
0.000344065
0.000344065
0.000340703
0.000340703
0.000340703
0.000336858
0.000336858
0.000336858
0.000333907
0.000333907
0.000333907
0.00033896
0.00033896
0.00033896
0.000336191
0.000336191
0.000336191
0.000338129
0.000338129
0.000338129
0.000342976
0.000342976
0.000342976
0.000346811
0.000346811
0.000346811
0.000347729
0.000347729
0.000347729
0.000344735
0.000344735
0.000344735
0.000351074
0.000351074
0.000351074
0.000383286
0.000383286
0.000383286
0.000372519
0.000372519
0.000372519
0.000380924
0.000380924
0.000380924
0.000375608
0.000375608
0.000375608
0.000374225
0.000374225
0.000374225
0.000376482
0.000376482
0.000376482
0.000368831
0.000368831
0.000368831
0.000374078
0.000374078
0.000374078
0.000373317
0.000373317
0.000373317
0.000376345
0.000376345
0.000376345
0.000345631
0.000345631
0.000345631
0.000348578
0.000348578
0.000348578
0.000340635
0.000340635
0.000340635
0.000353559
0.000353559
0.000353559
0.000356444
0.000356444
0.000356444
0.000346484
0.000346484
0.000346484
0.000313758
0.000313758
0.000313758
0.000332433
0.000332433
0.000332433
0.000330589
0.000330589
0.000330589
0.000325516
0.000325516
0.000325516
0.000322271
0.000322271
0.000322271
0.000329226
0.000329226
0.000329226
0.000319561
0.000319561
0.000319561
0.000322464
0.000322464
0.000322464
0.0003552
0.0003552
0.0003552
0.000351324
0.000351324
0.000351324
0.000349746
0.000349746
0.000349746
0.00034304
0.00034304
0.00034304
0.000348907
0.000348907
0.000348907
0.000345108
0.000345108
0.000345108
0.000343579
0.000343579
0.000343579
0.000349256
0.000349256
0.000349256
0.000345621
0.000345621
0.000345621
0.000345362
0.000345362
0.000345362
0.00034331
0.00034331
0.00034331
0.000333868
0.000333868
0.000333868
0.000329857
0.000329857
0.000329857
0.000331851
0.000331851
0.000331851
0.000337723
0.000337723
0.000337723
0.000341448
0.000341448
0.000341448
0.000339643
0.000339643
0.000339643
0.000319663
0.000319663
0.000319663
0.000329961
0.000329961
0.000329961
0.000325967
0.000325967
0.000325967
0.000317668
0.000317668
0.000317668
5.30113e-05
5.30113e-05
5.30113e-05
6.01272e-05
6.01272e-05
6.01272e-05
5.66164e-05
5.66164e-05
5.66164e-05
0.000233974
0.000233974
0.000233974
0.000226664
0.000226664
0.000226664
0.000224406
0.000224406
0.000224406
0.000253846
0.000253846
0.000253846
0.000233339
0.000233339
0.000233339
0.000286838
0.000286838
0.000286838
0.000285048
0.000285048
0.000285048
0.000257013
0.000257013
0.000257013
0.000271464
0.000271464
0.000271464
0.000276691
0.000276691
0.000276691
0.000274917
0.000274917
0.000274917
0.000236592
0.000236592
0.000236592
0.000258615
0.000258615
0.000258615
1.67714e-05
1.67714e-05
1.67714e-05
1.59638e-05
1.59638e-05
1.59638e-05
1.63355e-05
1.63355e-05
1.63355e-05
1.71812e-05
1.71812e-05
1.71812e-05
1.87471e-05
1.87471e-05
1.87471e-05
2.00387e-05
2.00387e-05
2.00387e-05
1.66966e-05
1.66966e-05
1.66966e-05
1.78055e-05
1.78055e-05
1.78055e-05
1.73392e-05
1.73392e-05
1.73392e-05
1.82083e-05
1.82083e-05
1.82083e-05
2.79088e-05
2.79088e-05
2.79088e-05
2.45535e-05
2.45535e-05
2.45535e-05
2.29775e-05
2.29775e-05
2.29775e-05
2.5261e-05
2.5261e-05
2.5261e-05
2.59141e-05
2.59141e-05
2.59141e-05
2.36393e-05
2.36393e-05
2.36393e-05
2.24633e-05
2.24633e-05
2.24633e-05
2.83572e-05
2.83572e-05
2.83572e-05
2.71144e-05
2.71144e-05
2.71144e-05
3.09017e-05
3.09017e-05
3.09017e-05
3.16544e-05
3.16544e-05
3.16544e-05
2.1826e-05
2.1826e-05
2.1826e-05
1.9826e-05
1.9826e-05
1.9826e-05
1.94632e-05
1.94632e-05
1.94632e-05
2.04216e-05
2.04216e-05
2.04216e-05
2.38882e-05
2.38882e-05
2.38882e-05
2.23157e-05
2.23157e-05
2.23157e-05
2.11883e-05
2.11883e-05
2.11883e-05
1.82767e-05
1.82767e-05
1.82767e-05
1.92294e-05
1.92294e-05
1.92294e-05
1.86309e-05
1.86309e-05
1.86309e-05
1.99587e-05
1.99587e-05
1.99587e-05
4.62916e-05
4.62916e-05
4.62916e-05
4.26239e-05
4.26239e-05
4.26239e-05
3.25849e-05
3.25849e-05
3.25849e-05
3.61437e-05
3.61437e-05
3.61437e-05
3.92728e-05
3.92728e-05
3.92728e-05
3.71924e-05
3.71924e-05
3.71924e-05
3.52251e-05
3.52251e-05
3.52251e-05
4.14349e-05
4.14349e-05
4.14349e-05
4.04126e-05
4.04126e-05
4.04126e-05
2.94881e-05
2.94881e-05
2.94881e-05
3.10494e-05
3.10494e-05
3.10494e-05
1.50353e-05
1.50353e-05
1.50353e-05
9.91182e-06
9.91182e-06
9.91182e-06
1.05204e-05
1.05204e-05
1.05204e-05
1.14613e-05
1.14613e-05
1.14613e-05
1.10294e-05
1.10294e-05
1.10294e-05
1.55208e-05
1.55208e-05
1.55208e-05
1.52919e-05
1.52919e-05
1.52919e-05
0.000326772
0.000326772
0.000326772
0.000323618
0.000323618
0.000323618
1.02577e-05
1.02577e-05
1.02577e-05
1.74077e-05
1.74077e-05
1.74077e-05
7.59369e-05
7.59369e-05
7.59369e-05
1.99259e-05
1.99259e-05
1.99259e-05
0.000223236
0.000223236
0.000223236
3.92456e-05
3.92456e-05
3.92456e-05
2.81189e-05
2.81189e-05
2.81189e-05
2.09013e-05
2.09013e-05
2.09013e-05
2.14255e-05
2.14255e-05
2.14255e-05
2.39817e-05
2.39817e-05
2.39817e-05
2.29053e-05
2.29053e-05
2.29053e-05
1.62605e-05
1.62605e-05
1.62605e-05
1.18453e-05
1.18453e-05
1.18453e-05
1.09019e-05
1.09019e-05
1.09019e-05
1.11815e-05
1.11815e-05
1.11815e-05
1.07571e-05
1.07571e-05
1.07571e-05
1.77551e-05
1.77551e-05
1.77551e-05
1.95968e-05
1.95968e-05
1.95968e-05
1.86303e-05
1.86303e-05
1.86303e-05
1.62215e-05
1.62215e-05
1.62215e-05
1.58777e-05
1.58777e-05
1.58777e-05
1.66195e-05
1.66195e-05
1.66195e-05
1.74356e-05
1.74356e-05
1.74356e-05
1.88399e-05
1.88399e-05
1.88399e-05
1.7666e-05
1.7666e-05
1.7666e-05
7.13527e-06
7.13527e-06
7.13527e-06
7.36747e-06
7.36747e-06
7.36747e-06
8.7484e-06
8.7484e-06
8.7484e-06
8.00545e-06
8.00545e-06
8.00545e-06
8.2522e-06
8.2522e-06
8.2522e-06
7.57082e-06
7.57082e-06
7.57082e-06
7.58888e-06
7.58888e-06
7.58888e-06
8.04481e-06
8.04481e-06
8.04481e-06
8.34925e-06
8.34925e-06
8.34925e-06
6.47613e-06
6.47613e-06