<VTKFile type="UnstructuredGrid" version="1.0">
<UnstructuredGrid>
<Piece NumberOfPoints="10830" NumberOfCells="3610">
<Points>
<DataArray type="Float64" NumberOfComponents="3" format="ascii">
3.10314 1.29552 15.7007
3.11025 1.28841 15.675
3.11025 1.28841 15.7265
3.11025 1.28841 16.2301
3.11025 1.28841 16.281
3.10226 1.2964 16.2555
3.11025 1.28841 16.2301
3.10226 1.2964 16.2555
3.09025 1.30841 16.2301
2.21656 2.1821 16.7026
2.22913 2.16953 16.72
2.19928 2.19938 16.72
2.19928 2.19938 16.72
2.19928 2.19938 16.6898
2.21656 2.1821 16.7026
3.11025 1.28841 16.2301
3.09025 1.30841 16.2301
3.10227 1.29639 16.2047
2.20538 2.19328 15.9518
2.19928 2.19938 15.977
2.19928 2.19938 15.9266
3.10229 1.29637 15.9519
3.11025 1.28841 15.9771
3.09026 1.3084 15.9771
3.10214 1.29652 15.8513
3.11025 1.28841 15.8263
3.11025 1.28841 15.8764
3.09026 1.3084 15.9771
3.11025 1.28841 15.9771
3.1023 1.29636 16.0023
3.11025 1.28841 15.9771
3.11025 1.28841 16.0275
3.1023 1.29636 16.0023
3.09026 1.3084 16.0276
3.1023 1.29636 16.0023
3.11025 1.28841 16.0275
3.09025 1.30841 16.1793
3.10227 1.29639 16.2047
3.08043 1.31823 16.2047
3.08043 1.31823 16.2047
3.10227 1.29639 16.2047
3.09025 1.30841 16.2301
3.08043 1.31823 16.2047
3.06939 1.32927 16.1793
3.09025 1.30841 16.1793
3.08043 1.31823 16.2047
3.09025 1.30841 16.2301
3.06938 1.32928 16.2301
3.11025 1.28841 16.078
3.11025 1.28841 16.1286
3.10229 1.29637 16.1033
3.10229 1.29637 16.1033
3.09026 1.3084 16.1286
3.08044 1.31822 16.1033
3.11025 1.28841 16.1286
3.09026 1.3084 16.1286
3.10229 1.29637 16.1033
3.11025 1.28841 16.1793
3.10227 1.29639 16.2047
3.09025 1.30841 16.1793
3.11025 1.28841 16.2301
3.10227 1.29639 16.2047
3.11025 1.28841 16.1793
3.0901 1.30856 15.8263
3.11025 1.28841 15.8263
3.10214 1.29652 15.8513
3.09024 1.30842 16.281
3.10226 1.2964 16.2555
3.11025 1.28841 16.281
2.80657 1.59209 16.4607
2.81699 1.58167 16.435
2.8274 1.57126 16.4607
2.19928 2.19938 15.675
2.21889 2.17977 15.675
2.20626 2.1924 15.6997
2.25868 2.13998 15.9266
2.23814 2.16052 15.9266
2.24806 2.1506 15.9014
2.21801 2.18065 15.9266
2.23814 2.16052 15.9266
2.22704 2.17162 15.9518
2.21801 2.18065 15.9266
2.20538 2.19328 15.9518
2.19928 2.19938 15.9266
2.22704 2.17162 15.9518
2.20538 2.19328 15.9518
2.21801 2.18065 15.9266
2.20547 2.19319 16.1539
2.19928 2.19938 16.1793
2.19928 2.19938 16.1286
2.21807 2.1806 16.1793
2.22712 2.17155 16.1539
2.23821 2.16045 16.1793
2.19928 2.19938 16.1793
2.20547 2.19319 16.1539
2.21807 2.1806 16.1793
2.21807 2.1806 16.1793
2.20547 2.19319 16.1539
2.22712 2.17155 16.1539
2.21805 2.18061 16.1286
2.2382 2.16046 16.1286
2.22712 2.17155 16.1539
2.21805 2.18061 16.1286
2.20547 2.19319 16.1539
2.19928 2.19938 16.1286
2.22712 2.17155 16.1539
2.20547 2.19319 16.1539
2.21805 2.18061 16.1286
2.19928 2.19938 15.977
2.20538 2.19328 15.9518
2.21802 2.18064 15.977
2.21802 2.18064 15.977
2.20538 2.19328 15.9518
2.22704 2.17162 15.9518
2.23821 2.16045 16.1793
2.22712 2.17155 16.1539
2.24816 2.15051 16.1539
2.22712 2.17155 16.1539
2.2382 2.16046 16.1286
2.24816 2.15051 16.1539
2.40353 1.99513 16.1287
2.41386 1.9848 16.154
2.3932 2.00546 16.154
2.3932 2.00546 16.154
2.41386 1.9848 16.154
2.40354 1.99512 16.1794
2.40354 1.99512 16.1794
2.41386 1.9848 16.154
2.4242 1.97446 16.1794
2.79618 1.60248 16.435
2.81699 1.58167 16.435
2.80657 1.59209 16.4607
3.10224 1.29642 15.9016
3.11025 1.28841 15.8764
3.11025 1.28841 15.9267
3.11025 1.28841 15.9771
3.10229 1.29637 15.9519
3.11025 1.28841 15.9267
3.02715 1.37151 16.0781
3.006 1.39266 16.0781
3.01659 1.38207 16.0528
3.09026 1.3084 16.0781
3.10229 1.29637 16.1033
3.08044 1.31822 16.1033
3.11025 1.28841 16.078
3.10229 1.29637 16.1033
3.09026 1.3084 16.0781
3.08044 1.31822 16.1033
3.09026 1.3084 16.1286
3.0694 1.32926 16.1286
3.10228 1.29638 16.1539
3.09026 1.3084 16.1286
3.11025 1.28841 16.1286
3.11025 1.28841 16.1286
3.11025 1.28841 16.1793
3.10228 1.29638 16.1539
3.10228 1.29638 16.1539
3.11025 1.28841 16.1793
3.09025 1.30841 16.1793
3.08027 1.31839 15.8514
3.0901 1.30856 15.8263
3.10214 1.29652 15.8513
3.10224 1.29642 15.9016
3.11025 1.28841 15.9267
3.09024 1.30842 15.9267
3.09024 1.30842 15.9267
3.11025 1.28841 15.9267
3.10229 1.29637 15.9519
3.0165 1.38216 15.9016
3.00588 1.39278 15.8764
3.02702 1.37164 15.8764
3.04817 1.35049 15.8765
3.03759 1.36107 15.8513
3.05884 1.33982 15.8513
3.04817 1.35049 15.8765
3.02702 1.37164 15.8764
3.03759 1.36107 15.8513
3.08043 1.31823 15.9519
3.10229 1.29637 15.9519
3.09026 1.3084 15.9771
3.08043 1.31823 15.9519
3.09024 1.30842 15.9267
3.10229 1.29637 15.9519
3.08042 1.31824 16.2556
3.09025 1.30841 16.2301
3.10226 1.2964 16.2555
3.10226 1.2964 16.2555
3.09024 1.30842 16.281
3.08042 1.31824 16.2556
3.06938 1.32928 16.2301
3.09025 1.30841 16.2301
3.08042 1.31824 16.2556
3.08041 1.31825 16.4091
3.05901 1.33965 16.4091
3.06938 1.32928 16.3834
3.05901 1.33966 16.3577
3.08041 1.31825 16.3577
3.06938 1.32928 16.3834
3.10225 1.29641 16.3065
3.09024 1.30842 16.281
3.11025 1.28841 16.281
3.08041 1.31825 16.3066
3.09024 1.30842 16.281
3.10225 1.29641 16.3065
2.84822 1.55044 16.5123
2.85863 1.54003 16.5382
2.83776 1.5609 16.5382
2.96373 1.43493 16.3834
2.97428 1.42438 16.3578
2.98483 1.41383 16.3834
2.98483 1.41383 16.3834
2.97428 1.42438 16.3578
2.9954 1.40326 16.3578
3.06938 1.32929 16.3321
3.05901 1.33965 16.3066
3.08041 1.31825 16.3066
3.06938 1.32929 16.3321
3.08041 1.31825 16.3577
3.05901 1.33966 16.3577
2.95319 1.44547 16.3578
2.97428 1.42438 16.3578
2.96373 1.43493 16.3834
2.90067 1.49799 16.1287
2.87971 1.51895 16.1287
2.89018 1.50848 16.1034
2.84833 1.55033 16.1034
2.83789 1.56077 16.1287
2.82746 1.5712 16.1034
2.85878 1.53988 16.1287
2.83789 1.56077 16.1287
2.84833 1.55033 16.1034
2.83788 1.56078 16.0277
2.85877 1.53989 16.0277
2.84833 1.55034 16.0529
2.84833 1.55034 16.0529
2.82745 1.57121 16.0529
2.83788 1.56078 16.0277
2.83788 1.56078 16.0277
2.82745 1.57121 16.0529
2.81702 1.58164 16.0276
2.84833 1.55034 16.0529
2.85877 1.53989 16.0277
2.86924 1.52943 16.0529
2.87968 1.51898 15.9772
2.89017 1.50849 16.0024
2.86922 1.52944 16.0024
2.86922 1.52944 16.0024
2.85875 1.53991 15.9772
2.87968 1.51898 15.9772
2.72357 1.6751 16.1541
2.73392 1.66474 16.1287
2.74429 1.65437 16.1541
2.73392 1.66474 16.1287
2.75466 1.644 16.1287
2.74429 1.65437 16.1541
2.83789 1.56077 16.0782
2.82745 1.57121 16.0529
2.84833 1.55034 16.0529
2.83789 1.56077 16.0782
2.84833 1.55033 16.1034
2.82746 1.5712 16.1034
2.82746 1.5712 16.1034
2.80662 1.59204 16.1034
2.81703 1.58163 16.0782
2.81703 1.58163 16.0782
2.83789 1.56077 16.0782
2.82746 1.5712 16.1034
2.82745 1.57121 16.0529
2.83789 1.56077 16.0782
2.81703 1.58163 16.0782
2.81702 1.58164 16.0276
2.7962 1.60246 16.0276
2.8066 1.59206 16.0024
2.79618 1.60248 15.9772
2.81701 1.58166 15.9772
2.8066 1.59206 16.0024
2.42419 1.97447 16.1287
2.41386 1.9848 16.154
2.40353 1.99513 16.1287
2.40353 1.99513 16.1287
2.41385 1.98481 16.1034
2.42419 1.97447 16.1287
2.20539 2.19327 15.7499
2.19928 2.19938 15.7751
2.19928 2.19938 15.7244
2.19928 2.19938 15.675
2.20626 2.1924 15.6997
2.19928 2.19938 15.7244
2.21797 2.1807 15.8257
2.19928 2.19938 15.8257
2.20528 2.19338 15.8004
2.19928 2.19938 15.8257
2.19928 2.19938 15.7751
2.20528 2.19338 15.8004
3.11025 1.28841 15.675
3.10314 1.29552 15.7007
3.0911 1.30756 15.675
2.19928 2.19938 15.9266
2.19928 2.19938 15.8761
2.20536 2.19331 15.9014
2.20536 2.19331 15.9014
2.21801 2.18065 15.9266
2.19928 2.19938 15.9266
2.21799 2.18067 15.8761
2.20536 2.19331 15.9014
2.19928 2.19938 15.8761
2.21799 2.18067 15.8761
2.22698 2.17168 15.8509
2.23811 2.16055 15.8762
2.22702 2.17165 15.9014
2.24806 2.1506 15.9014
2.23814 2.16052 15.9266
2.23814 2.16052 15.9266
2.21801 2.18065 15.9266
2.22702 2.17165 15.9014
2.23811 2.16055 15.8762
2.24806 2.1506 15.9014
2.22702 2.17165 15.9014
2.22702 2.17165 15.9014
2.21799 2.18067 15.8761
2.23811 2.16055 15.8762
2.21801 2.18065 15.9266
2.20536 2.19331 15.9014
2.22702 2.17165 15.9014
2.20536 2.19331 15.9014
2.21799 2.18067 15.8761
2.22702 2.17165 15.9014
2.20532 2.19334 15.8509
2.19928 2.19938 15.8761
2.19928 2.19938 15.8257
2.20532 2.19334 15.8509
2.19928 2.19938 15.8257
2.21797 2.1807 15.8257
2.21797 2.1807 15.8257
2.22698 2.17168 15.8509
2.20532 2.19334 15.8509
2.20532 2.19334 15.8509
2.21799 2.18067 15.8761
2.19928 2.19938 15.8761
2.22698 2.17168 15.8509
2.21799 2.18067 15.8761
2.20532 2.19334 15.8509
2.24814 2.15052 16.1033
2.2382 2.16046 16.1286
2.2271 2.17156 16.1033
2.2382 2.16046 16.1286
2.21805 2.18061 16.1286
2.2271 2.17156 16.1033
2.2271 2.17156 16.1033
2.23819 2.16048 16.078
2.24814 2.15052 16.1033
2.24809 2.15058 15.9518
2.23814 2.16052 15.9266
2.25868 2.13998 15.9266
2.22704 2.17162 15.9518
2.23814 2.16052 15.9266
2.24809 2.15058 15.9518
2.26891 2.12975 15.9518
2.24809 2.15058 15.9518
2.25868 2.13998 15.9266
2.2587 2.13996 15.977
2.24809 2.15058 15.9518
2.26891 2.12975 15.9518
2.2587 2.13996 15.977
2.26891 2.12975 15.9518
2.27936 2.1193 15.977
2.41384 1.98482 16.0528
2.42418 1.97448 16.0781
2.40352 1.99515 16.0781
2.40352 1.99515 16.0781
2.42418 1.97448 16.0781
2.41385 1.98481 16.1034
2.33114 2.06753 16.1033
2.35183 2.04683 16.1033
2.34149 2.05717 16.1286
2.34148 2.05718 16.078
2.35183 2.04683 16.1033
2.33114 2.06753 16.1033
2.35182 2.04684 16.0528
2.34147 2.05719 16.0275
2.36216 2.03651 16.0275
2.34148 2.05718 16.078
2.33112 2.06754 16.0528
2.35182 2.04684 16.0528
2.35182 2.04684 16.0528
2.33112 2.06754 16.0528
2.34147 2.05719 16.0275
2.35184 2.04682 16.154
2.37253 2.02613 16.154
2.3622 2.03646 16.1793
2.31047 2.08819 16.2047
2.32082 2.07785 16.1793
2.33117 2.06749 16.2047
2.3208 2.07786 16.1286
2.33114 2.06753 16.1033
2.34149 2.05717 16.1286
2.31043 2.08823 16.1033
2.33114 2.06753 16.1033
2.3208 2.07786 16.1286
2.23821 2.16045 16.1793
2.24816 2.15051 16.1539
2.25876 2.1399 16.1793
2.24814 2.15052 16.1033
2.23819 2.16048 16.078
2.25873 2.13993 16.078
2.25873 2.13993 16.078
2.26896 2.1297 16.1033
2.24814 2.15052 16.1033
2.30008 2.09858 16.078
2.31043 2.08823 16.1033
2.28971 2.10895 16.1033
2.25874 2.13992 16.1286
2.24816 2.15051 16.1539
[...]
<PointData Scalars="View Factor" >
<DataArray type="Float64" Name="View Factor" NumberOfComponents="1" format="ascii">
4.94909e-06
4.94909e-06
4.94909e-06
4.61392e-06
4.61392e-06
4.61392e-06
4.5966e-06
4.5966e-06
4.5966e-06
8.1455e-07
8.1455e-07
8.1455e-07
6.03792e-07
6.03792e-07
6.03792e-07
4.60698e-06
4.60698e-06
4.60698e-06
6.20642e-07
6.20642e-07
6.20642e-07
4.75557e-06
4.75557e-06
4.75557e-06
4.85411e-06
4.85411e-06
4.85411e-06
4.74489e-06
4.74489e-06
4.74489e-06
4.76276e-06
4.76276e-06
4.76276e-06
4.72521e-06
4.72521e-06
4.72521e-06
4.58081e-06
4.58081e-06
4.58081e-06
4.5714e-06
4.5714e-06
4.5714e-06
4.54097e-06
4.54097e-06
4.54097e-06
4.52217e-06
4.52217e-06
4.52217e-06
4.70269e-06
4.70269e-06
4.70269e-06
4.62974e-06
4.62974e-06
4.62974e-06
4.6656e-06
4.6656e-06
4.6656e-06
4.62574e-06
4.62574e-06
4.62574e-06
4.64334e-06
4.64334e-06
4.64334e-06
4.83576e-06
4.83576e-06
4.83576e-06
4.57749e-06
4.57749e-06
4.57749e-06
2.72869e-07
2.72869e-07
2.72869e-07
9.44185e-07
9.44185e-07
9.44185e-07
1.69629e-06
1.69629e-06
1.69629e-06
1.78314e-06
1.78314e-06
1.78314e-06
7.13553e-07
7.13553e-07
7.13553e-07
9.79669e-07
9.79669e-07
9.79669e-07
4.73689e-07
4.73689e-07
4.73689e-07
1.6611e-06
1.6611e-06
1.6611e-06
5.14571e-07
5.14571e-07
5.14571e-07
8.19965e-07
8.19965e-07
8.19965e-07
1.67566e-06
1.67566e-06
1.67566e-06
5.34078e-07
5.34078e-07
5.34078e-07
8.29006e-07
8.29006e-07
8.29006e-07
6.78323e-07
6.78323e-07
6.78323e-07
9.63946e-07
9.63946e-07
9.63946e-07
1.61915e-06
1.61915e-06
1.61915e-06
1.62625e-06
1.62625e-06
1.62625e-06
3.1451e-07
3.1451e-07
3.1451e-07
3.04902e-07
3.04902e-07
3.04902e-07
3.00818e-07
3.00818e-07
3.00818e-07
2.73076e-07
2.73076e-07
2.73076e-07
4.82356e-06
4.82356e-06
4.82356e-06
4.79309e-06
4.79309e-06
4.79309e-06
4.32104e-06
4.32104e-06
4.32104e-06
4.63923e-06
4.63923e-06
4.63923e-06
4.68504e-06
4.68504e-06
4.68504e-06
4.57988e-06
4.57988e-06
4.57988e-06
4.65539e-06
4.65539e-06
4.65539e-06
4.67293e-06
4.67293e-06
4.67293e-06
4.63595e-06
4.63595e-06
4.63595e-06
4.78856e-06
4.78856e-06
4.78856e-06
4.78536e-06
4.78536e-06
4.78536e-06
4.77489e-06
4.77489e-06
4.77489e-06
4.42184e-06
4.42184e-06
4.42184e-06
4.595e-06
4.595e-06
4.595e-06
4.53669e-06
4.53669e-06
4.53669e-06
4.71868e-06
4.71868e-06
4.71868e-06
4.72868e-06
4.72868e-06
4.72868e-06
4.55177e-06
4.55177e-06
4.55177e-06
4.54213e-06
4.54213e-06
4.54213e-06
4.51232e-06
4.51232e-06
4.51232e-06
4.38082e-06
4.38082e-06
4.38082e-06
4.39963e-06
4.39963e-06
4.39963e-06
4.56717e-06
4.56717e-06
4.56717e-06
4.52276e-06
4.52276e-06
4.52276e-06
2.41045e-06
2.41045e-06
2.41045e-06
3.95809e-06
3.95809e-06
3.95809e-06
4.01423e-06
4.01423e-06
4.01423e-06
4.42763e-06
4.42763e-06
4.42763e-06
4.40925e-06
4.40925e-06
4.40925e-06
3.89852e-06
3.89852e-06
3.89852e-06
3.47443e-06
3.47443e-06
3.47443e-06
1.9245e-06
1.9245e-06
1.9245e-06
2.4222e-06
2.4222e-06
2.4222e-06
2.45768e-06
2.45768e-06
2.45768e-06
1.94932e-06
1.94932e-06
1.94932e-06
5.54059e-07
5.54059e-07
5.54059e-07
2.9185e-06
2.9185e-06
2.9185e-06
3.37678e-06
3.37678e-06
3.37678e-06
3.21162e-06
3.21162e-06
3.21162e-06
4.04196e-07
4.04196e-07
4.04196e-07
4.14621e-07
4.14621e-07
4.14621e-07
1.95654e-06
1.95654e-06
1.95654e-06
1.94124e-06
1.94124e-06
1.94124e-06
4.86906e-07
4.86906e-07
4.86906e-07
5.04069e-07
5.04069e-07
5.04069e-07
5.18534e-07
5.18534e-07
5.18534e-07
5.57672e-07
5.57672e-07
5.57672e-07
5.94996e-07
5.94996e-07
5.94996e-07
3.19533e-07
3.19533e-07
3.19533e-07
3.29487e-07
3.29487e-07
3.29487e-07
8.70367e-07
8.70367e-07
8.70367e-07
8.87107e-07
8.87107e-07
8.87107e-07
8.57689e-07
8.57689e-07
8.57689e-07
7.98103e-07
7.98103e-07
7.98103e-07
4.93176e-06
4.93176e-06
4.93176e-06
6.69962e-07
6.69962e-07
6.69962e-07
7.32778e-07
7.32778e-07
7.32778e-07
7.71946e-07
7.71946e-07
7.71946e-07
1.82804e-06
1.82804e-06
1.82804e-06
1.75373e-06
1.75373e-06
1.75373e-06
1.79344e-06
1.79344e-06
1.79344e-06
1.76586e-06
1.76586e-06
1.76586e-06
1.81647e-06
1.81647e-06
1.81647e-06
1.0143e-06
1.0143e-06
1.0143e-06
1.03371e-06
1.03371e-06
1.03371e-06
7.30967e-07
7.30967e-07
7.30967e-07
8.34008e-07
8.34008e-07
8.34008e-07
1.07959e-06
1.07959e-06
1.07959e-06
7.90674e-07
7.90674e-07
7.90674e-07
1.0603e-06
1.0603e-06
1.0603e-06
1.64137e-06
1.64137e-06
1.64137e-06
1.68337e-06
1.68337e-06
1.68337e-06
1.64944e-06
1.64944e-06
1.64944e-06
1.68561e-06
1.68561e-06
1.68561e-06
1.73292e-06
1.73292e-06
1.73292e-06
1.62846e-06
1.62846e-06
1.62846e-06
1.61632e-06
1.61632e-06
1.61632e-06
1.5432e-06
1.5432e-06
1.5432e-06
3.60407e-07
3.60407e-07
3.60407e-07
3.49765e-07
3.49765e-07
3.49765e-07
3.33803e-07
3.33803e-07
3.33803e-07
3.44495e-07
3.44495e-07
3.44495e-07
3.84668e-07
3.84668e-07
3.84668e-07
3.65838e-07
3.65838e-07
3.65838e-07
3.78006e-07
3.78006e-07
3.78006e-07
3.04767e-07
3.04767e-07
3.04767e-07
2.87121e-07
2.87121e-07
2.87121e-07
3.29434e-07
3.29434e-07
3.29434e-07
3.34005e-07
3.34005e-07
3.34005e-07
1.56251e-06
1.56251e-06
1.56251e-06
1.60082e-06
1.60082e-06
1.60082e-06
1.54289e-06
1.54289e-06
1.54289e-06
3.4454e-07
3.4454e-07
3.4454e-07
1.57702e-06
1.57702e-06
1.57702e-06
1.585e-06
1.585e-06
1.585e-06
1.53513e-06
1.53513e-06
1.53513e-06
2.56145e-07
2.56145e-07
2.56145e-07
3.16491e-07
3.16491e-07
3.16491e-07
6.38946e-07
6.38946e-07
6.38946e-07
3.19504e-07
3.19504e-07
3.19504e-07
3.14467e-07
3.14467e-07
3.14467e-07
2.91816e-07
2.91816e-07
2.91816e-07
3.00751e-07
3.00751e-07
3.00751e-07
3.0069e-07
3.0069e-07
3.0069e-07
3.04878e-07
3.04878e-07
3.04878e-07
2.91838e-07
2.91838e-07
2.91838e-07
2.86438e-07
2.86438e-07
2.86438e-07
2.75354e-07
2.75354e-07
2.75354e-07
2.80061e-07
2.80061e-07
2.80061e-07
2.79967e-07
2.79967e-07
2.79967e-07
2.87074e-07
2.87074e-07
2.87074e-07
2.56514e-07
2.56514e-07
2.56514e-07
2.46444e-07
2.46444e-07
2.46444e-07
2.43741e-07
2.43741e-07
2.43741e-07
2.32788e-07
2.32788e-07
2.32788e-07
2.3857e-07
2.3857e-07
2.3857e-07
2.80257e-07
2.80257e-07
2.80257e-07
2.91799e-07
2.91799e-07
2.91799e-07
2.86347e-07
2.86347e-07
2.86347e-07
2.46261e-07
2.46261e-07
2.46261e-07
2.46385e-07
2.46385e-07
2.46385e-07
2.66243e-07
2.66243e-07
2.66243e-07
2.66346e-07
2.66346e-07
2.66346e-07
2.54743e-07
2.54743e-07
2.54743e-07
2.61228e-07
2.61228e-07
2.61228e-07
2.86079e-07
2.86079e-07
2.86079e-07
2.75522e-07
2.75522e-07
2.75522e-07
2.34808e-07
2.34808e-07
2.34808e-07
2.10966e-07
2.10966e-07
2.10966e-07
2.92951e-07
2.92951e-07
2.92951e-07
3.2209e-07
3.2209e-07
3.2209e-07
1.8132e-07
1.8132e-07
1.8132e-07
1.74299e-07
1.74299e-07
1.74299e-07
1.86761e-07
1.86761e-07
1.86761e-07
2.17285e-07
2.17285e-07
2.17285e-07
1.92191e-07
1.92191e-07
1.92191e-07
1.80003e-07
1.80003e-07
1.80003e-07
1.76906e-07
1.76906e-07
1.76906e-07
3.31763e-07
3.31763e-07
3.31763e-07
2.23625e-07
2.23625e-07
2.23625e-07
2.41734e-07
2.41734e-07
2.41734e-07
3.016e-07
3.016e-07
3.016e-07
3.41403e-07
3.41403e-07
3.41403e-07
3.80163e-07
3.80163e-07
3.80163e-07
3.83914e-06
3.83914e-06
3.83914e-06
3.08745e-06
3.08745e-06
3.08745e-06
3.39933e-06
3.39933e-06
3.39933e-06
3.5708e-06
3.5708e-06
3.5708e-06
3.49682e-06
3.49682e-06
3.49682e-06
4.45506e-06
4.45506e-06
4.45506e-06
4.48476e-06
4.48476e-06
4.48476e-06
4.49373e-06
4.49373e-06
4.49373e-06
4.40464e-06
4.40464e-06
4.40464e-06
3.54466e-06
3.54466e-06
3.54466e-06
3.53559e-06
3.53559e-06
3.53559e-06
3.65598e-06
3.65598e-06
3.65598e-06
4.18745e-06
4.18745e-06
4.18745e-06
4.14142e-06
4.14142e-06
4.14142e-06
4.69531e-06
4.69531e-06
4.69531e-06
4.65923e-06
4.65923e-06
4.65923e-06
4.73263e-06
4.73263e-06
4.73263e-06
4.71487e-06
4.71487e-06
4.71487e-06
4.66878e-06
4.66878e-06
4.66878e-06
4.42321e-06
4.42321e-06
4.42321e-06
4.46479e-06
4.46479e-06
4.46479e-06
4.55086e-06
4.55086e-06
4.55086e-06
4.56989e-06
4.56989e-06
4.56989e-06
4.51336e-06
4.51336e-06
4.51336e-06
4.52265e-06
4.52265e-06
4.52265e-06
4.60014e-06
4.60014e-06
4.60014e-06
4.60986e-06
4.60986e-06
4.60986e-06
4.80534e-06
4.80534e-06
4.80534e-06
4.81572e-06
4.81572e-06
4.81572e-06
4.77828e-06
4.77828e-06
4.77828e-06
4.84561e-06
4.84561e-06
4.84561e-06
4.43143e-06
4.43143e-06
4.43143e-06
4.48763e-06
4.48763e-06
4.48763e-06
4.6876e-06
4.6876e-06
4.6876e-06
4.60823e-06
4.60823e-06
4.60823e-06
4.63884e-06
4.63884e-06
4.63884e-06
4.59885e-06
4.59885e-06
4.59885e-06
4.49335e-06
4.49335e-06
4.49335e-06
4.48356e-06
4.48356e-06
4.48356e-06
4.43676e-06
4.43676e-06
4.43676e-06
4.3715e-06
4.3715e-06
4.3715e-06
4.09808e-06
4.09808e-06
4.09808e-06
3.44592e-06
3.44592e-06
3.44592e-06
2.66779e-07
2.66779e-07
2.66779e-07
2.89058e-07
2.89058e-07
2.89058e-07
2.79794e-07
2.79794e-07
2.79794e-07
3.94915e-06
3.94915e-06
3.94915e-06
3.93334e-06
3.93334e-06
3.93334e-06
4.18764e-06
4.18764e-06
4.18764e-06
4.1966e-06
4.1966e-06
4.1966e-06
3.82478e-06
3.82478e-06
3.82478e-06
4.08742e-06
4.08742e-06
4.08742e-06
3.95729e-06
3.95729e-06
3.95729e-06
4.02572e-06
4.02572e-06
4.02572e-06
3.98347e-06
3.98347e-06
3.98347e-06
3.92342e-06
3.92342e-06
3.92342e-06
3.86514e-06
3.86514e-06
3.86514e-06
4.46456e-06
4.46456e-06
4.46456e-06
4.45562e-06
4.45562e-06
4.45562e-06
4.51342e-06
4.51342e-06
4.51342e-06
4.34315e-06
4.34315e-06
4.34315e-06
4.29358e-06
4.29358e-06
4.29358e-06
4.35267e-06
4.35267e-06
4.35267e-06
4.31228e-06
4.31228e-06
4.31228e-06
4.24879e-06
4.24879e-06
4.24879e-06
4.25836e-06
4.25836e-06
4.25836e-06
3.83263e-06
3.83263e-06
3.83263e-06
3.91262e-06
3.91262e-06
3.91262e-06
3.90519e-06
3.90519e-06
3.90519e-06
3.48999e-06
3.48999e-06
3.48999e-06
4.72802e-07
4.72802e-07
4.72802e-07
4.7284e-07
4.7284e-07
4.7284e-07
2.41485e-06
2.41485e-06
2.41485e-06
3.88535e-07
3.88535e-07
3.88535e-07
3.86314e-07
3.86314e-07
3.86314e-07
4.36805e-07
4.36805e-07
4.36805e-07
4.47682e-07
4.47682e-07
4.47682e-07
4.61439e-07
4.61439e-07
4.61439e-07
4.6133e-07
4.6133e-07
4.6133e-07
4.36646e-07
4.36646e-07
4.36646e-07
4.50063e-07
4.50063e-07
4.50063e-07
4.22213e-07
4.22213e-07
4.22213e-07
4.22579e-07
4.22579e-07
4.22579e-07
4.08648e-07
4.08648e-07
4.08648e-07
3.96206e-07
3.96206e-07
3.96206e-07
3.98632e-07
3.98632e-07
3.98632e-07
4.12165e-07
4.12165e-07
4.12165e-07
2.88512e-06
2.88512e-06
2.88512e-06
3.18695e-06
3.18695e-06
3.18695e-06
3.32368e-06
3.32368e-06
3.32368e-06
3.33096e-06
3.33096e-06
3.33096e-06
3.20595e-07
3.20595e-07
3.20595e-07
3.88567e-07
3.88567e-07
3.88567e-07
3.28816e-07
3.28816e-07
3.28816e-07
5.71453e-07
5.71453e-07
5.71453e-07
6.09718e-07
6.09718e-07
6.09718e-07
5.74388e-07
5.74388e-07
5.74388e-07
5.93665e-07
5.93665e-07
5.93665e-07
2.47825e-06
2.47825e-06
2.47825e-06
1.86447e-06
1.86447e-06
1.86447e-06
1.90104e-06
1.90104e-06
1.90104e-06
2.46491e-06
2.46491e-06
2.46491e-06
2.93442e-06
2.93442e-06
2.93442e-06
2.94425e-06
2.94425e-06
2.94425e-06
3.34588e-06
3.34588e-06
3.34588e-06
3.49718e-06
3.49718e-06
3.49718e-06
3.5823e-07
3.5823e-07
3.5823e-07
3.68854e-07
3.68854e-07
3.68854e-07
3.17456e-07
3.17456e-07
3.17456e-07
3.18437e-07
3.18437e-07
3.18437e-07
3.69634e-07
3.69634e-07
3.69634e-07
3.5954e-07
3.5954e-07
3.5954e-07
3.10471e-07
3.10471e-07
3.10471e-07
3.11363e-07
3.11363e-07
3.11363e-07
3.01021e-07
3.01021e-07
3.01021e-07
3.01545e-07
3.01545e-07
3.01545e-07
2.939e-07
2.939e-07
2.939e-07
2.92388e-07
2.92388e-07
2.92388e-07
4.27359e-07
4.27359e-07
4.27359e-07
4.55552e-07
4.55552e-07
4.55552e-07
4.39563e-07
4.39563e-07
4.39563e-07
4.26814e-07
4.26814e-07
4.26814e-07
3.91379e-07
3.91379e-07
3.91379e-07
3.91454e-07
3.91454e-07
3.91454e-07
4.43514e-07
4.43514e-07
4.43514e-07
4.03657e-07
4.03657e-07
4.03657e-07
4.15976e-07
4.15976e-07
4.15976e-07
4.68678e-07
4.68678e-07
4.68678e-07
5.79812e-07
5.79812e-07
5.79812e-07
5.78789e-07
5.78789e-07
5.78789e-07
5.60345e-07
5.60345e-07
5.60345e-07
4.91873e-07
4.91873e-07
4.91873e-07
4.75023e-07
4.75023e-07
4.75023e-07
4.9357e-07
4.9357e-07
4.9357e-07
4.79743e-07
4.79743e-07
4.79743e-07
4.23774e-07
4.23774e-07
4.23774e-07
3.96693e-07
3.96693e-07
3.96693e-07
3.84771e-07
3.84771e-07
3.84771e-07
3.78093e-07
3.78093e-07
3.78093e-07
4.23887e-07
4.23887e-07
4.23887e-07
4.04076e-07
4.04076e-07
4.04076e-07
4.17687e-07
4.17687e-07
4.17687e-07
1.56575e-06
1.56575e-06
1.56575e-06
1.65078e-06
1.65078e-06
1.65078e-06
1.57695e-06
1.57695e-06
1.57695e-06
3.78275e-07
3.78275e-07
3.78275e-07
3.6609e-07
3.6609e-07
3.6609e-07
3.46796e-07
3.46796e-07
3.46796e-07
3.48252e-07
3.48252e-07
3.48252e-07
3.37901e-07
3.37901e-07
3.37901e-07
3.28433e-07
3.28433e-07
3.28433e-07
3.18972e-07
3.18972e-07
3.18972e-07
3.17448e-07
3.17448e-07
3.17448e-07
4.56844e-06
4.56844e-06
4.56844e-06
4.88484e-06
4.88484e-06
4.88484e-06
4.84444e-06
4.84444e-06
4.84444e-06
4.29394e-06
4.29394e-06
4.29394e-06
4.50554e-06
4.50554e-06
4.50554e-06
4.51422e-06
4.51422e-06
4.51422e-06
4.0843e-06
4.0843e-06
4.0843e-06
4.10218e-06
4.10218e-06
4.10218e-06
4.47592e-07
4.47592e-07
4.47592e-07
5.05899e-07
5.05899e-07
5.05899e-07
5.03119e-07
5.03119e-07
5.03119e-07
5.44515e-07
5.44515e-07
5.44515e-07
8.49605e-07
8.49605e-07
8.49605e-07
5.37852e-07
5.37852e-07
5.37852e-07
6.10785e-07
6.10785e-07
6.10785e-07
1.72439e-06
1.72439e-06
1.72439e-06
8.95354e-07
8.95354e-07
8.95354e-07
6.61128e-07
6.61128e-07
6.61128e-07
5.77416e-07
5.77416e-07
5.77416e-07
6.27041e-07
6.27041e-07
6.27041e-07
9.3595e-07
9.3595e-07
9.3595e-07
9.21499e-07
9.21499e-07
9.21499e-07
1.73307e-06
1.73307e-06
1.73307e-06
1.69211e-06
1.69211e-06
1.69211e-06
1.59639e-06
1.59639e-06
1.59639e-06
1.53212e-06
1.53212e-06
1.53212e-06
1.76205e-06
1.76205e-06
1.76205e-06
1.72103e-06
1.72103e-06
1.72103e-06
1.75121e-06
1.75121e-06
1.75121e-06
1.70133e-06
1.70133e-06
1.70133e-06
1.66389e-06
1.66389e-06
1.66389e-06
1.65307e-06
1.65307e-06
1.65307e-06
1.67445e-06
1.67445e-06
1.67445e-06
1.66538e-06
1.66538e-06
1.66538e-06
1.60859e-06
1.60859e-06
1.60859e-06
1.55945e-06
1.55945e-06
1.55945e-06
3.60361e-07
3.60361e-07
3.60361e-07
3.65931e-07
3.65931e-07
3.65931e-07
3.78212e-07
3.78212e-07
3.78212e-07
3.65978e-07
3.65978e-07
3.65978e-07
3.33118e-07
3.33118e-07
3.33118e-07
3.44384e-07
3.44384e-07
3.44384e-07
3.29464e-07
3.29464e-07
3.29464e-07
3.49637e-07
3.49637e-07
3.49637e-07
3.44294e-07
3.44294e-07
3.44294e-07
3.33433e-07
3.33433e-07
3.33433e-07
3.44536e-07
3.44536e-07
3.44536e-07
3.65745e-07
3.65745e-07
3.65745e-07
3.49305e-07
3.49305e-07
3.49305e-07
3.60531e-07
3.60531e-07
3.60531e-07
3.49227e-07
3.49227e-07
3.49227e-07
3.60562e-07
3.60562e-07
3.60562e-07
3.14399e-07
3.14399e-07
3.14399e-07
3.19474e-07
3.19474e-07
3.19474e-07
3.00654e-07
3.00654e-07
3.00654e-07
2.91765e-07
2.91765e-07
2.91765e-07
3.00644e-07
3.00644e-07
3.00644e-07
3.0502e-07
3.0502e-07
3.0502e-07
2.87095e-07
2.87095e-07
2.87095e-07
2.91777e-07
2.91777e-07
2.91777e-07
2.6437e-07
2.6437e-07
2.6437e-07
2.67228e-07
2.67228e-07
2.67228e-07
2.75191e-07
2.75191e-07
2.75191e-07
2.79927e-07
2.79927e-07
2.79927e-07
2.75184e-07
2.75184e-07
2.75184e-07
2.64376e-07
2.64376e-07
2.64376e-07
2.67271e-07
2.67271e-07
2.67271e-07
2.91757e-07
2.91757e-07
2.91757e-07
1.48566e-06
1.48566e-06
1.48566e-06
1.14147e-06
1.14147e-06
1.14147e-06
1.47753e-06
1.47753e-06
1.47753e-06
1.37603e-06
1.37603e-06
1.37603e-06
1.51147e-06
1.51147e-06
1.51147e-06
1.51924e-06
1.51924e-06
1.51924e-06
1.35251e-06
1.35251e-06
1.35251e-06
1.45407e-06
1.45407e-06
1.45407e-06
1.36814e-06
1.36814e-06
1.36814e-06
1.46217e-06
1.46217e-06
1.46217e-06
2.56113e-07
2.56113e-07
2.56113e-07
1.05168e-06
1.05168e-06
1.05168e-06
2.52699e-07
2.52699e-07
2.52699e-07
1.29732e-06
1.29732e-06
1.29732e-06
1.39747e-06
1.39747e-06
1.39747e-06
1.04588e-06
1.04588e-06
1.04588e-06
2.52868e-07
2.52868e-07
2.52868e-07
2.52781e-07
2.52781e-07
2.52781e-07
2.46086e-07
2.46086e-07
2.46086e-07
2.43177e-07
2.43177e-07
2.43177e-07
2.4611e-07
2.4611e-07
2.4611e-07
5.07392e-07
5.07392e-07
5.07392e-07
1.54602e-06
1.54602e-06
1.54602e-06
1.50378e-06
1.50378e-06
1.50378e-06
3.49761e-07
3.49761e-07
3.49761e-07
4.00791e-07
4.00791e-07
4.00791e-07
6.19129e-07
6.19129e-07
6.19129e-07
3.84444e-07
3.84444e-07
3.84444e-07
3.33487e-07
3.33487e-07
3.33487e-07
3.88625e-07
3.88625e-07
3.88625e-07
6.10512e-07
6.10512e-07
6.10512e-07
3.96726e-07
3.96726e-07
3.96726e-07
6.12484e-07
6.12484e-07
6.12484e-07
1.55279e-06
1.55279e-06
1.55279e-06
1.54739e-06
1.54739e-06
1.54739e-06
3.14441e-07
3.14441e-07
3.14441e-07
3.19502e-07
3.19502e-07
3.19502e-07
3.2949e-07
3.2949e-07
3.2949e-07
3.33446e-07
3.33446e-07
3.33446e-07
3.29437e-07
3.29437e-07
3.29437e-07
3.19506e-07
3.19506e-07
3.19506e-07
2.75352e-07
2.75352e-07
2.75352e-07
2.75346e-07
2.75346e-07
2.75346e-07
2.80011e-07
2.80011e-07
2.80011e-07
2.67302e-07
2.67302e-07
2.67302e-07
2.53273e-07
2.53273e-07
2.53273e-07
2.67623e-07
2.67623e-07
2.67623e-07
2.64865e-07
2.64865e-07
2.64865e-07
2.64602e-07
2.64602e-07
2.64602e-07
2.46379e-07
2.46379e-07
2.46379e-07
2.53128e-07
2.53128e-07
2.53128e-07
2.53057e-07
2.53057e-07
2.53057e-07
2.56589e-07
2.56589e-07
2.56589e-07
2.75388e-07
2.75388e-07
2.75388e-07
2.67367e-07
2.67367e-07
2.67367e-07
2.67374e-07
2.67374e-07
2.67374e-07
2.6457e-07
2.6457e-07
2.6457e-07
2.86299e-07
2.86299e-07
2.86299e-07
2.80326e-07
2.80326e-07
2.80326e-07
2.8037e-07
2.8037e-07
2.8037e-07
2.75542e-07
2.75542e-07
2.75542e-07
2.34772e-07
2.34772e-07
2.34772e-07
2.27803e-07
2.27803e-07
2.27803e-07
2.41182e-07
2.41182e-07
2.41182e-07
2.40908e-07
2.40908e-07
2.40908e-07
2.52915e-07
2.52915e-07
2.52915e-07
2.61668e-07
2.61668e-07
2.61668e-07
2.47361e-07
2.47361e-07
2.47361e-07
2.52946e-07
2.52946e-07
2.52946e-07
2.59605e-07
2.59605e-07
2.59605e-07
2.59616e-07
2.59616e-07
2.59616e-07
2.86155e-07
2.86155e-07
2.86155e-07
2.78319e-07
2.78319e-07
2.78319e-07
2.71818e-07
2.71818e-07
2.71818e-07
2.7094e-07
2.7094e-07
2.7094e-07
2.78599e-07
2.78599e-07
2.78599e-07
2.64592e-07
2.64592e-07
2.64592e-07
2.65382e-07
2.65382e-07
2.65382e-07
2.93817e-07
2.93817e-07
2.93817e-07
2.93245e-07
2.93245e-07
2.93245e-07
3.0269e-07
3.0269e-07
3.0269e-07
3.14843e-07
3.14843e-07
3.14843e-07
2.72527e-07
2.72527e-07
2.72527e-07
2.75258e-07
2.75258e-07
2.75258e-07
2.68622e-07
2.68622e-07
2.68622e-07
2.68281e-07
2.68281e-07
2.68281e-07
2.85707e-07
2.85707e-07
2.85707e-07
2.79012e-07
2.79012e-07
2.79012e-07
2.79659e-07
2.79659e-07
2.79659e-07
2.82116e-07
2.82116e-07
2.82116e-07
2.82298e-07
2.82298e-07
2.82298e-07
2.89371e-07
2.89371e-07
2.89371e-07
2.93908e-07
2.93908e-07
2.93908e-07
3.3022e-07
3.3022e-07
3.3022e-07
3.2043e-07
3.2043e-07
3.2043e-07
3.0661e-07
3.0661e-07
3.0661e-07
3.2031e-07
3.2031e-07
3.2031e-07
3.29124e-07
3.29124e-07
3.29124e-07
3.11815e-07
3.11815e-07
3.11815e-07
3.12188e-07
3.12188e-07
3.12188e-07
3.29253e-07
3.29253e-07
3.29253e-07
3.2044e-07
3.2044e-07
3.2044e-07
2.2688e-07
2.2688e-07
2.2688e-07
2.26442e-07
2.26442e-07
2.26442e-07
1.84383e-07
1.84383e-07
1.84383e-07
2.14024e-07
2.14024e-07
2.14024e-07
1.6917e-07
1.6917e-07
1.6917e-07
1.66372e-07
1.66372e-07
1.66372e-07
1.66777e-07
1.66777e-07
1.66777e-07
2.33984e-07
2.33984e-07
2.33984e-07
2.2735e-07
2.2735e-07
2.2735e-07
2.33408e-07
2.33408e-07
2.33408e-07
2.36627e-07
2.36627e-07
2.36627e-07
1.92039e-07
1.92039e-07
1.92039e-07
1.73917e-07
1.73917e-07
1.73917e-07
2.26222e-07
2.26222e-07
2.26222e-07
1.80331e-07
1.80331e-07
1.80331e-07
1.65957e-07
1.65957e-07
1.65957e-07
2.78745e-07
2.78745e-07
2.78745e-07
2.56227e-07
2.56227e-07
2.56227e-07
2.13405e-07
2.13405e-07
2.13405e-07
2.19528e-07
2.19528e-07
2.19528e-07
2.26308e-07
2.26308e-07
2.26308e-07
2.2714e-07
2.2714e-07
2.2714e-07
1.84078e-07
1.84078e-07
1.84078e-07
1.76243e-07
1.76243e-07
1.76243e-07
1.76637e-07
1.76637e-07
1.76637e-07
1.71514e-07
1.71514e-07
1.71514e-07
1.71862e-07
1.71862e-07
1.71862e-07
2.03121e-07
2.03121e-07
2.03121e-07
2.08664e-07
2.08664e-07
2.08664e-07
2.09299e-07
2.09299e-07
2.09299e-07
1.94767e-07
1.94767e-07
1.94767e-07
1.90024e-07
1.90024e-07
1.90024e-07
1.88757e-07
1.88757e-07
1.88757e-07
1.96965e-07
1.96965e-07
1.96965e-07
2.39781e-07
2.39781e-07
2.39781e-07
2.34414e-07
2.34414e-07
2.34414e-07
3.89894e-07
3.89894e-07
3.89894e-07
3.44992e-07
3.44992e-07
3.44992e-07
2.48701e-07
2.48701e-07
2.48701e-07
3.51081e-07
3.51081e-07
3.51081e-07
3.10237e-07
3.10237e-07
3.10237e-07
3.70466e-07
3.70466e-07
3.70466e-07
3.36292e-07
3.36292e-07
3.36292e-07
2.69569e-07
2.69569e-07
2.69569e-07
2.42628e-07
2.42628e-07
2.42628e-07
2.89625e-06
2.89625e-06