<VTKFile type="UnstructuredGrid" version="1.0">
<UnstructuredGrid>
<Piece NumberOfPoints="10830" NumberOfCells="3610">
<Points>
<DataArray type="Float64" NumberOfComponents="3" format="ascii">
3.11035 1.27826 0.0257489
3.11035 1.28831 0.0514594
3.11035 1.28831 0
3.11035 1.28831 0.555078
3.11035 1.27701 0.580532
3.11035 1.28831 0.605999
3.11035 1.28831 0.555078
3.11035 1.26002 0.555099
3.11035 1.27701 0.580532
3.11035 0.0244388 1.02759
3.11035 4.44089e-16 1.045
3.11035 0.0422213 1.045
3.11035 4.44089e-16 1.045
3.11035 0.0244388 1.02759
3.11035 -7.90479e-14 1.01484
3.11035 1.28831 0.555078
3.11035 1.27702 0.529679
3.11035 1.26002 0.555099
3.11035 0.00863377 0.276786
3.11035 1.50546e-13 0.251574
3.11035 1.49658e-13 0.302009
3.11035 1.27705 0.2769
3.11035 1.26004 0.302114
3.11035 1.28831 0.302091
3.11035 1.27684 0.17634
3.11035 1.28831 0.201394
3.11035 1.28831 0.151284
3.11035 1.26004 0.302114
3.11035 1.27707 0.327315
3.11035 1.28831 0.302091
3.11035 1.28831 0.302091
3.11035 1.27707 0.327315
3.11035 1.28831 0.352537
3.11035 1.26005 0.352551
3.11035 1.28831 0.352537
3.11035 1.27707 0.327315
3.11035 1.26003 0.504308
3.11035 1.24613 0.529697
3.11035 1.27702 0.529679
3.11035 1.24613 0.529697
3.11035 1.26002 0.555099
3.11035 1.27702 0.529679
3.11035 1.24613 0.529697
3.11035 1.26003 0.504308
3.11035 1.23052 0.504324
3.11035 1.24613 0.529697
3.11035 1.23052 0.555118
3.11035 1.26002 0.555099
3.11035 1.28831 0.403041
3.11035 1.27705 0.428326
3.11035 1.28831 0.453619
3.11035 1.27705 0.428326
3.11035 1.24616 0.428339
3.11035 1.26004 0.453633
3.11035 1.28831 0.453619
3.11035 1.27705 0.428326
3.11035 1.26004 0.453633
3.11035 1.28831 0.504291
3.11035 1.26003 0.504308
3.11035 1.27702 0.529679
3.11035 1.28831 0.555078
3.11035 1.28831 0.504291
3.11035 1.27702 0.529679
3.11035 1.25981 0.151322
3.11035 1.27684 0.17634
3.11035 1.28831 0.151284
3.11035 1.26002 0.606025
3.11035 1.28831 0.605999
3.11035 1.27701 0.580532
3.11035 0.85884 0.785748
3.11035 0.888295 0.785725
3.11035 0.873578 0.759978
3.11035 4.44089e-16 0
3.11035 0.00987207 0.024705
3.11035 0.0277369 -5.6077e-14
3.11035 0.0840033 0.251587
3.11035 0.0689903 0.226374
3.11035 0.0549577 0.251567
3.11035 0.0264927 0.251562
3.11035 0.0392653 0.276779
3.11035 0.0549577 0.251567
3.11035 0.0264927 0.251562
3.11035 1.50546e-13 0.251574
3.11035 0.00863377 0.276786
3.11035 0.0392653 0.276779
3.11035 0.0264927 0.251562
3.11035 0.00863377 0.276786
3.11035 0.0087521 0.478941
3.11035 1.48326e-13 0.453605
3.11035 -9.59233e-14 0.504301
3.11035 0.0265703 0.504296
3.11035 0.0550657 0.504293
3.11035 0.0393699 0.478935
3.11035 -9.59233e-14 0.504301
3.11035 0.0265703 0.504296
3.11035 0.0087521 0.478941
3.11035 0.0265703 0.504296
3.11035 0.0393699 0.478935
3.11035 0.0087521 0.478941
3.11035 0.0265544 0.453601
3.11035 0.0393699 0.478935
3.11035 0.0550443 0.453599
3.11035 0.0265544 0.453601
3.11035 1.48326e-13 0.453605
3.11035 0.0087521 0.478941
3.11035 0.0393699 0.478935
3.11035 0.0265544 0.453601
3.11035 0.0087521 0.478941
3.11035 1.49658e-13 0.302009
3.11035 0.0265126 0.302001
3.11035 0.00863377 0.276786
3.11035 0.0265126 0.302001
3.11035 0.0392653 0.276779
3.11035 0.00863377 0.276786
3.11035 0.0550657 0.504293
3.11035 0.0691236 0.478933
3.11035 0.0393699 0.478935
3.11035 0.0393699 0.478935
3.11035 0.0691236 0.478933
3.11035 0.0550443 0.453599
3.11035 0.288852 0.453669
3.11035 0.274248 0.479001
3.11035 0.303471 0.479013
3.11035 0.274248 0.479001
3.11035 0.288872 0.504372
3.11035 0.303471 0.479013
3.11035 0.288872 0.504372
3.11035 0.318088 0.504385
3.11035 0.303471 0.479013
3.11035 0.844143 0.759998
3.11035 0.85884 0.785748
3.11035 0.873578 0.759978
3.11035 1.27699 0.226555
3.11035 1.28831 0.251699
3.11035 1.28831 0.201394
3.11035 1.28831 0.302091
3.11035 1.28831 0.251699
3.11035 1.27705 0.2769
3.11035 1.17079 0.403096
3.11035 1.15586 0.377846
3.11035 1.14088 0.40311
3.11035 1.26004 0.403053
3.11035 1.24616 0.428339
3.11035 1.27705 0.428326
3.11035 1.28831 0.403041
3.11035 1.26004 0.403053
3.11035 1.27705 0.428326
3.11035 1.24616 0.428339
3.11035 1.23053 0.453647
3.11035 1.26004 0.453633
3.11035 1.27704 0.47895
3.11035 1.28831 0.453619
3.11035 1.26004 0.453633
3.11035 1.28831 0.453619
3.11035 1.27704 0.47895
3.11035 1.28831 0.504291
3.11035 1.27704 0.47895
3.11035 1.26003 0.504308
3.11035 1.28831 0.504291
3.11035 1.24591 0.176367
3.11035 1.27684 0.17634
3.11035 1.25981 0.151322
3.11035 1.27699 0.226555
3.11035 1.26001 0.251744
3.11035 1.28831 0.251699
3.11035 1.26001 0.251744
3.11035 1.27705 0.2769
3.11035 1.28831 0.251699
3.11035 1.15573 0.226614
3.11035 1.1706 0.201432
3.11035 1.1407 0.201434
3.11035 1.20051 0.201451
3.11035 1.21561 0.176315
3.11035 1.18556 0.176261
3.11035 1.20051 0.201451
3.11035 1.18556 0.176261
3.11035 1.1706 0.201432
3.11035 1.24614 0.276933
3.11035 1.26004 0.302114
3.11035 1.27705 0.2769
3.11035 1.24614 0.276933
3.11035 1.27705 0.2769
3.11035 1.26001 0.251744
3.11035 1.24612 0.580555
3.11035 1.27701 0.580532
3.11035 1.26002 0.555099
3.11035 1.27701 0.580532
3.11035 1.24612 0.580555
3.11035 1.26002 0.606025
3.11035 1.23052 0.555118
3.11035 1.24612 0.580555
3.11035 1.26002 0.555099
3.11035 1.24611 0.734055
3.11035 1.23051 0.708373
3.11035 1.21584 0.734064
3.11035 1.21584 0.682738
3.11035 1.23051 0.708373
3.11035 1.24611 0.682719
3.11035 1.27699 0.63153
3.11035 1.28831 0.605999
3.11035 1.26002 0.606025
3.11035 1.24611 0.631556
3.11035 1.27699 0.63153
3.11035 1.26002 0.606025
3.11035 0.917741 0.837317
3.11035 0.902954 0.863195
3.11035 0.932465 0.86316
3.11035 1.08109 0.708429
3.11035 1.11094 0.708414
3.11035 1.09602 0.682792
3.11035 1.11094 0.708414
3.11035 1.12589 0.682778
3.11035 1.09602 0.682792
3.11035 1.2305 0.657127
3.11035 1.24611 0.631556
3.11035 1.21584 0.631578
3.11035 1.2305 0.657127
3.11035 1.21584 0.682738
3.11035 1.24611 0.682719
3.11035 1.0662 0.682809
3.11035 1.08109 0.708429
3.11035 1.09602 0.682792
3.11035 0.991917 0.453738
3.11035 0.977089 0.428435
3.11035 0.962274 0.453743
3.11035 0.917902 0.42844
3.11035 0.888384 0.428441
3.11035 0.903138 0.45375
3.11035 0.932681 0.453747
3.11035 0.917902 0.42844
3.11035 0.903138 0.45375
3.11035 0.903119 0.35265
3.11035 0.917893 0.377895
3.11035 0.932664 0.352655
3.11035 0.917893 0.377895
3.11035 0.903119 0.35265
3.11035 0.888374 0.377891
3.11035 0.903119 0.35265
3.11035 0.873625 0.352644
3.11035 0.888374 0.377891
3.11035 0.917893 0.377895
3.11035 0.947463 0.377896
3.11035 0.932664 0.352655
3.11035 0.962233 0.302232
3.11035 0.947444 0.327435
3.11035 0.977066 0.327437
3.11035 0.947444 0.327435
3.11035 0.962233 0.302232
3.11035 0.932637 0.302227
3.11035 0.741456 0.479091
3.11035 0.770765 0.479092
3.11035 0.756104 0.453749
3.11035 0.756104 0.453749
3.11035 0.770765 0.479092
3.11035 0.785431 0.453751
3.11035 0.903133 0.403156
3.11035 0.917893 0.377895
3.11035 0.888374 0.377891
3.11035 0.903133 0.403156
3.11035 0.888384 0.428441
3.11035 0.917902 0.42844
3.11035 0.888384 0.428441
3.11035 0.873639 0.403154
3.11035 0.858913 0.42844
3.11035 0.873639 0.403154
3.11035 0.888384 0.428441
3.11035 0.903133 0.403156
3.11035 0.888374 0.377891
3.11035 0.873639 0.403154
3.11035 0.903133 0.403156
3.11035 0.873625 0.352644
3.11035 0.858884 0.327412
3.11035 0.844177 0.352637
3.11035 0.844153 0.302193
3.11035 0.858884 0.327412
3.11035 0.873599 0.302206
3.11035 0.318069 0.45368
3.11035 0.288852 0.453669
3.11035 0.303471 0.479013
3.11035 0.288852 0.453669
3.11035 0.318069 0.45368
3.11035 0.303454 0.428361
3.11035 0.00864568 0.0748701
3.11035 -9.63674e-14 0.0494157
3.11035 1.49658e-13 0.100085
3.11035 4.44089e-16 0
3.11035 -9.63674e-14 0.0494157
3.11035 0.00987207 0.024705
3.11035 0.0264295 0.150698
3.11035 0.00849117 0.12542
3.11035 1.50546e-13 0.150672
3.11035 1.50546e-13 0.150672
3.11035 0.00849117 0.12542
3.11035 1.49658e-13 0.100085
3.11035 1.28831 0
3.11035 1.26122 1.13803e-14
3.11035 1.27826 0.0257489
3.11035 1.50546e-13 0.251574
3.11035 0.00859461 0.226356
3.11035 1.50546e-13 0.201144
3.11035 0.00859461 0.226356
3.11035 1.50546e-13 0.251574
3.11035 0.0264927 0.251562
3.11035 0.0264637 0.201134
3.11035 1.50546e-13 0.201144
3.11035 0.00859461 0.226356
3.11035 0.0264637 0.201134
3.11035 0.0549232 0.20116
3.11035 0.0391815 0.175937
3.11035 0.0392276 0.226352
3.11035 0.0549577 0.251567
3.11035 0.0689903 0.226374
3.11035 0.0549577 0.251567
3.11035 0.0392276 0.226352
3.11035 0.0264927 0.251562
3.11035 0.0549232 0.20116
3.11035 0.0392276 0.226352
3.11035 0.0689903 0.226374
3.11035 0.0392276 0.226352
3.11035 0.0549232 0.20116
3.11035 0.0264637 0.201134
3.11035 0.0264927 0.251562
3.11035 0.0392276 0.226352
3.11035 0.00859461 0.226356
3.11035 0.00859461 0.226356
3.11035 0.0392276 0.226352
3.11035 0.0264637 0.201134
3.11035 0.00854014 0.175915
3.11035 1.50546e-13 0.150672
3.11035 1.50546e-13 0.201144
3.11035 0.00854014 0.175915
3.11035 0.0264295 0.150698
3.11035 1.50546e-13 0.150672
3.11035 0.0264295 0.150698
3.11035 0.00854014 0.175915
3.11035 0.0391815 0.175937
3.11035 0.00854014 0.175915
3.11035 1.50546e-13 0.201144
3.11035 0.0264637 0.201134
3.11035 0.0391815 0.175937
3.11035 0.00854014 0.175915
3.11035 0.0264637 0.201134
3.11035 0.0690987 0.428289
3.11035 0.0393425 0.428289
3.11035 0.0550443 0.453599
3.11035 0.0550443 0.453599
3.11035 0.0393425 0.428289
3.11035 0.0265544 0.453601
3.11035 0.0393425 0.428289
3.11035 0.0690987 0.428289
3.11035 0.0550252 0.402998
3.11035 0.0690242 0.276785
3.11035 0.0840033 0.251587
3.11035 0.0549577 0.251567
3.11035 0.0392653 0.276779
3.11035 0.0690242 0.276785
3.11035 0.0549577 0.251567
3.11035 0.0984777 0.276801
3.11035 0.0840033 0.251587
3.11035 0.0690242 0.276785
3.11035 0.0840313 0.302008
3.11035 0.0984777 0.276801
3.11035 0.0690242 0.276785
3.11035 0.0840313 0.302008
3.11035 0.113251 0.302022
3.11035 0.0984777 0.276801
3.11035 0.303441 0.3778
3.11035 0.288836 0.403066
3.11035 0.318055 0.403074
3.11035 0.288836 0.403066
3.11035 0.303454 0.428361
3.11035 0.318055 0.403074
3.11035 0.186476 0.428318
3.11035 0.201123 0.453634
3.11035 0.215741 0.428329
3.11035 0.201103 0.403035
3.11035 0.186476 0.428318
[...]
<PointData Scalars="View Factor" >
<DataArray type="Float64" Name="View Factor" NumberOfComponents="1" format="ascii">
9.184e-05
9.184e-05
9.184e-05
7.84204e-05
7.84204e-05
7.84204e-05
7.88114e-05
7.88114e-05
7.88114e-05
7.01743e-05
7.01743e-05
7.01743e-05
7.03673e-05
7.03673e-05
7.03673e-05
7.91861e-05
7.91861e-05
7.91861e-05
8.6873e-05
8.6873e-05
8.6873e-05
8.50491e-05
8.50491e-05
8.50491e-05
8.7932e-05
8.7932e-05
8.7932e-05
8.46431e-05
8.46431e-05
8.46431e-05
8.42191e-05
8.42191e-05
8.42191e-05
8.38378e-05
8.38378e-05
8.38378e-05
7.97791e-05
7.97791e-05
7.97791e-05
7.94013e-05
7.94013e-05
7.94013e-05
7.99987e-05
7.99987e-05
7.99987e-05
7.92428e-05
7.92428e-05
7.92428e-05
8.18439e-05
8.18439e-05
8.18439e-05
8.16972e-05
8.16972e-05
8.16972e-05
8.14748e-05
8.14748e-05
8.14748e-05
7.99411e-05
7.99411e-05
7.99411e-05
7.9544e-05
7.9544e-05
7.9544e-05
8.83768e-05
8.83768e-05
8.83768e-05
7.80677e-05
7.80677e-05
7.80677e-05
7.48798e-05
7.48798e-05
7.48798e-05
9.3918e-05
9.3918e-05
9.3918e-05
8.77135e-05
8.77135e-05
8.77135e-05
8.7293e-05
8.7293e-05
8.7293e-05
8.72942e-05
8.72942e-05
8.72942e-05
8.70829e-05
8.70829e-05
8.70829e-05
8.2001e-05
8.2001e-05
8.2001e-05
8.16082e-05
8.16082e-05
8.16082e-05
8.16093e-05
8.16093e-05
8.16093e-05
8.18046e-05
8.18046e-05
8.18046e-05
8.23938e-05
8.23938e-05
8.23938e-05
8.23949e-05
8.23949e-05
8.23949e-05
8.21973e-05
8.21973e-05
8.21973e-05
8.64542e-05
8.64542e-05
8.64542e-05
8.66629e-05
8.66629e-05
8.66629e-05
8.18028e-05
8.18028e-05
8.18028e-05
8.21955e-05
8.21955e-05
8.21955e-05
8.21287e-05
8.21287e-05
8.21287e-05
8.17363e-05
8.17363e-05
8.17363e-05
8.15339e-05
8.15339e-05
8.15339e-05
7.50757e-05
7.50757e-05
7.50757e-05
8.66749e-05
8.66749e-05
8.66749e-05
8.54369e-05
8.54369e-05
8.54369e-05
8.28827e-05
8.28827e-05
8.28827e-05
8.2087e-05
8.2087e-05
8.2087e-05
8.22539e-05
8.22539e-05
8.22539e-05
8.15341e-05
8.15341e-05
8.15341e-05
8.10883e-05
8.10883e-05
8.10883e-05
8.06849e-05
8.06849e-05
8.06849e-05
8.03215e-05
8.03215e-05
8.03215e-05
8.81968e-05
8.81968e-05
8.81968e-05
8.62808e-05
8.62808e-05
8.62808e-05
8.58679e-05
8.58679e-05
8.58679e-05
8.73693e-05
8.73693e-05
8.73693e-05
8.79082e-05
8.79082e-05
8.79082e-05
8.77289e-05
8.77289e-05
8.77289e-05
8.52831e-05
8.52831e-05
8.52831e-05
8.56927e-05
8.56927e-05
8.56927e-05
7.86516e-05
7.86516e-05
7.86516e-05
7.82796e-05
7.82796e-05
7.82796e-05
7.88677e-05
7.88677e-05
7.88677e-05
7.54207e-05
7.54207e-05
7.54207e-05
7.6139e-05
7.6139e-05
7.6139e-05
7.76986e-05
7.76986e-05
7.76986e-05
7.7541e-05
7.7541e-05
7.7541e-05
7.32436e-05
7.32436e-05
7.32436e-05
7.6184e-05
7.6184e-05
7.6184e-05
7.63412e-05
7.63412e-05
7.63412e-05
7.72294e-05
7.72294e-05
7.72294e-05
7.65007e-05
7.65007e-05
7.65007e-05
7.63884e-05
7.63884e-05
7.63884e-05
8.20115e-05
8.20115e-05
8.20115e-05
8.23201e-05
8.23201e-05
8.23201e-05
8.2102e-05
8.2102e-05
8.2102e-05
8.40887e-05
8.40887e-05
8.40887e-05
8.39101e-05
8.39101e-05
8.39101e-05
8.41336e-05
8.41336e-05
8.41336e-05
8.38648e-05
8.38648e-05
8.38648e-05
8.50313e-05
8.50313e-05
8.50313e-05
8.52597e-05
8.52597e-05
8.52597e-05
8.17332e-05
8.17332e-05
8.17332e-05
8.19107e-05
8.19107e-05
8.19107e-05
8.35094e-05
8.35094e-05
8.35094e-05
8.27144e-05
8.27144e-05
8.27144e-05
8.27573e-05
8.27573e-05
8.27573e-05
8.2934e-05
8.2934e-05
8.2934e-05
8.33317e-05
8.33317e-05
8.33317e-05
8.45815e-05
8.45815e-05
8.45815e-05
8.53974e-05
8.53974e-05
8.53974e-05
8.23185e-05
8.23185e-05
8.23185e-05
8.27139e-05
8.27139e-05
8.27139e-05
9.21076e-05
9.21076e-05
9.21076e-05
9.3466e-05
9.3466e-05
9.3466e-05
9.03162e-05
9.03162e-05
9.03162e-05
9.07601e-05
9.07601e-05
9.07601e-05
9.23211e-05
9.23211e-05
9.23211e-05
8.81443e-05
8.81443e-05
8.81443e-05
8.77179e-05
8.77179e-05
8.77179e-05
8.85732e-05
8.85732e-05
8.85732e-05
8.90031e-05
8.90031e-05
8.90031e-05
8.79281e-05
8.79281e-05
8.79281e-05
8.77167e-05
8.77167e-05
8.77167e-05
8.83555e-05
8.83555e-05
8.83555e-05
8.85717e-05
8.85717e-05
8.85717e-05
8.79304e-05
8.79304e-05
8.79304e-05
8.8358e-05
8.8358e-05
8.8358e-05
8.94393e-05
8.94393e-05
8.94393e-05
8.98762e-05
8.98762e-05
8.98762e-05
8.96566e-05
8.96566e-05
8.96566e-05
8.90048e-05
8.90048e-05
8.90048e-05
8.9221e-05
8.9221e-05
8.9221e-05
8.29873e-05
8.29873e-05
8.29873e-05
8.27897e-05
8.27897e-05
8.27897e-05
8.33865e-05
8.33865e-05
8.33865e-05
8.72899e-05
8.72899e-05
8.72899e-05
8.70808e-05
8.70808e-05
8.70808e-05
8.70769e-05
8.70769e-05
8.70769e-05
8.66571e-05
8.66571e-05
8.66571e-05
8.64455e-05
8.64455e-05
8.64455e-05
8.39131e-05
8.39131e-05
8.39131e-05
8.35112e-05
8.35112e-05
8.35112e-05
8.29557e-05
8.29557e-05
8.29557e-05
8.33546e-05
8.33546e-05
8.33546e-05
8.47627e-05
8.47627e-05
8.47627e-05
8.4159e-05
8.4159e-05
8.4159e-05
8.45645e-05
8.45645e-05
8.45645e-05
8.17613e-05
8.17613e-05
8.17613e-05
8.10018e-05
8.10018e-05
8.10018e-05
8.27619e-05
8.27619e-05
8.27619e-05
8.2965e-05
8.2965e-05
8.2965e-05
8.16057e-05
8.16057e-05
8.16057e-05
8.35853e-05
8.35853e-05
8.35853e-05
8.33831e-05
8.33831e-05
8.33831e-05
8.33718e-05
8.33718e-05
8.33718e-05
8.23912e-05
8.23912e-05
8.23912e-05
8.27871e-05
8.27871e-05
8.27871e-05
8.2984e-05
8.2984e-05
8.2984e-05
7.94678e-05
7.94678e-05
7.94678e-05
7.30922e-05
7.30922e-05
7.30922e-05
7.06609e-05
7.06609e-05
7.06609e-05
8.23325e-05
8.23325e-05
8.23325e-05
8.2142e-05
8.2142e-05
8.2142e-05
8.11708e-05
8.11708e-05
8.11708e-05
8.15477e-05
8.15477e-05
8.15477e-05
8.15602e-05
8.15602e-05
8.15602e-05
8.17495e-05
8.17495e-05
8.17495e-05
8.11584e-05
8.11584e-05
8.11584e-05
8.09708e-05
8.09708e-05
8.09708e-05
8.03858e-05
8.03858e-05
8.03858e-05
8.05845e-05
8.05845e-05
8.05845e-05
8.06064e-05
8.06064e-05
8.06064e-05
8.09825e-05
8.09825e-05
8.09825e-05
7.94105e-05
7.94105e-05
7.94105e-05
7.88032e-05
7.88032e-05
7.88032e-05
7.8624e-05
7.8624e-05
7.8624e-05
7.80544e-05
7.80544e-05
7.80544e-05
7.82496e-05
7.82496e-05
7.82496e-05
8.05715e-05
8.05715e-05
8.05715e-05
8.11446e-05
8.11446e-05
8.11446e-05
8.09578e-05
8.09578e-05
8.09578e-05
7.52078e-05
7.52078e-05
7.52078e-05
7.50137e-05
7.50137e-05
7.50137e-05
7.4915e-05
7.4915e-05
7.4915e-05
7.51105e-05
7.51105e-05
7.51105e-05
7.55665e-05
7.55665e-05
7.55665e-05
7.57308e-05
7.57308e-05
7.57308e-05
7.67871e-05
7.67871e-05
7.67871e-05
7.54685e-05
7.54685e-05
7.54685e-05
7.04534e-05
7.04534e-05
7.04534e-05
7.06323e-05
7.06323e-05
7.06323e-05
7.01216e-05
7.01216e-05
7.01216e-05
6.99684e-05
6.99684e-05
6.99684e-05
7.09671e-05
7.09671e-05
7.09671e-05
7.11229e-05
7.11229e-05
7.11229e-05
7.09423e-05
7.09423e-05
7.09423e-05
7.06077e-05
7.06077e-05
7.06077e-05
7.09164e-05
7.09164e-05
7.09164e-05
7.10975e-05
7.10975e-05
7.10975e-05
7.14349e-05
7.14349e-05
7.14349e-05
6.99441e-05
6.99441e-05
6.99441e-05
7.05819e-05
7.05819e-05
7.05819e-05
7.04283e-05
7.04283e-05
7.04283e-05
7.00966e-05
7.00966e-05
7.00966e-05
6.99187e-05
6.99187e-05
6.99187e-05
6.98062e-05
6.98062e-05
6.98062e-05
6.94494e-05
6.94494e-05
6.94494e-05
6.9641e-05
6.9641e-05
6.9641e-05
7.33229e-05
7.33229e-05
7.33229e-05
7.3283e-05
7.3283e-05
7.3283e-05
7.31297e-05
7.31297e-05
7.31297e-05
8.00555e-05
8.00555e-05
8.00555e-05
7.94589e-05
7.94589e-05
7.94589e-05
7.98371e-05
7.98371e-05
7.98371e-05
7.98934e-05
7.98934e-05
7.98934e-05
8.56208e-05
8.56208e-05
8.56208e-05
8.52109e-05
8.52109e-05
8.52109e-05
8.58014e-05
8.58014e-05
8.58014e-05
8.17604e-05
8.17604e-05
8.17604e-05
8.19822e-05
8.19822e-05
8.19822e-05
8.26466e-05
8.26466e-05
8.26466e-05
8.28729e-05
8.28729e-05
8.28729e-05
8.30217e-05
8.30217e-05
8.30217e-05
8.34386e-05
8.34386e-05
8.34386e-05
8.3269e-05
8.3269e-05
8.3269e-05
8.06564e-05
8.06564e-05
8.06564e-05
8.04368e-05
8.04368e-05
8.04368e-05
8.03795e-05
8.03795e-05
8.03795e-05
8.11472e-05
8.11472e-05
8.11472e-05
8.05992e-05
8.05992e-05
8.05992e-05
8.09832e-05
8.09832e-05
8.09832e-05
8.05403e-05
8.05403e-05
8.05403e-05
8.09239e-05
8.09239e-05
8.09239e-05
8.7113e-05
8.7113e-05
8.7113e-05
8.75323e-05
8.75323e-05
8.75323e-05
8.77741e-05
8.77741e-05
8.77741e-05
8.88019e-05
8.88019e-05
8.88019e-05
8.77918e-05
8.77918e-05
8.77918e-05
8.79726e-05
8.79726e-05
8.79726e-05
8.59316e-05
8.59316e-05
8.59316e-05
8.64084e-05
8.64084e-05
8.64084e-05
8.5757e-05
8.5757e-05
8.5757e-05
8.59947e-05
8.59947e-05
8.59947e-05
7.81232e-05
7.81232e-05
7.81232e-05
7.77536e-05
7.77536e-05
7.77536e-05
7.75964e-05
7.75964e-05
7.75964e-05
7.50641e-05
7.50641e-05
7.50641e-05
7.36061e-05
7.36061e-05
7.36061e-05
7.1082e-05
7.1082e-05
7.1082e-05
7.45249e-05
7.45249e-05
7.45249e-05
7.53972e-05
7.53972e-05
7.53972e-05
7.50398e-05
7.50398e-05
7.50398e-05
7.58236e-05
7.58236e-05
7.58236e-05
7.51081e-05
7.51081e-05
7.51081e-05
7.51663e-05
7.51663e-05
7.51663e-05
7.55233e-05
7.55233e-05
7.55233e-05
8.15257e-05
8.15257e-05
8.15257e-05
8.18135e-05
8.18135e-05
8.18135e-05
8.18651e-05
8.18651e-05
8.18651e-05
8.20348e-05
8.20348e-05
8.20348e-05
8.01045e-05
8.01045e-05
8.01045e-05
8.03202e-05
8.03202e-05
8.03202e-05
8.01538e-05
8.01538e-05
8.01538e-05
7.702e-05
7.702e-05
7.702e-05
7.66558e-05
7.66558e-05
7.66558e-05
7.71743e-05
7.71743e-05
7.71743e-05
7.5626e-05
7.5626e-05
7.5626e-05
7.54726e-05
7.54726e-05
7.54726e-05
7.59853e-05
7.59853e-05
7.59853e-05
7.61915e-05
7.61915e-05
7.61915e-05
7.56773e-05
7.56773e-05
7.56773e-05
7.60369e-05
7.60369e-05
7.60369e-05
8.19153e-05
8.19153e-05
8.19153e-05
8.24784e-05
8.24784e-05
8.24784e-05
8.20859e-05
8.20859e-05
8.20859e-05
8.27984e-05
8.27984e-05
8.27984e-05
8.21451e-05
8.21451e-05
8.21451e-05
8.23626e-05
8.23626e-05
8.23626e-05
8.17109e-05
8.17109e-05
8.17109e-05
8.0709e-05
8.0709e-05
8.0709e-05
8.0498e-05
8.0498e-05
8.0498e-05
8.16201e-05
8.16201e-05
8.16201e-05
8.17951e-05
8.17951e-05
8.17951e-05
8.21867e-05
8.21867e-05
8.21867e-05
8.24037e-05
8.24037e-05
8.24037e-05
8.1835e-05
8.1835e-05
8.1835e-05
8.2227e-05
8.2227e-05
8.2227e-05
8.12313e-05
8.12313e-05
8.12313e-05
8.10178e-05
8.10178e-05
8.10178e-05
8.06323e-05
8.06323e-05
8.06323e-05
8.04598e-05
8.04598e-05
8.04598e-05
8.06713e-05
8.06713e-05
8.06713e-05
8.10572e-05
8.10572e-05
8.10572e-05
8.22761e-05
8.22761e-05
8.22761e-05
8.20574e-05
8.20574e-05
8.20574e-05
8.22307e-05
8.22307e-05
8.22307e-05
8.26243e-05
8.26243e-05
8.26243e-05
7.82638e-05
7.82638e-05
7.82638e-05
8.00771e-05
8.00771e-05
8.00771e-05
7.84329e-05
7.84329e-05
7.84329e-05
8.45378e-05
8.45378e-05
8.45378e-05
8.5353e-05
8.5353e-05
8.5353e-05
8.47629e-05
8.47629e-05
8.47629e-05
8.51706e-05
8.51706e-05
8.51706e-05
8.53071e-05
8.53071e-05
8.53071e-05
8.51257e-05
8.51257e-05
8.51257e-05
8.47183e-05
8.47183e-05
8.47183e-05
8.44926e-05
8.44926e-05
8.44926e-05
8.46722e-05
8.46722e-05
8.46722e-05
8.50792e-05
8.50792e-05
8.50792e-05
8.34179e-05
8.34179e-05
8.34179e-05
8.3195e-05
8.3195e-05
8.3195e-05
8.27104e-05
8.27104e-05
8.27104e-05
8.31077e-05
8.31077e-05
8.31077e-05
8.07277e-05
8.07277e-05
8.07277e-05
8.09348e-05
8.09348e-05
8.09348e-05
8.26819e-05
8.26819e-05
8.26819e-05
8.24985e-05
8.24985e-05
8.24985e-05
8.01373e-05
8.01373e-05
8.01373e-05
8.0343e-05
8.0343e-05
8.0343e-05
8.01651e-05
8.01651e-05
8.01651e-05
7.97555e-05
7.97555e-05
7.97555e-05
7.95793e-05
7.95793e-05
7.95793e-05
7.97832e-05
7.97832e-05
7.97832e-05
8.23033e-05
8.23033e-05
8.23033e-05
8.30947e-05
8.30947e-05
8.30947e-05
8.29145e-05
8.29145e-05
8.29145e-05
8.25186e-05
8.25186e-05
8.25186e-05
8.11317e-05
8.11317e-05
8.11317e-05
8.13436e-05
8.13436e-05
8.13436e-05
8.31313e-05
8.31313e-05
8.31313e-05
8.19465e-05
8.19465e-05
8.19465e-05
8.23393e-05
8.23393e-05
8.23393e-05
8.34937e-05
8.34937e-05
8.34937e-05
8.54403e-05
8.54403e-05
8.54403e-05
8.52141e-05
8.52141e-05
8.52141e-05
8.4806e-05
8.4806e-05
8.4806e-05
8.29764e-05
8.29764e-05
8.29764e-05
8.27987e-05
8.27987e-05
8.27987e-05
8.34156e-05
8.34156e-05
8.34156e-05
8.30173e-05
8.30173e-05
8.30173e-05
8.59399e-05
8.59399e-05
8.59399e-05
8.51598e-05
8.51598e-05
8.51598e-05
8.47511e-05
8.47511e-05
8.47511e-05
8.45535e-05
8.45535e-05
8.45535e-05
8.59561e-05
8.59561e-05
8.59561e-05
8.53294e-05
8.53294e-05
8.53294e-05
8.57414e-05
8.57414e-05
8.57414e-05
8.72851e-05
8.72851e-05
8.72851e-05
8.79238e-05
8.79238e-05
8.79238e-05
8.77084e-05
8.77084e-05
8.77084e-05
8.45123e-05
8.45123e-05
8.45123e-05
8.41072e-05
8.41072e-05
8.41072e-05
8.27375e-05
8.27375e-05
8.27375e-05
8.25262e-05
8.25262e-05
8.25262e-05
8.2132e-05
8.2132e-05
8.2132e-05
8.19488e-05
8.19488e-05
8.19488e-05
8.13498e-05
8.13498e-05
8.13498e-05
8.15577e-05
8.15577e-05
8.15577e-05
9.25808e-05
9.25808e-05
9.25808e-05
9.21243e-05
9.21243e-05
9.21243e-05
9.23906e-05
9.23906e-05
9.23906e-05
9.27427e-05
9.27427e-05
9.27427e-05
9.12603e-05
9.12603e-05
9.12603e-05
9.16971e-05
9.16971e-05
9.16971e-05
8.79675e-05
8.79675e-05
8.79675e-05
8.88212e-05
8.88212e-05
8.88212e-05
8.08319e-05
8.08319e-05
8.08319e-05
8.12196e-05
8.12196e-05
8.12196e-05
8.31888e-05
8.31888e-05
8.31888e-05
8.27908e-05
8.27908e-05
8.27908e-05
8.29892e-05
8.29892e-05
8.29892e-05
8.43962e-05
8.43962e-05
8.43962e-05
8.48032e-05
8.48032e-05
8.48032e-05
8.4802e-05
8.4802e-05
8.4802e-05
8.45991e-05
8.45991e-05
8.45991e-05
8.60379e-05
8.60379e-05
8.60379e-05
8.5624e-05
8.5624e-05
8.5624e-05
8.52124e-05
8.52124e-05
8.52124e-05
8.58303e-05
8.58303e-05
8.58303e-05
8.54175e-05
8.54175e-05
8.54175e-05
8.52113e-05
8.52113e-05
8.52113e-05
8.54156e-05
8.54156e-05
8.54156e-05
8.58246e-05
8.58246e-05
8.58246e-05
8.60294e-05
8.60294e-05
8.60294e-05
8.6453e-05
8.6453e-05
8.6453e-05
8.66609e-05
8.66609e-05
8.66609e-05
8.60367e-05
8.60367e-05
8.60367e-05
8.58283e-05
8.58283e-05
8.58283e-05
8.64501e-05
8.64501e-05
8.64501e-05
8.60339e-05
8.60339e-05
8.60339e-05
8.45971e-05
8.45971e-05
8.45971e-05
8.41913e-05
8.41913e-05
8.41913e-05
8.39877e-05
8.39877e-05
8.39877e-05
8.41879e-05
8.41879e-05
8.41879e-05
8.39274e-05
8.39274e-05
8.39274e-05
8.41359e-05
8.41359e-05
8.41359e-05
8.45412e-05
8.45412e-05
8.45412e-05
8.41222e-05
8.41222e-05
8.41222e-05
8.29197e-05
8.29197e-05
8.29197e-05
8.33184e-05
8.33184e-05
8.33184e-05
8.2728e-05
8.2728e-05
8.2728e-05
8.35254e-05
8.35254e-05
8.35254e-05
8.33318e-05
8.33318e-05
8.33318e-05
8.29331e-05
8.29331e-05
8.29331e-05
8.33639e-05
8.33639e-05
8.33639e-05
8.41684e-05
8.41684e-05
8.41684e-05
8.35597e-05
8.35597e-05
8.35597e-05
8.39619e-05
8.39619e-05
8.39619e-05
8.35683e-05
8.35683e-05
8.35683e-05
8.39706e-05
8.39706e-05
8.39706e-05
8.21643e-05
8.21643e-05
8.21643e-05
8.23661e-05
8.23661e-05
8.23661e-05
8.15713e-05
8.15713e-05
8.15713e-05
8.11915e-05
8.11915e-05
8.11915e-05
8.1581e-05
8.1581e-05
8.1581e-05
8.17718e-05
8.17718e-05
8.17718e-05
8.09929e-05
8.09929e-05
8.09929e-05
8.11818e-05
8.11818e-05
8.11818e-05
7.98484e-05
7.98484e-05
7.98484e-05
8.00351e-05
8.00351e-05
8.00351e-05
8.04186e-05
8.04186e-05
8.04186e-05
8.06153e-05
8.06153e-05
8.06153e-05
8.04268e-05
8.04268e-05
8.04268e-05
7.98558e-05
7.98558e-05
7.98558e-05
8.00433e-05
8.00433e-05
8.00433e-05
8.11998e-05
8.11998e-05
8.11998e-05
8.39835e-05
8.39835e-05
8.39835e-05
8.35755e-05
8.35755e-05
8.35755e-05
8.35812e-05
8.35812e-05
8.35812e-05
8.33782e-05
8.33782e-05
8.33782e-05
8.17995e-05
8.17995e-05
8.17995e-05
8.21922e-05
8.21922e-05
8.21922e-05
8.21874e-05
8.21874e-05
8.21874e-05
8.23871e-05
8.23871e-05
8.23871e-05
8.29791e-05
8.29791e-05
8.29791e-05
8.2783e-05
8.2783e-05
8.2783e-05
7.94752e-05
7.94752e-05
7.94752e-05
7.92888e-05
7.92888e-05
7.92888e-05
7.92821e-05
7.92821e-05
7.92821e-05
7.94812e-05
7.94812e-05
7.94812e-05
7.9294e-05
7.9294e-05
7.9294e-05
7.8911e-05
7.8911e-05
7.8911e-05
7.92538e-05
7.92538e-05
7.92538e-05
7.92741e-05
7.92741e-05
7.92741e-05
7.88964e-05
7.88964e-05
7.88964e-05
7.87038e-05
7.87038e-05
7.87038e-05
7.8887e-05
7.8887e-05
7.8887e-05
7.0938e-05
7.0938e-05
7.0938e-05
7.03444e-05
7.03444e-05
7.03444e-05
7.06382e-05
7.06382e-05
7.06382e-05
7.52429e-05
7.52429e-05
7.52429e-05
7.48843e-05
7.48843e-05
7.48843e-05
7.50637e-05
7.50637e-05
7.50637e-05
7.34581e-05
7.34581e-05
7.34581e-05
7.41674e-05
7.41674e-05
7.41674e-05
7.38141e-05
7.38141e-05
7.38141e-05
7.39949e-05
7.39949e-05
7.39949e-05
7.45262e-05
7.45262e-05
7.45262e-05
7.43493e-05
7.43493e-05
7.43493e-05
7.48852e-05
7.48852e-05
7.48852e-05
7.45289e-05
7.45289e-05
7.45289e-05
8.21538e-05
8.21538e-05
8.21538e-05
8.23451e-05
8.23451e-05
8.23451e-05
8.27407e-05
8.27407e-05
8.27407e-05
8.29451e-05
8.29451e-05
8.29451e-05
8.2752e-05
8.2752e-05
8.2752e-05
8.23563e-05
8.23563e-05
8.23563e-05
8.03981e-05
8.03981e-05
8.03981e-05
8.0409e-05
8.0409e-05
8.0409e-05
8.05962e-05
8.05962e-05
8.05962e-05
8.00147e-05
8.00147e-05
8.00147e-05
7.9162e-05
7.9162e-05
7.9162e-05
7.98808e-05
7.98808e-05
7.98808e-05
7.96792e-05
7.96792e-05
7.96792e-05
7.97754e-05
7.97754e-05
7.97754e-05
7.88203e-05
7.88203e-05
7.88203e-05
7.91976e-05
7.91976e-05
7.91976e-05
7.92136e-05
7.92136e-05
7.92136e-05
7.93952e-05
7.93952e-05
7.93952e-05
8.03722e-05
8.03722e-05
8.03722e-05
7.99889e-05
7.99889e-05
7.99889e-05
7.99741e-05
7.99741e-05
7.99741e-05
7.97908e-05
7.97908e-05
7.97908e-05
8.09434e-05
8.09434e-05
8.09434e-05
8.05572e-05
8.05572e-05
8.05572e-05
8.05417e-05
8.05417e-05
8.05417e-05
8.03573e-05
8.03573e-05
8.03573e-05
7.44957e-05
7.44957e-05
7.44957e-05
7.41424e-05
7.41424e-05
7.41424e-05
7.44649e-05
7.44649e-05
7.44649e-05
7.46578e-05
7.46578e-05
7.46578e-05
7.51765e-05
7.51765e-05
7.51765e-05
7.5535e-05
7.5535e-05
7.5535e-05
7.46263e-05
7.46263e-05
7.46263e-05
7.4982e-05
7.4982e-05
7.4982e-05
7.49491e-05
7.49491e-05
7.49491e-05
7.51441e-05
7.51441e-05
7.51441e-05
7.71867e-05
7.71867e-05
7.71867e-05
7.66211e-05
7.66211e-05
7.66211e-05
7.62573e-05
7.62573e-05
7.62573e-05
7.66533e-05
7.66533e-05
7.66533e-05
7.682e-05
7.682e-05
7.682e-05
7.62892e-05
7.62892e-05
7.62892e-05
7.60921e-05
7.60921e-05
7.60921e-05
7.73542e-05
7.73542e-05
7.73542e-05
7.71535e-05
7.71535e-05
7.71535e-05
7.77235e-05
7.77235e-05
7.77235e-05
7.78919e-05
7.78919e-05
7.78919e-05
7.60597e-05
7.60597e-05
7.60597e-05
7.56653e-05
7.56653e-05
7.56653e-05
7.55023e-05
7.55023e-05
7.55023e-05
7.56987e-05
7.56987e-05
7.56987e-05
7.65877e-05
7.65877e-05
7.65877e-05
7.62241e-05
7.62241e-05
7.62241e-05
7.6026e-05
7.6026e-05
7.6026e-05
7.54334e-05
7.54334e-05
7.54334e-05
7.56307e-05
7.56307e-05
7.56307e-05
7.55949e-05
7.55949e-05
7.55949e-05
7.59551e-05
7.59551e-05
7.59551e-05
7.94588e-05
7.94588e-05
7.94588e-05
7.90808e-05
7.90808e-05
7.90808e-05
7.79255e-05
7.79255e-05
7.79255e-05
7.84676e-05
7.84676e-05
7.84676e-05
7.88424e-05
7.88424e-05
7.88424e-05
7.8501e-05
7.8501e-05
7.8501e-05
7.82977e-05
7.82977e-05
7.82977e-05
7.90476e-05
7.90476e-05
7.90476e-05
7.88761e-05
7.88761e-05
7.88761e-05
7.68208e-05
7.68208e-05
7.68208e-05
7.70162e-05
7.70162e-05
7.70162e-05
7.32256e-05
7.32256e-05
7.32256e-05
7.05222e-05
7.05222e-05
7.05222e-05
7.11473e-05
7.11473e-05
7.11473e-05
7.16664e-05
7.16664e-05
7.16664e-05
7.1485e-05
7.1485e-05
7.1485e-05
7.41118e-05
7.41118e-05
7.41118e-05
7.39513e-05
7.39513e-05
7.39513e-05
7.81468e-05
7.81468e-05
7.81468e-05
7.8329e-05
7.8329e-05
7.8329e-05
7.06997e-05
7.06997e-05
7.06997e-05
7.36611e-05
7.36611e-05
7.36611e-05
7.76828e-05
7.76828e-05
7.76828e-05
7.43657e-05
7.43657e-05
7.43657e-05
7.32128e-05
7.32128e-05
7.32128e-05
7.84207e-05
7.84207e-05
7.84207e-05
7.69114e-05
7.69114e-05
7.69114e-05
7.51546e-05
7.51546e-05
7.51546e-05
7.53209e-05
7.53209e-05
7.53209e-05
7.58739e-05
7.58739e-05
7.58739e-05
7.56805e-05
7.56805e-05
7.56805e-05
7.35979e-05
7.35979e-05
7.35979e-05
7.19828e-05
7.19828e-05
7.19828e-05
7.16172e-05
7.16172e-05
7.16172e-05
7.16424e-05
7.16424e-05
7.16424e-05
7.14605e-05
7.14605e-05
7.14605e-05
7.42531e-05
7.42531e-05
7.42531e-05
7.47977e-05
7.47977e-05
7.47977e-05
7.46072e-05
7.46072e-05
7.46072e-05
7.37376e-05
7.37376e-05
7.37376e-05
7.35746e-05
7.35746e-05
7.35746e-05
7.37616e-05
7.37616e-05
7.37616e-05
7.40892e-05
7.40892e-05
7.40892e-05
7.50442e-05
7.50442e-05
7.50442e-05
7.46881e-05
7.46881e-05
7.46881e-05
6.97753e-05
6.97753e-05
6.97753e-05
6.99556e-05
6.99556e-05
6.99556e-05
7.04022e-05
7.04022e-05
7.04022e-05
6.98922e-05
6.98922e-05
6.98922e-05
7.00706e-05
7.00706e-05
7.00706e-05
6.98359e-05
6.98359e-05
6.98359e-05
6.9986e-05
6.9986e-05
6.9986e-05
7.03171e-05
7.03171e-05
7.03171e-05
7.04982e-05
7.04982e-05
7.04982e-05
6.98232e-05
6.98232e-05
6.98232e-05
6.96762e-05