<VTKFile type="UnstructuredGrid" version="1.0">
<UnstructuredGrid>
<Piece NumberOfPoints="10830" NumberOfCells="3610">
<Points>
<DataArray type="Float64" NumberOfComponents="3" format="ascii">
3.11035 1.27826 11.5207
3.11035 1.28831 11.5465
3.11035 1.28831 11.495
3.11035 1.28831 12.0501
3.11035 1.27701 12.0755
3.11035 1.28831 12.101
3.11035 1.28831 12.0501
3.11035 1.26002 12.0501
3.11035 1.27701 12.0755
3.11035 0.0244388 12.5226
3.11035 4.44089e-16 12.54
3.11035 0.0422213 12.54
3.11035 4.44089e-16 12.54
3.11035 0.0244388 12.5226
3.11035 -7.90479e-14 12.5098
3.11035 1.28831 12.0501
3.11035 1.27702 12.0247
3.11035 1.26002 12.0501
3.11035 0.00863377 11.7718
3.11035 1.50546e-13 11.7466
3.11035 1.49658e-13 11.797
3.11035 1.27705 11.7719
3.11035 1.26004 11.7971
3.11035 1.28831 11.7971
3.11035 1.27684 11.6713
3.11035 1.28831 11.6964
3.11035 1.28831 11.6463
3.11035 1.26004 11.7971
3.11035 1.27707 11.8223
3.11035 1.28831 11.7971
3.11035 1.28831 11.7971
3.11035 1.27707 11.8223
3.11035 1.28831 11.8475
3.11035 1.26005 11.8476
3.11035 1.28831 11.8475
3.11035 1.27707 11.8223
3.11035 1.26003 11.9993
3.11035 1.24613 12.0247
3.11035 1.27702 12.0247
3.11035 1.24613 12.0247
3.11035 1.26002 12.0501
3.11035 1.27702 12.0247
3.11035 1.24613 12.0247
3.11035 1.26003 11.9993
3.11035 1.23052 11.9993
3.11035 1.24613 12.0247
3.11035 1.23052 12.0501
3.11035 1.26002 12.0501
3.11035 1.28831 11.898
3.11035 1.27705 11.9233
3.11035 1.28831 11.9486
3.11035 1.27705 11.9233
3.11035 1.24616 11.9233
3.11035 1.26004 11.9486
3.11035 1.28831 11.9486
3.11035 1.27705 11.9233
3.11035 1.26004 11.9486
3.11035 1.28831 11.9993
3.11035 1.26003 11.9993
3.11035 1.27702 12.0247
3.11035 1.28831 12.0501
3.11035 1.28831 11.9993
3.11035 1.27702 12.0247
3.11035 1.25981 11.6463
3.11035 1.27684 11.6713
3.11035 1.28831 11.6463
3.11035 1.26002 12.101
3.11035 1.28831 12.101
3.11035 1.27701 12.0755
3.11035 0.85884 12.2807
3.11035 0.888295 12.2807
3.11035 0.873578 12.255
3.11035 4.44089e-16 11.495
3.11035 0.00987207 11.5197
3.11035 0.0277369 11.495
3.11035 0.0840033 11.7466
3.11035 0.0689903 11.7214
3.11035 0.0549577 11.7466
3.11035 0.0264927 11.7466
3.11035 0.0392653 11.7718
3.11035 0.0549577 11.7466
3.11035 0.0264927 11.7466
3.11035 1.50546e-13 11.7466
3.11035 0.00863377 11.7718
3.11035 0.0392653 11.7718
3.11035 0.0264927 11.7466
3.11035 0.00863377 11.7718
3.11035 0.0087521 11.9739
3.11035 1.48326e-13 11.9486
3.11035 -9.59233e-14 11.9993
3.11035 0.0265703 11.9993
3.11035 0.0550657 11.9993
3.11035 0.0393699 11.9739
3.11035 -9.59233e-14 11.9993
3.11035 0.0265703 11.9993
3.11035 0.0087521 11.9739
3.11035 0.0265703 11.9993
3.11035 0.0393699 11.9739
3.11035 0.0087521 11.9739
3.11035 0.0265544 11.9486
3.11035 0.0393699 11.9739
3.11035 0.0550443 11.9486
3.11035 0.0265544 11.9486
3.11035 1.48326e-13 11.9486
3.11035 0.0087521 11.9739
3.11035 0.0393699 11.9739
3.11035 0.0265544 11.9486
3.11035 0.0087521 11.9739
3.11035 1.49658e-13 11.797
3.11035 0.0265126 11.797
3.11035 0.00863377 11.7718
3.11035 0.0265126 11.797
3.11035 0.0392653 11.7718
3.11035 0.00863377 11.7718
3.11035 0.0550657 11.9993
3.11035 0.0691236 11.9739
3.11035 0.0393699 11.9739
3.11035 0.0393699 11.9739
3.11035 0.0691236 11.9739
3.11035 0.0550443 11.9486
3.11035 0.288852 11.9487
3.11035 0.274248 11.974
3.11035 0.303471 11.974
3.11035 0.274248 11.974
3.11035 0.288872 11.9994
3.11035 0.303471 11.974
3.11035 0.288872 11.9994
3.11035 0.318088 11.9994
3.11035 0.303471 11.974
3.11035 0.844143 12.255
3.11035 0.85884 12.2807
3.11035 0.873578 12.255
3.11035 1.27699 11.7216
3.11035 1.28831 11.7467
3.11035 1.28831 11.6964
3.11035 1.28831 11.7971
3.11035 1.28831 11.7467
3.11035 1.27705 11.7719
3.11035 1.17079 11.8981
3.11035 1.15586 11.8728
3.11035 1.14088 11.8981
3.11035 1.26004 11.8981
3.11035 1.24616 11.9233
3.11035 1.27705 11.9233
3.11035 1.28831 11.898
3.11035 1.26004 11.8981
3.11035 1.27705 11.9233
3.11035 1.24616 11.9233
3.11035 1.23053 11.9486
3.11035 1.26004 11.9486
3.11035 1.27704 11.9739
3.11035 1.28831 11.9486
3.11035 1.26004 11.9486
3.11035 1.28831 11.9486
3.11035 1.27704 11.9739
3.11035 1.28831 11.9993
3.11035 1.27704 11.9739
3.11035 1.26003 11.9993
3.11035 1.28831 11.9993
3.11035 1.24591 11.6714
3.11035 1.27684 11.6713
3.11035 1.25981 11.6463
3.11035 1.27699 11.7216
3.11035 1.26001 11.7467
3.11035 1.28831 11.7467
3.11035 1.26001 11.7467
3.11035 1.27705 11.7719
3.11035 1.28831 11.7467
3.11035 1.15573 11.7216
3.11035 1.1706 11.6964
3.11035 1.1407 11.6964
3.11035 1.20051 11.6965
3.11035 1.21561 11.6713
3.11035 1.18556 11.6713
3.11035 1.20051 11.6965
3.11035 1.18556 11.6713
3.11035 1.1706 11.6964
3.11035 1.24614 11.7719
3.11035 1.26004 11.7971
3.11035 1.27705 11.7719
3.11035 1.24614 11.7719
3.11035 1.27705 11.7719
3.11035 1.26001 11.7467
3.11035 1.24612 12.0756
3.11035 1.27701 12.0755
3.11035 1.26002 12.0501
3.11035 1.27701 12.0755
3.11035 1.24612 12.0756
3.11035 1.26002 12.101
3.11035 1.23052 12.0501
3.11035 1.24612 12.0756
3.11035 1.26002 12.0501
3.11035 1.24611 12.2291
3.11035 1.23051 12.2034
3.11035 1.21584 12.2291
3.11035 1.21584 12.1777
3.11035 1.23051 12.2034
3.11035 1.24611 12.1777
3.11035 1.27699 12.1265
3.11035 1.28831 12.101
3.11035 1.26002 12.101
3.11035 1.24611 12.1266
3.11035 1.27699 12.1265
3.11035 1.26002 12.101
3.11035 0.917741 12.3323
3.11035 0.902954 12.3582
3.11035 0.932465 12.3582
3.11035 1.08109 12.2034
3.11035 1.11094 12.2034
3.11035 1.09602 12.1778
3.11035 1.11094 12.2034
3.11035 1.12589 12.1778
3.11035 1.09602 12.1778
3.11035 1.2305 12.1521
3.11035 1.24611 12.1266
3.11035 1.21584 12.1266
3.11035 1.2305 12.1521
3.11035 1.21584 12.1777
3.11035 1.24611 12.1777
3.11035 1.0662 12.1778
3.11035 1.08109 12.2034
3.11035 1.09602 12.1778
3.11035 0.991917 11.9487
3.11035 0.977089 11.9234
3.11035 0.962274 11.9487
3.11035 0.917902 11.9234
3.11035 0.888384 11.9234
3.11035 0.903138 11.9487
3.11035 0.932681 11.9487
3.11035 0.917902 11.9234
3.11035 0.903138 11.9487
3.11035 0.903119 11.8477
3.11035 0.917893 11.8729
3.11035 0.932664 11.8477
3.11035 0.917893 11.8729
3.11035 0.903119 11.8477
3.11035 0.888374 11.8729
3.11035 0.903119 11.8477
3.11035 0.873625 11.8476
3.11035 0.888374 11.8729
3.11035 0.917893 11.8729
3.11035 0.947463 11.8729
3.11035 0.932664 11.8477
3.11035 0.962233 11.7972
3.11035 0.947444 11.8224
3.11035 0.977066 11.8224
3.11035 0.947444 11.8224
3.11035 0.962233 11.7972
3.11035 0.932637 11.7972
3.11035 0.741456 11.9741
3.11035 0.770765 11.9741
3.11035 0.756104 11.9487
3.11035 0.756104 11.9487
3.11035 0.770765 11.9741
3.11035 0.785431 11.9488
3.11035 0.903133 11.8982
3.11035 0.917893 11.8729
3.11035 0.888374 11.8729
3.11035 0.903133 11.8982
3.11035 0.888384 11.9234
3.11035 0.917902 11.9234
3.11035 0.888384 11.9234
3.11035 0.873639 11.8982
3.11035 0.858913 11.9234
3.11035 0.873639 11.8982
3.11035 0.888384 11.9234
3.11035 0.903133 11.8982
3.11035 0.888374 11.8729
3.11035 0.873639 11.8982
3.11035 0.903133 11.8982
3.11035 0.873625 11.8476
3.11035 0.858884 11.8224
3.11035 0.844177 11.8476
3.11035 0.844153 11.7972
3.11035 0.858884 11.8224
3.11035 0.873599 11.7972
3.11035 0.318069 11.9487
3.11035 0.288852 11.9487
3.11035 0.303471 11.974
3.11035 0.288852 11.9487
3.11035 0.318069 11.9487
3.11035 0.303454 11.9234
3.11035 0.00864568 11.5699
3.11035 -9.63674e-14 11.5444
3.11035 1.49658e-13 11.5951
3.11035 4.44089e-16 11.495
3.11035 -9.63674e-14 11.5444
3.11035 0.00987207 11.5197
3.11035 0.0264295 11.6457
3.11035 0.00849117 11.6204
3.11035 1.50546e-13 11.6457
3.11035 1.50546e-13 11.6457
3.11035 0.00849117 11.6204
3.11035 1.49658e-13 11.5951
3.11035 1.28831 11.495
3.11035 1.26122 11.495
3.11035 1.27826 11.5207
3.11035 1.50546e-13 11.7466
3.11035 0.00859461 11.7214
3.11035 1.50546e-13 11.6961
3.11035 0.00859461 11.7214
3.11035 1.50546e-13 11.7466
3.11035 0.0264927 11.7466
3.11035 0.0264637 11.6961
3.11035 1.50546e-13 11.6961
3.11035 0.00859461 11.7214
3.11035 0.0264637 11.6961
3.11035 0.0549232 11.6962
3.11035 0.0391815 11.6709
3.11035 0.0392276 11.7214
3.11035 0.0549577 11.7466
3.11035 0.0689903 11.7214
3.11035 0.0549577 11.7466
3.11035 0.0392276 11.7214
3.11035 0.0264927 11.7466
3.11035 0.0549232 11.6962
3.11035 0.0392276 11.7214
3.11035 0.0689903 11.7214
3.11035 0.0392276 11.7214
3.11035 0.0549232 11.6962
3.11035 0.0264637 11.6961
3.11035 0.0264927 11.7466
3.11035 0.0392276 11.7214
3.11035 0.00859461 11.7214
3.11035 0.00859461 11.7214
3.11035 0.0392276 11.7214
3.11035 0.0264637 11.6961
3.11035 0.00854014 11.6709
3.11035 1.50546e-13 11.6457
3.11035 1.50546e-13 11.6961
3.11035 0.00854014 11.6709
3.11035 0.0264295 11.6457
3.11035 1.50546e-13 11.6457
3.11035 0.0264295 11.6457
3.11035 0.00854014 11.6709
3.11035 0.0391815 11.6709
3.11035 0.00854014 11.6709
3.11035 1.50546e-13 11.6961
3.11035 0.0264637 11.6961
3.11035 0.0391815 11.6709
3.11035 0.00854014 11.6709
3.11035 0.0264637 11.6961
3.11035 0.0690987 11.9233
3.11035 0.0393425 11.9233
3.11035 0.0550443 11.9486
3.11035 0.0550443 11.9486
3.11035 0.0393425 11.9233
3.11035 0.0265544 11.9486
3.11035 0.0393425 11.9233
3.11035 0.0690987 11.9233
3.11035 0.0550252 11.898
3.11035 0.0690242 11.7718
3.11035 0.0840033 11.7466
3.11035 0.0549577 11.7466
3.11035 0.0392653 11.7718
3.11035 0.0690242 11.7718
3.11035 0.0549577 11.7466
3.11035 0.0984777 11.7718
3.11035 0.0840033 11.7466
3.11035 0.0690242 11.7718
3.11035 0.0840313 11.797
3.11035 0.0984777 11.7718
3.11035 0.0690242 11.7718
3.11035 0.0840313 11.797
3.11035 0.113251 11.797
3.11035 0.0984777 11.7718
3.11035 0.303441 11.8728
3.11035 0.288836 11.8981
3.11035 0.318055 11.8981
3.11035 0.288836 11.8981
3.11035 0.303454 11.9234
3.11035 0.318055 11.8981
3.11035 0.186476 11.9233
3.11035 0.201123 11.9486
3.11035 0.215741 11.9233
3.11035 0.201103 11.898
3.11035 0.186476 11.9233
3.11035 0.215741 11.9233
3.11035 0.215723 11.8728
3.11035 0.230345 11.8475
3.11035 0.201085 11.8475
3.11035 0.201103 11.898
3.11035 0.215723 11.8728
3.11035 0.186456 11.8728
3.11035 0.215723 11.8728
3.11035 0.201085 11.8475
3.11035 0.186456 11.8728
3.11035 0.215762 11.974
3.11035 0.230402 11.9993
3.11035 0.245012 11.974
3.11035 0.157245 12.0247
[...]
<PointData Scalars="View Factor" >
<DataArray type="Float64" Name="View Factor" NumberOfComponents="1" format="ascii">
0.0086347
0.0086347
0.0086347
0.0143854
0.0143854
0.0143854
0.0141821
0.0141821
0.0141821
0.0168147
0.0168147
0.0168147
0.01797
0.01797
0.01797
0.0139506
0.0139506
0.0139506
0.00832542
0.00832542
0.00832542
0.0109905
0.0109905
0.0109905
0.00986137
0.00986137
0.00986137
0.0111616
0.0111616
0.0111616
0.0113121
0.0113121
0.0113121
0.011514
0.011514
0.011514
0.013658
0.013658
0.013658
0.0138833
0.0138833
0.0138833
0.0135963
0.0135963
0.0135963
0.0140492
0.0140492
0.0140492
0.0124308
0.0124308
0.0124308
0.0125986
0.0125986
0.0125986
0.0126584
0.0126584
0.0126584
0.013502
0.013502
0.013502
0.013693
0.013693
0.013693
0.00973507
0.00973507
0.00973507
0.01466
0.01466
0.01466
0.0171438
0.0171438
0.0171438
0.00619628
0.00619628
0.00619628
0.00535112
0.00535112
0.00535112
0.00670885
0.00670885
0.00670885
0.0078546
0.0078546
0.0078546
0.00734671
0.00734671
0.00734671
0.0101807
0.0101807
0.0101807
0.0084562
0.0084562
0.0084562
0.00992758
0.00992758
0.00992758
0.00912168
0.00912168
0.00912168
0.00817436
0.00817436
0.00817436
0.00959264
0.00959264
0.00959264
0.00896728
0.00896728
0.00896728
0.00811526
0.00811526
0.00811526
0.00746705
0.00746705
0.00746705
0.00750204
0.00750204
0.00750204
0.00737729
0.00737729
0.00737729
0
0
0
0
0
0
0
0
0
0.0173285
0.0173285
0.0173285
0.0103169
0.0103169
0.0103169
0.0108001
0.0108001
0.0108001
0.0112208
0.0112208
0.0112208
0.0123993
0.0123993
0.0123993
0.0122616
0.0122616
0.0122616
0.0127449
0.0127449
0.0127449
0.0128629
0.0128629
0.0128629
0.0130425
0.0130425
0.0130425
0.0132845
0.0132845
0.0132845
0.00983741
0.00983741
0.00983741
0.0104966
0.0104966
0.0104966
0.0106581
0.0106581
0.0106581
0.00940445
0.00940445
0.00940445
0.00989027
0.00989027
0.00989027
0.00976716
0.00976716
0.00976716
0.01094
0.01094
0.01094
0.0107732
0.0107732
0.0107732
0.0143484
0.0143484
0.0143484
0.0145884
0.0145884
0.0145884
0.0142829
0.0142829
0.0142829
0.0168341
0.0168341
0.0168341
0.0162634
0.0162634
0.0162634
0.0149067
0.0149067
0.0149067
0.0150842
0.0150842
0.0150842
0.0137196
0.0137196
0.0137196
0.0150833
0.0150833
0.0150833
0.0150854
0.0150854
0.0150854
0.0154532
0.0154532
0.0154532
0.0159874
0.0159874
0.0159874
0.0144238
0.0144238
0.0144238
0.0053503
0.0053503
0.0053503
0.00165244
0.00165244
0.00165244
0.00233432
0.00233432
0.00233432
0.00214171
0.00214171
0.00214171
0.00154343
0.00154343
0.00154343
0.000935915
0.000935915
0.000935915
0.00291415
0.00291415
0.00291415
0.00397549
0.00397549
0.00397549
0.00334316
0.00334316
0.00334316
0
0
0
0
0
0
0.00156981
0.00156981
0.00156981
0.0016243
0.0016243
0.0016243
0.000379674
0.000379674
0.000379674
0.000984307
0.000984307
0.000984307
0.000967837
0.000967837
0.000967837
0
0
0
0
0
0
0
0
0
0
0
0
0.00686902
0.00686902
0.00686902
0.00655724
0.00655724
0.00655724
0.00701942
0.00701942
0.00701942
0.00720239
0.00720239
0.00720239
0.00852291
0.00852291
0.00852291
0.0079289
0.0079289
0.0079289
0.00772815
0.00772815
0.00772815
0.00748264
0.00748264
0.00748264
0.00629389
0.00629389
0.00629389
0.00587451
0.00587451
0.00587451
0.00660204
0.00660204
0.00660204
0.00578237
0.00578237
0.00578237
0.0063946
0.0063946
0.0063946
0.00711314
0.00711314
0.00711314
0.00699977
0.00699977
0.00699977
0.00755518
0.00755518
0.00755518
0.00713192
0.00713192
0.00713192
0.00667268
0.00667268
0.00667268
0.00736345
0.00736345
0.00736345
0.0067796
0.0067796
0.0067796
0.00713549
0.00713549
0.00713549
0.00803787
0.00803787
0.00803787
0.0070183
0.0070183
0.0070183
0.00543599
0.00543599
0.00543599
0.00606429
0.00606429
0.00606429
0.00490051
0.00490051
0.00490051
0.00497774
0.00497774
0.00497774
0.00443372
0.00443372
0.00443372
0
0
0
0
0
0
0.000864546
0.000864546
0.000864546
0.000852679
0.000852679
0.000852679
0.000399695
0.000399695
0.000399695
0.000829519
0.000829519
0.000829519
0.000818218
0.000818218
0.000818218
0
0
0
0.00197344
0.00197344
0.00197344
0.00134235
0.00134235
0.00134235
0.0018349
0.0018349
0.0018349
0.00681916
0.00681916
0.00681916
0.00627981
0.00627981
0.00627981
0.00565285
0.00565285
0.00565285
0.00300546
0.00300546
0.00300546
0.00659674
0.00659674
0.00659674
0.00648893
0.00648893
0.00648893
0.005745
0.005745
0.005745
0.00269194
0.00269194
0.00269194
0.0184117
0.0184117
0.0184117
0.0168701
0.0168701
0.0168701
0
0
0
0
0
0
0
0
0
0
0
0
0
0
0
0
0
0
0
0
0
0
0
0
0
0
0
0
0
0
0.000940008
0.000940008
0.000940008
0
0
0
0.000693712
0.000693712
0.000693712
0.00176388
0.00176388
0.00176388
0.00211605
0.00211605
0.00211605
0.00363506
0.00363506
0.00363506
0.00303662
0.00303662
0.00303662
0
0
0
0
0
0
0
0
0
0.0176671
0.0176671
0.0176671
0.017433
0.017433
0.017433
0.0171799
0.0171799
0.0171799
0.0174176
0.0174176
0.0174176
0.0149402
0.0149402
0.0149402
0.0133315
0.0133315
0.0133315
0.00680767
0.00680767
0.00680767
0.0148084
0.0148084
0.0148084
0
0
0
0
0
0
0
0
0
0
0
0
0
0
0
0
0
0
0
0
0
0
0
0
0
0
0
0
0
0
0
0
0
0
0
0
0
0
0
0
0
0
0
0
0
0
0
0
0
0
0
0.0201165
0.0201165
0.0201165
0.00885313
0.00885313
0.00885313
0.0161358
0.0161358
0.0161358
0.0167804
0.0167804
0.0167804
0.016085
0.016085
0.016085
0.0136901
0.0136901
0.0136901
0.0139822
0.0139822
0.0139822
0.0137547
0.0137547
0.0137547
0.0135779
0.0135779
0.0135779
0.0045729
0.0045729
0.0045729
0.00465192
0.00465192
0.00465192
0.00510112
0.00510112
0.00510112
0.0110563
0.0110563
0.0110563
0.0105835
0.0105835
0.0105835
0.0120691
0.0120691
0.0120691
0.0120126
0.0120126
0.0120126
0.0118549
0.0118549
0.0118549
0.0116954
0.0116954
0.0116954
0.011825
0.011825
0.011825
0.0131385
0.0131385
0.0131385
0.0134686
0.0134686
0.0134686
0.0133769
0.0133769
0.0133769
0.0129513
0.0129513
0.0129513
0.0133137
0.0133137
0.0133137
0.0131
0.0131
0.0131
0.0132211
0.0132211
0.0132211
0.0130094
0.0130094
0.0130094
0.010183
0.010183
0.010183
0.0100308
0.0100308
0.0100308
0.00998587
0.00998587
0.00998587
0.00959167
0.00959167
0.00959167
0.00925803
0.00925803
0.00925803
0.00942612
0.00942612
0.00942612
0.0107269
0.0107269
0.0107269
0.0106309
0.0106309
0.0106309
0.0108436
0.0108436
0.0108436
0.0107951
0.0107951
0.0107951
0.0147654
0.0147654
0.0147654
0.0150145
0.0150145
0.0150145
0.0151947
0.0151947
0.0151947
0.0171292
0.0171292
0.0171292
0.0184158
0.0184158
0.0184158
0.0118804
0.0118804
0.0118804
0.0165594
0.0165594
0.0165594
0.0149655
0.0149655
0.0149655
0.0173598
0.0173598
0.0173598
0.0157861
0.0157861
0.0157861
0.0171169
0.0171169
0.0171169
0.0171114
0.0171114
0.0171114
0.0167283
0.0167283
0.0167283
0.00816137
0.00816137
0.00816137
0.0102583
0.0102583
0.0102583
0.00921932
0.00921932
0.00921932
0.00962706
0.00962706
0.00962706
0.010508
0.010508
0.010508
0.00989306
0.00989306
0.00989306
0.00929793
0.00929793
0.00929793
0.0155291
0.0155291
0.0155291
0.0157949
0.0157949
0.0157949
0.0153402
0.0153402
0.0153402
0.0167509
0.0167509
0.0167509
0.0168585
0.0168585
0.0168585
0.0164642
0.0164642
0.0164642
0.0162228
0.0162228
0.0162228
0.016635
0.016635
0.016635
0.0162746
0.0162746
0.0162746
0.008018
0.008018
0.008018
0.00836014
0.00836014
0.00836014
0.00850784
0.00850784
0.00850784
0.00516394
0.00516394
0.00516394
0.00101831
0.00101831
0.00101831
0.000386106
0.000386106
0.000386106
0.00237543
0.00237543
0.00237543
0
0
0
0
0
0
0
0
0
0
0
0
0
0
0
0
0
0
0
0
0
0
0
0
0
0
0
0
0
0
0
0
0
0
0
0
0
0
0
0
0
0
0.00312394
0.00312394
0.00312394
0.0038414
0.0038414
0.0038414
0.00449158
0.00449158
0.00449158
0.00441288
0.00441288
0.00441288
0.00204677
0.00204677
0.00204677
0
0
0
0.00170558
0.00170558
0.00170558
0.000920447
0.000920447
0.000920447
0.000890453
0.000890453
0.000890453
0.000349443
0.000349443
0.000349443
0.00034376
0.00034376
0.00034376
0.00203567
0.00203567
0.00203567
0.00146753
0.00146753
0.00146753
0.0014923
0.0014923
0.0014923
0.00210561
0.00210561
0.00210561
0.00281591
0.00281591
0.00281591
0.00276834
0.00276834
0.00276834
0.00426063
0.00426063
0.00426063
0.00507384
0.00507384
0.00507384
0
0
0
0
0
0
0
0
0
0
0
0
0
0
0
0
0
0
0
0
0
0
0
0
0
0
0
0
0
0
0.000141
0.000141
0.000141
0
0
0
0
0
0
0
0
0
0
0
0
0
0
0
0
0
0
0
0
0
0
0
0
0
0
0
0
0
0
0
0
0
0
0
0
0
0
0
0
0
0
0
0
0
0
0
0
0
0
0
0
0
0
0
0
0
0
0
0
0
0
0
0
0
0
0
0
0
0
0
0
0
0
0
0.004299
0.004299
0.004299
0.00475042
0.00475042
0.00475042
0.00423352
0.00423352
0.00423352
0
0
0
0
0
0
0
0
0
0
0
0
0
0
0
0
0
0
0
0
0
0
0
0
0.00795226
0.00795226
0.00795226
0.00861014
0.00861014
0.00861014
0.00857171
0.00857171
0.00857171
0.00658769
0.00658769
0.00658769
0.00818328
0.00818328
0.00818328
0.00806241
0.00806241
0.00806241
0.007154
0.007154
0.007154
0.0069243
0.0069243
0.0069243
0.0107236
0.0107236
0.0107236
0.0101006
0.0101006
0.0101006
0.009672
0.009672
0.009672
0.00943053
0.00943053
0.00943053
0.00866823
0.00866823
0.00866823
0.00919482
0.00919482
0.00919482
0.00866953
0.00866953
0.00866953
0.00739662
0.00739662
0.00739662
0.0081067
0.0081067
0.0081067
0.0082496
0.0082496
0.0082496
0.0087467
0.0087467
0.0087467
0.00852666
0.00852666
0.00852666
0.00771511
0.00771511
0.00771511
0.00784298
0.00784298
0.00784298
0.00727612
0.00727612
0.00727612
0.00646706
0.00646706
0.00646706
0.00513675
0.00513675
0.00513675
0.00450303
0.00450303
0.00450303
0.00692896
0.00692896
0.00692896
0.00616201
0.00616201
0.00616201
0.00704235
0.00704235
0.00704235
0.00636334
0.00636334
0.00636334
0.00561077
0.00561077
0.00561077
0.00570075
0.00570075
0.00570075
0.00668086
0.00668086
0.00668086
0.00679105
0.00679105
0.00679105
0.0061784
0.0061784
0.0061784
0.00547398
0.00547398
0.00547398
0
0
0
0
0
0
0
0
0
0
0
0
0
0
0
0
0
0
0
0
0
0
0
0
0
0
0
0
0
0
0.00180861
0.00180861
0.00180861
0.00175738
0.00175738
0.00175738
0.00130496
0.00130496
0.00130496
0.00128673
0.00128673
0.00128673
0.00239945
0.00239945
0.00239945
0.00236446
0.00236446
0.00236446
0.000888872
0.000888872
0.000888872
0.00136152
0.00136152
0.00136152
0.000445328
0.000445328
0.000445328
0.00142104
0.00142104
0.00142104
0.00140086
0.00140086
0.00140086
0.00090134
0.00090134
0.00090134
0.000926903
0.000926903
0.000926903
0.000451454
0.000451454
0.000451454
0.00218608
0.00218608
0.00218608
0.0014837
0.0014837
0.0014837
0.00146245
0.00146245
0.00146245
0.00200264
0.00200264
0.00200264
0.00263786
0.00263786
0.00263786
0.00356001
0.00356001
0.00356001
0.00265095
0.00265095
0.00265095
0.00259613
0.00259613
0.00259613
0.00487021
0.00487021
0.00487021
0.00357098
0.00357098
0.00357098
0.00494801
0.00494801
0.00494801
0.00421826
0.00421826
0.00421826
0.00603291
0.00603291
0.00603291
0.00593498
0.00593498
0.00593498
0.00442166
0.00442166
0.00442166
0.00519083
0.00519083
0.00519083
0.00428475
0.00428475
0.00428475
0.00510829
0.00510829
0.00510829
0.00404253
0.00404253
0.00404253
0.0049963
0.0049963
0.0049963
0.00358397
0.00358397
0.00358397
0.00542773
0.00542773
0.00542773
0.00642267
0.00642267
0.00642267
0.00561666
0.00561666
0.00561666
0.00104069
0.00104069
0.00104069
0.00245755
0.00245755
0.00245755
0.00314651
0.00314651
0.00314651
0.0029978
0.0029978
0.0029978
0.00220817
0.00220817
0.00220817
0.01737
0.01737
0.01737
0.0149739
0.0149739
0.0149739
0.0152676
0.0152676
0.0152676
0.0199698
0.0199698
0.0199698
0.019831
0.019831
0.019831
0.019732
0.019732
0.019732
0.018792
0.018792
0.018792
0.0197427
0.0197427
0.0197427
0.0192495
0.0192495
0.0192495
0.0191035
0.0191035
0.0191035
0.0198098
0.0198098
0.0198098
0.0194256
0.0194256
0.0194256
0.0194406
0.0194406
0.0194406
0.0192976
0.0192976
0.0192976
0
0
0
0
0
0
0
0
0
0
0
0
0.000427531
0.000427531
0.000427531
0.000433369
0.000433369
0.000433369
0
0
0
0.000464007
0.000464007
0.000464007
0
0
0
0
0
0
0.0010455
0.0010455
0.0010455
0
0
0
0.000142107
0.000142107
0.000142107
0.000143155
0.000143155
0.000143155
0.00176654
0.00176654
0.00176654
0.00104591
0.00104591
0.00104591
0.00104735
0.00104735
0.00104735
0.000692839
0.000692839
0.000692839
0
0
0
0
0
0
0
0
0
0.000143319
0.000143319
0.000143319
0
0
0
0
0
0
0
0
0
0
0
0
0.0163975
0.0163975
0.0163975
0.0155236
0.0155236
0.0155236
0.0163205
0.0163205
0.0163205
0.0168135
0.0168135
0.0168135
0.0175869
0.0175869
0.0175869
0.0148803
0.0148803
0.0148803
0.0167336
0.0167336
0.0167336
0.0173516
0.0173516
0.0173516
0.0172672
0.0172672
0.0172672
0.0175037
0.0175037
0.0175037
0.00528687
0.00528687
0.00528687
0.00781885
0.00781885
0.00781885
0.00995084
0.00995084
0.00995084
0.00786947
0.00786947
0.00786947
0.006833
0.006833
0.006833
0.00998967
0.00998967
0.00998967
0.0113521
0.0113521
0.0113521
0.00452414
0.00452414
0.00452414
0.00526808
0.00526808
0.00526808
0.00351789
0.00351789
0.00351789
0.00293353
0.00293353
0.00293353
0.0110663
0.0110663
0.0110663
0.0132154
0.0132154
0.0132154
0.0148223
0.0148223
0.0148223
0.0132745
0.0132745
0.0132745
0.0077646
0.0077646
0.0077646
0.00991059
0.00991059
0.00991059
0.0110007
0.0110007
0.0110007
0.0147373
0.0147373
0.0147373
0.0131543
0.0131543
0.0131543
0.0132446
0.0132446
0.0132446
0.0110634
0.0110634
0.0110634
0.00013966
0.00013966
0.00013966
0.000675479
0.000675479
0.000675479
0.0029432
0.0029432
0.0029432
0.00171102
0.00171102
0.00171102
0.00101819
0.00101819
0.00101819
0.00171626
0.00171626
0.00171626
0.00205327
0.00205327
0.00205327
0.000673557
0.000673557
0.000673557
0.0010212
0.0010212
0.0010212
0.0080225
0.0080225
0.0080225
0.00698461
0.00698461
0.00698461
0.0109872
0.0109872
0.0109872
0
0
0
0
0
0
0
0
0
0
0
0
0.0155072
0.0155072
0.0155072
0.0149701
0.0149701
0.0149701
0.00489638
0.00489638
0.00489638
0.00388051
0.00388051
0.00388051
0
0
0
0.0131841
0.0131841
0.0131841
0.00468012
0.00468012
0.00468012
0.0160851
0.0160851
0.0160851
0.00983565
0.00983565
0.00983565
0.00207691
0.00207691
0.00207691
0.00690351
0.00690351
0.00690351
0.0177955
0.0177955
0.0177955
0.0179583
0.0179583
0.0179583
0.0135856
0.0135856
0.0135856
0.0151696
0.0151696
0.0151696
0.0130516
0.0130516
0.0130516
0
0
0
0
0
0
0
0
0
0
0
0
0.0157546
0.0157546
0.0157546
0.0171691
0.0171691
0.0171691
0.016677
0.016677
0.016677
0.013678
0.013678
0.013678
0.0130026
0.0130026
0.0130026
0.0137305
0.0137305
0.0137305
0.0152984
0.0152984
0.0152984
0.0175114
0.0175114
0.0175114
0.0168905
0.0168905
0.0168905
0
0
0
0
0
0
0
0
0
0
0
0
0
0
0
0
0
0
0
0
0
0
0
0
0
0
0
0.00740012
0.00740012
0.00740012
0.00610501
0.00610501
0.00610501
0.016375
0.016375
0.016375
0.0186448
0.0186448
0.0186448
0.0192216
0.0192216
0.0192216
0.0143
0.0143
0.0143
0.0130493
0.0130493
0.0130493
0.0154934
0.0154934
0.0154934
0.0153743
0.0153743
0.0153743
0.0144175
0.0144175
0.0144175
0.0153718
0.0153718
0.0153718
0.0181434
0.0181434
0.0181434
0.0181812
0.0181812
0.0181812
0.0231713
0.0231713
0.0231713
0.0229824
0.0229824
0.0229824
0.0228248
0.0228248
0.0228248
0.023025
0.023025
0.023025
0.0226822
0.0226822
0.0226822
0.0141472
0.0141472
0.0141472
0.0138046
0.0138046
0.0138046
0.0123865
0.0123865
0.0123865
0.0126007
0.0126007
0.0126007
0.0112455
0.0112455
0.0112455
0.0119901
0.0119901
0.0119901
0.0119889
0.0119889
0.0119889
0.011771
0.011771
0.011771
0.0119718
0.0119718
0.0119718
0.0123779
0.0123779
0.0123779
0.0117908
0.0117908
0.0117908
0.0111937
0.0111937
0.0111937
0.0113821
0.0113821
0.0113821
0.0114069
0.0114069
0.0114069
0.0117806
0.0117806
0.0117806
0.0119756
0.0119756
0.0119756
0.0106899
0.0106899
0.0106899
0.0104052
0.0104052
0.0104052
0.0108285
0.0108285
0.0108285
0.0105123
0.0105123
0.0105123
0.0100598
0.0100598
0.0100598
0.0089042
0.0089042
0.0089042
0.0094622
0.0094622
0.0094622
0.00991291
0.00991291
0.00991291
0.00974571
0.00974571
0.00974571
0.0121502
0.0121502
0.0121502
0.0123445
0.0123445
0.0123445
0.0103083
0.0103083
0.0103083
0.0106515
0.0106515
0.0106515
0.0117732
0.0117732
0.0117732
0.011798
0.011798
0.011798
0.0114024
0.0114024
0.0114024
0.00913492
0.00913492
0.00913492
0.00954894
0.00954894
0.00954894
0.00940849
0.00940849
0.00940849
0.00917674
0.00917674
0.00917674
0.00931267
0.00931267
0.00931267
0.00943231
0.00943231
0.00943231
0.00902609
0.00902609
0.00902609
0.009741
0.009741
0.009741
0.00945066
0.00945066
0.00945066
0.00901434
0.00901434
0.00901434
0.00930947
0.00930947
0.00930947
0.0101567
0.0101567
0.0101567
0.0103118
0.0103118
0.0103118
0.0100492
0.0100492
0.0100492
0.0100943
0.0100943
0.0100943
0.0105641
0.0105641
0.0105641
0.010449
0.010449
0.010449
0.0102916
0.0102916
0.0102916
0.0102478
0.0102478
0.0102478
0.0105166
0.0105166
0.0105166
0.0103578
0.0103578
0.0103578
0.0103918
0.0103918
0.0103918
0.0106803
0.0106803
0.0106803
0.00972414
0.00972414
0.00972414
0.00987749
0.00987749
0.00987749
0.00991889
0.00991889
0.00991889
0.0102311
0.0102311
0.0102311
0.0101973
0.0101973
0.0101973
0.0103552
0.0103552
0.0103552
0.0173448
0.0173448
0.0173448
0.0171797
0.0171797
0.0171797
0.0173438
0.0173438
0.0173438
0.0185894
0.0185894
0.0185894
0.0166284
0.0166284
0.0166284
0.0163444
0.0163444
0.0163444
0.0110692
0.0110692
0.0110692
0.0121307
0.0121307
0.0121307
0.0130549
0.0130549
0.0130549
0.0142129
0.0142129
0.0142129
0.0162406
0.0162406
0.0162406
0.0166508
0.0166508
0.0166508
0.0165652
0.0165652
0.0165652
0.0160723
0.0160723
0.0160723
0.0161578
0.0161578
0.0161578
0.0153386
0.0153386
0.0153386
0.0147408
0.0147408
0.0147408
0.0154217
0.0154217
0.0154217
0.0148116
0.0148116
0.0148116
0.0141375
0.0141375
0.0141375
0.0106167
0.0106167
0.0106167
0.0103991
0.0103991
0.0103991
0.0172389
0.0172389
0.0172389
0.0174188
0.0174188
0.0174188
0.0157351
0.0157351
0.0157351
0.015455
0.015455
0.015455
0.0161843
0.0161843
0.0161843
0.0163602
0.0163602
0.0163602
0.014827
0.014827
0.014827
0.0145436
0.0145436
0.0145436
0.015952
0.015952
0.015952
0.0152395
0.0152395
0.0152395
0.0156001
0.0156001
0.0156001
0.0162495
0.0162495
0.0162495
0.0167436
0.0167436
0.0167436
0.0164949
0.0164949
0.0164949
0.01033
0.01033
0.01033
0.010111
0.010111
0.010111
0.00993581
0.00993581
0.00993581
0.0105044
0.0105044
0.0105044
0.00435677
0.00435677
0.00435677
0.00528267
0.00528267
0.00528267
0.00573794
0.00573794
0.00573794
0.00525219
0.00525219
0.00525219
0.0125683
0.0125683
0.0125683
0.0107659
0.0107659
0.0107659
0.0127157
0.0127157
0.0127157
0.0118783
0.0118783
0.0118783
0.00952177
0.00952177
0.00952177
0.0106325
0.0106325
0.0106325
0.0115986
0.0115986
0.0115986
0.0115673
0.0115673
0.0115673
0.0087995
0.0087995
0.0087995
0.0090791
0.0090791
0.0090791
0.00583152
0.00583152
0.00583152
0.0072862
0.0072862
0.0072862
0.00685707
0.00685707
0.00685707
0.00754608
0.00754608
0.00754608
0.0164333
0.0164333
0.0164333
0.0155656
0.0155656
0.0155656
0.0180722
0.0180722
0.0180722
0.0180532
0.0180532
0.0180532
0.0177386
0.0177386
0.0177386
0.0178272
0.0178272
0.0178272
0.0179679
0.0179679
0.0179679
0.0158775
0.0158775
0.0158775
0.0165745
0.0165745
0.0165745
0.01384
0.01384
0.01384
0.0148002
0.0148002
0.0148002
0.0102554
0.0102554
0.0102554
0.00897352
0.00897352
0.00897352
0.00986636
0.00986636
0.00986636
0.0104366
0.0104366
0.0104366
0.0109519
0.0109519
0.0109519
0.00938217
0.00938217
0.00938217
0.00971893
0.00971893
0.00971893
0.0101439
0.0101439
0.0101439
0.00996779
0.00996779
0.00996779
0.00881326
0.00881326
0.00881326
0.00897118
0.00897118
0.00897118
0.0117384
0.0117384
0.0117384
0.0122553
0.0122553
0.0122553
0.0124709
0.0124709
0.0124709
0.0121886
0.0121886
0.0121886
0.0128757
0.0128757
0.0128757
0.0114246
0.0114246
0.0114246
0.0120081
0.0120081
0.0120081
0.0138101
0.0138101
0.0138101
0.0130804
0.0130804
0.0130804
0.0154163
0.0154163
0.0154163
0.0151233
0.0151233
0.0151233
0.0159373
0.0159373
0.0159373
0.0155949
0.0155949
0.0155949
0.0159766
0.0159766
0.0159766
0.0039101
0.0039101
0.0039101
0.00323598
0.00323598
0.00323598
0.00427798
0.00427798
0.00427798
0.00347575
0.00347575
0.00347575
0.00774068
0.00774068
0.00774068
0.00596676
0.00596676
0.00596676
0.00586186
0.00586186
0.00586186
0.00667143
0.00667143
0.00667143
0.00643912
0.00643912
0.00643912
0.00735669
0.00735669
0.00735669
0.00722785
0.00722785
0.00722785
0.00103587
0.00103587
0.00103587
0.0017406
0.0017406
0.0017406
0.00171056
0.00171056
0.00171056
0.00107213
0.00107213
0.00107213
0.000406237
0.000406237
0.000406237
0.000399384
0.000399384
0.000399384
0
0
0
0
0
0
0
0
0
0
0
0
0
0
0
0
0
0
0
0
0
0
0
0
0
0
0
0
0
0
0
0
0
0
0
0
0
0
0
0
0
0
0
0
0
0
0
0
0.00306975
0.00306975
0.00306975
0.00296489
0.00296489
0.00296489
0.00364426
0.00364426
0.00364426
0.00370852
0.00370852
0.00370852