<VTKFile type="UnstructuredGrid" version="1.0">
<UnstructuredGrid>
<Piece NumberOfPoints="11046" NumberOfCells="3682">
<Points>
<DataArray type="Float64" NumberOfComponents="3" format="ascii">
3.01 0.0582363 14.7218
3.01 0.0717021 14.7025
3.01 0.05 14.7025
3.01 0.95 15.1312
3.01 0.942301 15.1507
3.01 0.95 15.1702
3.01 0.0962623 15.6025
3.01 0.107711 15.5823
3.01 0.086422 15.5822
3.01 0.466226 15.3461
3.01 0.443707 15.3461
3.01 0.454968 15.3657
3.01 0.353567 15.2678
3.01 0.376113 15.2678
3.01 0.364839 15.2483
3.01 0.376113 15.2678
3.01 0.353567 15.2678
3.01 0.364843 15.2874
3.01 0.353567 15.2678
3.01 0.342292 15.2874
3.01 0.364843 15.2874
3.01 0.37611 15.2288
3.01 0.387379 15.2092
3.01 0.364837 15.2092
3.01 0.376113 15.2678
3.01 0.387381 15.2483
3.01 0.364839 15.2483
3.01 0.364839 15.2483
3.01 0.387381 15.2483
3.01 0.37611 15.2288
3.01 0.066417 15.5845
3.01 0.05 15.5787
3.01 0.05 15.6025
3.01 0.0582363 14.7218
3.01 0.0817675 14.722
3.01 0.0717021 14.7025
3.01 0.0817675 14.722
3.01 0.0582363 14.7218
3.01 0.0711754 14.7414
3.01 0.11641 14.7025
3.01 0.127475 14.722
3.01 0.138968 14.7025
3.01 0.127475 14.722
3.01 0.11641 14.7025
3.01 0.104722 14.722
3.01 0.0711754 14.7414
3.01 0.0934889 14.7415
3.01 0.0817675 14.722
3.01 0.0934889 14.7415
3.01 0.104722 14.722
3.01 0.0817675 14.722
3.01 0.116091 14.7415
3.01 0.127475 14.722
3.01 0.104722 14.722
3.01 0.116091 14.7415
3.01 0.104722 14.722
3.01 0.0934889 14.7415
3.01 0.116091 14.7415
3.01 0.104394 14.761
3.01 0.127244 14.761
3.01 0.104394 14.761
3.01 0.116091 14.7415
3.01 0.0934889 14.7415
3.01 0.941764 14.7218
3.01 0.95 14.7025
3.01 0.928298 14.7025
3.01 0.387379 15.2092
3.01 0.376108 15.1897
3.01 0.364837 15.2092
3.01 0.161282 15.1312
3.01 0.149908 15.1117
3.01 0.138583 15.1312
3.01 0.0933091 15.2092
3.01 0.104333 15.1897
3.01 0.0813038 15.1897
3.01 0.104333 15.1897
3.01 0.0933065 15.1702
3.01 0.0813038 15.1897
3.01 0.331016 15.3069
3.01 0.308447 15.3069
3.01 0.319739 15.3265
3.01 0.308447 15.3069
3.01 0.331016 15.3069
3.01 0.319729 15.2874
3.01 0.331016 15.3069
3.01 0.342292 15.2874
3.01 0.319729 15.2874
3.01 0.138613 15.3264
3.01 0.149933 15.3069
3.01 0.12718 15.3069
3.01 0.138613 15.3264
3.01 0.161316 15.3264
3.01 0.149933 15.3069
3.01 0.161316 15.3264
3.01 0.172648 15.3069
3.01 0.149933 15.3069
3.01 0.206681 15.3264
3.01 0.217999 15.3069
3.01 0.195336 15.3069
3.01 0.263262 15.3069
3.01 0.274572 15.3265
3.01 0.285863 15.3069
3.01 0.274559 15.2873
3.01 0.263262 15.3069
3.01 0.285863 15.3069
3.01 0.240697 14.722
3.01 0.252012 14.7025
3.01 0.229409 14.7025
3.01 0.138758 14.7415
3.01 0.127475 14.722
3.01 0.116091 14.7415
3.01 0.127244 14.761
3.01 0.138758 14.7415
3.01 0.116091 14.7415
3.01 0.229332 14.7805
3.01 0.218031 14.761
3.01 0.206685 14.7805
3.01 0.184016 14.7805
3.01 0.172705 14.761
3.01 0.161325 14.7805
3.01 0.184093 14.7415
3.01 0.161431 14.7415
3.01 0.172705 14.761
3.01 0.218082 14.722
3.01 0.240697 14.722
3.01 0.229409 14.7025
3.01 0.218082 14.722
3.01 0.229409 14.7025
3.01 0.206798 14.7025
3.01 0.138617 14.7805
3.01 0.149916 14.8
3.01 0.161325 14.7805
3.01 0.376107 15.1117
3.01 0.364834 15.0922
3.01 0.353559 15.1117
3.01 0.942264 15.346
3.01 0.95 15.3656
3.01 0.95 15.3264
3.01 0.466226 15.3461
3.01 0.454966 15.3265
3.01 0.443707 15.3461
3.01 0.466223 15.2678
3.01 0.488741 15.2678
3.01 0.477482 15.2483
3.01 0.466223 15.2678
3.01 0.443703 15.2678
3.01 0.454964 15.2874
3.01 0.511259 15.2678
3.01 0.533777 15.2678
3.01 0.522518 15.2483
3.01 0.533777 15.2678
3.01 0.511259 15.2678
3.01 0.522517 15.2874
3.01 0.488741 15.2678
3.01 0.5 15.2483
3.01 0.477482 15.2483
3.01 0.511259 15.2678
3.01 0.5 15.2483
3.01 0.488741 15.2678
3.01 0.5 15.2483
3.01 0.511259 15.2678
3.01 0.522518 15.2483
3.01 0.387388 15.3265
3.01 0.40992 15.3265
3.01 0.398653 15.3069
3.01 0.376117 15.3069
3.01 0.387388 15.3265
3.01 0.398653 15.3069
3.01 0.443703 15.2678
3.01 0.432443 15.2874
3.01 0.454964 15.2874
3.01 0.432443 15.2874
3.01 0.443705 15.3069
3.01 0.454964 15.2874
3.01 0.274559 15.2873
3.01 0.285853 15.2678
3.01 0.26325 15.2678
3.01 0.387384 15.2874
3.01 0.376117 15.3069
3.01 0.398653 15.3069
3.01 0.376117 15.3069
3.01 0.387384 15.2874
3.01 0.364843 15.2874
3.01 0.387384 15.2874
3.01 0.376113 15.2678
3.01 0.364843 15.2874
3.01 0.342292 15.2874
3.01 0.331009 15.2678
3.01 0.319729 15.2874
3.01 0.331009 15.2678
3.01 0.342292 15.2874
3.01 0.353567 15.2678
3.01 0.545011 15.6025
3.01 0.533759 15.5827
3.01 0.522505 15.6025
3.01 0.533762 15.5431
3.01 0.55627 15.5431
3.01 0.545018 15.5233
3.01 0.55627 15.5431
3.01 0.567528 15.5233
3.01 0.545018 15.5233
3.01 0.567528 15.5233
3.01 0.59004 15.5233
3.01 0.578788 15.5036
3.01 0.466232 15.4641
3.01 0.477488 15.4444
3.01 0.454974 15.4444
3.01 0.567516 15.6025
3.01 0.590022 15.6025
3.01 0.578772 15.5827
3.01 0.601316 15.4641
3.01 0.590051 15.4838
3.01 0.61257 15.4838
3.01 0.62384 15.4641
3.01 0.601316 15.4641
3.01 0.61257 15.4838
3.01 0.680198 15.4443
3.01 0.702757 15.4443
3.01 0.691494 15.4246
3.01 0.086422 15.5822
3.01 0.073896 15.6025
3.01 0.0962623 15.6025
3.01 0.073896 15.6025
3.01 0.086422 15.5822
3.01 0.066417 15.5845
3.01 0.05 15.6025
3.01 0.073896 15.6025
3.01 0.066417 15.5845
3.01 0.0721919 15.5629
3.01 0.05 15.5787
3.01 0.066417 15.5845
3.01 0.086422 15.5822
3.01 0.0721919 15.5629
3.01 0.066417 15.5845
3.01 0.118481 15.6025
3.01 0.107711 15.5823
3.01 0.0962623 15.6025
3.01 0.5 15.6025
3.01 0.488747 15.5827
3.01 0.477495 15.6025
3.01 0.432484 15.6025
3.01 0.421228 15.5827
3.01 0.409978 15.6025
3.01 0.443725 15.5036
3.01 0.432465 15.4838
3.01 0.421212 15.5036
3.01 0.319802 15.4443
3.01 0.342348 15.4443
3.01 0.331063 15.4246
3.01 0.353629 15.464
3.01 0.364886 15.4443
3.01 0.342348 15.4443
3.01 0.10433 15.1507
3.01 0.0813011 15.1507
3.01 0.0933065 15.1702
3.01 0.0939466 14.7025
3.01 0.104722 14.722
3.01 0.11641 14.7025
3.01 0.0939466 14.7025
3.01 0.0717021 14.7025
3.01 0.0817675 14.722
3.01 0.104722 14.722
3.01 0.0939466 14.7025
3.01 0.0817675 14.722
3.01 0.0933065 15.1702
3.01 0.0710513 15.1702
3.01 0.0813038 15.1897
3.01 0.0710513 15.1702
3.01 0.0933065 15.1702
3.01 0.0813011 15.1507
3.01 0.115908 15.2482
3.01 0.104337 15.2287
3.01 0.0933131 15.2482
3.01 0.104337 15.2287
3.01 0.115908 15.2482
3.01 0.127165 15.2287
3.01 0.104343 15.2678
3.01 0.115908 15.2482
3.01 0.0933131 15.2482
3.01 0.104343 15.2678
3.01 0.0933188 15.2873
3.01 0.115915 15.2873
3.01 0.942303 15.1117
3.01 0.95 15.1312
3.01 0.95 15.0922
3.01 0.92895 15.0922
3.01 0.942303 15.1117
3.01 0.95 15.0922
3.01 0.9187 15.1117
3.01 0.895671 15.1117
3.01 0.906695 15.1312
3.01 0.92895 15.0922
3.01 0.9187 15.1117
3.01 0.942303 15.1117
3.01 0.942316 14.8779
3.01 0.95 14.8584
3.01 0.928965 14.8584
3.01 0.95 14.9363
3.01 0.95 14.8973
3.01 0.942309 14.9168
3.01 0.942316 14.8779
3.01 0.95 14.8973
3.01 0.95 14.8584
3.01 0.95 14.7411
3.01 0.95 14.7025
3.01 0.941764 14.7218
3.01 0.95 14.7411
3.01 0.942358 14.7607
3.01 0.95 14.7803
3.01 0.612617 14.7804
3.01 0.623887 14.7999
3.01 0.635157 14.7804
3.01 0.895671 15.1117
3.01 0.906696 15.0922
3.01 0.884102 15.0922
3.01 0.906696 15.0922
3.01 0.895671 15.1117
3.01 0.9187 15.1117
3.01 0.92895 15.0922
3.01 0.906696 15.0922
3.01 0.9187 15.1117
3.01 0.353563 15.2288
3.01 0.364839 15.2483
3.01 0.37611 15.2288
3.01 0.364837 15.2092
3.01 0.353563 15.2288
3.01 0.37611 15.2288
3.01 0.297145 15.2483
3.01 0.308439 15.2678
3.01 0.319723 15.2483
3.01 0.308439 15.2678
3.01 0.297145 15.2483
3.01 0.285853 15.2678
3.01 0.308439 15.2678
3.01 0.319729 15.2874
3.01 0.331009 15.2678
3.01 0.319723 15.2483
3.01 0.308439 15.2678
3.01 0.331009 15.2678
3.01 0.17262 15.1117
3.01 0.149908 15.1117
3.01 0.161282 15.1312
3.01 0.138583 15.1312
3.01 0.149909 15.1507
3.01 0.161282 15.1312
3.01 0.149909 15.1507
3.01 0.138583 15.1312
3.01 0.127158 15.1507
3.01 0.149909 15.1507
3.01 0.161284 15.1702
3.01 0.172622 15.1507
3.01 0.161282 15.1312
3.01 0.149909 15.1507
3.01 0.172622 15.1507
3.01 0.240621 15.2287
3.01 0.229301 15.2092
3.01 0.217979 15.2287
3.01 0.229301 15.2092
3.01 0.206649 15.2092
3.01 0.217979 15.2287
3.01 0.195316 15.2287
3.01 0.217979 15.2287
3.01 0.206649 15.2092
3.01 0.115908 15.2482
3.01 0.138594 15.2482
3.01 0.127165 15.2287
3.01 0.0933091 15.2092
3.01 0.115904 15.2092
3.01 0.104333 15.1897
3.01 0.115904 15.2092
3.01 0.127161 15.1897
3.01 0.104333 15.1897
3.01 0.115904 15.2092
3.01 0.0933091 15.2092
3.01 0.104337 15.2287
3.01 0.127165 15.2287
3.01 0.115904 15.2092
3.01 0.104337 15.2287
3.01 0.115901 15.1702
3.01 0.0933065 15.1702
3.01 0.104333 15.1897
3.01 0.127161 15.1897
3.01 0.115901 15.1702
3.01 0.104333 15.1897
3.01 0.115901 15.1702
3.01 0.10433 15.1507
3.01 0.0933065 15.1702
3.01 0.10433 15.1507
3.01 0.115901 15.1702
3.01 0.127158 15.1507
3.01 0.183972 15.1312
3.01 0.195307 15.1117
3.01 0.17262 15.1117
3.01 0.161282 15.1312
3.01 0.183972 15.1312
3.01 0.17262 15.1117
3.01 0.183972 15.1312
3.01 0.161282 15.1312
3.01 0.172622 15.1507
3.01 0.263244 15.2287
3.01 0.251933 15.2092
3.01 0.240621 15.2287
3.01 0.229301 15.2092
3.01 0.251933 15.2092
3.01 0.240617 15.1897
3.01 0.251933 15.2092
3.01 0.229301 15.2092
3.01 0.240621 15.2287
3.01 0.274543 15.1702
3.01 0.285842 15.1507
3.01 0.263237 15.1507
3.01 0.285842 15.1507
3.01 0.274541 15.1312
3.01 0.263237 15.1507
3.01 0.319739 15.3265
3.01 0.3423 15.3265
3.01 0.331016 15.3069
3.01 0.297163 15.3265
3.01 0.274572 15.3265
3.01 0.285878 15.3461
3.01 0.308447 15.3069
3.01 0.297163 15.3265
3.01 0.319739 15.3265
3.01 0.297163 15.3265
3.01 0.308447 15.3069
3.01 0.285863 15.3069
3.01 0.274572 15.3265
3.01 0.297163 15.3265
3.01 0.285863 15.3069
3.01 0.183992 15.2873
3.01 0.172648 15.3069
3.01 0.195336 15.3069
3.01 0.183992 15.2873
3.01 0.195323 15.2678
3.01 0.172636 15.2678
3.01 0.184008 15.3264
3.01 0.172648 15.3069
3.01 0.161316 15.3264
3.01 0.172648 15.3069
3.01 0.184008 15.3264
3.01 0.195336 15.3069
3.01 0.184008 15.3264
3.01 0.195356 15.346
3.01 0.206681 15.3264
3.01 0.195336 15.3069
3.01 0.184008 15.3264
3.01 0.206681 15.3264
3.01 0.308434 15.2287
3.01 0.297145 15.2483
3.01 0.319723 15.2483
3.01 0.297145 15.2483
[...]
<PointData Scalars="View Factor" >
<DataArray type="Float64" Name="View Factor" NumberOfComponents="1" format="ascii">
0.862222
0.862222
0.862222
0.783464
0.783464
0.783464
0.856949
0.856949
0.856949
0.843912
0.843912
0.843912
0.850137
0.850137
0.850137
0.85006
0.85006
0.85006
0.850632
0.850632
0.850632
0.849767
0.849767
0.849767
0.849543
0.849543
0.849543
0.849619
0.849619
0.849619
0.857402
0.857402
0.857402
0.862099
0.862099
0.862099
0.862054
0.862054
0.862054
0.861309
0.861309
0.861309
0.861486
0.861486
0.861486
0.861901
0.861901
0.861901
0.861784
0.861784
0.861784
0.861441
0.861441
0.861441
0.861597
0.861597
0.861597
0.861348
0.861348
0.861348
0.861551
0.861551
0.861551
0.786675
0.786675
0.786675
0.84984
0.84984
0.84984
0.859064
0.859064
0.859064
0.859674
0.859674
0.859674
0.859746
0.859746
0.859746
0.852141
0.852141
0.852141
0.852221
0.852221
0.852221
0.851713
0.851713
0.851713
0.858224
0.858224
0.858224
0.857947
0.857947
0.857947
0.857733
0.857733
0.857733
0.856523
0.856523
0.856523
0.854131
0.854131
0.854131
0.854212
0.854212
0.854212
0.858278
0.858278
0.858278
0.861218
0.861218
0.861218
0.861172
0.861172
0.861172
0.858802
0.858802
0.858802
0.860091
0.860091
0.860091
0.860187
0.860187
0.860187
0.858644
0.858644
0.858644
0.859037
0.859037
0.859037
0.860573
0.860573
0.860573
0.850989
0.850989
0.850989
0.782405
0.782405
0.782405
0.843995
0.843995
0.843995
0.842826
0.842826
0.842826
0.844393
0.844393
0.844393
0.839256
0.839256
0.839256
0.83918
0.83918
0.83918
0.842008
0.842008
0.842008
0.84109
0.84109
0.84109
0.840223
0.840223
0.840223
0.847823
0.847823
0.847823
0.848538
0.848538
0.848538
0.84514
0.84514
0.84514
0.845062
0.845062
0.845062
0.85437
0.85437
0.85437
0.848618
0.848618
0.848618
0.849311
0.849311
0.849311
0.84939
0.84939
0.84939
0.851791
0.851791
0.851791
0.851261
0.851261
0.851261
0.836007
0.836007
0.836007
0.835496
0.835496
0.835496
0.834545
0.834545
0.834545
0.832562
0.832562
0.832562
0.842445
0.842445
0.842445
0.831951
0.831951
0.831951
0.830661
0.830661
0.830661
0.829574
0.829574
0.829574
0.821065
0.821065
0.821065
0.85704
0.85704
0.85704
0.857204
0.857204
0.857204
0.857269
0.857269
0.857269
0.857448
0.857448
0.857448
0.857319
0.857319
0.857319
0.856737
0.856737
0.856737
0.839663
0.839663
0.839663
0.844438
0.844438
0.844438
0.844468
0.844468
0.844468
0.850771
0.850771
0.850771
0.849521
0.849521
0.849521
0.859887
0.859887
0.859887
0.861687
0.861687
0.861687
0.861991
0.861991
0.861991
0.861829
0.861829
0.861829
0.859921
0.859921
0.859921
0.859992
0.859992
0.859992
0.859251
0.859251
0.859251
0.85911
0.85911
0.85911
0.859175
0.859175
0.859175
0.859019
0.859019
0.859019
0.783654
0.783654
0.783654
0.785045
0.785045
0.785045
0.79107
0.79107
0.79107
0.786963
0.786963
0.786963
0.786039
0.786039
0.786039
0.784506
0.784506
0.784506
0.784659
0.784659
0.784659
0.78526
0.78526
0.78526
0.785088
0.785088
0.785088
0.831941
0.831941
0.831941
0.793197
0.793197
0.793197
0.791132
0.791132
0.791132
0.789169
0.789169
0.789169
0.850289
0.850289
0.850289
0.850363
0.850363
0.850363
0.853022
0.853022
0.853022
0.853492
0.853492
0.853492
0.852379
0.852379
0.852379
0.852456
0.852456
0.852456
0.858843
0.858843
0.858843
0.858996
0.858996
0.858996
0.859198
0.859198
0.859198
0.858637
0.858637
0.858637
0.858707
0.858707
0.858707
0.856347
0.856347
0.856347
0.856754
0.856754
0.856754
0.857067
0.857067
0.857067
0.858873
0.858873
0.858873
0.859474
0.859474
0.859474
0.859332
0.859332
0.859332
0.859401
0.859401
0.859401
0.859185
0.859185
0.859185
0.859618
0.859618
0.859618
0.859404
0.859404
0.859404
0.859689
0.859689
0.859689
0.859545
0.859545
0.859545
0.858275
0.858275
0.858275
0.858535
0.858535
0.858535
0.858467
0.858467
0.858467
0.85555
0.85555
0.85555
0.856068
0.856068
0.856068
0.855995
0.855995
0.855995
0.855032
0.855032
0.855032
0.855101
0.855101
0.855101
0.851552
0.851552
0.851552
0.853541
0.853541
0.853541
0.852628
0.852628
0.852628
0.853176
0.853176
0.853176
0.853623
0.853623
0.853623
0.857247
0.857247
0.857247
0.857406
0.857406
0.857406
0.857418
0.857418
0.857418
0.857166
0.857166
0.857166
0.856731
0.856731
0.856731
0.856814
0.856814
0.856814
0.853098
0.853098
0.853098
0.853644
0.853644
0.853644
0.853718
0.853718
0.853718
0.853247
0.853247
0.853247
0.852789
0.852789
0.852789
0.853257
0.853257
0.853257
0.852868
0.852868
0.852868
0.853414
0.853414
0.853414
0.853784
0.853784
0.853784
0.853863
0.853863
0.853863
0.855323
0.855323
0.855323
0.855475
0.855475
0.855475
0.855087
0.855087
0.855087
0.855245
0.855245
0.855245
0.854778
0.854778
0.854778
0.854699
0.854699
0.854699
0.857439
0.857439
0.857439
0.857845
0.857845
0.857845
0.860855
0.860855
0.860855
0.860763
0.860763
0.860763
0.861069
0.861069
0.861069
0.861023
0.861023
0.861023
0.860717
0.860717
0.860717
0.860438
0.860438
0.860438
0.86039
0.86039
0.86039
0.860622
0.860622
0.860622
0.860883
0.860883
0.860883
0.860931
0.860931
0.860931
0.857799
0.857799
0.857799
0.857346
0.857346
0.857346
0.860325
0.860325
0.860325
0.860233
0.860233
0.860233
0.860531
0.860531
0.860531
0.860577
0.860577
0.860577
0.85958
0.85958
0.85958
0.859225
0.859225
0.859225
0.859177
0.859177
0.859177
0.859485
0.859485
0.859485
0.859822
0.859822
0.859822
0.859869
0.859869
0.859869
0.85972
0.85972
0.85972
0.859627
0.859627
0.859627
0.859319
0.859319
0.859319
0.859365
0.859365
0.859365
0.860009
0.860009
0.860009
0.859963
0.859963
0.859963
0.858598
0.858598
0.858598
0.858185
0.858185
0.858185
0.858898
0.858898
0.858898
0.858945
0.858945
0.858945
0.85725
0.85725
0.85725
0.857196
0.857196
0.857196
0.855823
0.855823
0.855823
0.856319
0.856319
0.856319
0.856686
0.856686
0.856686
0.85674
0.85674
0.85674
0.858753
0.858753
0.858753
0.859436
0.859436
0.859436
0.859079
0.859079
0.859079
0.859029
0.859029
0.859029
0.848329
0.848329
0.848329
0.851119
0.851119
0.851119
0.849702
0.849702
0.849702
0.849059
0.849059
0.849059
0.849124
0.849124
0.849124
0.849832
0.849832
0.849832
0.850389
0.850389
0.850389
0.850454
0.850454
0.850454
0.853871
0.853871
0.853871
0.85331
0.85331
0.85331
0.853812
0.853812
0.853812
0.853049
0.853049
0.853049
0.858358
0.858358
0.858358
0.855524
0.855524
0.855524
0.851312
0.851312
0.851312
0.851359
0.851359
0.851359
0.854972
0.854972
0.854972
0.854445
0.854445
0.854445
0.853851
0.853851
0.853851
0.798073
0.798073
0.798073
0.799887
0.799887
0.799887
0.79997
0.79997
0.79997
0.804949
0.804949
0.804949
0.801575
0.801575
0.801575
0.803325
0.803325
0.803325
0.801825
0.801825
0.801825
0.803414
0.803414
0.803414
0.801747
0.801747
0.801747
0.806636
0.806636
0.806636
0.783075
0.783075
0.783075
0.783163
0.783163
0.783163
0.785154
0.785154
0.785154
0.785239
0.785239
0.785239
0.844822
0.844822
0.844822
0.844903
0.844903
0.844903
0.849501
0.849501
0.849501
0.849636
0.849636
0.849636
0.849433
0.849433
0.849433
0.838188
0.838188
0.838188
0.83811
0.83811
0.83811
0.837093
0.837093
0.837093
0.84275
0.84275
0.84275
0.843544
0.843544
0.843544
0.844157
0.844157
0.844157
0.842594
0.842594
0.842594
0.844237
0.844237
0.844237
0.843466
0.843466
0.843466
0.843226
0.843226
0.843226
0.843307
0.843307
0.843307
0.842515
0.842515
0.842515
0.844656
0.844656
0.844656
0.850518
0.850518
0.850518
0.850605
0.850605
0.850605
0.850144
0.850144
0.850144
0.850059
0.850059
0.850059
0.849576
0.849576
0.849576
0.845786
0.845786
0.845786
0.847166
0.847166
0.847166
0.846407
0.846407
0.846407
0.845707
0.845707
0.845707
0.845943
0.845943
0.845943
0.847983
0.847983
0.847983
0.847246
0.847246
0.847246
0.846567
0.846567
0.846567
0.846645
0.846645
0.846645
0.815997
0.815997
0.815997
0.820237
0.820237
0.820237
0.83403
0.83403
0.83403
0.835084
0.835084
0.835084
0.833057
0.833057
0.833057
0.837096
0.837096
0.837096
0.837187
0.837187
0.837187
0.838198
0.838198
0.838198
0.837323
0.837323
0.837323
0.833467
0.833467
0.833467
0.832464
0.832464
0.832464
0.828366
0.828366
0.828366
0.825959
0.825959
0.825959
0.827222
0.827222
0.827222
0.831531
0.831531
0.831531
0.830568
0.830568
0.830568
0.831627
0.831627
0.831627
0.840366
0.840366
0.840366
0.827752
0.827752
0.827752
0.827836
0.827836
0.827836
0.822445
0.822445
0.822445
0.829665
0.829665
0.829665
0.795121
0.795121
0.795121
0.797124
0.797124
0.797124
0.7952
0.7952
0.7952
0.815328
0.815328
0.815328
0.816744
0.816744
0.816744
0.818215
0.818215
0.818215
0.820426
0.820426
0.820426
0.819928
0.819928
0.819928
0.826659
0.826659
0.826659
0.813352
0.813352
0.813352
0.857796
0.857796
0.857796
0.857567
0.857567
0.857567
0.857633
0.857633
0.857633
0.857064
0.857064
0.857064
0.85727
0.85727
0.85727
0.854791
0.854791
0.854791
0.856613
0.856613
0.856613
0.856361
0.856361
0.856361
0.855485
0.855485
0.855485
0.850634
0.850634
0.850634
0.850851
0.850851
0.850851
0.837884
0.837884
0.837884
0.838839
0.838839
0.838839
0.837011
0.837011
0.837011
0.838945
0.838945
0.838945
0.838095
0.838095
0.838095
0.837116
0.837116
0.837116
0.845315
0.845315
0.845315
0.845849
0.845849
0.845849
0.845208
0.845208
0.845208
0.84841
0.84841
0.84841
0.843755
0.843755
0.843755
0.848478
0.848478
0.848478
0.847798
0.847798
0.847798
0.846167
0.846167
0.846167
0.846062
0.846062
0.846062
0.848173
0.848173
0.848173
0.846995
0.846995
0.846995
0.847491
0.847491
0.847491
0.846892
0.846892
0.846892
0.848276
0.848276
0.848276
0.847697
0.847697
0.847697
0.851846
0.851846
0.851846
0.851365
0.851365
0.851365
0.848865
0.848865
0.848865
0.849885
0.849885
0.849885
0.850249
0.850249
0.850249
0.849614
0.849614
0.849614
0.85034
0.85034
0.85034
0.849796
0.849796
0.849796
0.857435
0.857435
0.857435
0.857861
0.857861
0.857861
0.857865
0.857865
0.857865
0.858059
0.858059
0.858059
0.857994
0.857994
0.857994
0.8579
0.8579
0.8579
0.858203
0.858203
0.858203
0.858296
0.858296
0.858296
0.858016
0.858016
0.858016
0.858203
0.858203
0.858203
0.860344
0.860344
0.860344
0.860217
0.860217
0.860217
0.860156
0.860156
0.860156
0.860131
0.860131
0.860131
0.860147
0.860147
0.860147
0.860014
0.860014
0.860014
0.859911
0.859911
0.859911
0.859779
0.859779
0.859779
0.859682
0.859682
0.859682
0.859703
0.859703
0.859703
0.783836
0.783836
0.783836
0.785106
0.785106
0.785106
0.789045
0.789045
0.789045
0.788981
0.788981
0.788981
0.784921
0.784921
0.784921
0.786901
0.786901
0.786901
0.784858
0.784858
0.784858
0.786774
0.786774
0.786774
0.795116
0.795116
0.795116
0.78806
0.78806
0.78806
0.786088
0.786088
0.786088
0.784807
0.784807
0.784807
0.798085
0.798085
0.798085
0.787964
0.787964
0.787964
0.786554
0.786554
0.786554
0.786472
0.786472
0.786472
0.794717
0.794717
0.794717
0.834528
0.834528
0.834528
0.836725
0.836725
0.836725
0.835618
0.835618
0.835618
0.838436
0.838436
0.838436
0.838583
0.838583
0.838583
0.838535
0.838535
0.838535
0.83318
0.83318
0.83318
0.831989
0.831989
0.831989
0.824619
0.824619
0.824619
0.833366
0.833366
0.833366
0.824191
0.824191
0.824191
0.82699
0.82699
0.82699
0.821416
0.821416
0.821416
0.822794
0.822794
0.822794
0.815229
0.815229
0.815229
0.816787
0.816787
0.816787
0.819957
0.819957
0.819957
0.819906
0.819906
0.819906
0.805568
0.805568
0.805568
0.803765
0.803765
0.803765
0.847776
0.847776
0.847776
0.846964
0.846964
0.846964
0.850705
0.850705
0.850705
0.839614
0.839614
0.839614
0.852158
0.852158
0.852158
0.85087
0.85087
0.85087
0.851499
0.851499
0.851499
0.81826
0.81826
0.81826
0.828247
0.828247
0.828247
0.830722
0.830722
0.830722
0.829523
0.829523
0.829523
0.809485
0.809485
0.809485
0.812841
0.812841
0.812841
0.811212
0.811212
0.811212
0.811149
0.811149
0.811149
0.812716
0.812716
0.812716
0.850862
0.850862
0.850862
0.850787
0.850787
0.850787
0.851338
0.851338
0.851338
0.851946
0.851946
0.851946
0.858328
0.858328
0.858328
0.859129
0.859129
0.859129
0.85924
0.85924
0.85924
0.859311
0.859311
0.859311
0.858857
0.858857
0.858857
0.859293
0.859293
0.859293
0.859231
0.859231
0.859231
0.856043
0.856043
0.856043
0.855884
0.855884
0.855884
0.855615
0.855615
0.855615
0.855536
0.855536
0.855536
0.856763
0.856763
0.856763
0.857054
0.857054
0.857054
0.856975
0.856975
0.856975
0.856604
0.856604
0.856604
0.856294
0.856294
0.856294
0.856373
0.856373
0.856373
0.85684
0.85684
0.85684
0.856992
0.856992
0.856992
0.856273
0.856273
0.856273
0.856604
0.856604
0.856604
0.856528
0.856528
0.856528
0.85612
0.85612
0.85612
0.85577
0.85577
0.85577
0.855846
0.855846
0.855846
0.857483
0.857483
0.857483
0.85721
0.85721
0.85721
0.857286
0.857286
0.857286
0.857636
0.857636
0.857636
0.857815
0.857815
0.857815
0.857891
0.857891
0.857891
0.857814
0.857814
0.857814
0.85758
0.85758
0.85758
0.857659
0.857659
0.857659
0.859096
0.859096
0.859096
0.859023
0.859023
0.859023
0.85618
0.85618
0.85618
0.855236
0.855236
0.855236
0.854347
0.854347
0.854347
0.855445
0.855445
0.855445
0.855908
0.855908
0.855908
0.857041
0.857041
0.857041
0.856706
0.856706
0.856706
0.856282
0.856282
0.856282
0.856212
0.856212
0.856212
0.857427
0.857427
0.857427
0.857723
0.857723
0.857723
0.858139
0.858139
0.858139
0.85807
0.85807
0.85807
0.856621
0.856621
0.856621
0.856978
0.856978
0.856978
0.855158
0.855158
0.855158
0.854673
0.854673
0.854673
0.854243
0.854243
0.854243
0.853243
0.853243
0.853243
0.85199
0.85199
0.85199
0.852125
0.852125
0.852125
0.852593
0.852593
0.852593
0.852661
0.852661
0.852661
0.850923
0.850923
0.850923
0.851501
0.851501
0.851501
0.851433
0.851433
0.851433
0.850788
0.850788
0.850788
0.850189
0.850189
0.850189
0.850257
0.850257
0.850257
0.850719
0.850719
0.850719
0.850052
0.850052
0.850052
0.849982
0.849982
0.849982
0.854529
0.854529
0.854529
0.851024
0.851024
0.851024
0.849903
0.849903
0.849903
0.850554
0.850554
0.850554
0.851104
0.851104
0.851104
0.850311
0.850311
0.850311
0.84966
0.84966
0.84966
0.849069
0.849069
0.849069
0.849151
0.849151
0.849151
0.849823
0.849823
0.849823
0.850393
0.850393
0.850393
0.857336
0.857336
0.857336
0.857568
0.857568
0.857568
0.857484
0.857484
0.857484
0.857167
0.857167
0.857167
0.857001
0.857001
0.857001
0.856917
0.856917
0.856917
0.854447
0.854447
0.854447
0.854599
0.854599
0.854599
0.854018
0.854018
0.854018
0.854094
0.854094
0.854094
0.855009
0.855009
0.855009
0.854933
0.854933
0.854933
0.85149
0.85149
0.85149
0.852021
0.852021
0.852021
0.852608
0.852608
0.852608
0.852682
0.852682
0.852682
0.857992
0.857992
0.857992
0.857299
0.857299
0.857299
0.856827
0.856827
0.856827
0.856778
0.856778
0.856778
0.857203
0.857203
0.857203
0.860085
0.860085
0.860085
0.855768
0.855768
0.855768
0.855657
0.855657
0.855657
0.856209
0.856209
0.856209
0.856154
0.856154
0.856154
0.853747
0.853747
0.853747
0.854771
0.854771
0.854771
0.855252
0.855252
0.855252
0.855197
0.855197
0.855197
0.858203
0.858203
0.858203
0.85363
0.85363
0.85363
0.853691
0.853691
0.853691
0.859336
0.859336
0.859336
0.851826
0.851826
0.851826
0.851183
0.851183
0.851183
0.852794
0.852794
0.852794
0.852191
0.852191
0.852191
0.851633
0.851633
0.851633
0.851698
0.851698
0.851698
0.853936
0.853936
0.853936
0.853872
0.853872
0.853872
0.85251
0.85251
0.85251
0.851889
0.851889
0.851889
0.853233
0.853233
0.853233
0.853173
0.853173
0.853173
0.852572
0.852572
0.852572
0.852693
0.852693
0.852693
0.852072
0.852072
0.852072
0.852012
0.852012
0.852012
0.855821
0.855821
0.855821
0.856285
0.856285
0.856285
0.858308
0.858308
0.858308
0.858206
0.858206
0.858206
0.858653
0.858653
0.858653
0.858602
0.858602
0.858602
0.857355
0.857355
0.857355
0.856522
0.856522
0.856522
0.856968
0.856968
0.856968
0.856921
0.856921
0.856921
0.85601
0.85601
0.85601
0.853283
0.853283
0.853283
0.852037
0.852037
0.852037
0.852647
0.852647
0.852647
0.853662
0.853662
0.853662
0.853805
0.853805
0.853805
0.85371
0.85371
0.85371
0.798231
0.798231
0.798231
0.803578
0.803578
0.803578
0.806991
0.806991
0.806991
0.806905
0.806905
0.806905
0.805217
0.805217
0.805217
0.805131
0.805131
0.805131
0.80673
0.80673
0.80673
0.808475
0.808475
0.808475
0.808385
0.808385
0.808385
0.781398
0.781398
0.781398
0.781659
0.781659
0.781659
0.783416
0.783416
0.783416
0.783333
0.783333
0.783333
0.782168
0.782168
0.782168
0.78192
0.78192
0.78192
0.793305
0.793305
0.793305
0.797204
0.797204
0.797204
0.839025
0.839025
0.839025
0.838946
0.838946
0.838946
0.83597
0.83597
0.83597
0.837014
0.837014
0.837014
0.837952
0.837952
0.837952
0.846019
0.846019
0.846019
0.846799
0.846799
0.846799
0.846874
0.846874
0.846874
0.84617
0.84617
0.84617
0.846459
0.846459
0.846459
0.844908
0.844908
0.844908
0.84573
0.84573
0.84573
0.848128
0.848128
0.848128
0.848263
0.848263
0.848263
0.848927
0.848927
0.848927
0.84886
0.84886
0.84886
0.846598
0.846598
0.846598
0.8458
0.8458
0.8458
0.845047
0.845047
0.845047
0.848723
0.848723
0.848723
0.84806
0.84806
0.84806
0.847236
0.847236
0.847236
0.847306
0.847306
0.847306
0.844133
0.844133
0.844133
0.843265
0.843265
0.843265
0.842443
0.842443
0.842443
0.844202
0.844202
0.844202
0.842512
0.842512
0.842512
0.843403
0.843403
0.843403
0.843471
0.843471
0.843471
0.833075
0.833075
0.833075
0.831927
0.831927
0.831927
0.83315
0.83315
0.83315
0.832078
0.832078
0.832078
0.833298
0.833298
0.833298
0.832152
0.832152
0.832152
0.825053
0.825053
0.825053
0.826296
0.826296
0.826296
0.83834
0.83834
0.83834
0.838414
0.838414
0.838414
0.840297
0.840297
0.840297
0.839405
0.839405
0.839405
0.840444
0.840444
0.840444
0.839478
0.839478
0.839478
0.837247
0.837247
0.837247
0.837323
0.837323
0.837323
0.842353
0.842353
0.842353
0.840535
0.840535
0.840535
0.851042
0.851042
0.851042
0.852028
0.852028
0.852028
0.850953
0.850953
0.850953
0.851456
0.851456
0.851456
0.852669
0.852669
0.852669
0.852118
0.852118
0.852118
0.851634
0.851634
0.851634
0.845461
0.845461
0.845461
0.846326
0.846326
0.846326
0.845544
0.845544
0.845544
0.849406
0.849406
0.849406
0.849319
0.849319
0.849319
0.845029
0.845029
0.845029
0.848061
0.848061
0.848061
0.847403
0.847403
0.847403
0.848775
0.848775
0.848775
0.848852
0.848852
0.848852
0.848215
0.848215
0.848215
0.84748
0.84748
0.84748
0.821
0.821
0.821
0.822405
0.822405
0.822405
0.823709
0.823709
0.823709
0.821964
0.821964
0.821964
0.836128
0.836128
0.836128
0.834119
0.834119
0.834119
0.835213
0.835213
0.835213
0.836205
0.836205
0.836205
0.83185
0.83185
0.83185
0.825534
0.825534
0.825534
0.826741
0.826741
0.826741
0.82181
0.82181
0.82181
0.819911
0.819911
0.819911
0.819843
0.819843
0.819843
0.819635
0.819635
0.819635
0.819706
0.819706
0.819706
0.83856
0.83856
0.83856
0.827994
0.827994
0.827994
0.82671
0.82671
0.82671
0.817147
0.817147
0.817147
0.817014
0.817014
0.817014
0.818578
0.818578
0.818578
0.818512
0.818512
0.818512
0.817212
0.817212
0.817212
0.818709
0.818709
0.818709
0.818773
0.818773
0.818773
0.815746
0.815746
0.815746
0.815936
0.815936
0.815936
0.814311
0.814311
0.814311
0.814374
0.814374
0.814374
0.81581
0.81581
0.81581
0.817402
0.817402
0.817402
0.817339
0.817339
0.817339
0.821607
0.821607
0.821607
0.821345
0.821345
0.821345
0.822682
0.822682
0.822682
0.824055
0.824055
0.824055
0.835396
0.835396
0.835396
0.836321
0.836321
0.836321
0.836218
0.836218
0.836218
0.83519
0.83519
0.83519
0.834643
0.834643
0.834643
0.835694
0.835694
0.835694
0.833664
0.833664
0.833664
0.835791
0.835791
0.835791
0.836255
0.836255
0.836255
0.834312
0.834312
0.834312
0.830845
0.830845
0.830845
0.836622
0.836622
0.836622
0.836523
0.836523
0.836523
0.837424
0.837424
0.837424
0.825866
0.825866
0.825866
0.845541
0.845541
0.845541
0.84413
0.84413
0.84413
0.844938
0.844938
0.844938
0.845633
0.845633
0.845633
0.845353
0.845353
0.845353
0.845257
0.845257
0.845257
0.843207
0.843207
0.843207
0.844038
0.844038
0.844038
0.844754
0.844754
0.844754
0.84466
0.84466
0.84466
0.843851
0.843851
0.843851
0.843113
0.843113
0.843113
0.844571
0.844571
0.844571
0.843743
0.843743
0.843743
0.841288
0.841288
0.841288
0.842102
0.842102
0.842102
0.842976
0.842976
0.842976
0.841373
0.841373
0.841373
0.843061
0.843061
0.843061
0.84227
0.84227
0.84227
0.84028
0.84028
0.84028
0.838185
0.838185
0.838185
0.840105
0.840105
0.840105
0.841029
0.841029
0.841029
0.842015
0.842015
0.842015
0.841116
0.841116
0.841116
0.84175
0.84175
0.84175
0.842536
0.842536
0.842536
0.84339
0.84339
0.84339
0.84184
0.84184
0.84184
0.831614
0.831614
0.831614
0.831694
0.831694
0.831694
0.828814
0.828814
0.828814
0.8289
0.8289
0.8289
0.829069
0.829069
0.829069
0.818302
0.818302
0.818302
0.819743
0.819743
0.819743
0.815667
0.815667
0.815667
0.82758
0.82758
0.82758
0.824758
0.824758
0.824758