<VTKFile type="UnstructuredGrid" version="1.0">
<UnstructuredGrid>
<Piece NumberOfPoints="11046" NumberOfCells="3682">
<Points>
<DataArray type="Float64" NumberOfComponents="3" format="ascii">
3.01 0.0582363 9.49676
3.01 0.0717021 9.4775
3.01 0.05 9.4775
3.01 0.95 9.90621
3.01 0.942301 9.9257
3.01 0.95 9.9452
3.01 0.0962623 10.3775
3.01 0.107711 10.3573
3.01 0.086422 10.3572
3.01 0.466226 10.1211
3.01 0.443707 10.1211
3.01 0.454968 10.1407
3.01 0.353567 10.0428
3.01 0.376113 10.0428
3.01 0.364839 10.0233
3.01 0.376113 10.0428
3.01 0.353567 10.0428
3.01 0.364843 10.0624
3.01 0.353567 10.0428
3.01 0.342292 10.0624
3.01 0.364843 10.0624
3.01 0.37611 10.0038
3.01 0.387379 9.98423
3.01 0.364837 9.98423
3.01 0.376113 10.0428
3.01 0.387381 10.0233
3.01 0.364839 10.0233
3.01 0.364839 10.0233
3.01 0.387381 10.0233
3.01 0.37611 10.0038
3.01 0.066417 10.3595
3.01 0.05 10.3537
3.01 0.05 10.3775
3.01 0.0582363 9.49676
3.01 0.0817675 9.49698
3.01 0.0717021 9.4775
3.01 0.0817675 9.49698
3.01 0.0582363 9.49676
3.01 0.0711754 9.51639
3.01 0.11641 9.4775
3.01 0.127475 9.49704
3.01 0.138968 9.4775
3.01 0.127475 9.49704
3.01 0.11641 9.4775
3.01 0.104722 9.49703
3.01 0.0711754 9.51639
3.01 0.0934889 9.5165
3.01 0.0817675 9.49698
3.01 0.0934889 9.5165
3.01 0.104722 9.49703
3.01 0.0817675 9.49698
3.01 0.116091 9.51653
3.01 0.127475 9.49704
3.01 0.104722 9.49703
3.01 0.116091 9.51653
3.01 0.104722 9.49703
3.01 0.0934889 9.5165
3.01 0.116091 9.51653
3.01 0.104394 9.53598
3.01 0.127244 9.53601
3.01 0.104394 9.53598
3.01 0.116091 9.51653
3.01 0.0934889 9.5165
3.01 0.941764 9.49676
3.01 0.95 9.4775
3.01 0.928298 9.4775
3.01 0.387379 9.98423
3.01 0.376108 9.96472
3.01 0.364837 9.98423
3.01 0.161282 9.90621
3.01 0.149908 9.88672
3.01 0.138583 9.90621
3.01 0.0933091 9.98421
3.01 0.104333 9.9647
3.01 0.0813038 9.9647
3.01 0.104333 9.9647
3.01 0.0933065 9.9452
3.01 0.0813038 9.9647
3.01 0.331016 10.0819
3.01 0.308447 10.0819
3.01 0.319739 10.1015
3.01 0.308447 10.0819
3.01 0.331016 10.0819
3.01 0.319729 10.0624
3.01 0.331016 10.0819
3.01 0.342292 10.0624
3.01 0.319729 10.0624
3.01 0.138613 10.1014
3.01 0.149933 10.0819
3.01 0.12718 10.0819
3.01 0.138613 10.1014
3.01 0.161316 10.1014
3.01 0.149933 10.0819
3.01 0.161316 10.1014
3.01 0.172648 10.0819
3.01 0.149933 10.0819
3.01 0.206681 10.1014
3.01 0.217999 10.0819
3.01 0.195336 10.0819
3.01 0.263262 10.0819
3.01 0.274572 10.1015
3.01 0.285863 10.0819
3.01 0.274559 10.0623
3.01 0.263262 10.0819
3.01 0.285863 10.0819
3.01 0.240697 9.497
3.01 0.252012 9.4775
3.01 0.229409 9.4775
3.01 0.138758 9.51653
3.01 0.127475 9.49704
3.01 0.116091 9.51653
3.01 0.127244 9.53601
3.01 0.138758 9.51653
3.01 0.116091 9.51653
3.01 0.229332 9.55547
3.01 0.218031 9.53599
3.01 0.206685 9.55548
3.01 0.184016 9.55549
3.01 0.172705 9.53601
3.01 0.161325 9.55549
3.01 0.184093 9.51651
3.01 0.161431 9.51653
3.01 0.172705 9.53601
3.01 0.218082 9.497
3.01 0.240697 9.497
3.01 0.229409 9.4775
3.01 0.218082 9.497
3.01 0.229409 9.4775
3.01 0.206798 9.4775
3.01 0.138617 9.55549
3.01 0.149916 9.57496
3.01 0.161325 9.55549
3.01 0.376107 9.88672
3.01 0.364834 9.86723
3.01 0.353559 9.88672
3.01 0.942264 10.121
3.01 0.95 10.1406
3.01 0.95 10.1014
3.01 0.466226 10.1211
3.01 0.454966 10.1015
3.01 0.443707 10.1211
3.01 0.466223 10.0428
3.01 0.488741 10.0428
3.01 0.477482 10.0233
3.01 0.466223 10.0428
3.01 0.443703 10.0428
3.01 0.454964 10.0624
3.01 0.511259 10.0428
3.01 0.533777 10.0428
3.01 0.522518 10.0233
3.01 0.533777 10.0428
3.01 0.511259 10.0428
3.01 0.522517 10.0624
3.01 0.488741 10.0428
3.01 0.5 10.0233
3.01 0.477482 10.0233
3.01 0.511259 10.0428
3.01 0.5 10.0233
3.01 0.488741 10.0428
3.01 0.5 10.0233
3.01 0.511259 10.0428
3.01 0.522518 10.0233
3.01 0.387388 10.1015
3.01 0.40992 10.1015
3.01 0.398653 10.0819
3.01 0.376117 10.0819
3.01 0.387388 10.1015
3.01 0.398653 10.0819
3.01 0.443703 10.0428
3.01 0.432443 10.0624
3.01 0.454964 10.0624
3.01 0.432443 10.0624
3.01 0.443705 10.0819
3.01 0.454964 10.0624
3.01 0.274559 10.0623
3.01 0.285853 10.0428
3.01 0.26325 10.0428
3.01 0.387384 10.0624
3.01 0.376117 10.0819
3.01 0.398653 10.0819
3.01 0.376117 10.0819
3.01 0.387384 10.0624
3.01 0.364843 10.0624
3.01 0.387384 10.0624
3.01 0.376113 10.0428
3.01 0.364843 10.0624
3.01 0.342292 10.0624
3.01 0.331009 10.0428
3.01 0.319729 10.0624
3.01 0.331009 10.0428
3.01 0.342292 10.0624
3.01 0.353567 10.0428
3.01 0.545011 10.3775
3.01 0.533759 10.3577
3.01 0.522505 10.3775
3.01 0.533762 10.3181
3.01 0.55627 10.3181
3.01 0.545018 10.2983
3.01 0.55627 10.3181
3.01 0.567528 10.2983
3.01 0.545018 10.2983
3.01 0.567528 10.2983
3.01 0.59004 10.2983
3.01 0.578788 10.2786
3.01 0.466232 10.2391
3.01 0.477488 10.2194
3.01 0.454974 10.2194
3.01 0.567516 10.3775
3.01 0.590022 10.3775
3.01 0.578772 10.3577
3.01 0.601316 10.2391
3.01 0.590051 10.2588
3.01 0.61257 10.2588
3.01 0.62384 10.2391
3.01 0.601316 10.2391
3.01 0.61257 10.2588
3.01 0.680198 10.2193
3.01 0.702757 10.2193
3.01 0.691494 10.1996
3.01 0.086422 10.3572
3.01 0.073896 10.3775
3.01 0.0962623 10.3775
3.01 0.073896 10.3775
3.01 0.086422 10.3572
3.01 0.066417 10.3595
3.01 0.05 10.3775
3.01 0.073896 10.3775
3.01 0.066417 10.3595
3.01 0.0721919 10.3379
3.01 0.05 10.3537
3.01 0.066417 10.3595
3.01 0.086422 10.3572
3.01 0.0721919 10.3379
3.01 0.066417 10.3595
3.01 0.118481 10.3775
3.01 0.107711 10.3573
3.01 0.0962623 10.3775
3.01 0.5 10.3775
3.01 0.488747 10.3577
3.01 0.477495 10.3775
3.01 0.432484 10.3775
3.01 0.421228 10.3577
3.01 0.409978 10.3775
3.01 0.443725 10.2786
3.01 0.432465 10.2588
3.01 0.421212 10.2786
3.01 0.319802 10.2193
3.01 0.342348 10.2193
3.01 0.331063 10.1996
3.01 0.353629 10.239
3.01 0.364886 10.2193
3.01 0.342348 10.2193
3.01 0.10433 9.9257
3.01 0.0813011 9.9257
3.01 0.0933065 9.9452
3.01 0.0939466 9.4775
3.01 0.104722 9.49703
3.01 0.11641 9.4775
3.01 0.0939466 9.4775
3.01 0.0717021 9.4775
3.01 0.0817675 9.49698
3.01 0.104722 9.49703
3.01 0.0939466 9.4775
3.01 0.0817675 9.49698
3.01 0.0933065 9.9452
3.01 0.0710513 9.9452
3.01 0.0813038 9.9647
3.01 0.0710513 9.9452
3.01 0.0933065 9.9452
3.01 0.0813011 9.9257
3.01 0.115908 10.0232
3.01 0.104337 10.0037
3.01 0.0933131 10.0232
3.01 0.104337 10.0037
3.01 0.115908 10.0232
3.01 0.127165 10.0037
3.01 0.104343 10.0428
3.01 0.115908 10.0232
3.01 0.0933131 10.0232
3.01 0.104343 10.0428
3.01 0.0933188 10.0623
3.01 0.115915 10.0623
3.01 0.942303 9.88671
3.01 0.95 9.90621
3.01 0.95 9.86722
3.01 0.92895 9.86722
3.01 0.942303 9.88671
3.01 0.95 9.86722
3.01 0.9187 9.88671
3.01 0.895671 9.88671
3.01 0.906695 9.90621
3.01 0.92895 9.86722
3.01 0.9187 9.88671
3.01 0.942303 9.88671
3.01 0.942316 9.65285
3.01 0.95 9.63336
3.01 0.928965 9.63335
3.01 0.95 9.71132
3.01 0.95 9.67234
3.01 0.942309 9.69183
3.01 0.942316 9.65285
3.01 0.95 9.67234
3.01 0.95 9.63336
3.01 0.95 9.51605
3.01 0.95 9.4775
3.01 0.941764 9.49676
3.01 0.95 9.51605
3.01 0.942358 9.53571
3.01 0.95 9.55525
3.01 0.612617 9.55545
3.01 0.623887 9.57493
3.01 0.635157 9.55545
3.01 0.895671 9.88671
3.01 0.906696 9.86722
3.01 0.884102 9.86722
3.01 0.906696 9.86722
3.01 0.895671 9.88671
3.01 0.9187 9.88671
3.01 0.92895 9.86722
3.01 0.906696 9.86722
3.01 0.9187 9.88671
3.01 0.353563 10.0038
3.01 0.364839 10.0233
3.01 0.37611 10.0038
3.01 0.364837 9.98423
3.01 0.353563 10.0038
3.01 0.37611 10.0038
3.01 0.297145 10.0233
3.01 0.308439 10.0428
3.01 0.319723 10.0233
3.01 0.308439 10.0428
3.01 0.297145 10.0233
3.01 0.285853 10.0428
3.01 0.308439 10.0428
3.01 0.319729 10.0624
3.01 0.331009 10.0428
3.01 0.319723 10.0233
3.01 0.308439 10.0428
3.01 0.331009 10.0428
3.01 0.17262 9.88672
3.01 0.149908 9.88672
3.01 0.161282 9.90621
3.01 0.138583 9.90621
3.01 0.149909 9.9257
3.01 0.161282 9.90621
3.01 0.149909 9.9257
3.01 0.138583 9.90621
3.01 0.127158 9.9257
3.01 0.149909 9.9257
3.01 0.161284 9.9452
3.01 0.172622 9.92571
3.01 0.161282 9.90621
3.01 0.149909 9.9257
3.01 0.172622 9.92571
3.01 0.240621 10.0037
3.01 0.229301 9.98422
3.01 0.217979 10.0037
3.01 0.229301 9.98422
3.01 0.206649 9.98422
3.01 0.217979 10.0037
3.01 0.195316 10.0037
3.01 0.217979 10.0037
3.01 0.206649 9.98422
3.01 0.115908 10.0232
3.01 0.138594 10.0232
3.01 0.127165 10.0037
3.01 0.0933091 9.98421
3.01 0.115904 9.98421
3.01 0.104333 9.9647
3.01 0.115904 9.98421
3.01 0.127161 9.9647
3.01 0.104333 9.9647
3.01 0.115904 9.98421
3.01 0.0933091 9.98421
3.01 0.104337 10.0037
3.01 0.127165 10.0037
3.01 0.115904 9.98421
3.01 0.104337 10.0037
3.01 0.115901 9.9452
3.01 0.0933065 9.9452
3.01 0.104333 9.9647
3.01 0.127161 9.9647
3.01 0.115901 9.9452
3.01 0.104333 9.9647
3.01 0.115901 9.9452
3.01 0.10433 9.9257
3.01 0.0933065 9.9452
3.01 0.10433 9.9257
3.01 0.115901 9.9452
3.01 0.127158 9.9257
3.01 0.183972 9.90621
3.01 0.195307 9.88672
3.01 0.17262 9.88672
3.01 0.161282 9.90621
3.01 0.183972 9.90621
3.01 0.17262 9.88672
3.01 0.183972 9.90621
3.01 0.161282 9.90621
3.01 0.172622 9.92571
3.01 0.263244 10.0037
3.01 0.251933 9.98422
3.01 0.240621 10.0037
3.01 0.229301 9.98422
3.01 0.251933 9.98422
3.01 0.240617 9.96471
3.01 0.251933 9.98422
3.01 0.229301 9.98422
3.01 0.240621 10.0037
3.01 0.274543 9.94521
3.01 0.285842 9.92571
3.01 0.263237 9.92571
3.01 0.285842 9.92571
3.01 0.274541 9.90621
3.01 0.263237 9.92571
3.01 0.319739 10.1015
3.01 0.3423 10.1015
3.01 0.331016 10.0819
3.01 0.297163 10.1015
3.01 0.274572 10.1015
3.01 0.285878 10.1211
3.01 0.308447 10.0819
3.01 0.297163 10.1015
3.01 0.319739 10.1015
3.01 0.297163 10.1015
3.01 0.308447 10.0819
3.01 0.285863 10.0819
3.01 0.274572 10.1015
3.01 0.297163 10.1015
3.01 0.285863 10.0819
3.01 0.183992 10.0623
3.01 0.172648 10.0819
3.01 0.195336 10.0819
3.01 0.183992 10.0623
3.01 0.195323 10.0428
3.01 0.172636 10.0428
3.01 0.184008 10.1014
3.01 0.172648 10.0819
3.01 0.161316 10.1014
3.01 0.172648 10.0819
3.01 0.184008 10.1014
3.01 0.195336 10.0819
3.01 0.184008 10.1014
3.01 0.195356 10.121
3.01 0.206681 10.1014
3.01 0.195336 10.0819
3.01 0.184008 10.1014
3.01 0.206681 10.1014
3.01 0.308434 10.0037
3.01 0.297145 10.0233
3.01 0.319723 10.0233
3.01 0.297145 10.0233
3.01 0.308434 10.0037
3.01 0.285847 10.0037
[...]
<PointData Scalars="View Factor" >
<DataArray type="Float64" Name="View Factor" NumberOfComponents="1" format="ascii">
0.867075
0.867075
0.867075
0.78982
0.78982
0.78982
0.866488
0.866488
0.866488
0.85167
0.85167
0.85167
0.857392
0.857392
0.857392
0.857389
0.857389
0.857389
0.858003
0.858003
0.858003
0.856765
0.856765
0.856765
0.856757
0.856757
0.856757
0.85676
0.85676
0.85676
0.866941
0.866941
0.866941
0.866975
0.866975
0.866975
0.866975
0.866975
0.866975
0.866159
0.866159
0.866159
0.86636
0.86636
0.86636
0.866844
0.866844
0.866844
0.866704
0.866704
0.866704
0.866359
0.866359
0.866359
0.866539
0.866539
0.866539
0.866358
0.866358
0.866358
0.866539
0.866539
0.866539
0.791306
0.791306
0.791306
0.856768
0.856768
0.856768
0.865638
0.865638
0.865638
0.866625
0.866625
0.866625
0.866628
0.866628
0.866628
0.859714
0.859714
0.859714
0.859716
0.859716
0.859716
0.859166
0.859166
0.859166
0.865838
0.865838
0.865838
0.865598
0.865598
0.865598
0.865343
0.865343
0.865343
0.864125
0.864125
0.864125
0.861717
0.861717
0.861717
0.86172
0.86172
0.86172
0.863117
0.863117
0.863117
0.866158
0.866158
0.866158
0.866158
0.866158
0.866158
0.863872
0.863872
0.863872
0.865166
0.865166
0.865166
0.865169
0.865169
0.865169
0.863508
0.863508
0.863508
0.86388
0.86388
0.86388
0.865697
0.865697
0.865697
0.857423
0.857423
0.857423
0.789784
0.789784
0.789784
0.851673
0.851673
0.851673
0.850037
0.850037
0.850037
0.851687
0.851687
0.851687
0.846446
0.846446
0.846446
0.846443
0.846443
0.846443
0.849177
0.849177
0.849177
0.84829
0.84829
0.84829
0.847382
0.847382
0.847382
0.855407
0.855407
0.855407
0.856088
0.856088
0.856088
0.852477
0.852477
0.852477
0.852474
0.852474
0.852474
0.861726
0.861726
0.861726
0.85609
0.85609
0.85609
0.856749
0.856749
0.856749
0.856752
0.856752
0.856752
0.859169
0.859169
0.859169
0.858598
0.858598
0.858598
0.845415
0.845415
0.845415
0.844445
0.844445
0.844445
0.843437
0.843437
0.843437
0.841343
0.841343
0.841343
0.850834
0.850834
0.850834
0.841327
0.841327
0.841327
0.839149
0.839149
0.839149
0.838008
0.838008
0.838008
0.829222
0.829222
0.829222
0.866634
0.866634
0.866634
0.866751
0.866751
0.866751
0.866871
0.866871
0.866871
0.866881
0.866881
0.866881
0.866761
0.866761
0.866761
0.866329
0.866329
0.866329
0.849102
0.849102
0.849102
0.853918
0.853918
0.853918
0.853197
0.853197
0.853197
0.859132
0.859132
0.859132
0.857963
0.857963
0.857963
0.866633
0.866633
0.866633
0.866539
0.866539
0.866539
0.866845
0.866845
0.866845
0.866704
0.866704
0.866704
0.866769
0.866769
0.866769
0.866771
0.866771
0.866771
0.866451
0.866451
0.866451
0.866273
0.866273
0.866273
0.866449
0.866449
0.866449
0.866443
0.866443
0.866443
0.789827
0.789827
0.789827
0.791164
0.791164
0.791164
0.797301
0.797301
0.797301
0.793119
0.793119
0.793119
0.791204
0.791204
0.791204
0.789862
0.789862
0.789862
0.789868
0.789868
0.789868
0.789928
0.789928
0.789928
0.789884
0.789884
0.789884
0.836963
0.836963
0.836963
0.799346
0.799346
0.799346
0.797304
0.797304
0.797304
0.795304
0.795304
0.795304
0.857397
0.857397
0.857397
0.8574
0.8574
0.8574
0.860257
0.860257
0.860257
0.860767
0.860767
0.860767
0.859722
0.859722
0.859722
0.859725
0.859725
0.859725
0.865383
0.865383
0.865383
0.865635
0.865635
0.865635
0.865872
0.865872
0.865872
0.865375
0.865375
0.865375
0.865378
0.865378
0.865378
0.86342
0.86342
0.86342
0.863793
0.863793
0.863793
0.864145
0.864145
0.864145
0.866071
0.866071
0.866071
0.866459
0.866459
0.866459
0.866281
0.866281
0.866281
0.866457
0.866457
0.866457
0.866276
0.866276
0.866276
0.866464
0.866464
0.866464
0.866283
0.866283
0.866283
0.866467
0.866467
0.866467
0.866289
0.866289
0.866289
0.864812
0.864812
0.864812
0.865106
0.865106
0.865106
0.865103
0.865103
0.865103
0.862618
0.862618
0.862618
0.863033
0.863033
0.863033
0.86303
0.86303
0.86303
0.861749
0.861749
0.861749
0.861752
0.861752
0.861752
0.85916
0.85916
0.85916
0.861242
0.861242
0.861242
0.860243
0.860243
0.860243
0.860756
0.860756
0.860756
0.861245
0.861245
0.861245
0.864775
0.864775
0.864775
0.864781
0.864781
0.864781
0.865066
0.865066
0.865066
0.864773
0.864773
0.864773
0.864454
0.864454
0.864454
0.864457
0.864457
0.864457
0.86026
0.86026
0.86026
0.860772
0.860772
0.860772
0.860775
0.860775
0.860775
0.860266
0.860266
0.860266
0.860249
0.860249
0.860249
0.860759
0.860759
0.860759
0.860252
0.860252
0.860252
0.860764
0.860764
0.860764
0.861251
0.861251
0.861251
0.861254
0.861254
0.861254
0.86261
0.86261
0.86261
0.862615
0.862615
0.862615
0.862601
0.862601
0.862601
0.862607
0.862607
0.862607
0.862175
0.862175
0.862175
0.862172
0.862172
0.862172
0.862276
0.862276
0.862276
0.862706
0.862706
0.862706
0.865704
0.865704
0.865704
0.865702
0.865702
0.865702
0.865941
0.865941
0.865941
0.865941
0.865941
0.865941
0.865701
0.865701
0.865701
0.865444
0.865444
0.865444
0.865443
0.865443
0.865443
0.865699
0.865699
0.865699
0.865938
0.865938
0.865938
0.865939
0.865939
0.865939
0.862704
0.862704
0.862704
0.862273
0.862273
0.862273
0.865173
0.865173
0.865173
0.86517
0.86517
0.86517
0.865446
0.865446
0.865446
0.865447
0.865447
0.865447
0.864561
0.864561
0.864561
0.864227
0.864227
0.864227
0.864225
0.864225
0.864225
0.864558
0.864558
0.864558
0.864872
0.864872
0.864872
0.864874
0.864874
0.864874
0.864565
0.864565
0.864565
0.864562
0.864562
0.864562
0.86423
0.86423
0.86423
0.864231
0.864231
0.864231
0.864878
0.864878
0.864878
0.864876
0.864876
0.864876
0.863506
0.863506
0.863506
0.863114
0.863114
0.863114
0.863875
0.863875
0.863875
0.863877
0.863877
0.863877
0.862683
0.862683
0.862683
0.862681
0.862681
0.862681
0.861328
0.861328
0.861328
0.861799
0.861799
0.861799
0.862247
0.862247
0.862247
0.862249
0.862249
0.862249
0.86387
0.86387
0.86387
0.864556
0.864556
0.864556
0.864222
0.864222
0.864222
0.86422
0.86422
0.86422
0.854749
0.854749
0.854749
0.857428
0.857428
0.857428
0.856129
0.856129
0.856129
0.855451
0.855451
0.855451
0.855454
0.855454
0.855454
0.856134
0.856134
0.856134
0.856788
0.856788
0.856788
0.856791
0.856791
0.856791
0.860288
0.860288
0.860288
0.859756
0.859756
0.859756
0.859775
0.859775
0.859775
0.859215
0.859215
0.859215
0.863498
0.863498
0.863498
0.860354
0.860354
0.860354
0.856194
0.856194
0.856194
0.856196
0.856196
0.856196
0.859822
0.859822
0.859822
0.859271
0.859271
0.859271
0.858698
0.858698
0.858698
0.807197
0.807197
0.807197
0.808973
0.808973
0.808973
0.808956
0.808956
0.808956
0.81412
0.81412
0.81412
0.810723
0.810723
0.810723
0.812435
0.812435
0.812435
0.810677
0.810677
0.810677
0.812424
0.812424
0.812424
0.810696
0.810696
0.810696
0.815769
0.815769
0.815769
0.791095
0.791095
0.791095
0.7911
0.7911
0.7911
0.793059
0.793059
0.793059
0.793063
0.793063
0.793063
0.852466
0.852466
0.852466
0.852469
0.852469
0.852469
0.856122
0.856122
0.856122
0.856127
0.856127
0.856127
0.856119
0.856119
0.856119
0.845483
0.845483
0.845483
0.84548
0.84548
0.84548
0.844495
0.844495
0.844495
0.850035
0.850035
0.850035
0.850871
0.850871
0.850871
0.851679
0.851679
0.851679
0.850029
0.850029
0.850029
0.851681
0.851681
0.851681
0.850868
0.850868
0.850868
0.85086
0.85086
0.85086
0.850863
0.850863
0.850863
0.850027
0.850027
0.850027
0.85246
0.85246
0.85246
0.858571
0.858571
0.858571
0.858574
0.858574
0.858574
0.857985
0.857985
0.857985
0.857982
0.857982
0.857982
0.857372
0.857372
0.857372
0.853241
0.853241
0.853241
0.854707
0.854707
0.854707
0.853983
0.853983
0.853983
0.853238
0.853238
0.853238
0.853246
0.853246
0.853246
0.855412
0.855412
0.855412
0.85471
0.85471
0.85471
0.853988
0.853988
0.853988
0.853991
0.853991
0.853991
0.822087
0.822087
0.822087
0.826496
0.826496
0.826496
0.843422
0.843422
0.843422
0.844433
0.844433
0.844433
0.842389
0.842389
0.842389
0.845448
0.845448
0.845448
0.84545
0.84545
0.84545
0.847317
0.847317
0.847317
0.846385
0.846385
0.846385
0.842401
0.842401
0.842401
0.841341
0.841341
0.841341
0.836837
0.836837
0.836837
0.834413
0.834413
0.834413
0.83564
0.83564
0.83564
0.840257
0.840257
0.840257
0.839146
0.839146
0.839146
0.84026
0.84026
0.84026
0.848266
0.848266
0.848266
0.835654
0.835654
0.835654
0.835656
0.835656
0.835656
0.830567
0.830567
0.830567
0.83801
0.83801
0.83801
0.803206
0.803206
0.803206
0.805094
0.805094
0.805094
0.803201
0.803201
0.803201
0.823534
0.823534
0.823534
0.825003
0.825003
0.825003
0.82644
0.82644
0.82644
0.829215
0.829215
0.829215
0.829209
0.829209
0.829209
0.834431
0.834431
0.834431
0.820512
0.820512
0.820512
0.866964
0.866964
0.866964
0.866931
0.866931
0.866931
0.8669
0.8669
0.8669
0.866496
0.866496
0.866496
0.866652
0.866652
0.866652
0.864364
0.864364
0.864364
0.866149
0.866149
0.866149
0.86595
0.86595
0.86595
0.864697
0.864697
0.864697
0.86017
0.86017
0.86017
0.860178
0.860178
0.860178
0.847308
0.847308
0.847308
0.848219
0.848219
0.848219
0.846376
0.846376
0.846376
0.848222
0.848222
0.848222
0.847314
0.847314
0.847314
0.846379
0.846379
0.846379
0.854646
0.854646
0.854646
0.855341
0.855341
0.855341
0.854643
0.854643
0.854643
0.857925
0.857925
0.857925
0.852431
0.852431
0.852431
0.857334
0.857334
0.857334
0.856697
0.856697
0.856697
0.855351
0.855351
0.855351
0.855348
0.855348
0.855348
0.857324
0.857324
0.857324
0.856035
0.856035
0.856035
0.856687
0.856687
0.856687
0.856032
0.856032
0.856032
0.857327
0.857327
0.857327
0.856694
0.856694
0.856694
0.860215
0.860215
0.860215
0.859686
0.859686
0.859686
0.857347
0.857347
0.857347
0.857976
0.857976
0.857976
0.858562
0.858562
0.858562
0.857967
0.857967
0.857967
0.858565
0.858565
0.858565
0.857973
0.857973
0.857973
0.86558
0.86558
0.86558
0.86623
0.86623
0.86623
0.865595
0.865595
0.865595
0.865832
0.865832
0.865832
0.866409
0.866409
0.866409
0.866406
0.866406
0.866406
0.866575
0.866575
0.866575
0.866714
0.866714
0.866714
0.866569
0.866569
0.866569
0.866711
0.866711
0.866711
0.867058
0.867058
0.867058
0.866999
0.866999
0.866999
0.866902
0.866902
0.866902
0.86705
0.86705
0.86705
0.866996
0.866996
0.866996
0.866897
0.866897
0.866897
0.867042
0.867042
0.867042
0.866983
0.866983
0.866983
0.867034
0.867034
0.867034
0.86698
0.86698
0.86698
0.789834
0.789834
0.789834
0.791167
0.791167
0.791167
0.795299
0.795299
0.795299
0.795296
0.795296
0.795296
0.791159
0.791159
0.791159
0.793116
0.793116
0.793116
0.791157
0.791157
0.791157
0.793112
0.793112
0.793112
0.801303
0.801303
0.801303
0.79316
0.79316
0.79316
0.791205
0.791205
0.791205
0.789873
0.789873
0.789873
0.803285
0.803285
0.803285
0.793157
0.793157
0.793157
0.791269
0.791269
0.791269
0.791229
0.791229
0.791229
0.799454
0.799454
0.799454
0.83929
0.83929
0.83929
0.841494
0.841494
0.841494
0.840404
0.840404
0.840404
0.843575
0.843575
0.843575
0.843581
0.843581
0.843581
0.843579
0.843579
0.843579
0.838137
0.838137
0.838137
0.836966
0.836966
0.836966
0.829351
0.829351
0.829351
0.838146
0.838146
0.838146
0.829328
0.829328
0.829328
0.831996
0.831996
0.831996
0.826545
0.826545
0.826545
0.827951
0.827951
0.827951
0.820582
0.820582
0.820582
0.82212
0.82212
0.82212
0.825105
0.825105
0.825105
0.825102
0.825102
0.825102
0.810648
0.810648
0.810648
0.808863
0.808863
0.808863
0.85258
0.85258
0.85258
0.851788
0.851788
0.851788
0.855518
0.855518
0.855518
0.844592
0.844592
0.844592
0.857469
0.857469
0.857469
0.856176
0.856176
0.856176
0.856832
0.856832
0.856832
0.823623
0.823623
0.823623
0.83328
0.83328
0.83328
0.835764
0.835764
0.835764
0.834538
0.834538
0.834538
0.815729
0.815729
0.815729
0.818978
0.818978
0.818978
0.817372
0.817372
0.817372
0.81737
0.81737
0.81737
0.818973
0.818973
0.818973
0.858011
0.858011
0.858011
0.858008
0.858008
0.858008
0.8586
0.8586
0.8586
0.859174
0.859174
0.859174
0.865098
0.865098
0.865098
0.86587
0.86587
0.86587
0.866084
0.866084
0.866084
0.866087
0.866087
0.866087
0.86563
0.86563
0.86563
0.8654
0.8654
0.8654
0.865397
0.865397
0.865397
0.863409
0.863409
0.863409
0.863404
0.863404
0.863404
0.863016
0.863016
0.863016
0.863014
0.863014
0.863014
0.864134
0.864134
0.864134
0.864466
0.864466
0.864466
0.864463
0.864463
0.864463
0.864128
0.864128
0.864128
0.863777
0.863777
0.863777
0.86378
0.86378
0.86378
0.864136
0.864136
0.864136
0.864142
0.864142
0.864142
0.863417
0.863417
0.863417
0.863788
0.863788
0.863788
0.863785
0.863785
0.863785
0.863412
0.863412
0.863412
0.863022
0.863022
0.863022
0.863025
0.863025
0.863025
0.864784
0.864784
0.864784
0.864471
0.864471
0.864471
0.864474
0.864474
0.864474
0.864789
0.864789
0.864789
0.86508
0.86508
0.86508
0.865082
0.865082
0.865082
0.865346
0.865346
0.865346
0.865072
0.865072
0.865072
0.865074
0.865074
0.865074
0.866079
0.866079
0.866079
0.866076
0.866076
0.866076
0.862641
0.862641
0.862641
0.861757
0.861757
0.861757
0.860798
0.860798
0.860798
0.862199
0.862199
0.862199
0.862631
0.862631
0.862631
0.863804
0.863804
0.863804
0.863433
0.863433
0.863433
0.86304
0.86304
0.86304
0.863038
0.863038
0.863038
0.864158
0.864158
0.864158
0.864489
0.864489
0.864489
0.864807
0.864807
0.864807
0.864805
0.864805
0.864805
0.863053
0.863053
0.863053
0.863443
0.863443
0.863443
0.862188
0.862188
0.862188
0.861736
0.861736
0.861736
0.861267
0.861267
0.861267
0.859753
0.859753
0.859753
0.858624
0.858624
0.858624
0.858629
0.858629
0.858629
0.859198
0.859198
0.859198
0.8592
0.8592
0.8592
0.85742
0.85742
0.85742
0.858034
0.858034
0.858034
0.858031
0.858031
0.858031
0.857415
0.857415
0.857415
0.856781
0.856781
0.856781
0.856783
0.856783
0.856783
0.857413
0.857413
0.857413
0.856776
0.856776
0.856776
0.856773
0.856773
0.856773
0.861278
0.861278
0.861278
0.858589
0.858589
0.858589
0.857384
0.857384
0.857384
0.858
0.858
0.858
0.858592
0.858592
0.858592
0.857991
0.857991
0.857991
0.857375
0.857375
0.857375
0.856741
0.856741
0.856741
0.856744
0.856744
0.856744
0.857381
0.857381
0.857381
0.857994
0.857994
0.857994
0.865063
0.865063
0.865063
0.865337
0.865337
0.865337
0.865334
0.865334
0.865334
0.865057
0.865057
0.865057
0.864767
0.864767
0.864767
0.864764
0.864764
0.864764
0.861728
0.861728
0.861728
0.861734
0.861734
0.861734
0.861259
0.861259
0.861259
0.861262
0.861262
0.861262
0.862183
0.862183
0.862183
0.86218
0.86218
0.86218
0.858606
0.858606
0.858606
0.859177
0.859177
0.859177
0.85973
0.85973
0.85973
0.859733
0.859733
0.859733
0.863107
0.863107
0.863107
0.862271
0.862271
0.862271
0.861819
0.861819
0.861819
0.861818
0.861818
0.861818
0.862267
0.862267
0.862267
0.865906
0.865906
0.865906
0.861325
0.861325
0.861325
0.861321
0.861321
0.861321
0.861795
0.861795
0.861795
0.861793
0.861793
0.861793
0.859243
0.859243
0.859243
0.860324
0.860324
0.860324
0.860833
0.860833
0.860833
0.860831
0.860831
0.860831
0.864187
0.864187
0.864187
0.859768
0.859768
0.859768
0.85977
0.85977
0.85977
0.864552
0.864552
0.864552
0.858046
0.858046
0.858046
0.85743
0.85743
0.85743
0.859205
0.859205
0.859205
0.858631
0.858631
0.858631
0.858039
0.858039
0.858039
0.858041
0.858041
0.858041
0.860291
0.860291
0.860291
0.859777
0.859777
0.859777
0.858643
0.858643
0.858643
0.858049
0.858049
0.858049
0.859222
0.859222
0.859222
0.85922
0.85922
0.85922
0.858646
0.858646
0.858646
0.85865
0.85865
0.85865
0.858056
0.858056
0.858056
0.858053
0.858053
0.858053
0.860857
0.860857
0.860857
0.861346
0.861346
0.861346
0.863496
0.863496
0.863496
0.863492
0.863492
0.863492
0.863867
0.863867
0.863867
0.863865
0.863865
0.863865
0.862687
0.862687
0.862687
0.861356
0.861356
0.861356
0.861825
0.861825
0.861825
0.861823
0.861823
0.861823
0.860864
0.860864
0.860864
0.858105
0.858105
0.858105
0.856855
0.856855
0.856855
0.85749
0.85749
0.85749
0.85869
0.85869
0.85869
0.858696
0.858696
0.858696
0.858692
0.858692
0.858692
0.807156
0.807156
0.807156
0.812393
0.812393
0.812393
0.815734
0.815734
0.815734
0.815744
0.815744
0.815744
0.814092
0.814092
0.814092
0.814104
0.814104
0.814104
0.815763
0.815763
0.815763
0.817373
0.817373
0.817373
0.81738
0.81738
0.81738
0.789759
0.789759
0.789759
0.789757
0.789757
0.789757
0.791109
0.791109
0.791109
0.791106
0.791106
0.791106
0.789776
0.789776
0.789776
0.789768
0.789768
0.789768
0.801254
0.801254
0.801254
0.805091
0.805091
0.805091
0.846438
0.846438
0.846438
0.846435
0.846435
0.846435
0.843481
0.843481
0.843481
0.844492
0.844492
0.844492
0.845475
0.845475
0.845475
0.853249
0.853249
0.853249
0.853996
0.853996
0.853996
0.853999
0.853999
0.853999
0.853254
0.853254
0.853254
0.853265
0.853265
0.853265
0.851705
0.851705
0.851705
0.852498
0.852498
0.852498
0.854741
0.854741
0.854741
0.854746
0.854746
0.854746
0.855446
0.855446
0.855446
0.855444
0.855444
0.855444
0.85327
0.85327
0.85327
0.8525
0.8525
0.8525
0.85171
0.85171
0.85171
0.855439
0.855439
0.855439
0.854739
0.854739
0.854739
0.854012
0.854012
0.854012
0.854014
0.854014
0.854014
0.850892
0.850892
0.850892
0.850053
0.850053
0.850053
0.849193
0.849193
0.849193
0.850894
0.850894
0.850894
0.849195
0.849195
0.849195
0.850058
0.850058
0.850058
0.85006
0.85006
0.85006
0.840303
0.840303
0.840303
0.839187
0.839187
0.839187
0.840306
0.840306
0.840306
0.839192
0.839192
0.839192
0.840311
0.840311
0.840311
0.839194
0.839194
0.839194
0.831918
0.831918
0.831918
0.833202
0.833202
0.833202
0.845488
0.845488
0.845488
0.845491
0.845491
0.845491
0.847384
0.847384
0.847384
0.846451
0.846451
0.846451
0.84739
0.84739
0.84739
0.846454
0.846454
0.846454
0.8445
0.8445
0.8445
0.844502
0.844502
0.844502
0.850021
0.850021
0.850021
0.848271
0.848271
0.848271
0.859142
0.859142
0.859142
0.860222
0.860222
0.860222
0.859139
0.859139
0.859139
0.859689
0.859689
0.859689
0.860738
0.860738
0.860738
0.860225
0.860225
0.860225
0.859696
0.859696
0.859696
0.85323
0.85323
0.85323
0.85398
0.85398
0.85398
0.853233
0.853233
0.853233
0.857366
0.857366
0.857366
0.857363
0.857363
0.857363
0.853215
0.853215
0.853215
0.855415
0.855415
0.855415
0.854715
0.854715
0.854715
0.856096
0.856096
0.856096
0.856099
0.856099
0.856099
0.855421
0.855421
0.855421
0.854718
0.854718
0.854718
0.82788
0.82788
0.82788
0.829257
0.829257
0.829257
0.830602
0.830602
0.830602
0.829243
0.829243
0.829243
0.843486
0.843486
0.843486
0.841391
0.841391
0.841391
0.842454
0.842454
0.842454
0.843489
0.843489
0.843489
0.839184
0.839184
0.839184
0.833178
0.833178
0.833178
0.834433
0.834433
0.834433
0.829239
0.829239
0.829239
0.826483
0.826483
0.826483
0.826481
0.826481
0.826481
0.826474
0.826474
0.826474
0.826476
0.826476
0.826476
0.845496
0.845496
0.845496
0.834475
0.834475
0.834475
0.833217
0.833217
0.833217
0.823578
0.823578
0.823578
0.823573
0.823573
0.823573
0.825048
0.825048
0.825048
0.825046
0.825046
0.825046
0.823581
0.823581
0.823581
0.825053
0.825053
0.825053
0.825055
0.825055
0.825055
0.822078
0.822078
0.822078
0.822085
0.822085
0.822085
0.820545
0.820545
0.820545
0.820547
0.820547
0.820547
0.82208
0.82208
0.82208
0.823588
0.823588
0.823588
0.823585
0.823585
0.823585
0.827902
0.827902
0.827902
0.827892
0.827892
0.827892
0.829267
0.829267
0.829267
0.830614
0.830614
0.830614
0.844442
0.844442
0.844442
0.845424
0.845424
0.845424
0.845421
0.845421
0.845421
0.844436
0.844436
0.844436
0.84344
0.84344
0.84344
0.844451
0.844451
0.844451
0.842406
0.842406
0.842406
0.844454
0.844454
0.844454
0.844468
0.844468
0.844468
0.842425
0.842425
0.842425
0.839154
0.839154
0.839154
0.845433
0.845433
0.845433
0.84543
0.84543
0.84543
0.846388
0.846388
0.846388
0.834411
0.834411
0.834411
0.853953
0.853953
0.853953
0.852443
0.852443
0.852443
0.853212
0.853212
0.853212
0.853956
0.853956
0.853956
0.853947
0.853947
0.853947
0.853944
0.853944
0.853944
0.851647
0.851647
0.851647
0.85244
0.85244
0.85244
0.853206
0.853206
0.853206
0.853203
0.853203
0.853203
0.852434
0.852434
0.852434
0.851644
0.851644
0.851644
0.852457
0.852457
0.852457
0.851665
0.851665
0.851665
0.849153
0.849153
0.849153
0.850013
0.850013
0.850013
0.850852
0.850852
0.850852
0.849155
0.849155
0.849155
0.850855
0.850855
0.850855
0.850018
0.850018
0.850018
0.848263
0.848263
0.848263
0.846411
0.846411
0.846411
0.848257
0.848257
0.848257
0.849144
0.849144
0.849144
0.85001
0.85001
0.85001
0.849147
0.849147
0.849147
0.850001
0.850001
0.850001
0.850837
0.850837
0.850837
0.851653
0.851653
0.851653
0.850004
0.850004
0.850004
0.839176
0.839176
0.839176
0.839179
0.839179
0.839179
0.836849
0.836849
0.836849
0.836851
0.836851
0.836851
0.836856
0.836856
0.836856
0.826441
0.826441
0.826441
0.827848
0.827848
0.827848
0.823536
0.823536
0.823536
0.835649
0.835649
0.835649
0.83316
0.83316
0.83316
0.823541
0.823541