<VTKFile type="UnstructuredGrid" version="1.0">
<UnstructuredGrid>
<Piece NumberOfPoints="11046" NumberOfCells="3682">
<Points>
<DataArray type="Float64" NumberOfComponents="3" format="ascii">
2.48358 1.77342 11.5752
2.46979 1.78721 11.5675
2.49736 1.75964 11.5675
2.17682 2.08018 11.5839
2.16411 2.09289 11.5675
2.1809 2.0761 11.5675
2.17682 2.08018 11.5839
2.16411 2.09289 11.5914
2.16411 2.09289 11.5675
2.49736 1.75964 12.4675
2.46979 1.78721 12.4675
2.48358 1.77342 12.4598
2.66273 1.59427 12.4465
2.66273 1.59427 12.4675
2.64895 1.60805 12.4598
2.4284 1.8286 12.3449
2.4422 1.8148 12.3335
2.4422 1.8148 12.3562
2.64895 1.60805 11.5752
2.66273 1.59427 11.5675
2.66273 1.59427 11.5885
2.46979 1.78721 11.6108
2.48358 1.77342 11.5988
2.48358 1.77342 11.6218
2.48358 1.77342 11.6218
2.48358 1.77342 11.5988
2.49736 1.75964 11.6108
2.49735 1.75965 11.995
2.51114 1.74586 12.0062
2.49735 1.75965 12.0175
2.16411 2.09289 12.04
2.16411 2.09289 12.0175
2.17811 2.07889 12.0288
2.8005 1.4565 12.2429
2.78672 1.47028 12.2542
2.78672 1.47028 12.2316
2.66271 1.59429 12.243
2.67649 1.58051 12.2317
2.67649 1.58051 12.2543
2.67649 1.58051 12.2543
2.67649 1.58051 12.2317
2.69027 1.56673 12.243
2.64895 1.60805 12.4598
2.66273 1.59427 12.4675
2.63517 1.62183 12.4675
2.55249 1.70451 12.4242
2.56627 1.69073 12.4362
2.55249 1.70451 12.4465
2.58005 1.67695 12.4242
2.56627 1.69073 12.4362
2.56627 1.69073 12.4132
2.56627 1.69073 12.4132
2.56627 1.69073 12.4362
2.55249 1.70451 12.4242
2.49735 1.75965 12.1076
2.48357 1.77343 12.1189
2.48357 1.77343 12.0963
2.49735 1.75965 12.0175
2.51114 1.74586 12.0062
2.51114 1.74586 12.0288
2.48357 1.77343 12.1865
2.49736 1.75964 12.1978
2.48357 1.77343 12.2091
2.48358 1.77342 12.4598
2.46979 1.78721 12.4675
2.46979 1.78721 12.4464
2.7867 1.4703 11.6903
2.8005 1.4565 11.7017
2.78671 1.47029 11.713
2.63516 1.62184 11.995
2.64894 1.60806 11.9837
2.64894 1.60806 12.0062
2.456 1.801 11.5752
2.44221 1.81479 11.5675
2.46979 1.78721 11.5675
2.46979 1.78721 11.6108
2.456 1.801 11.5988
2.46979 1.78721 11.5886
2.46979 1.78721 11.5886
2.48358 1.77342 11.5988
2.46979 1.78721 11.6108
2.46979 1.78721 11.5886
2.456 1.801 11.5752
2.46979 1.78721 11.5675
2.456 1.801 11.5988
2.456 1.801 11.5752
2.46979 1.78721 11.5886
2.46979 1.78721 11.5886
2.46979 1.78721 11.5675
2.48358 1.77342 11.5752
2.48358 1.77342 11.5752
2.48358 1.77342 11.5988
2.46979 1.78721 11.5886
2.49736 1.75964 11.6108
2.48358 1.77342 11.5988
2.49736 1.75964 11.5886
2.49736 1.75964 11.5886
2.51114 1.74586 11.5988
2.49736 1.75964 11.6108
2.48358 1.77342 11.5752
2.49736 1.75964 11.5675
2.49736 1.75964 11.5886
2.49736 1.75964 11.5886
2.48358 1.77342 11.5988
2.48358 1.77342 11.5752
2.48358 1.77342 11.6447
2.48358 1.77342 11.6218
2.49736 1.75964 11.6334
2.49736 1.75964 11.6334
2.48358 1.77342 11.6218
2.49736 1.75964 11.6108
2.52492 1.73208 11.8372
2.52492 1.73208 11.8146
2.53871 1.71829 11.8259
2.51114 1.74586 11.8259
2.52492 1.73208 11.8146
2.52492 1.73208 11.8372
2.63517 1.62183 11.5675
2.66273 1.59427 11.5675
2.64895 1.60805 11.5752
2.49736 1.75964 11.5675
2.52493 1.73207 11.5675
2.51114 1.74586 11.5752
2.51114 1.74586 11.5752
2.49736 1.75964 11.5886
2.49736 1.75964 11.5675
2.51114 1.74586 11.5988
2.49736 1.75964 11.5886
2.51114 1.74586 11.5752
2.51114 1.74586 11.9837
2.49735 1.75965 11.995
2.49735 1.75965 11.9725
2.51114 1.74586 12.0062
2.49735 1.75965 11.995
2.51114 1.74586 11.9837
2.51114 1.74586 11.9837
2.52492 1.73208 11.995
2.51114 1.74586 12.0062
2.78672 1.47028 11.9612
2.8005 1.4565 11.9499
2.8005 1.4565 11.9725
2.8005 1.4565 11.8372
2.78672 1.47028 11.826
2.8005 1.4565 11.8147
2.8005 1.4565 12.1301
2.8005 1.4565 12.1526
2.78672 1.47028 12.1414
2.78672 1.47028 12.1639
2.77294 1.48406 12.1752
2.77294 1.48406 12.1527
2.78672 1.47028 12.1639
2.8005 1.4565 12.1526
2.8005 1.4565 12.1752
2.77294 1.48406 12.1527
2.78672 1.47028 12.1414
2.78672 1.47028 12.1639
2.78672 1.47028 12.1639
2.78672 1.47028 12.1414
2.8005 1.4565 12.1526
2.78672 1.47028 12.1865
2.8005 1.4565 12.1752
2.8005 1.4565 12.1978
2.78672 1.47028 12.1865
2.78672 1.47028 12.1639
2.8005 1.4565 12.1752
2.77294 1.48406 12.1752
2.78672 1.47028 12.1639
2.78672 1.47028 12.1865
2.8005 1.4565 12.2429
2.78672 1.47028 12.2316
2.8005 1.4565 12.2203
2.75915 1.49785 12.2542
2.74538 1.51162 12.2429
2.75916 1.49784 12.2316
2.75916 1.49784 12.209
2.75916 1.49784 12.2316
2.74538 1.51162 12.2203
2.74538 1.51162 12.2203
2.74538 1.51162 12.2429
2.7316 1.5254 12.2316
2.74538 1.51162 12.2203
2.75916 1.49784 12.2316
2.74538 1.51162 12.2429
2.8005 1.4565 12.0625
2.78672 1.47028 12.0513
2.8005 1.4565 12.04
2.78672 1.47028 12.1188
2.8005 1.4565 12.1076
2.8005 1.4565 12.1301
2.8005 1.4565 12.1301
2.78672 1.47028 12.1414
2.78672 1.47028 12.1188
2.78672 1.47028 12.1188
2.78672 1.47028 12.0963
2.8005 1.4565 12.1076
2.77294 1.48406 12.1076
2.78672 1.47028 12.0963
2.78672 1.47028 12.1188
2.69027 1.56673 12.3562
2.6765 1.5805 12.3676
2.67649 1.58051 12.3449
2.67651 1.58049 12.4132
2.66273 1.59427 12.4242
2.66273 1.59427 12.4016
2.64895 1.60805 12.4362
2.66273 1.59427 12.4465
2.64895 1.60805 12.4598
2.64895 1.60805 12.4362
2.66273 1.59427 12.4242
2.66273 1.59427 12.4465
2.6903 1.5667 12.4465
2.6903 1.5667 12.4242
2.70409 1.55291 12.4362
2.69027 1.56673 12.243
2.67649 1.58051 12.2317
2.69027 1.56673 12.2204
2.67649 1.58051 12.2317
2.67649 1.58051 12.2091
2.69027 1.56673 12.2204
2.69027 1.56673 12.1978
2.70405 1.55295 12.2091
2.69027 1.56673 12.2204
2.69027 1.56673 12.2204
2.67649 1.58051 12.2091
2.69027 1.56673 12.1978
2.69027 1.56673 12.2656
2.67649 1.58051 12.2543
2.69027 1.56673 12.243
2.69027 1.56673 12.2656
2.70404 1.55296 12.2769
2.69027 1.56673 12.2882
2.8005 1.4565 12.2655
2.78672 1.47028 12.2542
2.8005 1.4565 12.2429
2.49736 1.75964 12.4465
2.49736 1.75964 12.4675
2.48358 1.77342 12.4598
2.52493 1.73207 12.4465
2.52493 1.73207 12.4675
2.51114 1.74586 12.4598
2.51114 1.74586 12.4598
2.51114 1.74586 12.4362
2.52493 1.73207 12.4465
2.51114 1.74586 12.4598
2.52493 1.73207 12.4675
2.49736 1.75964 12.4675
2.49736 1.75964 12.4675
2.49736 1.75964 12.4465
2.51114 1.74586 12.4598
2.51114 1.74586 12.4598
2.49736 1.75964 12.4465
2.51114 1.74586 12.4362
2.51114 1.74586 12.4362
2.49736 1.75964 12.4465
2.49736 1.75964 12.4242
2.56627 1.69073 12.4598
2.58005 1.67695 12.4675
2.55249 1.70451 12.4675
2.55249 1.70451 12.4675
2.55249 1.70451 12.4465
2.56627 1.69073 12.4598
2.56627 1.69073 12.4598
2.55249 1.70451 12.4465
2.56627 1.69073 12.4362
2.53871 1.71829 12.4598
2.52493 1.73207 12.4675
2.52493 1.73207 12.4465
2.55249 1.70451 12.4675
2.52493 1.73207 12.4675
2.53871 1.71829 12.4598
2.53871 1.71829 12.4598
2.55249 1.70451 12.4465
2.55249 1.70451 12.4675
2.55249 1.70451 12.4242
2.55249 1.70451 12.4465
2.53871 1.71829 12.4362
2.53871 1.71829 12.4362
2.53871 1.71829 12.4132
2.55249 1.70451 12.4242
2.53871 1.71829 12.4362
2.53871 1.71829 12.4598
2.52493 1.73207 12.4465
2.55249 1.70451 12.4465
2.53871 1.71829 12.4598
2.53871 1.71829 12.4362
2.55249 1.70451 12.4016
2.56627 1.69073 12.4132
2.55249 1.70451 12.4242
2.55249 1.70451 12.4016
2.53871 1.71829 12.4132
2.53871 1.71829 12.3903
2.55249 1.70451 12.4242
2.53871 1.71829 12.4132
2.55249 1.70451 12.4016
2.46978 1.78722 12.1301
2.48357 1.77343 12.1189
2.48357 1.77343 12.1414
2.48357 1.77343 12.1414
2.46978 1.78722 12.1527
2.46978 1.78722 12.1301
2.49736 1.75964 12.1752
2.49736 1.75964 12.1978
2.48357 1.77343 12.1865
2.46978 1.78722 12.0625
2.48357 1.77343 12.0513
2.48357 1.77343 12.0738
2.48357 1.77343 12.0738
2.48357 1.77343 12.0513
2.49735 1.75965 12.0625
2.46978 1.78722 12.1076
2.48357 1.77343 12.1189
2.46978 1.78722 12.1301
2.46978 1.78722 12.1076
2.48357 1.77343 12.0963
2.48357 1.77343 12.1189
2.51114 1.74586 12.0062
2.52492 1.73208 11.995
2.52492 1.73208 12.0175
2.52492 1.73208 12.0175
2.51114 1.74586 12.0288
2.51114 1.74586 12.0062
2.49735 1.75965 12.0625
2.48357 1.77343 12.0513
2.49735 1.75965 12.04
2.49735 1.75965 12.0175
2.51114 1.74586 12.0288
2.49735 1.75965 12.04
2.49736 1.75964 12.243
2.49736 1.75964 12.2656
2.48357 1.77343 12.2543
2.4284 1.8286 12.3222
2.4422 1.8148 12.3335
2.4284 1.8286 12.3449
2.3455 1.9115 12.4598
2.35934 1.89766 12.4675
2.33165 1.92535 12.4675
2.4146 1.8424 12.3335
2.4284 1.8286 12.3222
2.4284 1.8286 12.3449
2.4146 1.8424 12.3108
2.4284 1.8286 12.3222
2.4146 1.8424 12.3335
2.456 1.801 12.3903
2.46979 1.78721 12.4016
2.456 1.801 12.4132
2.456 1.801 12.4132
2.46979 1.78721 12.4016
2.46979 1.78721 12.4242
2.42841 1.82859 12.4132
2.42841 1.82859 12.3903
2.44221 1.81479 12.4016
2.44221 1.81479 12.4016
2.44221 1.81479 12.4242
2.42841 1.82859 12.4132
2.44221 1.81479 12.4016
2.4422 1.8148 12.3789
2.456 1.801 12.3903
2.42841 1.82859 12.3903
2.4422 1.8148 12.3789
2.44221 1.81479 12.4016
2.456 1.801 12.3903
2.456 1.801 12.4132
2.44221 1.81479 12.4016
2.44221 1.81479 12.4016
2.456 1.801 12.4132
2.44221 1.81479 12.4242
2.46979 1.78721 12.4675
2.44221 1.81479 12.4675
2.456 1.801 12.4598
2.456 1.801 12.4598
2.46979 1.78721 12.4464
2.46979 1.78721 12.4675
2.42841 1.82859 12.4132
2.44221 1.81479 12.4242
2.42841 1.82859 12.4362
2.16411 2.09289 12.4675
2.17682 2.08018 12.4511
2.1809 2.0761 12.4675
2.1809 2.0761 12.4675
2.17682 2.08018 12.4511
2.19211 2.06489 12.4453
2.19211 2.06489 12.4453
2.19593 2.06107 12.4675
2.1809 2.0761 12.4675
2.78688 1.47012 11.5757
2.77324 1.48376 11.5675
2.8005 1.4565 11.5675
2.77293 1.48407 11.611
2.78673 1.47027 11.5993
2.78669 1.47031 11.6222
2.8005 1.4565 11.6791
2.8005 1.4565 11.7017
2.7867 1.4703 11.6903
2.78669 1.47031 11.6222
2.78673 1.47027 11.5993
2.8005 1.4565 11.6114
2.8005 1.4565 11.6114
2.8005 1.4565 11.6339
2.78669 1.47031 11.6222
2.78669 1.47031 11.6222
2.8005 1.4565 11.6339
2.78669 1.47031 11.645
2.8005 1.4565 11.7921
2.78672 1.47028 11.7808
2.8005 1.4565 11.7695
2.78672 1.47028 11.7582
2.8005 1.4565 11.7469
2.8005 1.4565 11.7695
2.8005 1.4565 11.7695
2.78672 1.47028 11.7808
2.78672 1.47028 11.7582
2.8005 1.4565 11.7243
2.78671 1.47029 11.713
2.8005 1.4565 11.7017
2.66273 1.59427 11.5675
2.69029 1.56671 11.5675
2.67651 1.58049 11.5752
[...]
<PointData Scalars="View Factor" >
<DataArray type="Float64" Name="View Factor" NumberOfComponents="1" format="ascii">
0.69056
0.69056
0.69056
0.662508
0.662508
0.662508
0.662569
0.662569
0.662569
0.690228
0.690228
0.690228
0.722652
0.722652
0.722652
0.668372
0.668372
0.668372
0.723095
0.723095
0.723095
0.688715
0.688715
0.688715
0.692309
0.692309
0.692309
0.69705
0.69705
0.69705
0.662433
0.662433
0.662433
0.721445
0.721445
0.721445
0.723319
0.723319
0.723319
0.723578
0.723578
0.723578
0.722177
0.722177
0.722177
0.711208
0.711208
0.711208
0.713735
0.713735
0.713735
0.712096
0.712096
0.712096
0.692136
0.692136
0.692136
0.698543
0.698543
0.698543
0.692101
0.692101
0.692101
0.686499
0.686499
0.686499
0.721764
0.721764
0.721764
0.722164
0.722164
0.722164
0.678415
0.678415
0.678415
0.682772
0.682772
0.682772
0.686813
0.686813
0.686813
0.682779
0.682779
0.682779
0.680634
0.680634
0.680634
0.68682
0.68682
0.68682
0.688722
0.688722
0.688722
0.694005
0.694005
0.694005
0.697191
0.697191
0.697191
0.694011
0.694011
0.694011
0.692316
0.692316
0.692316
0.692301
0.692301
0.692301
0.693997
0.693997
0.693997
0.705232
0.705232
0.705232
0.702751
0.702751
0.702751
0.722621
0.722621
0.722621
0.700137
0.700137
0.700137
0.697199
0.697199
0.697199
0.698693
0.698693
0.698693
0.697059
0.697059
0.697059
0.698552
0.698552
0.698552
0.701367
0.701367
0.701367
0.721366
0.721366
0.721366
0.721443
0.721443
0.721443
0.721255
0.721255
0.721255
0.7222
0.7222
0.7222
0.72124
0.72124
0.72124
0.721985
0.721985
0.721985
0.721505
0.721505
0.721505
0.721227
0.721227
0.721227
0.721491
0.721491
0.721491
0.72197
0.72197
0.72197
0.721195
0.721195
0.721195
0.723077
0.723077
0.723077
0.72309
0.72309
0.72309
0.723481
0.723481
0.723481
0.72323
0.72323
0.72323
0.721312
0.721312
0.721312
0.72127
0.72127
0.72127
0.72152
0.72152
0.72152
0.721533
0.721533
0.721533
0.722012
0.722012
0.722012
0.723509
0.723509
0.723509
0.72306
0.72306
0.72306
0.722435
0.722435
0.722435
0.722667
0.722667
0.722667
0.723692
0.723692
0.723692
0.723681
0.723681
0.723681
0.72359
0.72359
0.72359
0.723833
0.723833
0.723833
0.723694
0.723694
0.723694
0.723668
0.723668
0.723668
0.723791
0.723791
0.723791
0.72118
0.72118
0.72118
0.693679
0.693679
0.693679
0.702486
0.702486
0.702486
0.701171
0.701171
0.701171
0.699787
0.699787
0.699787
0.69686
0.69686
0.69686
0.69836
0.69836
0.69836
0.69687
0.69687
0.69687
0.712914
0.712914
0.712914
0.711197
0.711197
0.711197
0.712083
0.712083
0.712083
0.704961
0.704961
0.704961
0.707225
0.707225
0.707225
0.709303
0.709303
0.709303
0.709316
0.709316
0.709316
0.708307
0.708307
0.708307
0.706125
0.706125
0.706125
0.708295
0.708295
0.708295
0.71122
0.71122
0.71122
0.708319
0.708319
0.708319
0.709327
0.709327
0.709327
0.688536
0.688536
0.688536
0.686627
0.686627
0.686627
0.693796
0.693796
0.693796
0.688562
0.688562
0.688562
0.692153
0.692153
0.692153
0.686636
0.686636
0.686636
0.688545
0.688545
0.688545
0.702684
0.702684
0.702684
0.701358
0.701358
0.701358
0.693849
0.693849
0.693849
0.697042
0.697042
0.697042
0.693768
0.693768
0.693768
0.665694
0.665694
0.665694
0.661541
0.661541
0.661541
0.660025
0.660025
0.660025
0.659651
0.659651
0.659651
0.68035
0.68035
0.68035
0.682483
0.682483
0.682483
0.66567
0.66567
0.66567
0.668347
0.668347
0.668347
0.673428
0.673428
0.673428
0.668356
0.668356
0.668356
0.67582
0.67582
0.67582
0.673419
0.673419
0.673419
0.678102
0.678102
0.678102
0.682465
0.682465
0.682465
0.665662
0.665662
0.665662
0.662215
0.662215
0.662215
0.662128
0.662128
0.662128
0.662076
0.662076
0.662076
0.722063
0.722063
0.722063
0.722285
0.722285
0.722285
0.721514
0.721514
0.721514
0.721809
0.721809
0.721809
0.721548
0.721548
0.721548
0.721798
0.721798
0.721798
0.721466
0.721466
0.721466
0.721479
0.721479
0.721479
0.721729
0.721729
0.721729
0.721503
0.721503
0.721503
0.723786
0.723786
0.723786
0.723481
0.723481
0.723481
0.722276
0.722276
0.722276
0.721302
0.721302
0.721302
0.721973
0.721973
0.721973
0.722798
0.722798
0.722798
0.719614
0.719614
0.719614
0.718603
0.718603
0.718603
0.722865
0.722865
0.722865
0.723087
0.723087
0.723087
0.722855
0.722855
0.722855
0.722959
0.722959
0.722959
0.723343
0.723343
0.723343
0.721861
0.721861
0.721861
0.680627
0.680627
0.680627
0.716195
0.716195
0.716195
0.711572
0.711572
0.711572
0.716913
0.716913
0.716913
0.719576
0.719576
0.719576
0.718564
0.718564
0.718564
0.714745
0.714745
0.714745
0.716159
0.716159
0.716159
0.697117
0.697117
0.697117
0.69393
0.69393
0.69393
0.706389
0.706389
0.706389
0.705223
0.705223
0.705223
0.708557
0.708557
0.708557
0.706381
0.706381
0.706381
0.709568
0.709568
0.709568
0.708547
0.708547
0.708547
0.718585
0.718585
0.718585
0.713302
0.713302
0.713302
0.716922
0.716922
0.716922
0.716263
0.716263
0.716263
0.71485
0.71485
0.71485
0.718125
0.718125
0.718125
0.698686
0.698686
0.698686
0.701503
0.701503
0.701503
0.702822
0.702822
0.702822
0.697184
0.697184
0.697184
0.693874
0.693874
0.693874
0.673593
0.673593
0.673593
0.711456
0.711456
0.711456
0.709559
0.709559
0.709559
0.711437
0.711437
0.711437
0.712316
0.712316
0.712316
0.71395
0.71395
0.71395
0.701393
0.701393
0.701393
0.702718
0.702718
0.702718
0.682668
0.682668
0.682668
0.686709
0.686709
0.686709
0.68861
0.68861
0.68861
0.708512
0.708512
0.708512
0.712307
0.712307
0.712307
0.709532
0.709532
0.709532
0.711428
0.711428
0.711428
0.711419
0.711419
0.711419
0.709523
0.709523
0.709523
0.698561
0.698561
0.698561
0.72364
0.72364
0.72364
0.723968
0.723968
0.723968
0.724048
0.724048
0.724048
0.724016
0.724016
0.724016
0.723626
0.723626
0.723626
0.723737
0.723737
0.723737
0.72339
0.72339
0.72339
0.723379
0.723379
0.723379
0.723238
0.723238
0.723238
0.723227
0.723227
0.723227
0.722894
0.722894
0.722894
0.72134
0.72134
0.72134
0.721378
0.721378
0.721378
0.722107
0.722107
0.722107
0.721628
0.721628
0.721628
0.721615
0.721615
0.721615
0.721352
0.721352
0.721352
0.721603
0.721603
0.721603
0.722079
0.722079
0.722079
0.722167
0.722167
0.722167
0.721693
0.721693
0.721693
0.721404
0.721404
0.721404
0.721667
0.721667
0.721667
0.661265
0.661265
0.661265
0.662416
0.662416
0.662416
0.662384
0.662384
0.662384
0.722772
0.722772
0.722772
0.722184
0.722184
0.722184
0.722593
0.722593
0.722593
0.723216
0.723216
0.723216
0.72143
0.72143
0.72143
0.721165
0.721165
0.721165
0.722758
0.722758
0.722758
0.72258
0.72258
0.72258
0.721925
0.721925
0.721925
0.722743
0.722743
0.722743
0.722155
0.722155
0.722155
0.722564
0.722564
0.722564
0.702639
0.702639
0.702639
0.698509
0.698509
0.698509
0.701322
0.701322
0.701322
0.693831
0.693831
0.693831
0.697015
0.697015
0.697015
0.692145
0.692145
0.692145
0.69384
0.69384
0.69384
0.702675
0.702675
0.702675
0.711409
0.711409
0.711409
0.712297
0.712297
0.712297
0.713902
0.713902
0.713902
0.714669
0.714669
0.714669
0.72264
0.72264
0.72264
0.723723
0.723723
0.723723
0.723888
0.723888
0.723888
0.723408
0.723408
0.723408
0.723677
0.723677
0.723677
0.723719
0.723719
0.723719
0.723207
0.723207
0.723207
0.721136
0.721136
0.721136
0.720767
0.720767
0.720767
0.723707
0.723707
0.723707
0.723602
0.723602
0.723602
0.723615
0.723615
0.723615
0.723359
0.723359
0.723359
0.723885
0.723885
0.723885
0.723859
0.723859
0.723859
0.723847
0.723847
0.723847
0.723882
0.723882
0.723882
0.723895
0.723895
0.723895
0.723923
0.723923
0.723923
0.723809
0.723809
0.723809
0.723621
0.723621
0.723621
0.723784
0.723784
0.723784
0.722607
0.722607
0.722607
0.722785
0.722785
0.722785
0.723119
0.723119
0.723119
0.723957
0.723957
0.723957
0.723993
0.723993
0.723993
0.724025
0.724025
0.724025
0.724004
0.724004
0.724004
0.724045
0.724045
0.724045
0.72398
0.72398
0.72398
0.722268
0.722268
0.722268
0.722039
0.722039
0.722039
0.721561
0.721561
0.721561
0.722243
0.722243
0.722243
0.722255
0.722255
0.722255
0.722027
0.722027
0.722027
0.723613
0.723613
0.723613
0.722679
0.722679
0.722679
0.722449
0.722449
0.722449
0.723226
0.723226
0.723226
0.723542
0.723542
0.723542
0.723032
0.723032
0.723032
0.723323
0.723323
0.723323
0.723599
0.723599
0.723599
0.723494
0.723494
0.723494
0.72374
0.72374
0.72374
0.71455
0.71455
0.71455
0.723334
0.723334
0.723334
0.722567
0.722567
0.722567
0.722787
0.722787
0.722787
0.723168
0.723168
0.723168
0.723841
0.723841
0.723841
0.723806
0.723806
0.723806
0.709436
0.709436
0.709436
0.688407
0.688407
0.688407
0.691994
0.691994
0.691994
0.693689
0.693689
0.693689
0.686509
0.686509
0.686509
0.716555
0.716555
0.716555
0.717753
0.717753
0.717753
0.712107
0.712107
0.712107
0.715899
0.715899
0.715899
0.71449
0.71449
0.71449
0.714477
0.714477
0.714477
0.713722
0.713722
0.713722
0.717148
0.717148
0.717148
0.715886
0.715886
0.715886
0.716543
0.716543
0.716543
0.718296
0.718296
0.718296
0.719304
0.719304
0.719304
0.718284
0.718284
0.718284
0.71774
0.71774
0.71774
0.720172
0.720172
0.720172
0.71929
0.71929
0.71929
0.719754
0.719754
0.719754
0.721616
0.721616
0.721616
0.721918
0.721918
0.721918
0.720949
0.720949
0.720949
0.720582
0.720582
0.720582
0.693806
0.693806
0.693806
0.692119
0.692119
0.692119
0.688528
0.688528
0.688528
0.69211
0.69211
0.69211
0.696979
0.696979
0.696979
0.70262
0.70262
0.70262
0.696988
0.696988
0.696988
0.701294
0.701294
0.701294
0.69848
0.69848
0.69848
0.686645
0.686645
0.686645
0.686653
0.686653
0.686653
0.688554
0.688554
0.688554
0.705163
0.705163
0.705163
0.709514
0.709514
0.709514
0.706329
0.706329
0.706329
0.708503
0.708503
0.708503
0.692082
0.692082
0.692082
0.706148
0.706148
0.706148
0.70833
0.70833
0.70833
0.71212
0.71212
0.71212
0.709338
0.709338
0.709338
0.711231
0.711231
0.711231
0.70617
0.70617
0.70617
0.686539
0.686539
0.686539
0.688437
0.688437
0.688437
0.682493
0.682493
0.682493
0.686529
0.686529
0.686529
0.682511
0.682511
0.682511
0.673445
0.673445
0.673445
0.675847
0.675847
0.675847
0.680376
0.680376
0.680376
0.705016
0.705016
0.705016
0.688446
0.688446
0.688446
0.686548
0.686548
0.686548
0.688456
0.688456
0.688456
0.692045
0.692045
0.692045
0.701275
0.701275
0.701275
0.698472
0.698472
0.698472
0.693739
0.693739
0.693739
0.698443
0.698443
0.698443
0.696951
0.696951
0.696951
0.698453
0.698453
0.698453
0.665678
0.665678
0.665678
0.665686
0.665686
0.665686
0.668363
0.668363
0.668363
0.660002
0.660002
0.660002
0.675811
0.675811
0.675811
0.680331
0.680331
0.680331
0.682474
0.682474
0.682474
0.68034
0.68034
0.68034
0.662864
0.662864
0.662864
0.662037
0.662037
0.662037
0.66205
0.66205
0.66205
0.66203
0.66203
0.66203
0.662013
0.662013
0.662013
0.662047
0.662047
0.662047
0.661972
0.661972
0.661972
0.661988
0.661988
0.661988
0.661992
0.661992
0.661992
0.662025
0.662025
0.662025
0.661986
0.661986
0.661986
0.66214
0.66214
0.66214
0.662101
0.662101
0.662101
0.722509
0.722509
0.722509
0.722511
0.722511
0.722511
0.72229
0.72229
0.72229
0.721537
0.721537
0.721537
0.721558
0.721558
0.721558
0.721567
0.721567
0.721567
0.721817
0.721817
0.721817
0.722501
0.722501
0.722501
0.722275
0.722275
0.722275
0.722981
0.722981
0.722981
0.723311
0.723311
0.723311
0.721716
0.721716
0.721716
0.721454
0.721454
0.721454
0.721705
0.721705
0.721705
0.721753
0.721753
0.721753
0.721741
0.721741
0.721741
0.72149
0.72149
0.72149
0.723639
0.723639
0.723639
0.723629
0.723629
0.723629
0.723474
0.723474
0.723474
0.724217
0.724217
0.724217
0.724215
0.724215
0.724215
0.724219
0.724219
0.724219
0.720931
0.720931
0.720931
0.716187
0.716187
0.716187
0.716844
0.716844
0.716844
0.718046
0.718046
0.718046
0.718593
0.718593
0.718593
0.718037
0.718037
0.718037
0.716835
0.716835
0.716835
0.718612
0.718612
0.718612
0.716205
0.716205
0.716205
0.718056
0.718056
0.718056
0.716853
0.716853
0.716853
0.719632
0.719632
0.719632
0.720097
0.720097
0.720097
0.719623
0.719623
0.719623
0.721292
0.721292
0.721292
0.720922
0.720922
0.720922
0.720087
0.720087
0.720087
0.720078
0.720078
0.720078
0.720911
0.720911
0.720911
0.716221
0.716221
0.716221
0.714824
0.714824
0.714824
0.714816
0.714816
0.714816
0.714056
0.714056
0.714056
0.723019
0.723019
0.723019
0.72386
0.72386
0.72386
0.722837
0.722837
0.722837
0.72361
0.72361
0.72361
0.72362
0.72362
0.72362
0.723463
0.723463
0.723463
0.723455
0.723455
0.723455
0.723068
0.723068
0.723068
0.723076
0.723076
0.723076
0.722845
0.722845
0.722845
0.722047
0.722047
0.722047
0.722341
0.722341
0.722341
0.721221
0.721221
0.721221
0.720842
0.720842
0.720842
0.72003
0.72003
0.72003
0.720852
0.720852
0.720852
0.722727
0.722727
0.722727
0.722948
0.722948
0.722948
0.721191
0.721191
0.721191
0.722131
0.722131
0.722131
0.723827
0.723827
0.723827
0.720009
0.720009
0.720009
0.719545
0.719545
0.719545
0.722175
0.722175
0.722175
0.721872
0.721872
0.721872
0.721882
0.721882
0.721882
0.721213
0.721213
0.721213
0.682765
0.682765
0.682765
0.688708
0.688708
0.688708
0.686806
0.686806
0.686806
0.686799
0.686799
0.686799
0.673703
0.673703
0.673703
0.676099
0.676099
0.676099
0.702776
0.702776
0.702776
0.71149
0.71149
0.71149
0.714782
0.714782
0.714782
0.714774
0.714774
0.714774
0.714015
0.714015
0.714015
0.712369
0.712369
0.712369
0.714006
0.714006
0.714006
0.693976
0.693976
0.693976
0.692287
0.692287
0.692287
0.688701
0.688701
0.688701
0.707594
0.707594
0.707594
0.709672
0.709672
0.709672
0.716257
0.716257
0.716257
0.711556
0.711556
0.711556
0.711532
0.711532
0.711532
0.711524
0.711524
0.711524
0.712412
0.712412
0.712412
0.719585
0.719585
0.719585
0.72004
0.72004
0.72004
0.720872
0.720872
0.720872
0.722739
0.722739
0.722739
0.722217
0.722217
0.722217
0.680554
0.680554
0.680554
0.693938
0.693938
0.693938
0.692242
0.692242
0.692242
0.705248
0.705248
0.705248
0.709602
0.709602
0.709602
0.70276
0.70276
0.70276
0.697124
0.697124
0.697124
0.701433
0.701433
0.701433
0.698618
0.698618
0.698618
0.709594
0.709594
0.709594
0.708581
0.708581
0.708581
0.706406
0.706406
0.706406
0.70524
0.70524
0.70524
0.706398
0.706398
0.706398
0.708573
0.708573
0.708573
0.702744
0.702744
0.702744
0.701426
0.701426
0.701426
0.69861
0.69861
0.69861
0.718029
0.718029
0.718029
0.718576
0.718576
0.718576
0.716816
0.716816
0.716816
0.718018
0.718018
0.718018
0.712353
0.712353
0.712353
0.711465
0.711465
0.711465
0.713987
0.713987
0.713987
0.712344
0.712344
0.712344
0.717555
0.717555
0.717555
0.712453
0.712453
0.712453
0.71409
0.71409
0.71409
0.712445
0.712445
0.712445
0.711564
0.711564
0.711564
0.716273
0.716273
0.716273
0.71693
0.71693
0.71693
0.71628
0.71628
0.71628
0.714857
0.714857
0.714857
0.714864
0.714864
0.714864
0.714098
0.714098
0.714098
0.686661
0.686661
0.686661
0.682621
0.682621
0.682621
0.680485
0.680485
0.680485
0.668515
0.668515
0.668515
0.705215
0.705215
0.705215
0.706373
0.706373
0.706373
0.705207
0.705207
0.705207
0.714718
0.714718
0.714718
0.71396
0.71396
0.71396
0.716141
0.716141
0.716141
0.714727
0.714727
0.714727
0.714708
0.714708
0.714708
0.713942
0.713942
0.713942
0.70271
0.70271
0.70271
0.701384
0.701384
0.701384
0.705198
0.705198
0.705198
0.709551
0.709551
0.709551
0.708539
0.708539
0.708539
0.706364
0.706364
0.706364
0.701402
0.701402
0.701402
0.698585
0.698585
0.698585
0.697092
0.697092
0.697092
0.702727
0.702727
0.702727
0.675996
0.675996
0.675996
0.680531
0.680531
0.680531
0.692203
0.692203
0.692203
0.698578
0.698578
0.698578
0.697084
0.697084
0.697084
0.693898
0.693898
0.693898
0.706337
0.706337
0.706337
0.705181
0.705181
0.705181
0.702702
0.702702
0.702702
0.701376
0.701376
0.701376
0.705172
0.705172
0.705172
0.702693
0.702693
0.702693
0.692186
0.692186
0.692186
0.698569
0.698569
0.698569
0.697075
0.697075
0.697075
0.69389
0.69389
0.69389
0.692195
0.692195
0.692195
0.697068
0.697068
0.697068
0.693882
0.693882
0.693882
0.680561
0.680561
0.680561
0.682699
0.682699
0.682699
0.68674
0.68674
0.68674
0.688649
0.688649
0.688649
0.702767
0.702767
0.702767
0.70145
0.70145
0.70145
0.698634
0.698634
0.698634
0.697132
0.697132
0.697132
0.698626
0.698626
0.698626
0.701442
0.701442
0.701442
0.723911
0.723911
0.723911
0.723749
0.723749
0.723749
0.723651
0.723651
0.723651
0.723975
0.723975
0.723975
0.723922
0.723922
0.723922
0.723762
0.723762
0.723762
0.722336
0.722336
0.722336
0.722092
0.722092
0.722092
0.722908
0.722908
0.722908
0.722715
0.722715
0.722715
0.722308
0.722308
0.722308
0.722321
0.722321
0.722321
0.72273
0.72273
0.72273
0.721431
0.721431
0.721431
0.72168
0.72168
0.72168
0.721417
0.721417
0.721417
0.722956
0.722956
0.722956
0.722145
0.722145
0.722145
0.722157
0.722157
0.722157
0.722373
0.722373
0.722373
0.722777
0.722777
0.722777
0.722968
0.722968
0.722968
0.722383
0.722383
0.722383
0.72279
0.72279
0.72279
0.662314
0.662314
0.662314
0.662274
0.662274
0.662274
0.662262
0.662262
0.662262
0.660929
0.660929
0.660929
0.660673
0.660673
0.660673
0.661039
0.661039
0.661039
0.661269
0.661269
0.661269
0.661046
0.661046
0.661046
0.660922
0.660922
0.660922
0.660232
0.660232
0.660232
0.660915
0.660915
0.660915
0.660659
0.660659
0.660659
0.660519
0.660519
0.660519
0.660267
0.660267
0.660267
0.660119
0.660119
0.660119
0.659804
0.659804
0.659804
0.662552
0.662552
0.662552
0.662557
0.662557
0.662557
0.662512
0.662512
0.662512
0.662501
0.662501
0.662501
0.662408
0.662408
0.662408
0.66242
0.66242
0.66242
0.662374
0.662374
0.662374
0.660554
0.660554
0.660554
0.661375
0.661375
0.661375
0.721909
0.721909
0.721909
0.72214
0.72214
0.72214
0.72255
0.72255
0.72255
0.722698
0.722698
0.722698
0.722169
0.722169
0.722169
0.721212
0.721212
0.721212
0.721461
0.721461
0.721461
0.721939
0.721939
0.721939
0.721476
0.721476
0.721476
0.721953
0.721953
0.721953
0.706293
0.706293
0.706293
0.705136
0.705136
0.705136
0.702648
0.702648
0.702648
0.705128
0.705128
0.705128
0.701313
0.701313
0.701313
0.70263
0.70263
0.70263
0.701304
0.701304
0.701304
0.69849
0.69849
0.69849
0.692128
0.692128
0.692128
0.693823
0.693823
0.693823
0.697007
0.697007
0.697007
0.698499
0.698499
0.698499
0.693814
0.693814
0.693814
0.696997
0.696997
0.696997
0.705154
0.705154
0.705154
0.708494
0.708494
0.708494
0.70632
0.70632
0.70632
0.709504
0.709504
0.709504
0.702667
0.702667
0.702667
0.697033
0.697033
0.697033
0.698535
0.698535
0.698535
0.70135
0.70135
0.70135
0.705145
0.705145
0.705145
0.706311
0.706311
0.706311
0.708484
0.708484
0.708484
0.706301
0.706301
0.706301
0.708465
0.708465
0.708465
0.712258
0.712258
0.712258
0.713912
0.713912
0.713912
0.714679
0.714679
0.714679
0.722859
0.722859
0.722859
0.723243
0.723243
0.723243
0.722836
0.722836
0.722836
0.723218
0.723218
0.723218
0.723371
0.723371
0.723371
0.723628
0.723628
0.723628
0.723732
0.723732
0.723732
0.716092
0.716092
0.716092
0.718494
0.718494
0.718494
0.717948
0.717948
0.717948
0.716749
0.716749
0.716749
0.719505
0.719505
0.719505
0.722119
0.722119
0.722119
0.721817
0.721817
0.721817
0.721146
0.721146
0.721146
0.721828
0.721828
0.721828
0.72401
0.72401
0.72401
0.72394
0.72394
0.72394
0.723875
0.723875
0.723875
0.723927
0.723927
0.723927
0.723365
0.723365
0.723365
0.723614
0.723614
0.723614
0.723213
0.723213
0.723213
0.723711
0.723711
0.723711
0.723352
0.723352
0.723352
0.723601
0.723601
0.723601
0.723997
0.723997
0.723997
0.724013
0.724013
0.724013
0.723664
0.723664
0.723664
0.723756
0.723756
0.723756
0.723908
0.723908
0.723908
0.723769
0.723769
0.723769
0.723907
0.723907
0.723907
0.723872
0.723872
0.723872
0.72392
0.72392
0.72392
0.723949
0.723949
0.723949
0.72385
0.72385
0.72385
0.723919
0.723919
0.723919
0.723937
0.723937
0.723937
0.723797
0.723797
0.723797
0.723863
0.723863
0.723863
0.723933
0.723933
0.723933
0.72388
0.72388
0.72388
0.723819
0.723819
0.723819
0.723867
0.723867
0.723867
0.723897
0.723897
0.723897
0.723853
0.723853
0.723853
0.723884
0.723884
0.723884
0.723593
0.723593
0.723593
0.723757
0.723757
0.723757
0.722799
0.722799
0.722799
0.723146
0.723146
0.723146
0.721996
0.721996
0.721996
0.722815
0.722815
0.722815
0.722226
0.722226
0.722226
0.722636
0.722636
0.722636
0.722213
0.722213
0.722213
0.722622
0.722622
0.722622
0.723899
0.723899
0.723899
0.724037
0.724037
0.724037
0.723952
0.723952
0.723952
0.724021
0.724021
0.724021
0.723962
0.723962
0.723962
0.724033
0.724033
0.724033
0.723986
0.723986
0.723986
0.724061
0.724061
0.724061
0.724028
0.724028
0.724028
0.724056
0.724056
0.724056
0.72407
0.72407
0.72407
0.723838
0.723838
0.723838
0.723734
0.723734
0.723734
0.723476
0.723476
0.723476
0.723322
0.723322
0.723322
0.723333
0.723333
0.723333
0.723487
0.723487
0.723487
0.723745
0.723745
0.723745
0.723498