<VTKFile type="UnstructuredGrid" version="1.0">
<UnstructuredGrid>
<Piece NumberOfPoints="11046" NumberOfCells="3682">
<Points>
<DataArray type="Float64" NumberOfComponents="3" format="ascii">
3.01 0.0582363 16.8118
3.01 0.0717021 16.7925
3.01 0.05 16.7925
3.01 0.95 17.2212
3.01 0.942301 17.2407
3.01 0.95 17.2602
3.01 0.0962623 17.6925
3.01 0.107711 17.6723
3.01 0.086422 17.6722
3.01 0.466226 17.4361
3.01 0.443707 17.4361
3.01 0.454968 17.4557
3.01 0.353567 17.3578
3.01 0.376113 17.3578
3.01 0.364839 17.3383
3.01 0.376113 17.3578
3.01 0.353567 17.3578
3.01 0.364843 17.3774
3.01 0.353567 17.3578
3.01 0.342292 17.3774
3.01 0.364843 17.3774
3.01 0.37611 17.3188
3.01 0.387379 17.2992
3.01 0.364837 17.2992
3.01 0.376113 17.3578
3.01 0.387381 17.3383
3.01 0.364839 17.3383
3.01 0.364839 17.3383
3.01 0.387381 17.3383
3.01 0.37611 17.3188
3.01 0.066417 17.6745
3.01 0.05 17.6687
3.01 0.05 17.6925
3.01 0.0582363 16.8118
3.01 0.0817675 16.812
3.01 0.0717021 16.7925
3.01 0.0817675 16.812
3.01 0.0582363 16.8118
3.01 0.0711754 16.8314
3.01 0.11641 16.7925
3.01 0.127475 16.812
3.01 0.138968 16.7925
3.01 0.127475 16.812
3.01 0.11641 16.7925
3.01 0.104722 16.812
3.01 0.0711754 16.8314
3.01 0.0934889 16.8315
3.01 0.0817675 16.812
3.01 0.0934889 16.8315
3.01 0.104722 16.812
3.01 0.0817675 16.812
3.01 0.116091 16.8315
3.01 0.127475 16.812
3.01 0.104722 16.812
3.01 0.116091 16.8315
3.01 0.104722 16.812
3.01 0.0934889 16.8315
3.01 0.116091 16.8315
3.01 0.104394 16.851
3.01 0.127244 16.851
3.01 0.104394 16.851
3.01 0.116091 16.8315
3.01 0.0934889 16.8315
3.01 0.941764 16.8118
3.01 0.95 16.7925
3.01 0.928298 16.7925
3.01 0.387379 17.2992
3.01 0.376108 17.2797
3.01 0.364837 17.2992
3.01 0.161282 17.2212
3.01 0.149908 17.2017
3.01 0.138583 17.2212
3.01 0.0933091 17.2992
3.01 0.104333 17.2797
3.01 0.0813038 17.2797
3.01 0.104333 17.2797
3.01 0.0933065 17.2602
3.01 0.0813038 17.2797
3.01 0.331016 17.3969
3.01 0.308447 17.3969
3.01 0.319739 17.4165
3.01 0.308447 17.3969
3.01 0.331016 17.3969
3.01 0.319729 17.3774
3.01 0.331016 17.3969
3.01 0.342292 17.3774
3.01 0.319729 17.3774
3.01 0.138613 17.4164
3.01 0.149933 17.3969
3.01 0.12718 17.3969
3.01 0.138613 17.4164
3.01 0.161316 17.4164
3.01 0.149933 17.3969
3.01 0.161316 17.4164
3.01 0.172648 17.3969
3.01 0.149933 17.3969
3.01 0.206681 17.4164
3.01 0.217999 17.3969
3.01 0.195336 17.3969
3.01 0.263262 17.3969
3.01 0.274572 17.4165
3.01 0.285863 17.3969
3.01 0.274559 17.3773
3.01 0.263262 17.3969
3.01 0.285863 17.3969
3.01 0.240697 16.812
3.01 0.252012 16.7925
3.01 0.229409 16.7925
3.01 0.138758 16.8315
3.01 0.127475 16.812
3.01 0.116091 16.8315
3.01 0.127244 16.851
3.01 0.138758 16.8315
3.01 0.116091 16.8315
3.01 0.229332 16.8705
3.01 0.218031 16.851
3.01 0.206685 16.8705
3.01 0.184016 16.8705
3.01 0.172705 16.851
3.01 0.161325 16.8705
3.01 0.184093 16.8315
3.01 0.161431 16.8315
3.01 0.172705 16.851
3.01 0.218082 16.812
3.01 0.240697 16.812
3.01 0.229409 16.7925
3.01 0.218082 16.812
3.01 0.229409 16.7925
3.01 0.206798 16.7925
3.01 0.138617 16.8705
3.01 0.149916 16.89
3.01 0.161325 16.8705
3.01 0.376107 17.2017
3.01 0.364834 17.1822
3.01 0.353559 17.2017
3.01 0.942264 17.436
3.01 0.95 17.4556
3.01 0.95 17.4164
3.01 0.466226 17.4361
3.01 0.454966 17.4165
3.01 0.443707 17.4361
3.01 0.466223 17.3578
3.01 0.488741 17.3578
3.01 0.477482 17.3383
3.01 0.466223 17.3578
3.01 0.443703 17.3578
3.01 0.454964 17.3774
3.01 0.511259 17.3578
3.01 0.533777 17.3578
3.01 0.522518 17.3383
3.01 0.533777 17.3578
3.01 0.511259 17.3578
3.01 0.522517 17.3774
3.01 0.488741 17.3578
3.01 0.5 17.3383
3.01 0.477482 17.3383
3.01 0.511259 17.3578
3.01 0.5 17.3383
3.01 0.488741 17.3578
3.01 0.5 17.3383
3.01 0.511259 17.3578
3.01 0.522518 17.3383
3.01 0.387388 17.4165
3.01 0.40992 17.4165
3.01 0.398653 17.3969
3.01 0.376117 17.3969
3.01 0.387388 17.4165
3.01 0.398653 17.3969
3.01 0.443703 17.3578
3.01 0.432443 17.3774
3.01 0.454964 17.3774
3.01 0.432443 17.3774
3.01 0.443705 17.3969
3.01 0.454964 17.3774
3.01 0.274559 17.3773
3.01 0.285853 17.3578
3.01 0.26325 17.3578
3.01 0.387384 17.3774
3.01 0.376117 17.3969
3.01 0.398653 17.3969
3.01 0.376117 17.3969
3.01 0.387384 17.3774
3.01 0.364843 17.3774
3.01 0.387384 17.3774
3.01 0.376113 17.3578
3.01 0.364843 17.3774
3.01 0.342292 17.3774
3.01 0.331009 17.3578
3.01 0.319729 17.3774
3.01 0.331009 17.3578
3.01 0.342292 17.3774
3.01 0.353567 17.3578
3.01 0.545011 17.6925
3.01 0.533759 17.6727
3.01 0.522505 17.6925
3.01 0.533762 17.6331
3.01 0.55627 17.6331
3.01 0.545018 17.6133
3.01 0.55627 17.6331
3.01 0.567528 17.6133
3.01 0.545018 17.6133
3.01 0.567528 17.6133
3.01 0.59004 17.6133
3.01 0.578788 17.5936
3.01 0.466232 17.5541
3.01 0.477488 17.5344
3.01 0.454974 17.5344
3.01 0.567516 17.6925
3.01 0.590022 17.6925
3.01 0.578772 17.6727
3.01 0.601316 17.5541
3.01 0.590051 17.5738
3.01 0.61257 17.5738
3.01 0.62384 17.5541
3.01 0.601316 17.5541
3.01 0.61257 17.5738
3.01 0.680198 17.5343
3.01 0.702757 17.5343
3.01 0.691494 17.5146
3.01 0.086422 17.6722
3.01 0.073896 17.6925
3.01 0.0962623 17.6925
3.01 0.073896 17.6925
3.01 0.086422 17.6722
3.01 0.066417 17.6745
3.01 0.05 17.6925
3.01 0.073896 17.6925
3.01 0.066417 17.6745
3.01 0.0721919 17.6529
3.01 0.05 17.6687
3.01 0.066417 17.6745
3.01 0.086422 17.6722
3.01 0.0721919 17.6529
3.01 0.066417 17.6745
3.01 0.118481 17.6925
3.01 0.107711 17.6723
3.01 0.0962623 17.6925
3.01 0.5 17.6925
3.01 0.488747 17.6727
3.01 0.477495 17.6925
3.01 0.432484 17.6925
3.01 0.421228 17.6727
3.01 0.409978 17.6925
3.01 0.443725 17.5936
3.01 0.432465 17.5738
3.01 0.421212 17.5936
3.01 0.319802 17.5343
3.01 0.342348 17.5343
3.01 0.331063 17.5146
3.01 0.353629 17.554
3.01 0.364886 17.5343
3.01 0.342348 17.5343
3.01 0.10433 17.2407
3.01 0.0813011 17.2407
3.01 0.0933065 17.2602
3.01 0.0939466 16.7925
3.01 0.104722 16.812
3.01 0.11641 16.7925
3.01 0.0939466 16.7925
3.01 0.0717021 16.7925
3.01 0.0817675 16.812
3.01 0.104722 16.812
3.01 0.0939466 16.7925
3.01 0.0817675 16.812
3.01 0.0933065 17.2602
3.01 0.0710513 17.2602
3.01 0.0813038 17.2797
3.01 0.0710513 17.2602
3.01 0.0933065 17.2602
3.01 0.0813011 17.2407
3.01 0.115908 17.3382
3.01 0.104337 17.3187
3.01 0.0933131 17.3382
3.01 0.104337 17.3187
3.01 0.115908 17.3382
3.01 0.127165 17.3187
3.01 0.104343 17.3578
3.01 0.115908 17.3382
3.01 0.0933131 17.3382
3.01 0.104343 17.3578
3.01 0.0933188 17.3773
3.01 0.115915 17.3773
3.01 0.942303 17.2017
3.01 0.95 17.2212
3.01 0.95 17.1822
3.01 0.92895 17.1822
3.01 0.942303 17.2017
3.01 0.95 17.1822
3.01 0.9187 17.2017
3.01 0.895671 17.2017
3.01 0.906695 17.2212
3.01 0.92895 17.1822
3.01 0.9187 17.2017
3.01 0.942303 17.2017
3.01 0.942316 16.9679
3.01 0.95 16.9484
3.01 0.928965 16.9484
3.01 0.95 17.0263
3.01 0.95 16.9873
3.01 0.942309 17.0068
3.01 0.942316 16.9679
3.01 0.95 16.9873
3.01 0.95 16.9484
3.01 0.95 16.8311
3.01 0.95 16.7925
3.01 0.941764 16.8118
3.01 0.95 16.8311
3.01 0.942358 16.8507
3.01 0.95 16.8703
3.01 0.612617 16.8704
3.01 0.623887 16.8899
3.01 0.635157 16.8704
3.01 0.895671 17.2017
3.01 0.906696 17.1822
3.01 0.884102 17.1822
3.01 0.906696 17.1822
3.01 0.895671 17.2017
3.01 0.9187 17.2017
3.01 0.92895 17.1822
3.01 0.906696 17.1822
3.01 0.9187 17.2017
3.01 0.353563 17.3188
3.01 0.364839 17.3383
3.01 0.37611 17.3188
3.01 0.364837 17.2992
3.01 0.353563 17.3188
3.01 0.37611 17.3188
3.01 0.297145 17.3383
3.01 0.308439 17.3578
3.01 0.319723 17.3383
3.01 0.308439 17.3578
3.01 0.297145 17.3383
3.01 0.285853 17.3578
3.01 0.308439 17.3578
3.01 0.319729 17.3774
3.01 0.331009 17.3578
3.01 0.319723 17.3383
3.01 0.308439 17.3578
3.01 0.331009 17.3578
3.01 0.17262 17.2017
3.01 0.149908 17.2017
3.01 0.161282 17.2212
3.01 0.138583 17.2212
3.01 0.149909 17.2407
3.01 0.161282 17.2212
3.01 0.149909 17.2407
3.01 0.138583 17.2212
3.01 0.127158 17.2407
3.01 0.149909 17.2407
3.01 0.161284 17.2602
3.01 0.172622 17.2407
3.01 0.161282 17.2212
3.01 0.149909 17.2407
3.01 0.172622 17.2407
3.01 0.240621 17.3187
3.01 0.229301 17.2992
3.01 0.217979 17.3187
3.01 0.229301 17.2992
3.01 0.206649 17.2992
3.01 0.217979 17.3187
3.01 0.195316 17.3187
3.01 0.217979 17.3187
3.01 0.206649 17.2992
3.01 0.115908 17.3382
3.01 0.138594 17.3382
3.01 0.127165 17.3187
3.01 0.0933091 17.2992
3.01 0.115904 17.2992
3.01 0.104333 17.2797
3.01 0.115904 17.2992
3.01 0.127161 17.2797
3.01 0.104333 17.2797
3.01 0.115904 17.2992
3.01 0.0933091 17.2992
3.01 0.104337 17.3187
3.01 0.127165 17.3187
3.01 0.115904 17.2992
3.01 0.104337 17.3187
3.01 0.115901 17.2602
3.01 0.0933065 17.2602
3.01 0.104333 17.2797
3.01 0.127161 17.2797
3.01 0.115901 17.2602
3.01 0.104333 17.2797
3.01 0.115901 17.2602
3.01 0.10433 17.2407
3.01 0.0933065 17.2602
3.01 0.10433 17.2407
3.01 0.115901 17.2602
3.01 0.127158 17.2407
3.01 0.183972 17.2212
3.01 0.195307 17.2017
3.01 0.17262 17.2017
3.01 0.161282 17.2212
3.01 0.183972 17.2212
3.01 0.17262 17.2017
3.01 0.183972 17.2212
3.01 0.161282 17.2212
3.01 0.172622 17.2407
3.01 0.263244 17.3187
3.01 0.251933 17.2992
3.01 0.240621 17.3187
3.01 0.229301 17.2992
3.01 0.251933 17.2992
3.01 0.240617 17.2797
3.01 0.251933 17.2992
3.01 0.229301 17.2992
3.01 0.240621 17.3187
3.01 0.274543 17.2602
3.01 0.285842 17.2407
3.01 0.263237 17.2407
3.01 0.285842 17.2407
3.01 0.274541 17.2212
3.01 0.263237 17.2407
3.01 0.319739 17.4165
3.01 0.3423 17.4165
3.01 0.331016 17.3969
3.01 0.297163 17.4165
3.01 0.274572 17.4165
3.01 0.285878 17.4361
3.01 0.308447 17.3969
3.01 0.297163 17.4165
3.01 0.319739 17.4165
3.01 0.297163 17.4165
3.01 0.308447 17.3969
3.01 0.285863 17.3969
3.01 0.274572 17.4165
3.01 0.297163 17.4165
3.01 0.285863 17.3969
3.01 0.183992 17.3773
3.01 0.172648 17.3969
3.01 0.195336 17.3969
3.01 0.183992 17.3773
3.01 0.195323 17.3578
3.01 0.172636 17.3578
3.01 0.184008 17.4164
3.01 0.172648 17.3969
3.01 0.161316 17.4164
3.01 0.172648 17.3969
3.01 0.184008 17.4164
3.01 0.195336 17.3969
3.01 0.184008 17.4164
3.01 0.195356 17.436
3.01 0.206681 17.4164
3.01 0.195336 17.3969
3.01 0.184008 17.4164
3.01 0.206681 17.4164
3.01 0.308434 17.3187
3.01 0.297145 17.3383
3.01 0.319723 17.3383
3.01 0.297145 17.3383
[...]
<PointData Scalars="View Factor" >
<DataArray type="Float64" Name="View Factor" NumberOfComponents="1" format="ascii">
0.83564
0.83564
0.83564
0.741967
0.741967
0.741967
0.772392
0.772392
0.772392
0.784695
0.784695
0.784695
0.797399
0.797399
0.797399
0.796385
0.796385
0.796385
0.79643
0.79643
0.79643
0.800206
0.800206
0.800206
0.797317
0.797317
0.797317
0.798299
0.798299
0.798299
0.772834
0.772834
0.772834
0.835316
0.835316
0.835316
0.834855
0.834855
0.834855
0.834761
0.834761
0.834761
0.834724
0.834724
0.834724
0.834493
0.834493
0.834493
0.834592
0.834592
0.834592
0.834261
0.834261
0.834261
0.8342
0.8342
0.8342
0.833312
0.833312
0.833312
0.833725
0.833725
0.833725
0.762545
0.762545
0.762545
0.801132
0.801132
0.801132
0.814519
0.814519
0.814519
0.810644
0.810644
0.810644
0.811556
0.811556
0.811556
0.79533
0.79533
0.79533
0.796412
0.796412
0.796412
0.796443
0.796443
0.796443
0.800871
0.800871
0.800871
0.800102
0.800102
0.800102
0.800424
0.800424
0.800424
0.799323
0.799323
0.799323
0.797144
0.797144
0.797144
0.798229
0.798229
0.798229
0.831848
0.831848
0.831848
0.833835
0.833835
0.833835
0.833361
0.833361
0.833361
0.830208
0.830208
0.830208
0.831442
0.831442
0.831442
0.832417
0.832417
0.832417
0.831995
0.831995
0.831995
0.832579
0.832579
0.832579
0.831448
0.831448
0.831448
0.808109
0.808109
0.808109
0.728567
0.728567
0.728567
0.785833
0.785833
0.785833
0.790671
0.790671
0.790671
0.791179
0.791179
0.791179
0.787378
0.787378
0.787378
0.786381
0.786381
0.786381
0.790375
0.790375
0.790375
0.78907
0.78907
0.78907
0.788727
0.788727
0.788727
0.79088
0.79088
0.79088
0.792042
0.792042
0.792042
0.791391
0.791391
0.791391
0.790354
0.790354
0.790354
0.800334
0.800334
0.800334
0.793118
0.793118
0.793118
0.794246
0.794246
0.794246
0.795291
0.795291
0.795291
0.797492
0.797492
0.797492
0.797486
0.797486
0.797486
0.753306
0.753306
0.753306
0.759669
0.759669
0.759669
0.75954
0.75954
0.75954
0.759182
0.759182
0.759182
0.774634
0.774634
0.774634
0.749749
0.749749
0.749749
0.761504
0.761504
0.761504
0.76117
0.76117
0.76117
0.756577
0.756577
0.756577
0.77164
0.77164
0.77164
0.772523
0.772523
0.772523
0.77174
0.77174
0.77174
0.774479
0.774479
0.774479
0.77423
0.77423
0.77423
0.771371
0.771371
0.771371
0.756505
0.756505
0.756505
0.760674
0.760674
0.760674
0.771844
0.771844
0.771844
0.783354
0.783354
0.783354
0.780972
0.780972
0.780972
0.813326
0.813326
0.813326
0.835124
0.835124
0.835124
0.835417
0.835417
0.835417
0.835054
0.835054
0.835054
0.812133
0.812133
0.812133
0.813019
0.813019
0.813019
0.807155
0.807155
0.807155
0.807483
0.807483
0.807483
0.806158
0.806158
0.806158
0.804102
0.804102
0.804102
0.744199
0.744199
0.744199
0.746181
0.746181
0.746181
0.750911
0.750911
0.750911
0.747678
0.747678
0.747678
0.757008
0.757008
0.757008
0.753625
0.753625
0.753625
0.755213
0.755213
0.755213
0.760804
0.760804
0.760804
0.759492
0.759492
0.759492
0.803972
0.803972
0.803972
0.753934
0.753934
0.753934
0.751642
0.751642
0.751642
0.750105
0.750105
0.750105
0.799366
0.799366
0.799366
0.800321
0.800321
0.800321
0.800514
0.800514
0.800514
0.800479
0.800479
0.800479
0.79851
0.79851
0.79851
0.799528
0.799528
0.799528
0.814692
0.814692
0.814692
0.813685
0.813685
0.813685
0.813482
0.813482
0.813482
0.812168
0.812168
0.812168
0.813026
0.813026
0.813026
0.805838
0.805838
0.805838
0.806653
0.806653
0.806653
0.806501
0.806501
0.806501
0.806808
0.806808
0.806808
0.81003
0.81003
0.81003
0.810328
0.810328
0.810328
0.809091
0.809091
0.809091
0.80845
0.80845
0.80845
0.811854
0.811854
0.811854
0.81124
0.81124
0.81124
0.812739
0.812739
0.812739
0.813009
0.813009
0.813009
0.814164
0.814164
0.814164
0.814027
0.814027
0.814027
0.813194
0.813194
0.813194
0.805104
0.805104
0.805104
0.806888
0.806888
0.806888
0.805954
0.805954
0.805954
0.808824
0.808824
0.808824
0.809677
0.809677
0.809677
0.794281
0.794281
0.794281
0.795049
0.795049
0.795049
0.795261
0.795261
0.795261
0.796274
0.796274
0.796274
0.796167
0.796167
0.796167
0.800999
0.800999
0.800999
0.803113
0.803113
0.803113
0.799622
0.799622
0.799622
0.799909
0.799909
0.799909
0.797948
0.797948
0.797948
0.799072
0.799072
0.799072
0.801502
0.801502
0.801502
0.802456
0.802456
0.802456
0.803416
0.803416
0.803416
0.80342
0.80342
0.80342
0.797427
0.797427
0.797427
0.797357
0.797357
0.797357
0.798477
0.798477
0.798477
0.799459
0.799459
0.799459
0.798336
0.798336
0.798336
0.799388
0.799388
0.799388
0.802158
0.802158
0.802158
0.804141
0.804141
0.804141
0.799028
0.799028
0.799028
0.801136
0.801136
0.801136
0.800226
0.800226
0.800226
0.799173
0.799173
0.799173
0.831043
0.831043
0.831043
0.831228
0.831228
0.831228
0.834325
0.834325
0.834325
0.8334
0.8334
0.8334
0.834324
0.834324
0.834324
0.833861
0.833861
0.833861
0.832925
0.832925
0.832925
0.832439
0.832439
0.832439
0.831952
0.831952
0.831952
0.831949
0.831949
0.831949
0.832424
0.832424
0.832424
0.832911
0.832911
0.832911
0.830767
0.830767
0.830767
0.830122
0.830122
0.830122
0.833816
0.833816
0.833816
0.832891
0.832891
0.832891
0.833389
0.833389
0.833389
0.833852
0.833852
0.833852
0.831836
0.831836
0.831836
0.831278
0.831278
0.831278
0.830791
0.830791
0.830791
0.830861
0.830861
0.830861
0.831408
0.831408
0.831408
0.831895
0.831895
0.831895
0.833234
0.833234
0.833234
0.83231
0.83231
0.83231
0.832226
0.832226
0.832226
0.832688
0.832688
0.832688
0.833307
0.833307
0.833307
0.832844
0.832844
0.832844
0.831534
0.831534
0.831534
0.830926
0.830926
0.830926
0.831182
0.831182
0.831182
0.831656
0.831656
0.831656
0.825111
0.825111
0.825111
0.824538
0.824538
0.824538
0.822968
0.822968
0.822968
0.823704
0.823704
0.823704
0.823252
0.823252
0.823252
0.82384
0.82384
0.82384
0.829708
0.829708
0.829708
0.830361
0.830361
0.830361
0.82979
0.82979
0.82979
0.829276
0.829276
0.829276
0.805621
0.805621
0.805621
0.809661
0.809661
0.809661
0.806906
0.806906
0.806906
0.806666
0.806666
0.806666
0.80744
0.80744
0.80744
0.808455
0.808455
0.808455
0.807911
0.807911
0.807911
0.808686
0.808686
0.808686
0.811167
0.811167
0.811167
0.810277
0.810277
0.810277
0.816166
0.816166
0.816166
0.813185
0.813185
0.813185
0.8291
0.8291
0.8291
0.829201
0.829201
0.829201
0.824533
0.824533
0.824533
0.824989
0.824989
0.824989
0.828465
0.828465
0.828465
0.828162
0.828162
0.828162
0.827388
0.827388
0.827388
0.719776
0.719776
0.719776
0.722148
0.722148
0.722148
0.723709
0.723709
0.723709
0.725893
0.725893
0.725893
0.722894
0.722894
0.722894
0.725209
0.725209
0.725209
0.727533
0.727533
0.727533
0.726779
0.726779
0.726779
0.726026
0.726026
0.726026
0.728153
0.728153
0.728153
0.720738
0.720738
0.720738
0.721961
0.721961
0.721961
0.724353
0.724353
0.724353
0.725538
0.725538
0.725538
0.78711
0.78711
0.78711
0.788214
0.788214
0.788214
0.804466
0.804466
0.804466
0.806108
0.806108
0.806108
0.803621
0.803621
0.803621
0.784997
0.784997
0.784997
0.78397
0.78397
0.78397
0.78255
0.78255
0.78255
0.789669
0.789669
0.789669
0.789925
0.789925
0.789925
0.788038
0.788038
0.788038
0.787601
0.787601
0.787601
0.789106
0.789106
0.789106
0.78889
0.78889
0.78889
0.785654
0.785654
0.785654
0.786755
0.786755
0.786755
0.786535
0.786535
0.786535
0.784832
0.784832
0.784832
0.787337
0.787337
0.787337
0.788561
0.788561
0.788561
0.789815
0.789815
0.789815
0.78863
0.78863
0.78863
0.789844
0.789844
0.789844
0.790526
0.790526
0.790526
0.790789
0.790789
0.790789
0.789588
0.789588
0.789588
0.789455
0.789455
0.789455
0.792604
0.792604
0.792604
0.79303
0.79303
0.79303
0.791863
0.791863
0.791863
0.791733
0.791733
0.791733
0.792773
0.792773
0.792773
0.777216
0.777216
0.777216
0.779558
0.779558
0.779558
0.751573
0.751573
0.751573
0.753287
0.753287
0.753287
0.751507
0.751507
0.751507
0.769831
0.769831
0.769831
0.771151
0.771151
0.771151
0.759857
0.759857
0.759857
0.759827
0.759827
0.759827
0.75787
0.75787
0.75787
0.757692
0.757692
0.757692
0.759443
0.759443
0.759443
0.757279
0.757279
0.757279
0.759055
0.759055
0.759055
0.758952
0.758952
0.758952
0.760111
0.760111
0.760111
0.760393
0.760393
0.760393
0.779285
0.779285
0.779285
0.766696
0.766696
0.766696
0.767878
0.767878
0.767878
0.758422
0.758422
0.758422
0.762517
0.762517
0.762517
0.731789
0.731789
0.731789
0.735348
0.735348
0.735348
0.733017
0.733017
0.733017
0.750173
0.750173
0.750173
0.750847
0.750847
0.750847
0.752789
0.752789
0.752789
0.746966
0.746966
0.746966
0.739163
0.739163
0.739163
0.767345
0.767345
0.767345
0.762018
0.762018
0.762018
0.778797
0.778797
0.778797
0.775659
0.775659
0.775659
0.777165
0.777165
0.777165
0.774125
0.774125
0.774125
0.775079
0.775079
0.775079
0.769676
0.769676
0.769676
0.772091
0.772091
0.772091
0.771043
0.771043
0.771043
0.775826
0.775826
0.775826
0.766067
0.766067
0.766067
0.76944
0.76944
0.76944
0.754949
0.754949
0.754949
0.756579
0.756579
0.756579
0.754977
0.754977
0.754977
0.758234
0.758234
0.758234
0.758255
0.758255
0.758255
0.756628
0.756628
0.756628
0.763818
0.763818
0.763818
0.761904
0.761904
0.761904
0.762147
0.762147
0.762147
0.764133
0.764133
0.764133
0.771888
0.771888
0.771888
0.774015
0.774015
0.774015
0.772706
0.772706
0.772706
0.766871
0.766871
0.766871
0.765249
0.765249
0.765249
0.769387
0.769387
0.769387
0.769833
0.769833
0.769833
0.768033
0.768033
0.768033
0.76826
0.76826
0.76826
0.770962
0.770962
0.770962
0.771181
0.771181
0.771181
0.784317
0.784317
0.784317
0.784508
0.784508
0.784508
0.779744
0.779744
0.779744
0.786184
0.786184
0.786184
0.783507
0.783507
0.783507
0.782317
0.782317
0.782317
0.784811
0.784811
0.784811
0.784922
0.784922
0.784922
0.79299
0.79299
0.79299
0.790339
0.790339
0.790339
0.798977
0.798977
0.798977
0.79862
0.79862
0.79862
0.789828
0.789828
0.789828
0.788472
0.788472
0.788472
0.790639
0.790639
0.790639
0.790091
0.790091
0.790091
0.787923
0.787923
0.787923
0.788731
0.788731
0.788731
0.814149
0.814149
0.814149
0.813228
0.813228
0.813228
0.813575
0.813575
0.813575
0.811491
0.811491
0.811491
0.812342
0.812342
0.812342
0.811803
0.811803
0.811803
0.80867
0.80867
0.80867
0.80764
0.80764
0.80764
0.805675
0.805675
0.805675
0.806642
0.806642
0.806642
0.746306
0.746306
0.746306
0.746884
0.746884
0.746884
0.748649
0.748649
0.748649
0.747899
0.747899
0.747899
0.744733
0.744733
0.744733
0.746952
0.746952
0.746952
0.743987
0.743987
0.743987
0.745457
0.745457
0.745457
0.755426
0.755426
0.755426
0.75964
0.75964
0.75964
0.757509
0.757509
0.757509
0.756715
0.756715
0.756715
0.768634
0.768634
0.768634
0.758636
0.758636
0.758636
0.761688
0.761688
0.761688
0.761225
0.761225
0.761225
0.769609
0.769609
0.769609
0.808956
0.808956
0.808956
0.811079
0.811079
0.811079
0.809811
0.809811
0.809811
0.809319
0.809319
0.809319
0.810801
0.810801
0.810801
0.810316
0.810316
0.810316
0.805813
0.805813
0.805813
0.804452
0.804452
0.804452
0.799372
0.799372
0.799372
0.807636
0.807636
0.807636
0.795168
0.795168
0.795168
0.799202
0.799202
0.799202
0.792498
0.792498
0.792498
0.793595
0.793595
0.793595
0.784169
0.784169
0.784169
0.785912
0.785912
0.785912
0.790864
0.790864
0.790864
0.790352
0.790352
0.790352
0.77722
0.77722
0.77722
0.775256
0.775256
0.775256
0.821741
0.821741
0.821741
0.820757
0.820757
0.820757
0.824562
0.824562
0.824562
0.812008
0.812008
0.812008
0.821268
0.821268
0.821268
0.820037
0.820037
0.820037
0.820391
0.820391
0.820391
0.787078
0.787078
0.787078
0.800195
0.800195
0.800195
0.802578
0.802578
0.802578
0.801643
0.801643
0.801643
0.769049
0.769049
0.769049
0.773569
0.773569
0.773569
0.771695
0.771695
0.771695
0.770964
0.770964
0.770964
0.772106
0.772106
0.772106
0.799445
0.799445
0.799445
0.79846
0.79846
0.79846
0.798502
0.798502
0.798502
0.799525
0.799525
0.799525
0.811479
0.811479
0.811479
0.812624
0.812624
0.812624
0.811504
0.811504
0.811504
0.812389
0.812389
0.812389
0.811969
0.811969
0.811969
0.820042
0.820042
0.820042
0.819321
0.819321
0.819321
0.801866
0.801866
0.801866
0.799756
0.799756
0.799756
0.800991
0.800991
0.800991
0.799936
0.799936
0.799936
0.802524
0.802524
0.802524
0.802307
0.802307
0.802307
0.80125
0.80125
0.80125
0.800412
0.800412
0.800412
0.800629
0.800629
0.800629
0.801684
0.801684
0.801684
0.803549
0.803549
0.803549
0.805537
0.805537
0.805537
0.804875
0.804875
0.804875
0.804725
0.804725
0.804725
0.803732
0.803732
0.803732
0.802889
0.802889
0.802889
0.803036
0.803036
0.803036
0.804028
0.804028
0.804028
0.804138
0.804138
0.804138
0.804357
0.804357
0.804357
0.805351
0.805351
0.805351
0.806128
0.806128
0.806128
0.804912
0.804912
0.804912
0.805907
0.805907
0.805907
0.801515
0.801515
0.801515
0.801802
0.801802
0.801802
0.80286
0.80286
0.80286
0.809682
0.809682
0.809682
0.808743
0.808743
0.808743
0.812956
0.812956
0.812956
0.811334
0.811334
0.811334
0.811246
0.811246
0.811246
0.808807
0.808807
0.808807
0.809637
0.809637
0.809637
0.810286
0.810286
0.810286
0.810377
0.810377
0.810377
0.809583
0.809583
0.809583
0.808702
0.808702
0.808702
0.811045
0.811045
0.811045
0.810918
0.810918
0.810918
0.812499
0.812499
0.812499
0.811642
0.811642
0.811642
0.813735
0.813735
0.813735
0.813701
0.813701
0.813701
0.805183
0.805183
0.805183
0.804296
0.804296
0.804296
0.804338
0.804338
0.804338
0.809476
0.809476
0.809476
0.806783
0.806783
0.806783
0.808432
0.808432
0.808432
0.807732
0.807732
0.807732
0.808557
0.808557
0.808557
0.80731
0.80731
0.80731
0.807475
0.807475
0.807475
0.806652
0.806652
0.806652
0.805664
0.805664
0.805664
0.805492
0.805492
0.805492
0.806314
0.806314
0.806314
0.804817
0.804817
0.804817
0.8038
0.8038
0.8038
0.802928
0.802928
0.802928
0.807957
0.807957
0.807957
0.794311
0.794311
0.794311
0.794294
0.794294
0.794294
0.795383
0.795383
0.795383
0.795391
0.795391
0.795391
0.792112
0.792112
0.792112
0.790991
0.790991
0.790991
0.790981
0.790981
0.790981
0.792092
0.792092
0.792092
0.793215
0.793215
0.793215
0.793225
0.793225
0.793225
0.798497
0.798497
0.798497
0.798175
0.798175
0.798175
0.797015
0.797015
0.797015
0.796178
0.796178
0.796178
0.797661
0.797661
0.797661
0.796502
0.796502
0.796502
0.801355
0.801355
0.801355
0.803336
0.803336
0.803336
0.801428
0.801428
0.801428
0.802418
0.802418
0.802418
0.80326
0.80326
0.80326
0.802269
0.802269
0.802269
0.800473
0.800473
0.800473
0.800512
0.800512
0.800512
0.801503
0.801503
0.801503
0.80246
0.80246
0.80246
0.828981
0.828981
0.828981
0.829649
0.829649
0.829649
0.828979
0.828979
0.828979
0.828493
0.828493
0.828493
0.828677
0.828677
0.828677
0.823914
0.823914
0.823914
0.822381
0.822381
0.822381
0.821172
0.821172
0.821172
0.822527
0.822527
0.822527
0.821923
0.821923
0.821923
0.820994
0.820994
0.820994
0.821433
0.821433
0.821433
0.821619
0.821619
0.821619
0.821015
0.821015
0.821015
0.820303
0.820303
0.820303
0.814063
0.814063
0.814063
0.814777
0.814777
0.814777
0.829332
0.829332
0.829332
0.811361
0.811361
0.811361
0.810415
0.810415
0.810415
0.810159
0.810159
0.810159
0.809232
0.809232
0.809232
0.809075
0.809075
0.809075
0.809851
0.809851
0.809851
0.811946
0.811946
0.811946
0.816841
0.816841
0.816841
0.813011
0.813011
0.813011
0.812094
0.812094
0.812094
0.815306
0.815306
0.815306
0.814612
0.814612
0.814612
0.813724
0.813724
0.813724
0.81511
0.81511
0.81511
0.814211
0.814211
0.814211
0.813519
0.813519
0.813519
0.827576
0.827576
0.827576
0.827799
0.827799
0.827799
0.828586
0.828586
0.828586
0.82753
0.82753
0.82753
0.82868
0.82868
0.82868
0.828151
0.828151
0.828151
0.826226
0.826226
0.826226
0.83016
0.83016
0.83016
0.830384
0.830384
0.830384
0.829924
0.829924
0.829924
0.829464
0.829464
0.829464
0.827044
0.827044
0.827044
0.825845
0.825845
0.825845
0.826229
0.826229
0.826229
0.825506
0.825506
0.825506
0.82693
0.82693
0.82693
0.825989
0.825989
0.825989
0.722888
0.722888
0.722888
0.729807
0.729807
0.729807
0.734256
0.734256
0.734256
0.732782
0.732782
0.732782
0.730563
0.730563
0.730563
0.729043
0.729043
0.729043
0.729732
0.729732
0.729732
0.733472
0.733472
0.733472
0.731942
0.731942
0.731942
0.714345
0.714345
0.714345
0.718268
0.718268
0.718268
0.725467
0.725467
0.725467
0.724324
0.724324
0.724324
0.725355
0.725355
0.725355
0.721931
0.721931
0.721931
0.731847
0.731847
0.731847
0.736544
0.736544
0.736544
0.784325
0.784325
0.784325
0.783265
0.783265
0.783265
0.780035
0.780035
0.780035
0.781493
0.781493
0.781493
0.781853
0.781853
0.781853
0.793612
0.793612
0.793612
0.794791
0.794791
0.794791
0.795769
0.795769
0.795769
0.795567
0.795567
0.795567
0.799248
0.799248
0.799248
0.797807
0.797807
0.797807
0.798978
0.798978
0.798978
0.803187
0.803187
0.803187
0.804825
0.804825
0.804825
0.805073
0.805073
0.805073
0.804253
0.804253
0.804253
0.800982
0.800982
0.800982
0.799844
0.799844
0.799844
0.799537
0.799537
0.799537
0.802564
0.802564
0.802564
0.802343
0.802343
0.802343
0.800378
0.800378
0.800378
0.801246
0.801246
0.801246
0.797493
0.797493
0.797493
0.79628
0.79628
0.79628
0.79592
0.79592
0.79592
0.798356
0.798356
0.798356
0.796781
0.796781
0.796781
0.798005
0.798005
0.798005
0.798842
0.798842
0.798842
0.780749
0.780749
0.780749
0.779223
0.779223
0.779223
0.781736
0.781736
0.781736
0.781195
0.781195
0.781195
0.783652
0.783652
0.783652
0.782152
0.782152
0.782152
0.777261
0.777261
0.777261
0.778
0.778
0.778
0.786988
0.786988
0.786988
0.787954
0.787954
0.787954
0.789695
0.789695
0.789695
0.789312
0.789312
0.789312
0.791575
0.791575
0.791575
0.790251
0.790251
0.790251
0.7846
0.7846
0.7846
0.785594
0.785594
0.785594
0.784336
0.784336
0.784336
0.78162
0.78162
0.78162
0.787228
0.787228
0.787228
0.786931
0.786931
0.786931
0.785964
0.785964
0.785964
0.785814
0.785814
0.785814
0.789278
0.789278
0.789278
0.788197
0.788197
0.788197
0.788345
0.788345
0.788345
0.786105
0.786105
0.786105
0.788482
0.788482
0.788482
0.787245
0.787245
0.787245
0.787476
0.787476
0.787476
0.786255
0.786255
0.786255
0.780032
0.780032
0.780032
0.794072
0.794072
0.794072
0.793946
0.793946
0.793946
0.795205
0.795205
0.795205
0.796217
0.796217
0.796217
0.796094
0.796094
0.796094
0.794955
0.794955
0.794955
0.773063
0.773063
0.773063
0.774791
0.774791
0.774791
0.775589
0.775589
0.775589
0.769077
0.769077
0.769077
0.782146
0.782146
0.782146
0.781246
0.781246
0.781246
0.782723
0.782723
0.782723
0.78317
0.78317
0.78317
0.778207
0.778207
0.778207
0.767906
0.767906
0.767906
0.768488
0.768488
0.768488
0.767012
0.767012
0.767012
0.775634
0.775634
0.775634
0.774802
0.774802
0.774802
0.772204
0.772204
0.772204
0.773088
0.773088
0.773088
0.789827
0.789827
0.789827
0.784724
0.784724
0.784724
0.783148
0.783148
0.783148
0.774522
0.774522
0.774522
0.772913
0.772913
0.772913
0.775504
0.775504
0.775504
0.774698
0.774698
0.774698
0.775303
0.775303
0.775303
0.77707
0.77707
0.77707
0.77783
0.77783
0.77783
0.774274
0.774274
0.774274
0.776502
0.776502
0.776502
0.773957
0.773957
0.773957
0.77469
0.77469
0.77469
0.775031
0.775031
0.775031
0.777557
0.777557
0.777557
0.77682
0.77682
0.77682
0.780505
0.780505
0.780505
0.77736
0.77736
0.77736
0.778235
0.778235
0.778235
0.779903
0.779903
0.779903
0.758124
0.758124
0.758124
0.758201
0.758201
0.758201
0.756603
0.756603
0.756603
0.754933
0.754933
0.754933
0.761035
0.761035
0.761035
0.762663
0.762663
0.762663
0.760855
0.760855
0.760855
0.764113
0.764113
0.764113
0.770918
0.770918
0.770918
0.770357
0.770357
0.770357
0.764203
0.764203
0.764203
0.762795
0.762795
0.762795
0.761296
0.761296
0.761296
0.761377
0.761377
0.761377
0.755896
0.755896
0.755896
0.77741
0.77741
0.77741
0.777397
0.777397
0.777397
0.778739
0.778739
0.778739
0.778746
0.778746
0.778746
0.77465
0.77465
0.77465
0.773225
0.773225
0.773225
0.774683
0.774683
0.774683
0.776063
0.776063
0.776063
0.776068
0.776068
0.776068
0.77469
0.77469
0.77469
0.77331
0.77331
0.77331
0.773307
0.773307
0.773307
0.783658
0.783658
0.783658
0.782348
0.782348
0.782348
0.780677
0.780677
0.780677
0.78086
0.78086
0.78086
0.78221
0.78221
0.78221
0.781846
0.781846
0.781846
0.783382
0.783382
0.783382
0.783201
0.783201
0.783201
0.77808
0.77808
0.77808
0.772659
0.772659
0.772659
0.775593
0.775593
0.775593
0.777019
0.777019
0.777019
0.779652
0.779652
0.779652
0.778264
0.778264
0.778264
0.775871
0.775871
0.775871
0.775965
0.775965
0.775965
0.777347
0.777347
0.777347
0.777158
0.777158
0.777158
0.775028
0.775028
0.775028
0.77611
0.77611
0.77611
0.765957
0.765957
0.765957
0.767179
0.767179
0.767179
0.769547
0.769547
0.769547
0.75407
0.75407
0.75407
0.755969
0.755969
0.755969
0.755112
0.755112
0.755112
0.764257
0.764257
0.764257
0.756837
0.756837