<VTKFile type="UnstructuredGrid" version="1.0">
<UnstructuredGrid>
<Piece NumberOfPoints="11046" NumberOfCells="3682">
<Points>
<DataArray type="Float64" NumberOfComponents="3" format="ascii">
3.01 0.0582363 2.18176
3.01 0.0717021 2.1625
3.01 0.05 2.1625
3.01 0.95 2.59121
3.01 0.942301 2.6107
3.01 0.95 2.6302
3.01 0.0962623 3.0625
3.01 0.107711 3.04233
3.01 0.086422 3.04216
3.01 0.466226 2.80611
3.01 0.443707 2.80611
3.01 0.454968 2.82572
3.01 0.353567 2.72781
3.01 0.376113 2.72782
3.01 0.364839 2.70828
3.01 0.376113 2.72782
3.01 0.353567 2.72781
3.01 0.364843 2.74736
3.01 0.353567 2.72781
3.01 0.342292 2.74736
3.01 0.364843 2.74736
3.01 0.37611 2.68875
3.01 0.387379 2.66923
3.01 0.364837 2.66923
3.01 0.376113 2.72782
3.01 0.387381 2.70828
3.01 0.364839 2.70828
3.01 0.364839 2.70828
3.01 0.387381 2.70828
3.01 0.37611 2.68875
3.01 0.066417 3.04452
3.01 0.05 3.03875
3.01 0.05 3.0625
3.01 0.0582363 2.18176
3.01 0.0817675 2.18198
3.01 0.0717021 2.1625
3.01 0.0817675 2.18198
3.01 0.0582363 2.18176
3.01 0.0711754 2.20139
3.01 0.11641 2.1625
3.01 0.127475 2.18203
3.01 0.138968 2.1625
3.01 0.127475 2.18203
3.01 0.11641 2.1625
3.01 0.104722 2.18203
3.01 0.0711754 2.20139
3.01 0.0934889 2.2015
3.01 0.0817675 2.18198
3.01 0.0934889 2.2015
3.01 0.104722 2.18203
3.01 0.0817675 2.18198
3.01 0.116091 2.20153
3.01 0.127475 2.18203
3.01 0.104722 2.18203
3.01 0.116091 2.20153
3.01 0.104722 2.18203
3.01 0.0934889 2.2015
3.01 0.116091 2.20153
3.01 0.104394 2.22098
3.01 0.127244 2.22101
3.01 0.104394 2.22098
3.01 0.116091 2.20153
3.01 0.0934889 2.2015
3.01 0.941764 2.18176
3.01 0.95 2.1625
3.01 0.928298 2.1625
3.01 0.387379 2.66923
3.01 0.376108 2.64972
3.01 0.364837 2.66923
3.01 0.161282 2.59121
3.01 0.149908 2.57172
3.01 0.138583 2.59121
3.01 0.0933091 2.66921
3.01 0.104333 2.6497
3.01 0.0813038 2.6497
3.01 0.104333 2.6497
3.01 0.0933065 2.6302
3.01 0.0813038 2.6497
3.01 0.331016 2.76692
3.01 0.308447 2.76691
3.01 0.319739 2.78649
3.01 0.308447 2.76691
3.01 0.331016 2.76692
3.01 0.319729 2.74736
3.01 0.331016 2.76692
3.01 0.342292 2.74736
3.01 0.319729 2.74736
3.01 0.138613 2.78641
3.01 0.149933 2.76686
3.01 0.12718 2.76685
3.01 0.138613 2.78641
3.01 0.161316 2.78642
3.01 0.149933 2.76686
3.01 0.161316 2.78642
3.01 0.172648 2.76686
3.01 0.149933 2.76686
3.01 0.206681 2.78644
3.01 0.217999 2.76688
3.01 0.195336 2.76687
3.01 0.263262 2.7669
3.01 0.274572 2.78647
3.01 0.285863 2.76691
3.01 0.274559 2.74735
3.01 0.263262 2.7669
3.01 0.285863 2.76691
3.01 0.240697 2.182
3.01 0.252012 2.1625
3.01 0.229409 2.1625
3.01 0.138758 2.20153
3.01 0.127475 2.18203
3.01 0.116091 2.20153
3.01 0.127244 2.22101
3.01 0.138758 2.20153
3.01 0.116091 2.20153
3.01 0.229332 2.24047
3.01 0.218031 2.22099
3.01 0.206685 2.24048
3.01 0.184016 2.24049
3.01 0.172705 2.22101
3.01 0.161325 2.24049
3.01 0.184093 2.20151
3.01 0.161431 2.20153
3.01 0.172705 2.22101
3.01 0.218082 2.182
3.01 0.240697 2.182
3.01 0.229409 2.1625
3.01 0.218082 2.182
3.01 0.229409 2.1625
3.01 0.206798 2.1625
3.01 0.138617 2.24049
3.01 0.149916 2.25996
3.01 0.161325 2.24049
3.01 0.376107 2.57172
3.01 0.364834 2.55223
3.01 0.353559 2.57172
3.01 0.942264 2.80597
3.01 0.95 2.82556
3.01 0.95 2.7864
3.01 0.466226 2.80611
3.01 0.454966 2.78651
3.01 0.443707 2.80611
3.01 0.466223 2.72782
3.01 0.488741 2.72782
3.01 0.477482 2.70828
3.01 0.466223 2.72782
3.01 0.443703 2.72782
3.01 0.454964 2.74737
3.01 0.511259 2.72782
3.01 0.533777 2.72782
3.01 0.522518 2.70828
3.01 0.533777 2.72782
3.01 0.511259 2.72782
3.01 0.522517 2.74737
3.01 0.488741 2.72782
3.01 0.5 2.70828
3.01 0.477482 2.70828
3.01 0.511259 2.72782
3.01 0.5 2.70828
3.01 0.488741 2.72782
3.01 0.5 2.70828
3.01 0.511259 2.72782
3.01 0.522518 2.70828
3.01 0.387388 2.78651
3.01 0.40992 2.78651
3.01 0.398653 2.76693
3.01 0.376117 2.76693
3.01 0.387388 2.78651
3.01 0.398653 2.76693
3.01 0.443703 2.72782
3.01 0.432443 2.74737
3.01 0.454964 2.74737
3.01 0.432443 2.74737
3.01 0.443705 2.76693
3.01 0.454964 2.74737
3.01 0.274559 2.74735
3.01 0.285853 2.7278
3.01 0.26325 2.7278
3.01 0.387384 2.74737
3.01 0.376117 2.76693
3.01 0.398653 2.76693
3.01 0.376117 2.76693
3.01 0.387384 2.74737
3.01 0.364843 2.74736
3.01 0.387384 2.74737
3.01 0.376113 2.72782
3.01 0.364843 2.74736
3.01 0.342292 2.74736
3.01 0.331009 2.72781
3.01 0.319729 2.74736
3.01 0.331009 2.72781
3.01 0.342292 2.74736
3.01 0.353567 2.72781
3.01 0.545011 3.0625
3.01 0.533759 3.0427
3.01 0.522505 3.0625
3.01 0.533762 3.00311
3.01 0.55627 3.00311
3.01 0.545018 2.98333
3.01 0.55627 3.00311
3.01 0.567528 2.98332
3.01 0.545018 2.98333
3.01 0.567528 2.98332
3.01 0.59004 2.98332
3.01 0.578788 2.96356
3.01 0.466232 2.92408
3.01 0.477488 2.90437
3.01 0.454974 2.90436
3.01 0.567516 3.0625
3.01 0.590022 3.0625
3.01 0.578772 3.0427
3.01 0.601316 2.92407
3.01 0.590051 2.9438
3.01 0.61257 2.9438
3.01 0.62384 2.92406
3.01 0.601316 2.92407
3.01 0.61257 2.9438
3.01 0.680198 2.90431
3.01 0.702757 2.90429
3.01 0.691494 2.88462
3.01 0.086422 3.04216
3.01 0.073896 3.0625
3.01 0.0962623 3.0625
3.01 0.073896 3.0625
3.01 0.086422 3.04216
3.01 0.066417 3.04452
3.01 0.05 3.0625
3.01 0.073896 3.0625
3.01 0.066417 3.04452
3.01 0.0721919 3.02289
3.01 0.05 3.03875
3.01 0.066417 3.04452
3.01 0.086422 3.04216
3.01 0.0721919 3.02289
3.01 0.066417 3.04452
3.01 0.118481 3.0625
3.01 0.107711 3.04233
3.01 0.0962623 3.0625
3.01 0.5 3.0625
3.01 0.488747 3.0427
3.01 0.477495 3.0625
3.01 0.432484 3.0625
3.01 0.421228 3.0427
3.01 0.409978 3.0625
3.01 0.443725 2.96356
3.01 0.432465 2.94381
3.01 0.421212 2.96356
3.01 0.319802 2.90431
3.01 0.342348 2.90433
3.01 0.331063 2.88463
3.01 0.353629 2.92405
3.01 0.364886 2.90434
3.01 0.342348 2.90433
3.01 0.10433 2.6107
3.01 0.0813011 2.6107
3.01 0.0933065 2.6302
3.01 0.0939466 2.1625
3.01 0.104722 2.18203
3.01 0.11641 2.1625
3.01 0.0939466 2.1625
3.01 0.0717021 2.1625
3.01 0.0817675 2.18198
3.01 0.104722 2.18203
3.01 0.0939466 2.1625
3.01 0.0817675 2.18198
3.01 0.0933065 2.6302
3.01 0.0710513 2.6302
3.01 0.0813038 2.6497
3.01 0.0710513 2.6302
3.01 0.0933065 2.6302
3.01 0.0813011 2.6107
3.01 0.115908 2.70824
3.01 0.104337 2.68872
3.01 0.0933131 2.70824
3.01 0.104337 2.68872
3.01 0.115908 2.70824
3.01 0.127165 2.68872
3.01 0.104343 2.72776
3.01 0.115908 2.70824
3.01 0.0933131 2.70824
3.01 0.104343 2.72776
3.01 0.0933188 2.7473
3.01 0.115915 2.7473
3.01 0.942303 2.57171
3.01 0.95 2.59121
3.01 0.95 2.55222
3.01 0.92895 2.55222
3.01 0.942303 2.57171
3.01 0.95 2.55222
3.01 0.9187 2.57171
3.01 0.895671 2.57171
3.01 0.906695 2.59121
3.01 0.92895 2.55222
3.01 0.9187 2.57171
3.01 0.942303 2.57171
3.01 0.942316 2.33785
3.01 0.95 2.31836
3.01 0.928965 2.31835
3.01 0.95 2.39632
3.01 0.95 2.35734
3.01 0.942309 2.37683
3.01 0.942316 2.33785
3.01 0.95 2.35734
3.01 0.95 2.31836
3.01 0.95 2.20105
3.01 0.95 2.1625
3.01 0.941764 2.18176
3.01 0.95 2.20105
3.01 0.942358 2.22071
3.01 0.95 2.24025
3.01 0.612617 2.24045
3.01 0.623887 2.25993
3.01 0.635157 2.24045
3.01 0.895671 2.57171
3.01 0.906696 2.55222
3.01 0.884102 2.55222
3.01 0.906696 2.55222
3.01 0.895671 2.57171
3.01 0.9187 2.57171
3.01 0.92895 2.55222
3.01 0.906696 2.55222
3.01 0.9187 2.57171
3.01 0.353563 2.68875
3.01 0.364839 2.70828
3.01 0.37611 2.68875
3.01 0.364837 2.66923
3.01 0.353563 2.68875
3.01 0.37611 2.68875
3.01 0.297145 2.70827
3.01 0.308439 2.72781
3.01 0.319723 2.70827
3.01 0.308439 2.72781
3.01 0.297145 2.70827
3.01 0.285853 2.7278
3.01 0.308439 2.72781
3.01 0.319729 2.74736
3.01 0.331009 2.72781
3.01 0.319723 2.70827
3.01 0.308439 2.72781
3.01 0.331009 2.72781
3.01 0.17262 2.57172
3.01 0.149908 2.57172
3.01 0.161282 2.59121
3.01 0.138583 2.59121
3.01 0.149909 2.6107
3.01 0.161282 2.59121
3.01 0.149909 2.6107
3.01 0.138583 2.59121
3.01 0.127158 2.6107
3.01 0.149909 2.6107
3.01 0.161284 2.6302
3.01 0.172622 2.61071
3.01 0.161282 2.59121
3.01 0.149909 2.6107
3.01 0.172622 2.61071
3.01 0.240621 2.68874
3.01 0.229301 2.66922
3.01 0.217979 2.68873
3.01 0.229301 2.66922
3.01 0.206649 2.66922
3.01 0.217979 2.68873
3.01 0.195316 2.68873
3.01 0.217979 2.68873
3.01 0.206649 2.66922
3.01 0.115908 2.70824
3.01 0.138594 2.70824
3.01 0.127165 2.68872
3.01 0.0933091 2.66921
3.01 0.115904 2.66921
3.01 0.104333 2.6497
3.01 0.115904 2.66921
3.01 0.127161 2.6497
3.01 0.104333 2.6497
3.01 0.115904 2.66921
3.01 0.0933091 2.66921
3.01 0.104337 2.68872
3.01 0.127165 2.68872
3.01 0.115904 2.66921
3.01 0.104337 2.68872
3.01 0.115901 2.6302
3.01 0.0933065 2.6302
3.01 0.104333 2.6497
3.01 0.127161 2.6497
3.01 0.115901 2.6302
3.01 0.104333 2.6497
3.01 0.115901 2.6302
3.01 0.10433 2.6107
3.01 0.0933065 2.6302
3.01 0.10433 2.6107
3.01 0.115901 2.6302
3.01 0.127158 2.6107
3.01 0.183972 2.59121
3.01 0.195307 2.57172
3.01 0.17262 2.57172
3.01 0.161282 2.59121
3.01 0.183972 2.59121
3.01 0.17262 2.57172
3.01 0.183972 2.59121
3.01 0.161282 2.59121
3.01 0.172622 2.61071
3.01 0.263244 2.68874
3.01 0.251933 2.66922
3.01 0.240621 2.68874
3.01 0.229301 2.66922
3.01 0.251933 2.66922
3.01 0.240617 2.64971
3.01 0.251933 2.66922
3.01 0.229301 2.66922
3.01 0.240621 2.68874
3.01 0.274543 2.63021
3.01 0.285842 2.61071
3.01 0.263237 2.61071
3.01 0.285842 2.61071
3.01 0.274541 2.59121
3.01 0.263237 2.61071
3.01 0.319739 2.78649
3.01 0.3423 2.7865
3.01 0.331016 2.76692
3.01 0.297163 2.78648
3.01 0.274572 2.78647
3.01 0.285878 2.80606
3.01 0.308447 2.76691
3.01 0.297163 2.78648
3.01 0.319739 2.78649
3.01 0.297163 2.78648
3.01 0.308447 2.76691
3.01 0.285863 2.76691
3.01 0.274572 2.78647
3.01 0.297163 2.78648
3.01 0.285863 2.76691
3.01 0.183992 2.74732
3.01 0.172648 2.76686
3.01 0.195336 2.76687
3.01 0.183992 2.74732
3.01 0.195323 2.72778
3.01 0.172636 2.72778
3.01 0.184008 2.78643
3.01 0.172648 2.76686
3.01 0.161316 2.78642
3.01 0.172648 2.76686
3.01 0.184008 2.78643
3.01 0.195336 2.76687
3.01 0.184008 2.78643
3.01 0.195356 2.80601
3.01 0.206681 2.78644
3.01 0.195336 2.76687
3.01 0.184008 2.78643
3.01 0.206681 2.78644
3.01 0.308434 2.68875
3.01 0.297145 2.70827
3.01 0.319723 2.70827
3.01 0.297145 2.70827
3.01 0.308434 2.68875
3.01 0.285847 2.68874
3.01 0.308434 2.68875
[...]
<PointData Scalars="View Factor" >
<DataArray type="Float64" Name="View Factor" NumberOfComponents="1" format="ascii">
0.867469
0.867469
0.867469
0.79028
0.79028
0.79028
0.867042
0.867042
0.867042
0.852174
0.852174
0.852174
0.857878
0.857878
0.857878
0.857878
0.857878
0.857878
0.858492
0.858492
0.858492
0.857243
0.857243
0.857243
0.857242
0.857242
0.857242
0.857242
0.857242
0.857242
0.867496
0.867496
0.867496
0.86737
0.86737
0.86737
0.867371
0.867371
0.867371
0.866553
0.866553
0.866553
0.866754
0.866754
0.866754
0.867242
0.867242
0.867242
0.8671
0.8671
0.8671
0.866756
0.866756
0.866756
0.866937
0.866937
0.866937
0.866759
0.866759
0.866759
0.866938
0.866938
0.866938
0.791694
0.791694
0.791694
0.857243
0.857243
0.857243
0.8661
0.8661
0.8661
0.8671
0.8671
0.8671
0.8671
0.8671
0.8671
0.86021
0.86021
0.86021
0.86021
0.86021
0.86021
0.859658
0.859658
0.859658
0.866335
0.866335
0.866335
0.866097
0.866097
0.866097
0.86584
0.86584
0.86584
0.864622
0.864622
0.864622
0.862214
0.862214
0.862214
0.862214
0.862214
0.862214
0.863511
0.863511
0.863511
0.866556
0.866556
0.866556
0.866557
0.866557
0.866557
0.864275
0.864275
0.864275
0.86557
0.86557
0.86557
0.865569
0.865569
0.865569
0.863902
0.863902
0.863902
0.864273
0.864273
0.864273
0.866103
0.866103
0.866103
0.85788
0.85788
0.85788
0.790279
0.790279
0.790279
0.852174
0.852174
0.852174
0.850523
0.850523
0.850523
0.852175
0.852175
0.852175
0.846931
0.846931
0.846931
0.846931
0.846931
0.846931
0.849661
0.849661
0.849661
0.848775
0.848775
0.848775
0.847866
0.847866
0.847866
0.855904
0.855904
0.855904
0.856583
0.856583
0.856583
0.852966
0.852966
0.852966
0.852966
0.852966
0.852966
0.862215
0.862215
0.862215
0.856584
0.856584
0.856584
0.857241
0.857241
0.857241
0.857242
0.857242
0.857242
0.859659
0.859659
0.859659
0.859086
0.859086
0.859086
0.845969
0.845969
0.845969
0.844985
0.844985
0.844985
0.843976
0.843976
0.843976
0.841879
0.841879
0.841879
0.851357
0.851357
0.851357
0.841879
0.841879
0.841879
0.839676
0.839676
0.839676
0.838533
0.838533
0.838533
0.82974
0.82974
0.82974
0.86719
0.86719
0.86719
0.867306
0.867306
0.867306
0.867427
0.867427
0.867427
0.867433
0.867433
0.867433
0.867312
0.867312
0.867312
0.866884
0.866884
0.866884
0.849656
0.849656
0.849656
0.854473
0.854473
0.854473
0.85373
0.85373
0.85373
0.859654
0.859654
0.859654
0.858487
0.858487
0.858487
0.8671
0.8671
0.8671
0.866933
0.866933
0.866933
0.867238
0.867238
0.867238
0.867099
0.867099
0.867099
0.86724
0.86724
0.86724
0.86724
0.86724
0.86724
0.866935
0.866935
0.866935
0.866755
0.866755
0.866755
0.866935
0.866935
0.866935
0.866934
0.866934
0.866934
0.79028
0.79028
0.79028
0.791615
0.791615
0.791615
0.797756
0.797756
0.797756
0.793571
0.793571
0.793571
0.791616
0.791616
0.791616
0.790282
0.790282
0.790282
0.790282
0.790282
0.790282
0.790319
0.790319
0.790319
0.79028
0.79028
0.79028
0.837367
0.837367
0.837367
0.799797
0.799797
0.799797
0.797756
0.797756
0.797756
0.795755
0.795755
0.795755
0.857879
0.857879
0.857879
0.857879
0.857879
0.857879
0.860743
0.860743
0.860743
0.861253
0.861253
0.861253
0.860211
0.860211
0.860211
0.860211
0.860211
0.860211
0.865843
0.865843
0.865843
0.8661
0.8661
0.8661
0.866337
0.866337
0.866337
0.865843
0.865843
0.865843
0.865843
0.865843
0.865843
0.8639
0.8639
0.8639
0.864272
0.864272
0.864272
0.864624
0.864624
0.864624
0.866554
0.866554
0.866554
0.866935
0.866935
0.866935
0.866756
0.866756
0.866756
0.866935
0.866935
0.866935
0.866755
0.866755
0.866755
0.866936
0.866936
0.866936
0.866756
0.866756
0.866756
0.866936
0.866936
0.866936
0.866756
0.866756
0.866756
0.865273
0.865273
0.865273
0.865567
0.865567
0.865567
0.865567
0.865567
0.865567
0.863097
0.863097
0.863097
0.863508
0.863508
0.863508
0.863508
0.863508
0.863508
0.862217
0.862217
0.862217
0.862217
0.862217
0.862217
0.859658
0.859658
0.859658
0.861742
0.861742
0.861742
0.860741
0.860741
0.860741
0.861252
0.861252
0.861252
0.861743
0.861743
0.861743
0.86527
0.86527
0.86527
0.86527
0.86527
0.86527
0.865564
0.865564
0.865564
0.865269
0.865269
0.865269
0.864955
0.864955
0.864955
0.864955
0.864955
0.864955
0.860743
0.860743
0.860743
0.861254
0.861254
0.861254
0.861254
0.861254
0.861254
0.860743
0.860743
0.860743
0.860742
0.860742
0.860742
0.861253
0.861253
0.861253
0.860742
0.860742
0.860742
0.861253
0.861253
0.861253
0.861743
0.861743
0.861743
0.861744
0.861744
0.861744
0.863096
0.863096
0.863096
0.863097
0.863097
0.863097
0.863095
0.863095
0.863095
0.863096
0.863096
0.863096
0.862665
0.862665
0.862665
0.862665
0.862665
0.862665
0.86267
0.86267
0.86267
0.8631
0.8631
0.8631
0.866098
0.866098
0.866098
0.8661
0.8661
0.8661
0.866336
0.866336
0.866336
0.866337
0.866337
0.866337
0.866101
0.866101
0.866101
0.865845
0.865845
0.865845
0.865845
0.865845
0.865845
0.866102
0.866102
0.866102
0.86634
0.86634
0.86634
0.866339
0.866339
0.866339
0.8631
0.8631
0.8631
0.86267
0.86267
0.86267
0.865566
0.865566
0.865566
0.865568
0.865568
0.865568
0.865843
0.865843
0.865843
0.865842
0.865842
0.865842
0.86496
0.86496
0.86496
0.864627
0.864627
0.864627
0.864628
0.864628
0.864628
0.864961
0.864961
0.864961
0.865275
0.865275
0.865275
0.865274
0.865274
0.865274
0.864958
0.864958
0.864958
0.864959
0.864959
0.864959
0.864626
0.864626
0.864626
0.864626
0.864626
0.864626
0.865272
0.865272
0.865272
0.865273
0.865273
0.865273
0.863902
0.863902
0.863902
0.863511
0.863511
0.863511
0.864275
0.864275
0.864275
0.864274
0.864274
0.864274
0.863101
0.863101
0.863101
0.863101
0.863101
0.863101
0.861749
0.861749
0.861749
0.86222
0.86222
0.86222
0.86267
0.86267
0.86267
0.86267
0.86267
0.86267
0.864276
0.864276
0.864276
0.864961
0.864961
0.864961
0.864628
0.864628
0.864628
0.864628
0.864628
0.864628
0.855206
0.855206
0.855206
0.857881
0.857881
0.857881
0.856587
0.856587
0.856587
0.855907
0.855907
0.855907
0.855908
0.855908
0.855908
0.856587
0.856587
0.856587
0.857244
0.857244
0.857244
0.857245
0.857245
0.857245
0.860745
0.860745
0.860745
0.860214
0.860214
0.860214
0.860215
0.860215
0.860215
0.859662
0.859662
0.859662
0.863904
0.863904
0.863904
0.860748
0.860748
0.860748
0.85659
0.85659
0.85659
0.85659
0.85659
0.85659
0.860216
0.860216
0.860216
0.859664
0.859664
0.859664
0.859092
0.859092
0.859092
0.807746
0.807746
0.807746
0.80952
0.80952
0.80952
0.809501
0.809501
0.809501
0.81467
0.81467
0.81467
0.811272
0.811272
0.811272
0.812983
0.812983
0.812983
0.811218
0.811218
0.811218
0.812969
0.812969
0.812969
0.81124
0.81124
0.81124
0.816317
0.816317
0.816317
0.791611
0.791611
0.791611
0.791614
0.791614
0.791614
0.793572
0.793572
0.793572
0.793573
0.793573
0.793573
0.852965
0.852965
0.852965
0.852965
0.852965
0.852965
0.856586
0.856586
0.856586
0.856587
0.856587
0.856587
0.856586
0.856586
0.856586
0.845971
0.845971
0.845971
0.845971
0.845971
0.845971
0.844987
0.844987
0.844987
0.850522
0.850522
0.850522
0.85136
0.85136
0.85136
0.852174
0.852174
0.852174
0.850522
0.850522
0.850522
0.852174
0.852174
0.852174
0.85136
0.85136
0.85136
0.851359
0.851359
0.851359
0.85136
0.85136
0.85136
0.850522
0.850522
0.850522
0.852965
0.852965
0.852965
0.859083
0.859083
0.859083
0.859083
0.859083
0.859083
0.858491
0.858491
0.858491
0.85849
0.85849
0.85849
0.857876
0.857876
0.857876
0.853734
0.853734
0.853734
0.855203
0.855203
0.855203
0.85448
0.85448
0.85448
0.853734
0.853734
0.853734
0.853735
0.853735
0.853735
0.855905
0.855905
0.855905
0.855203
0.855203
0.855203
0.85448
0.85448
0.85448
0.85448
0.85448
0.85448
0.822535
0.822535
0.822535
0.826949
0.826949
0.826949
0.843975
0.843975
0.843975
0.844985
0.844985
0.844985
0.84294
0.84294
0.84294
0.84597
0.84597
0.84597
0.84597
0.84597
0.84597
0.847862
0.847862
0.847862
0.846928
0.846928
0.846928
0.84294
0.84294
0.84294
0.841879
0.841879
0.841879
0.837364
0.837364
0.837364
0.83494
0.83494
0.83494
0.836166
0.836166
0.836166
0.840791
0.840791
0.840791
0.839676
0.839676
0.839676
0.840791
0.840791
0.840791
0.848774
0.848774
0.848774
0.836163
0.836163
0.836163
0.836163
0.836163
0.836163
0.831083
0.831083
0.831083
0.838533
0.838533
0.838533
0.803724
0.803724
0.803724
0.805608
0.805608
0.805608
0.803716
0.803716
0.803716
0.824054
0.824054
0.824054
0.825525
0.825525
0.825525
0.826961
0.826961
0.826961
0.829752
0.829752
0.829752
0.829761
0.829761
0.829761
0.834936
0.834936
0.834936
0.820998
0.820998
0.820998
0.867508
0.867508
0.867508
0.86748
0.86748
0.86748
0.867447
0.867447
0.867447
0.867047
0.867047
0.867047
0.867202
0.867202
0.867202
0.86492
0.86492
0.86492
0.866703
0.866703
0.866703
0.866505
0.866505
0.866505
0.865242
0.865242
0.865242
0.860725
0.860725
0.860725
0.860727
0.860727
0.860727
0.847861
0.847861
0.847861
0.848771
0.848771
0.848771
0.846927
0.846927
0.846927
0.848771
0.848771
0.848771
0.847862
0.847862
0.847862
0.846928
0.846928
0.846928
0.855196
0.855196
0.855196
0.855896
0.855896
0.855896
0.855196
0.855196
0.855196
0.85848
0.85848
0.85848
0.852962
0.852962
0.852962
0.85787
0.85787
0.85787
0.857234
0.857234
0.857234
0.855897
0.855897
0.855897
0.855897
0.855897
0.855897
0.857868
0.857868
0.857868
0.856577
0.856577
0.856577
0.857233
0.857233
0.857233
0.856576
0.856576
0.856576
0.857869
0.857869
0.857869
0.857234
0.857234
0.857234
0.860736
0.860736
0.860736
0.860206
0.860206
0.860206
0.857873
0.857873
0.857873
0.858489
0.858489
0.858489
0.859081
0.859081
0.859081
0.858488
0.858488
0.858488
0.859082
0.859082
0.859082
0.858489
0.858489
0.858489
0.866094
0.866094
0.866094
0.866751
0.866751
0.866751
0.866096
0.866096
0.866096
0.866334
0.866334
0.866334
0.866931
0.866931
0.866931
0.86693
0.86693
0.86693
0.867096
0.867096
0.867096
0.867236
0.867236
0.867236
0.867095
0.867095
0.867095
0.867236
0.867236
0.867236
0.867524
0.867524
0.867524
0.867467
0.867467
0.867467
0.86737
0.86737
0.86737
0.867524
0.867524
0.867524
0.867467
0.867467
0.867467
0.86737
0.86737
0.86737
0.867523
0.867523
0.867523
0.867466
0.867466
0.867466
0.867523
0.867523
0.867523
0.867466
0.867466
0.867466
0.79028
0.79028
0.79028
0.791615
0.791615
0.791615
0.795754
0.795754
0.795754
0.795754
0.795754
0.795754
0.791615
0.791615
0.791615
0.793571
0.793571
0.793571
0.791615
0.791615
0.791615
0.793571
0.793571
0.793571
0.801756
0.801756
0.801756
0.793569
0.793569
0.793569
0.791615
0.791615
0.791615
0.790281
0.790281
0.790281
0.803698
0.803698
0.803698
0.793571
0.793571
0.793571
0.791661
0.791661
0.791661
0.791623
0.791623
0.791623
0.799846
0.799846
0.799846
0.839682
0.839682
0.839682
0.841886
0.841886
0.841886
0.840797
0.840797
0.840797
0.843982
0.843982
0.843982
0.843983
0.843983
0.843983
0.843983
0.843983
0.843983
0.838538
0.838538
0.838538
0.837367
0.837367
0.837367
0.829742
0.829742
0.829742
0.838539
0.838539
0.838539
0.829737
0.829737
0.829737
0.832399
0.832399
0.832399
0.826953
0.826953
0.826953
0.828361
0.828361
0.828361
0.821
0.821
0.821
0.822537
0.822537
0.822537
0.825514
0.825514
0.825514
0.825514
0.825514
0.825514
0.811056
0.811056
0.811056
0.809271
0.809271
0.809271
0.852972
0.852972
0.852972
0.852181
0.852181
0.852181
0.855911
0.855911
0.855911
0.844993
0.844993
0.844993
0.857883
0.857883
0.857883
0.856589
0.856589
0.856589
0.857247
0.857247
0.857247
0.824041
0.824041
0.824041
0.833684
0.833684
0.833684
0.836168
0.836168
0.836168
0.834941
0.834941
0.834941
0.816183
0.816183
0.816183
0.819427
0.819427
0.819427
0.817822
0.817822
0.817822
0.817822
0.817822
0.817822
0.819427
0.819427
0.819427
0.858493
0.858493
0.858493
0.858493
0.858493
0.858493
0.859086
0.859086
0.859086
0.859659
0.859659
0.859659
0.865567
0.865567
0.865567
0.866337
0.866337
0.866337
0.866555
0.866555
0.866555
0.866555
0.866555
0.866555
0.866099
0.866099
0.866099
0.865844
0.865844
0.865844
0.865844
0.865844
0.865844
0.863899
0.863899
0.863899
0.863898
0.863898
0.863898
0.863507
0.863507
0.863507
0.863507
0.863507
0.863507
0.864623
0.864623
0.864623
0.864956
0.864956
0.864956
0.864956
0.864956
0.864956
0.864622
0.864622
0.864622
0.86427
0.86427
0.86427
0.86427
0.86427
0.86427
0.864623
0.864623
0.864623
0.864624
0.864624
0.864624
0.863899
0.863899
0.863899
0.864271
0.864271
0.864271
0.864271
0.864271
0.864271
0.863899
0.863899
0.863899
0.863507
0.863507
0.863507
0.863508
0.863508
0.863508
0.865271
0.865271
0.865271
0.864957
0.864957
0.864957
0.864957
0.864957
0.864957
0.865271
0.865271
0.865271
0.865565
0.865565
0.865565
0.865566
0.865566
0.865566
0.86584
0.86584
0.86584
0.865565
0.865565
0.865565
0.865565
0.865565
0.865565
0.866555
0.866555
0.866555
0.866555
0.866555
0.866555
0.863099
0.863099
0.863099
0.862217
0.862217
0.862217
0.861256
0.861256
0.861256
0.862667
0.862667
0.862667
0.863098
0.863098
0.863098
0.864272
0.864272
0.864272
0.863901
0.863901
0.863901
0.863509
0.863509
0.863509
0.863509
0.863509
0.863509
0.864625
0.864625
0.864625
0.864958
0.864958
0.864958
0.865272
0.865272
0.865272
0.865272
0.865272
0.865272
0.86351
0.86351
0.86351
0.863901
0.863901
0.863901
0.862666
0.862666
0.862666
0.862216
0.862216
0.862216
0.861745
0.861745
0.861745
0.860213
0.860213
0.860213
0.859088
0.859088
0.859088
0.859089
0.859089
0.859089
0.859661
0.859661
0.859661
0.859661
0.859661
0.859661
0.85788
0.85788
0.85788
0.858495
0.858495
0.858495
0.858495
0.858495
0.858495
0.85788
0.85788
0.85788
0.857244
0.857244
0.857244
0.857244
0.857244
0.857244
0.85788
0.85788
0.85788
0.857244
0.857244
0.857244
0.857243
0.857243
0.857243
0.861746
0.861746
0.861746
0.859085
0.859085
0.859085
0.857877
0.857877
0.857877
0.858492
0.858492
0.858492
0.859086
0.859086
0.859086
0.858491
0.858491
0.858491
0.857876
0.857876
0.857876
0.857241
0.857241
0.857241
0.857241
0.857241
0.857241
0.857877
0.857877
0.857877
0.858492
0.858492
0.858492
0.865564
0.865564
0.865564
0.86584
0.86584
0.86584
0.865839
0.865839
0.865839
0.865563
0.865563
0.865563
0.865269
0.865269
0.865269
0.865268
0.865268
0.865268
0.862215
0.862215
0.862215
0.862215
0.862215
0.862215
0.861744
0.861744
0.861744
0.861745
0.861745
0.861745
0.862666
0.862666
0.862666
0.862666
0.862666
0.862666
0.859087
0.859087
0.859087
0.85966
0.85966
0.85966
0.860212
0.860212
0.860212
0.860212
0.860212
0.860212
0.863512
0.863512
0.863512
0.86267
0.86267
0.86267
0.86222
0.86222
0.86222
0.86222
0.86222
0.86222
0.86267
0.86267
0.86267
0.86634
0.86634
0.86634
0.861749
0.861749
0.861749
0.861749
0.861749
0.861749
0.86222
0.86222
0.86222
0.862219
0.862219
0.862219
0.859664
0.859664
0.859664
0.860747
0.860747
0.860747
0.861258
0.861258
0.861258
0.861258
0.861258
0.861258
0.864627
0.864627
0.864627
0.860214
0.860214
0.860214
0.860214
0.860214
0.860214
0.864962
0.864962
0.864962
0.858496
0.858496
0.858496
0.857881
0.857881
0.857881
0.859662
0.859662
0.859662
0.859089
0.859089
0.859089
0.858495
0.858495
0.858495
0.858495
0.858495
0.858495
0.860745
0.860745
0.860745
0.860215
0.860215
0.860215
0.85909
0.85909
0.85909
0.858496
0.858496
0.858496
0.859663
0.859663
0.859663
0.859663
0.859663
0.859663
0.85909
0.85909
0.85909
0.85909
0.85909
0.85909
0.858496
0.858496
0.858496
0.858496
0.858496
0.858496
0.861259
0.861259
0.861259
0.861749
0.861749
0.861749
0.863904
0.863904
0.863904
0.863904
0.863904
0.863904
0.864276
0.864276
0.864276
0.864276
0.864276
0.864276
0.863101
0.863101
0.863101
0.861749
0.861749
0.861749
0.862219
0.862219
0.862219
0.862219
0.862219
0.862219
0.861258
0.861258
0.861258
0.858498
0.858498
0.858498
0.857248
0.857248
0.857248
0.857884
0.857884
0.857884
0.859092
0.859092
0.859092
0.859092
0.859092
0.859092
0.859092
0.859092
0.859092
0.807699
0.807699
0.807699
0.812933
0.812933
0.812933
0.816271
0.816271
0.816271
0.816284
0.816284
0.816284
0.814633
0.814633
0.814633
0.814648
0.814648
0.814648
0.816308
0.816308
0.816308
0.817914
0.817914
0.817914
0.817924
0.817924
0.817924
0.790287
0.790287
0.790287
0.790276
0.790276
0.790276
0.791615
0.791615
0.791615
0.791615
0.791615
0.791615
0.79028
0.79028
0.79028
0.790279
0.790279
0.790279
0.801768
0.801768
0.801768
0.805603
0.805603
0.805603
0.846931
0.846931
0.846931
0.84693
0.84693
0.84693
0.843977
0.843977
0.843977
0.844987
0.844987
0.844987
0.845971
0.845971
0.845971
0.853735
0.853735
0.853735
0.854481
0.854481
0.854481
0.854481
0.854481
0.854481
0.853735
0.853735
0.853735
0.853736
0.853736
0.853736
0.852176
0.852176
0.852176
0.852967
0.852967
0.852967
0.855206
0.855206
0.855206
0.855206
0.855206
0.855206
0.855907
0.855907
0.855907
0.855907
0.855907
0.855907
0.853736
0.853736
0.853736
0.852968
0.852968
0.852968
0.852176
0.852176
0.852176
0.855907
0.855907
0.855907
0.855205
0.855205
0.855205
0.854482
0.854482
0.854482
0.854482
0.854482
0.854482
0.851362
0.851362
0.851362
0.850524
0.850524
0.850524
0.849662
0.849662
0.849662
0.851362
0.851362
0.851362
0.849662
0.849662
0.849662
0.850524
0.850524
0.850524
0.850524
0.850524
0.850524
0.84079
0.84079
0.84079
0.839674
0.839674
0.839674
0.84079
0.84079
0.84079
0.839675
0.839675
0.839675
0.84079
0.84079
0.84079
0.839675
0.839675
0.839675
0.832393
0.832393
0.832393
0.833679
0.833679
0.833679
0.845972
0.845972
0.845972
0.845972
0.845972
0.845972
0.847866
0.847866
0.847866
0.846931
0.846931
0.846931
0.847866
0.847866
0.847866
0.846931
0.846931
0.846931
0.844987
0.844987
0.844987
0.844987
0.844987
0.844987
0.850521
0.850521
0.850521
0.848774
0.848774
0.848774
0.859655
0.859655
0.859655
0.860738
0.860738
0.860738
0.859655
0.859655
0.859655
0.860206
0.860206
0.860206
0.86125
0.86125
0.86125
0.860738
0.860738
0.860738
0.860207
0.860207
0.860207
0.853733
0.853733
0.853733
0.854479
0.854479
0.854479
0.853733
0.853733
0.853733
0.857875
0.857875
0.857875
0.857875
0.857875
0.857875
0.853732
0.853732
0.853732
0.855905
0.855905
0.855905
0.855204
0.855204
0.855204
0.856584
0.856584
0.856584
0.856584
0.856584
0.856584
0.855905
0.855905
0.855905
0.855204
0.855204
0.855204
0.828356
0.828356
0.828356
0.829732
0.829732
0.829732
0.831078
0.831078
0.831078
0.829733
0.829733
0.829733
0.843977
0.843977
0.843977
0.841879
0.841879
0.841879
0.842941
0.842941
0.842941
0.843977
0.843977
0.843977
0.839674
0.839674
0.839674
0.83368
0.83368
0.83368
0.834936
0.834936
0.834936
0.829733
0.829733
0.829733
0.826948
0.826948
0.826948
0.826948
0.826948
0.826948
0.826948
0.826948
0.826948
0.826948
0.826948
0.826948
0.845972
0.845972
0.845972
0.834936
0.834936
0.834936
0.833679
0.833679
0.833679
0.824038
0.824038
0.824038
0.824038
0.824038
0.824038
0.825509
0.825509
0.825509
0.825509
0.825509
0.825509
0.824038
0.824038
0.824038
0.82551
0.82551
0.82551
0.82551
0.82551
0.82551
0.822534
0.822534
0.822534
0.822535
0.822535
0.822535
0.820998
0.820998
0.820998
0.820998
0.820998
0.820998
0.822535
0.822535
0.822535
0.824039
0.824039
0.824039
0.824039
0.824039
0.824039
0.828357
0.828357
0.828357
0.828356
0.828356
0.828356
0.829732
0.829732
0.829732
0.831078
0.831078
0.831078
0.844985
0.844985
0.844985
0.845969
0.845969
0.845969
0.845969
0.845969
0.845969
0.844985
0.844985
0.844985
0.843976
0.843976
0.843976
0.844985
0.844985
0.844985
0.84294
0.84294
0.84294
0.844985
0.844985
0.844985
0.844986
0.844986
0.844986
0.84294
0.84294
0.84294
0.839675
0.839675
0.839675
0.845969
0.845969
0.845969
0.845969
0.845969
0.845969
0.846928
0.846928
0.846928
0.834941
0.834941
0.834941
0.854477
0.854477
0.854477
0.852963
0.852963
0.852963
0.853731
0.853731
0.853731
0.854477
0.854477
0.854477
0.854476
0.854476
0.854476
0.854475
0.854475
0.854475
0.852171
0.852171
0.852171
0.852963
0.852963
0.852963
0.853731
0.853731
0.853731
0.85373
0.85373
0.85373
0.852962
0.852962
0.852962
0.852171
0.852171
0.852171
0.852964
0.852964
0.852964
0.852173
0.852173
0.852173
0.849659
0.849659
0.849659
0.850521
0.850521
0.850521
0.851359
0.851359
0.851359
0.84966
0.84966
0.84966
0.851359
0.851359
0.851359
0.850521
0.850521
0.850521
0.848774
0.848774
0.848774
0.846929
0.846929
0.846929
0.848773
0.848773
0.848773
0.849659
0.849659
0.849659
0.850521
0.850521
0.850521
0.849659
0.849659
0.849659
0.85052
0.85052
0.85052
0.851358
0.851358
0.851358
0.852172
0.852172
0.852172
0.85052
0.85052
0.85052
0.839674
0.839674
0.839674
0.839674
0.839674
0.839674
0.837362
0.837362
0.837362
0.837362
0.837362
0.837362
0.837361
0.837361
0.837361
0.826959
0.826959
0.826959
0.828364
0.828364
0.828364
0.824046
0.824046
0.824046
0.836164
0.836164
0.836164
0.833685
0.833685
0.833685
0.824077
0.824077
0.824077
0.826973
0.826973
0.826973
0.824073
0.824073