<VTKFile type="UnstructuredGrid" version="1.0">
<UnstructuredGrid>
<Piece NumberOfPoints="11046" NumberOfCells="3682">
<Points>
<DataArray type="Float64" NumberOfComponents="3" format="ascii">
2.48358 1.77342 8.4402
2.46979 1.78721 8.4325
2.49736 1.75964 8.4325
2.17682 2.08018 8.44892
2.16411 2.09289 8.4325
2.1809 2.0761 8.4325
2.17682 2.08018 8.44892
2.16411 2.09289 8.4564
2.16411 2.09289 8.4325
2.49736 1.75964 9.3325
2.46979 1.78721 9.3325
2.48358 1.77342 9.3248
2.66273 1.59427 9.31146
2.66273 1.59427 9.3325
2.64895 1.60805 9.32481
2.4284 1.8286 9.20987
2.4422 1.8148 9.19852
2.4422 1.8148 9.22121
2.64895 1.60805 8.44019
2.66273 1.59427 8.4325
2.66273 1.59427 8.45354
2.46979 1.78721 8.47581
2.48358 1.77342 8.4638
2.48358 1.77342 8.48683
2.48358 1.77342 8.48683
2.48358 1.77342 8.4638
2.49736 1.75964 8.47581
2.49735 1.75965 8.85998
2.51114 1.74586 8.87124
2.49735 1.75965 8.8825
2.16411 2.09289 8.90501
2.16411 2.09289 8.8825
2.17811 2.07889 8.89375
2.8005 1.4565 9.1079
2.78672 1.47028 9.1192
2.78672 1.47028 9.09661
2.66271 1.59429 9.10796
2.67649 1.58051 9.09666
2.67649 1.58051 9.11926
2.67649 1.58051 9.11926
2.67649 1.58051 9.09666
2.69027 1.56673 9.10795
2.64895 1.60805 9.32481
2.66273 1.59427 9.3325
2.63517 1.62183 9.3325
2.55249 1.70451 9.2892
2.56627 1.69073 9.3012
2.55249 1.70451 9.31145
2.58005 1.67695 9.2892
2.56627 1.69073 9.3012
2.56627 1.69073 9.27817
2.56627 1.69073 9.27817
2.56627 1.69073 9.3012
2.55249 1.70451 9.2892
2.49735 1.75965 8.97259
2.48357 1.77343 8.98385
2.48357 1.77343 8.96132
2.49735 1.75965 8.8825
2.51114 1.74586 8.87124
2.51114 1.74586 8.89376
2.48357 1.77343 9.0515
2.49736 1.75964 9.06278
2.48357 1.77343 9.07407
2.48358 1.77342 9.3248
2.46979 1.78721 9.3325
2.46979 1.78721 9.31145
2.7867 1.4703 8.55531
2.8005 1.4565 8.56668
2.78671 1.47029 8.57795
2.63516 1.62184 8.85998
2.64894 1.60806 8.84872
2.64894 1.60806 8.87124
2.456 1.801 8.4402
2.44221 1.81479 8.4325
2.46979 1.78721 8.4325
2.46979 1.78721 8.47581
2.456 1.801 8.4638
2.46979 1.78721 8.45355
2.46979 1.78721 8.45355
2.48358 1.77342 8.4638
2.46979 1.78721 8.47581
2.46979 1.78721 8.45355
2.456 1.801 8.4402
2.46979 1.78721 8.4325
2.456 1.801 8.4638
2.456 1.801 8.4402
2.46979 1.78721 8.45355
2.46979 1.78721 8.45355
2.46979 1.78721 8.4325
2.48358 1.77342 8.4402
2.48358 1.77342 8.4402
2.48358 1.77342 8.4638
2.46979 1.78721 8.45355
2.49736 1.75964 8.47581
2.48358 1.77342 8.4638
2.49736 1.75964 8.45355
2.49736 1.75964 8.45355
2.51114 1.74586 8.4638
2.49736 1.75964 8.47581
2.48358 1.77342 8.4402
2.49736 1.75964 8.4325
2.49736 1.75964 8.45355
2.49736 1.75964 8.45355
2.48358 1.77342 8.4638
2.48358 1.77342 8.4402
2.48358 1.77342 8.50966
2.48358 1.77342 8.48683
2.49736 1.75964 8.4984
2.49736 1.75964 8.4984
2.48358 1.77342 8.48683
2.49736 1.75964 8.47581
2.52492 1.73208 8.70222
2.52492 1.73208 8.67964
2.53871 1.71829 8.69093
2.51114 1.74586 8.69093
2.52492 1.73208 8.67964
2.52492 1.73208 8.70222
2.63517 1.62183 8.4325
2.66273 1.59427 8.4325
2.64895 1.60805 8.44019
2.49736 1.75964 8.4325
2.52493 1.73207 8.4325
2.51114 1.74586 8.4402
2.51114 1.74586 8.4402
2.49736 1.75964 8.45355
2.49736 1.75964 8.4325
2.51114 1.74586 8.4638
2.49736 1.75964 8.45355
2.51114 1.74586 8.4402
2.51114 1.74586 8.84872
2.49735 1.75965 8.85998
2.49735 1.75965 8.83746
2.51114 1.74586 8.87124
2.49735 1.75965 8.85998
2.51114 1.74586 8.84872
2.51114 1.74586 8.84872
2.52492 1.73208 8.85998
2.51114 1.74586 8.87124
2.78672 1.47028 8.82621
2.8005 1.4565 8.81495
2.8005 1.4565 8.83747
2.8005 1.4565 8.70225
2.78672 1.47028 8.69096
2.8005 1.4565 8.67968
2.8005 1.4565 8.99511
2.8005 1.4565 9.01765
2.78672 1.47028 9.00638
2.78672 1.47028 9.02892
2.77294 1.48406 9.0402
2.77294 1.48406 9.01765
2.78672 1.47028 9.02892
2.8005 1.4565 9.01765
2.8005 1.4565 9.04019
2.77294 1.48406 9.01765
2.78672 1.47028 9.00638
2.78672 1.47028 9.02892
2.78672 1.47028 9.02892
2.78672 1.47028 9.00638
2.8005 1.4565 9.01765
2.78672 1.47028 9.05147
2.8005 1.4565 9.04019
2.8005 1.4565 9.06275
2.78672 1.47028 9.05147
2.78672 1.47028 9.02892
2.8005 1.4565 9.04019
2.77294 1.48406 9.0402
2.78672 1.47028 9.02892
2.78672 1.47028 9.05147
2.8005 1.4565 9.1079
2.78672 1.47028 9.09661
2.8005 1.4565 9.08532
2.75915 1.49785 9.11923
2.74538 1.51162 9.10793
2.75916 1.49784 9.09663
2.75916 1.49784 9.07405
2.75916 1.49784 9.09663
2.74538 1.51162 9.08534
2.74538 1.51162 9.08534
2.74538 1.51162 9.10793
2.7316 1.5254 9.09664
2.74538 1.51162 9.08534
2.75916 1.49784 9.09663
2.74538 1.51162 9.10793
2.8005 1.4565 8.92753
2.78672 1.47028 8.91628
2.8005 1.4565 8.90502
2.78672 1.47028 8.98385
2.8005 1.4565 8.97258
2.8005 1.4565 8.99511
2.8005 1.4565 8.99511
2.78672 1.47028 9.00638
2.78672 1.47028 8.98385
2.78672 1.47028 8.98385
2.78672 1.47028 8.96132
2.8005 1.4565 8.97258
2.77294 1.48406 8.97258
2.78672 1.47028 8.96132
2.78672 1.47028 8.98385
2.69027 1.56673 9.22123
2.6765 1.5805 9.23261
2.67649 1.58051 9.20989
2.67651 1.58049 9.27819
2.66273 1.59427 9.28921
2.66273 1.59427 9.26661
2.64895 1.60805 9.30121
2.66273 1.59427 9.31146
2.64895 1.60805 9.32481
2.64895 1.60805 9.30121
2.66273 1.59427 9.28921
2.66273 1.59427 9.31146
2.6903 1.5667 9.31147
2.6903 1.5667 9.28922
2.70409 1.55291 9.30124
2.69027 1.56673 9.10795
2.67649 1.58051 9.09666
2.69027 1.56673 9.08536
2.67649 1.58051 9.09666
2.67649 1.58051 9.07407
2.69027 1.56673 9.08536
2.69027 1.56673 9.06278
2.70405 1.55295 9.07407
2.69027 1.56673 9.08536
2.69027 1.56673 9.08536
2.67649 1.58051 9.07407
2.69027 1.56673 9.06278
2.69027 1.56673 9.13057
2.67649 1.58051 9.11926
2.69027 1.56673 9.10795
2.69027 1.56673 9.13057
2.70404 1.55296 9.14188
2.69027 1.56673 9.1532
2.8005 1.4565 9.13049
2.78672 1.47028 9.1192
2.8005 1.4565 9.1079
2.49736 1.75964 9.31145
2.49736 1.75964 9.3325
2.48358 1.77342 9.3248
2.52493 1.73207 9.31145
2.52493 1.73207 9.3325
2.51114 1.74586 9.3248
2.51114 1.74586 9.3248
2.51114 1.74586 9.3012
2.52493 1.73207 9.31145
2.51114 1.74586 9.3248
2.52493 1.73207 9.3325
2.49736 1.75964 9.3325
2.49736 1.75964 9.3325
2.49736 1.75964 9.31145
2.51114 1.74586 9.3248
2.51114 1.74586 9.3248
2.49736 1.75964 9.31145
2.51114 1.74586 9.3012
2.51114 1.74586 9.3012
2.49736 1.75964 9.31145
2.49736 1.75964 9.2892
2.56627 1.69073 9.32481
2.58005 1.67695 9.3325
2.55249 1.70451 9.3325
2.55249 1.70451 9.3325
2.55249 1.70451 9.31145
2.56627 1.69073 9.32481
2.56627 1.69073 9.32481
2.55249 1.70451 9.31145
2.56627 1.69073 9.3012
2.53871 1.71829 9.3248
2.52493 1.73207 9.3325
2.52493 1.73207 9.31145
2.55249 1.70451 9.3325
2.52493 1.73207 9.3325
2.53871 1.71829 9.3248
2.53871 1.71829 9.3248
2.55249 1.70451 9.31145
2.55249 1.70451 9.3325
2.55249 1.70451 9.2892
2.55249 1.70451 9.31145
2.53871 1.71829 9.3012
2.53871 1.71829 9.3012
2.53871 1.71829 9.27817
2.55249 1.70451 9.2892
2.53871 1.71829 9.3012
2.53871 1.71829 9.3248
2.52493 1.73207 9.31145
2.55249 1.70451 9.31145
2.53871 1.71829 9.3248
2.53871 1.71829 9.3012
2.55249 1.70451 9.2666
2.56627 1.69073 9.27817
2.55249 1.70451 9.2892
2.55249 1.70451 9.2666
2.53871 1.71829 9.27817
2.53871 1.71829 9.25534
2.55249 1.70451 9.2892
2.53871 1.71829 9.27817
2.55249 1.70451 9.2666
2.46978 1.78722 8.99512
2.48357 1.77343 8.98385
2.48357 1.77343 9.00639
2.48357 1.77343 9.00639
2.46978 1.78722 9.01766
2.46978 1.78722 8.99512
2.49736 1.75964 9.04022
2.49736 1.75964 9.06278
2.48357 1.77343 9.0515
2.46978 1.78722 8.92754
2.48357 1.77343 8.91628
2.48357 1.77343 8.9388
2.48357 1.77343 8.9388
2.48357 1.77343 8.91628
2.49735 1.75965 8.92754
2.46978 1.78722 8.97259
2.48357 1.77343 8.98385
2.46978 1.78722 8.99512
2.46978 1.78722 8.97259
2.48357 1.77343 8.96132
2.48357 1.77343 8.98385
2.51114 1.74586 8.87124
2.52492 1.73208 8.85998
2.52492 1.73208 8.8825
2.52492 1.73208 8.8825
2.51114 1.74586 8.89376
2.51114 1.74586 8.87124
2.49735 1.75965 8.92754
2.48357 1.77343 8.91628
2.49735 1.75965 8.90502
2.49735 1.75965 8.8825
2.51114 1.74586 8.89376
2.49735 1.75965 8.90502
2.49736 1.75964 9.10796
2.49736 1.75964 9.13057
2.48357 1.77343 9.11926
2.4284 1.8286 9.18718
2.4422 1.8148 9.19852
2.4284 1.8286 9.20987
2.3455 1.9115 9.32476
2.35934 1.89766 9.3325
2.33165 1.92535 9.3325
2.4146 1.8424 9.19852
2.4284 1.8286 9.18718
2.4284 1.8286 9.20987
2.4146 1.8424 9.17585
2.4284 1.8286 9.18718
2.4146 1.8424 9.19852
2.456 1.801 9.25534
2.46979 1.78721 9.2666
2.456 1.801 9.27817
2.456 1.801 9.27817
2.46979 1.78721 9.2666
2.46979 1.78721 9.28919
2.42841 1.82859 9.27816
2.42841 1.82859 9.25533
2.44221 1.81479 9.2666
2.44221 1.81479 9.2666
2.44221 1.81479 9.28919
2.42841 1.82859 9.27816
2.44221 1.81479 9.2666
2.4422 1.8148 9.24391
2.456 1.801 9.25534
2.42841 1.82859 9.25533
2.4422 1.8148 9.24391
2.44221 1.81479 9.2666
2.456 1.801 9.25534
2.456 1.801 9.27817
2.44221 1.81479 9.2666
2.44221 1.81479 9.2666
2.456 1.801 9.27817
2.44221 1.81479 9.28919
2.46979 1.78721 9.3325
2.44221 1.81479 9.3325
2.456 1.801 9.3248
2.456 1.801 9.3248
2.46979 1.78721 9.31145
2.46979 1.78721 9.3325
2.42841 1.82859 9.27816
2.44221 1.81479 9.28919
2.42841 1.82859 9.30119
2.16411 2.09289 9.3325
2.17682 2.08018 9.31608
2.1809 2.0761 9.3325
2.1809 2.0761 9.3325
2.17682 2.08018 9.31608
2.19211 2.06489 9.31031
2.19211 2.06489 9.31031
2.19593 2.06107 9.3325
2.1809 2.0761 9.3325
2.78688 1.47012 8.44074
2.77324 1.48376 8.4325
2.8005 1.4565 8.4325
2.77293 1.48407 8.47599
2.78673 1.47027 8.46427
2.78669 1.47031 8.48722
2.8005 1.4565 8.54407
2.8005 1.4565 8.56668
2.7867 1.4703 8.55531
2.78669 1.47031 8.48722
2.78673 1.47027 8.46427
2.8005 1.4565 8.47645
2.8005 1.4565 8.47645
2.8005 1.4565 8.49891
2.78669 1.47031 8.48722
2.78669 1.47031 8.48722
2.8005 1.4565 8.49891
2.78669 1.47031 8.50997
2.8005 1.4565 8.6571
2.78672 1.47028 8.6458
2.8005 1.4565 8.63451
2.78672 1.47028 8.6232
2.8005 1.4565 8.61191
2.8005 1.4565 8.63451
2.8005 1.4565 8.63451
2.78672 1.47028 8.6458
2.78672 1.47028 8.6232
2.8005 1.4565 8.5893
2.78671 1.47029 8.57795
2.8005 1.4565 8.56668
2.66273 1.59427 8.4325
2.69029 1.56671 8.4325
2.67651 1.58049 8.44018
2.67651 1.58049 8.44018
2.66273 1.59427 8.45354
2.66273 1.59427 8.4325
2.64894 1.60806 8.60047
2.64894 1.60806 8.62311
[...]
<PointData Scalars="View Factor" >
<DataArray type="Float64" Name="View Factor" NumberOfComponents="1" format="ascii">
0.691043
0.691043
0.691043
0.662947
0.662947
0.662947
0.66301
0.66301
0.66301
0.690963
0.690963
0.690963
0.723645
0.723645
0.723645
0.669001
0.669001
0.669001
0.723751
0.723751
0.723751
0.689203
0.689203
0.689203
0.692806
0.692806
0.692806
0.697662
0.697662
0.697662
0.662972
0.662972
0.662972
0.72252
0.72252
0.72252
0.724232
0.724232
0.724232
0.724503
0.724503
0.724503
0.72316
0.72316
0.72316
0.712041
0.712041
0.712041
0.714584
0.714584
0.714584
0.71293
0.71293
0.71293
0.692761
0.692761
0.692761
0.699164
0.699164
0.699164
0.692753
0.692753
0.692753
0.687219
0.687219
0.687219
0.722597
0.722597
0.722597
0.722942
0.722942
0.722942
0.678872
0.678872
0.678872
0.683244
0.683244
0.683244
0.687294
0.687294
0.687294
0.683246
0.683246
0.683246
0.6811
0.6811
0.6811
0.687296
0.687296
0.687296
0.689205
0.689205
0.689205
0.694504
0.694504
0.694504
0.697699
0.697699
0.697699
0.694505
0.694505
0.694505
0.692808
0.692808
0.692808
0.692804
0.692804
0.692804
0.694501
0.694501
0.694501
0.705825
0.705825
0.705825
0.703334
0.703334
0.703334
0.723266
0.723266
0.723266
0.700647
0.700647
0.700647
0.697702
0.697702
0.697702
0.699203
0.699203
0.699203
0.697665
0.697665
0.697665
0.699166
0.699166
0.699166
0.701992
0.701992
0.701992
0.72231
0.72231
0.72231
0.72233
0.72233
0.72233
0.722284
0.722284
0.722284
0.723216
0.723216
0.723216
0.722281
0.722281
0.722281
0.723001
0.723001
0.723001
0.722533
0.722533
0.722533
0.722278
0.722278
0.722278
0.722531
0.722531
0.722531
0.722998
0.722998
0.722998
0.72227
0.72227
0.72227
0.724102
0.724102
0.724102
0.724104
0.724104
0.724104
0.724481
0.724481
0.724481
0.724243
0.724243
0.724243
0.722297
0.722297
0.722297
0.722289
0.722289
0.722289
0.722537
0.722537
0.722537
0.72254
0.72254
0.72254
0.723007
0.723007
0.723007
0.724486
0.724486
0.724486
0.724045
0.724045
0.724045
0.723416
0.723416
0.723416
0.723649
0.723649
0.723649
0.724729
0.724729
0.724729
0.724607
0.724607
0.724607
0.724505
0.724505
0.724505
0.724761
0.724761
0.724761
0.72461
0.72461
0.72461
0.724605
0.724605
0.724605
0.72475
0.72475
0.72475
0.722267
0.722267
0.722267
0.694425
0.694425
0.694425
0.703273
0.703273
0.703273
0.701948
0.701948
0.701948
0.700563
0.700563
0.700563
0.69762
0.69762
0.69762
0.699123
0.699123
0.699123
0.697622
0.697622
0.697622
0.713772
0.713772
0.713772
0.712039
0.712039
0.712039
0.712927
0.712927
0.712927
0.705761
0.705761
0.705761
0.708042
0.708042
0.708042
0.710131
0.710131
0.710131
0.710135
0.710135
0.710135
0.709115
0.709115
0.709115
0.706928
0.706928
0.706928
0.709112
0.709112
0.709112
0.712043
0.712043
0.712043
0.709117
0.709117
0.709117
0.710137
0.710137
0.710137
0.689156
0.689156
0.689156
0.687245
0.687245
0.687245
0.69445
0.69445
0.69445
0.689162
0.689162
0.689162
0.692764
0.692764
0.692764
0.687247
0.687247
0.687247
0.689158
0.689158
0.689158
0.703318
0.703318
0.703318
0.70199
0.70199
0.70199
0.694463
0.694463
0.694463
0.69766
0.69766
0.69766
0.694444
0.694444
0.694444
0.666314
0.666314
0.666314
0.662187
0.662187
0.662187
0.660632
0.660632
0.660632
0.660254
0.660254
0.660254
0.68103
0.68103
0.68103
0.683174
0.683174
0.683174
0.666311
0.666311
0.666311
0.668998
0.668998
0.668998
0.674084
0.674084
0.674084
0.668999
0.668999
0.668999
0.676487
0.676487
0.676487
0.674083
0.674083
0.674083
0.678796
0.678796
0.678796
0.68317
0.68317
0.68317
0.66631
0.66631
0.66631
0.662874
0.662874
0.662874
0.662784
0.662784
0.662784
0.662733
0.662733
0.662733
0.722844
0.722844
0.722844
0.723075
0.723075
0.723075
0.722347
0.722347
0.722347
0.722608
0.722608
0.722608
0.722356
0.722356
0.722356
0.722606
0.722606
0.722606
0.722335
0.722335
0.722335
0.722339
0.722339
0.722339
0.722588
0.722588
0.722588
0.722345
0.722345
0.722345
0.724458
0.724458
0.724458
0.724146
0.724146
0.724146
0.722969
0.722969
0.722969
0.721984
0.721984
0.721984
0.722665
0.722665
0.722665
0.723501
0.723501
0.723501
0.720291
0.720291
0.720291
0.71927
0.71927
0.71927
0.723519
0.723519
0.723519
0.72375
0.72375
0.72375
0.723517
0.723517
0.723517
0.723717
0.723717
0.723717
0.724111
0.724111
0.724111
0.722638
0.722638
0.722638
0.681098
0.681098
0.681098
0.716842
0.716842
0.716842
0.712129
0.712129
0.712129
0.717517
0.717517
0.717517
0.720281
0.720281
0.720281
0.71926
0.71926
0.71926
0.715409
0.715409
0.715409
0.716833
0.716833
0.716833
0.69768
0.69768
0.69768
0.694484
0.694484
0.694484
0.70699
0.70699
0.70699
0.705822
0.705822
0.705822
0.709174
0.709174
0.709174
0.706988
0.706988
0.706988
0.710194
0.710194
0.710194
0.709171
0.709171
0.709171
0.719266
0.719266
0.719266
0.713865
0.713865
0.713865
0.717519
0.717519
0.717519
0.716859
0.716859
0.716859
0.715436
0.715436
0.715436
0.718731
0.718731
0.718731
0.699202
0.699202
0.699202
0.702028
0.702028
0.702028
0.703353
0.703353
0.703353
0.697698
0.697698
0.697698
0.694469
0.694469
0.694469
0.674117
0.674117
0.674117
0.712099
0.712099
0.712099
0.710192
0.710192
0.710192
0.712094
0.712094
0.712094
0.712981
0.712981
0.712981
0.714634
0.714634
0.714634
0.701998
0.701998
0.701998
0.703326
0.703326
0.703326
0.683214
0.683214
0.683214
0.687265
0.687265
0.687265
0.689174
0.689174
0.689174
0.709163
0.709163
0.709163
0.712979
0.712979
0.712979
0.710185
0.710185
0.710185
0.712091
0.712091
0.712091
0.712089
0.712089
0.712089
0.710183
0.710183
0.710183
0.699169
0.699169
0.699169
0.72452
0.72452
0.72452
0.724793
0.724793
0.724793
0.724885
0.724885
0.724885
0.724842
0.724842
0.724842
0.724515
0.724515
0.724515
0.724616
0.724616
0.724616
0.72428
0.72428
0.72428
0.724279
0.724279
0.724279
0.724139
0.724139
0.724139
0.724137
0.724137
0.724137
0.723816
0.723816
0.723816
0.722305
0.722305
0.722305
0.722313
0.722313
0.722313
0.723031
0.723031
0.723031
0.722562
0.722562
0.722562
0.72256
0.72256
0.72256
0.722307
0.722307
0.722307
0.722557
0.722557
0.722557
0.723023
0.723023
0.723023
0.723044
0.723044
0.723044
0.722579
0.722579
0.722579
0.72232
0.72232
0.72232
0.722572
0.722572
0.722572
0.661691
0.661691
0.661691
0.662855
0.662855
0.662855
0.662919
0.662919
0.662919
0.723787
0.723787
0.723787
0.723211
0.723211
0.723211
0.723608
0.723608
0.723608
0.72424
0.72424
0.72424
0.722517
0.722517
0.722517
0.722264
0.722264
0.722264
0.723784
0.723784
0.723784
0.723606
0.723606
0.723606
0.722987
0.722987
0.722987
0.72378
0.72378
0.72378
0.723205
0.723205
0.723205
0.723602
0.723602
0.723602
0.703307
0.703307
0.703307
0.699156
0.699156
0.699156
0.701981
0.701981
0.701981
0.694459
0.694459
0.694459
0.697654
0.697654
0.697654
0.692763
0.692763
0.692763
0.69446
0.69446
0.69446
0.703316
0.703316
0.703316
0.712087
0.712087
0.712087
0.712977
0.712977
0.712977
0.714622
0.714622
0.714622
0.715391
0.715391
0.715391
0.723464
0.723464
0.723464
0.724611
0.724611
0.724611
0.724765
0.724765
0.724765
0.724254
0.724254
0.724254
0.724525
0.724525
0.724525
0.724616
0.724616
0.724616
0.724079
0.724079
0.724079
0.721943
0.721943
0.721943
0.721564
0.721564
0.721564
0.724613
0.724613
0.724613
0.724507
0.724507
0.724507
0.724511
0.724511
0.724511
0.724243
0.724243
0.724243
0.724774
0.724774
0.724774
0.724768
0.724768
0.724768
0.724765
0.724765
0.724765
0.724811
0.724811
0.724811
0.724814
0.724814
0.724814
0.724855
0.724855
0.724855
0.724785
0.724785
0.724785
0.724589
0.724589
0.724589
0.724739
0.724739
0.724739
0.723611
0.723611
0.723611
0.723789
0.723789
0.723789
0.724111
0.724111
0.724111
0.724791
0.724791
0.724791
0.724837
0.724837
0.724837
0.72488
0.72488
0.72488
0.72484
0.72484
0.72484
0.724883
0.724883
0.724883
0.724796
0.724796
0.724796
0.723231
0.723231
0.723231
0.723013
0.723013
0.723013
0.722547
0.722547
0.722547
0.723227
0.723227
0.723227
0.723228
0.723228
0.723228
0.723012
0.723012
0.723012
0.724592
0.724592
0.724592
0.72365
0.72365
0.72365
0.723419
0.723419
0.723419
0.724212
0.724212
0.724212
0.724576
0.724576
0.724576
0.724038
0.724038
0.724038
0.724347
0.724347
0.724347
0.724588
0.724588
0.724588
0.724482
0.724482
0.724482
0.724778
0.724778
0.724778
0.715363
0.715363
0.715363
0.724237
0.724237
0.724237
0.723446
0.723446
0.723446
0.723676
0.723676
0.723676
0.72407
0.72407
0.72407
0.724801
0.724801
0.724801
0.724754
0.724754
0.724754
0.710162
0.710162
0.710162
0.689129
0.689129
0.689129
0.69273
0.69273
0.69273
0.694428
0.694428
0.694428
0.68722
0.68722
0.68722
0.717431
0.717431
0.717431
0.718642
0.718642
0.718642
0.712933
0.712933
0.712933
0.716773
0.716773
0.716773
0.715349
0.715349
0.715349
0.715346
0.715346
0.715346
0.71458
0.71458
0.71458
0.718048
0.718048
0.718048
0.716769
0.716769
0.716769
0.717428
0.717428
0.717428
0.719196
0.719196
0.719196
0.720217
0.720217
0.720217
0.719194
0.719194
0.719194
0.718638
0.718638
0.718638
0.721113
0.721113
0.721113
0.720214
0.720214
0.720214
0.72068
0.72068
0.72068
0.722581
0.722581
0.722581
0.722885
0.722885
0.722885
0.721901
0.721901
0.721901
0.721522
0.721522
0.721522
0.694453
0.694453
0.694453
0.692757
0.692757
0.692757
0.689154
0.689154
0.689154
0.692755
0.692755
0.692755
0.697646
0.697646
0.697646
0.703302
0.703302
0.703302
0.697648
0.697648
0.697648
0.701975
0.701975
0.701975
0.699149
0.699149
0.699149
0.687249
0.687249
0.687249
0.687251
0.687251
0.687251
0.689161
0.689161
0.689161
0.705808
0.705808
0.705808
0.710181
0.710181
0.710181
0.706976
0.706976
0.706976
0.709161
0.709161
0.709161
0.692749
0.692749
0.692749
0.706933
0.706933
0.706933
0.70912
0.70912
0.70912
0.712936
0.712936
0.712936
0.71014
0.71014
0.71014
0.712046
0.712046
0.712046
0.706938
0.706938
0.706938
0.687227
0.687227
0.687227
0.689135
0.689135
0.689135
0.683175
0.683175
0.683175
0.687225
0.687225
0.687225
0.683179
0.683179
0.683179
0.674087
0.674087
0.674087
0.676492
0.676492
0.676492
0.681034
0.681034
0.681034
0.705773
0.705773
0.705773
0.689137
0.689137
0.689137
0.687228
0.687228
0.687228
0.68914
0.68914
0.68914
0.692741
0.692741
0.692741
0.70197
0.70197
0.70197
0.699148
0.699148
0.699148
0.694438
0.694438
0.694438
0.699141
0.699141
0.699141
0.69764
0.69764
0.69764
0.699143
0.699143
0.699143
0.666312
0.666312
0.666312
0.666313
0.666313
0.666313
0.669
0.669
0.669
0.66063
0.66063
0.66063
0.676485
0.676485
0.676485
0.681026
0.681026
0.681026
0.683172
0.683172
0.683172
0.681028
0.681028
0.681028
0.663518
0.663518
0.663518
0.662685
0.662685
0.662685
0.662697
0.662697
0.662697
0.66268
0.66268
0.66268
0.662662
0.662662
0.662662
0.662694
0.662694
0.662694
0.662625
0.662625
0.662625
0.662634
0.662634
0.662634
0.662642
0.662642
0.662642
0.662679
0.662679
0.662679
0.662641
0.662641
0.662641
0.662792
0.662792
0.662792
0.662749
0.662749
0.662749
0.723291
0.723291
0.723291
0.723285
0.723285
0.723285
0.723072
0.723072
0.723072
0.722353
0.722353
0.722353
0.722358
0.722358
0.722358
0.722359
0.722359
0.722359
0.722608
0.722608
0.722608
0.723291
0.723291
0.723291
0.723074
0.723074
0.723074
0.723837
0.723837
0.723837
0.724156
0.724156
0.724156
0.722585
0.722585
0.722585
0.722332
0.722332
0.722332
0.722582
0.722582
0.722582
0.722594
0.722594
0.722594
0.722591
0.722591
0.722591
0.722341
0.722341
0.722341
0.724311
0.724311
0.724311
0.724309
0.724309
0.724309
0.724146
0.724146
0.724146
0.724916
0.724916
0.724916
0.724925
0.724925
0.724925
0.724928
0.724928
0.724928
0.721605
0.721605
0.721605
0.716841
0.716841
0.716841
0.717499
0.717499
0.717499
0.718711
0.718711
0.718711
0.719267
0.719267
0.719267
0.718709
0.718709
0.718709
0.717497
0.717497
0.717497
0.719272
0.719272
0.719272
0.716845
0.716845
0.716845
0.718714
0.718714
0.718714
0.717501
0.717501
0.717501
0.720295
0.720295
0.720295
0.720761
0.720761
0.720761
0.720292
0.720292
0.720292
0.721982
0.721982
0.721982
0.721603
0.721603
0.721603
0.720758
0.720758
0.720758
0.720757
0.720757
0.720757
0.721599
0.721599
0.721599
0.716848
0.716848
0.716848
0.715429
0.715429
0.715429
0.715427
0.715427
0.715427
0.71466
0.71466
0.71466
0.723731
0.723731
0.723731
0.72457
0.72457
0.72457
0.723512
0.723512
0.723512
0.724304
0.724304
0.724304
0.724307
0.724307
0.724307
0.724142
0.724142
0.724142
0.724141
0.724141
0.724141
0.723744
0.723744
0.723744
0.723745
0.723745
0.723745
0.723513
0.723513
0.723513
0.722684
0.722684
0.722684
0.722986
0.722986
0.722986
0.721963
0.721963
0.721963
0.721583
0.721583
0.721583
0.720745
0.720745
0.720745
0.721585
0.721585
0.721585
0.723484
0.723484
0.723484
0.723714
0.723714
0.723714
0.721957
0.721957
0.721957
0.722934
0.722934
0.722934
0.724642
0.724642
0.724642
0.720739
0.720739
0.720739
0.720273
0.720273
0.720273
0.722945
0.722945
0.722945
0.722641
0.722641
0.722641
0.722643
0.722643
0.722643
0.721962
0.721962
0.721962
0.683242
0.683242
0.683242
0.689202
0.689202
0.689202
0.687292
0.687292
0.687292
0.68729
0.68729
0.68729
0.674153
0.674153
0.674153
0.676556
0.676556
0.676556
0.703341
0.703341
0.703341
0.712107
0.712107
0.712107
0.715419
0.715419
0.715419
0.715417
0.715417
0.715417
0.71465
0.71465
0.71465
0.712994
0.712994
0.712994
0.714647
0.714647
0.714647
0.694496
0.694496
0.694496
0.6928
0.6928
0.6928
0.6892
0.6892
0.6892
0.708131
0.708131
0.708131
0.71022
0.71022
0.71022
0.716859
0.716859
0.716859
0.712124
0.712124
0.712124
0.712118
0.712118
0.712118
0.712116
0.712116
0.712116
0.713006
0.713006
0.713006
0.720283
0.720283
0.720283
0.720747
0.720747
0.720747
0.721589
0.721589
0.721589
0.723487
0.723487
0.723487
0.722955
0.722955
0.722955
0.681075
0.681075
0.681075
0.694485
0.694485
0.694485
0.692787
0.692787
0.692787
0.705829
0.705829
0.705829
0.710202
0.710202
0.710202
0.703337
0.703337
0.703337
0.697681
0.697681
0.697681
0.702009
0.702009
0.702009
0.699184
0.699184
0.699184
0.7102
0.7102
0.7102
0.70918
0.70918
0.70918
0.706995
0.706995
0.706995
0.705827
0.705827
0.705827
0.706993
0.706993
0.706993
0.709178
0.709178
0.709178
0.703333
0.703333
0.703333
0.702007
0.702007
0.702007
0.699181
0.699181
0.699181
0.718708
0.718708
0.718708
0.719263
0.719263
0.719263
0.717492
0.717492
0.717492
0.718704
0.718704
0.718704
0.712991
0.712991
0.712991
0.712101
0.712101
0.712101
0.714642
0.714642
0.714642
0.712989
0.712989
0.712989
0.718145
0.718145
0.718145
0.713016
0.713016
0.713016
0.714669
0.714669
0.714669
0.713014
0.713014
0.713014
0.712126
0.712126
0.712126
0.716862
0.716862
0.716862
0.717521
0.717521
0.717521
0.716864
0.716864
0.716864
0.715438
0.715438
0.715438
0.715439
0.715439
0.715439
0.71467
0.71467
0.71467
0.687253
0.687253
0.687253
0.683202
0.683202
0.683202
0.681057
0.681057
0.681057
0.669029
0.669029
0.669029
0.705821
0.705821
0.705821
0.706987
0.706987
0.706987
0.705819
0.705819
0.705819
0.715403
0.715403
0.715403
0.714636
0.714636
0.714636
0.716829
0.716829
0.716829
0.715405
0.715405
0.715405
0.715401
0.715401
0.715401
0.714632
0.714632
0.714632
0.703324
0.703324
0.703324
0.701996
0.701996
0.701996
0.705816
0.705816
0.705816
0.71019
0.71019
0.71019
0.70917
0.70917
0.70917
0.706984
0.706984
0.706984
0.702001
0.702001
0.702001
0.699175
0.699175
0.699175
0.697672
0.697672
0.697672
0.703329
0.703329
0.703329
0.676523
0.676523
0.676523
0.681069
0.681069
0.681069
0.692777
0.692777
0.692777
0.699173
0.699173
0.699173
0.697671
0.697671
0.697671
0.694475
0.694475
0.694475
0.706977
0.706977
0.706977
0.705812
0.705812
0.705812
0.703322
0.703322
0.703322
0.701995
0.701995
0.701995
0.70581
0.70581
0.70581
0.70332
0.70332
0.70332
0.692773
0.692773
0.692773
0.69917
0.69917
0.69917
0.697669
0.697669
0.697669
0.694473
0.694473
0.694473
0.692775
0.692775
0.692775
0.697667
0.697667
0.697667
0.69447
0.69447
0.69447
0.681077
0.681077
0.681077
0.683222
0.683222
0.683222
0.687273
0.687273
0.687273
0.689184
0.689184
0.689184
0.703339
0.703339
0.703339
0.702013
0.702013
0.702013
0.699188
0.699188
0.699188
0.697684
0.697684
0.697684
0.699185
0.699185
0.699185
0.702011
0.702011
0.702011
0.72477
0.72477
0.72477
0.724618
0.724618
0.724618
0.724522
0.724522
0.724522
0.724824
0.724824
0.724824
0.724772
0.724772
0.724772
0.724622
0.724622
0.724622
0.723249
0.723249
0.723249
0.723025
0.723025
0.723025
0.72382
0.72382
0.72382
0.723637
0.723637
0.723637
0.723241
0.723241
0.723241
0.723244
0.723244
0.723244
0.723642
0.723642
0.723642
0.722327
0.722327
0.722327
0.722576
0.722576
0.722576
0.722323
0.722323
0.722323
0.72383
0.72383
0.72383
0.72304
0.72304
0.72304
0.723042
0.723042
0.723042
0.723258
0.723258
0.723258
0.723652
0.723652
0.723652
0.723833
0.723833
0.723833
0.723259
0.723259
0.723259
0.723655
0.723655
0.723655
0.662756
0.662756
0.662756
0.662712
0.662712
0.662712
0.662703
0.662703
0.662703
0.661432
0.661432
0.661432
0.661176
0.661176
0.661176
0.66155
0.66155
0.66155
0.661775
0.661775
0.661775
0.661551
0.661551
0.661551
0.66143
0.66143
0.66143
0.660749
0.660749
0.660749
0.661428
0.661428
0.661428
0.661172
0.661172
0.661172
0.661036
0.661036
0.661036
0.660757
0.660757
0.660757
0.660607
0.660607
0.660607
0.660291
0.660291
0.660291
0.663001
0.663001
0.663001
0.663002
0.663002
0.663002
0.662955
0.662955
0.662955
0.662947
0.662947
0.662947
0.662854
0.662854
0.662854
0.662862
0.662862
0.662862
0.662817
0.662817
0.662817
0.661044
0.661044
0.661044
0.661879
0.661879
0.661879
0.722983
0.722983
0.722983
0.723202
0.723202
0.723202
0.723599
0.723599
0.723599
0.72377
0.72377
0.72377
0.723208
0.723208
0.723208
0.722275
0.722275
0.722275
0.722524
0.722524
0.722524
0.72299
0.72299
0.72299
0.722528
0.722528
0.722528
0.722993
0.722993
0.722993
0.706968
0.706968
0.706968
0.705801
0.705801
0.705801
0.703309
0.703309
0.703309
0.7058
0.7058
0.7058
0.70198
0.70198
0.70198
0.703305
0.703305
0.703305
0.701977
0.701977
0.701977
0.699151
0.699151
0.699151
0.692759
0.692759
0.692759
0.694457
0.694457
0.694457
0.697652
0.697652
0.697652
0.699154
0.699154
0.699154
0.694455
0.694455
0.694455
0.69765
0.69765
0.69765
0.705806
0.705806
0.705806
0.709158
0.709158
0.709158
0.706974
0.706974
0.706974
0.710178
0.710178
0.710178
0.703314
0.703314
0.703314
0.697658
0.697658
0.697658
0.699162
0.699162
0.699162
0.701988
0.701988
0.701988
0.705803
0.705803
0.705803
0.706971
0.706971
0.706971
0.709156
0.709156
0.709156
0.706969
0.706969
0.706969
0.709151
0.709151
0.709151
0.712967
0.712967
0.712967
0.714624
0.714624
0.714624
0.715394
0.715394
0.715394
0.723693
0.723693
0.723693
0.724087
0.724087
0.724087
0.723687
0.723687
0.723687
0.724081
0.724081
0.724081
0.724245
0.724245
0.724245
0.724514
0.724514
0.724514
0.724619
0.724619
0.724619
0.716818
0.716818
0.716818
0.719242
0.719242
0.719242
0.718687
0.718687
0.718687
0.717476
0.717476
0.717476
0.720264
0.720264
0.720264
0.722931
0.722931
0.722931
0.722628
0.722628
0.722628
0.721945
0.721945
0.721945
0.72263
0.72263
0.72263
0.724875
0.724875
0.724875
0.724816
0.724816
0.724816
0.724761
0.724761
0.724761
0.724813
0.724813
0.724813
0.724274
0.724274
0.724274
0.724512
0.724512
0.724512
0.724133
0.724133
0.724133
0.724609
0.724609
0.724609
0.724271
0.724271
0.724271
0.724509
0.724509
0.724509
0.724872
0.724872
0.724872
0.724878
0.724878
0.724878
0.724522
0.724522
0.724522
0.724624
0.724624
0.724624
0.724779
0.724779
0.724779
0.724628
0.724628
0.724628
0.724817
0.724817
0.724817
0.72477
0.72477
0.72477
0.72482
0.72482
0.72482
0.724861
0.724861
0.724861
0.724795
0.724795
0.724795
0.724852
0.724852
0.724852
0.724858
0.724858
0.724858
0.724743
0.724743
0.724743
0.724797
0.724797
0.724797
0.724855
0.724855
0.724855
0.724843
0.724843
0.724843
0.724757
0.724757
0.724757
0.724807
0.724807
0.724807
0.724849
0.724849
0.724849
0.724803
0.724803
0.724803
0.724846
0.724846
0.724846
0.724582
0.724582
0.724582
0.724734
0.724734
0.724734
0.723792
0.723792
0.723792
0.724117
0.724117
0.724117
0.723002
0.723002
0.723002
0.723798
0.723798
0.723798
0.72322
0.72322
0.72322
0.723619
0.723619
0.723619
0.723219
0.723219
0.723219
0.723615
0.723615
0.723615
0.724766
0.724766
0.724766
0.724883
0.724883
0.724883
0.724819
0.724819
0.724819
0.724877
0.724877
0.724877
0.72482
0.72482
0.72482
0.72488
0.72488
0.72488
0.724826
0.724826
0.724826
0.724889
0.724889
0.724889
0.724846
0.724846
0.724846
0.724885
0.724885
0.724885
0.72489
0.72489
0.72489
0.724644
0.724644
0.724644
0.724539
0.724539
0.724539
0.72427
0.72427
0.72427
0.724107
0.724107
0.724107
0.724109
0.724109
0.724109
0.724273
0.724273
0.724273
0.724541
0.724541
0.724541
0.724276
0.724276
0.724276