<VTKFile type="UnstructuredGrid" version="1.0">
<UnstructuredGrid>
<Piece NumberOfPoints="8859" NumberOfCells="2953">
<Points>
<DataArray type="Float64" NumberOfComponents="3" format="ascii">
2.75455 1.50245 3.00263
2.76986 1.48714 3.01458
2.75465 1.50235 3.02833
2.78515 1.47185 2.95167
2.78516 1.47184 2.92651
2.8005 1.4565 2.93898
2.76981 1.48719 2.96436
2.78515 1.47185 2.95167
2.78514 1.47186 2.97686
2.72412 1.53288 3.05488
2.73952 1.51748 3.0625
2.70875 1.54825 3.0625
2.72412 1.53288 3.05488
2.73943 1.51757 3.03957
2.73952 1.51748 3.0625
2.75488 1.50212 3.05479
2.77036 1.48664 3.0625
2.73952 1.51748 3.0625
2.75488 1.50212 3.05479
2.73943 1.51757 3.03957
2.75465 1.50235 3.02833
2.73952 1.51748 3.0625
2.73943 1.51757 3.03957
2.75488 1.50212 3.05479
2.75465 1.50235 3.02833
2.76986 1.48714 3.01458
2.76997 1.48703 3.03927
2.76997 1.48703 3.03927
2.75488 1.50212 3.05479
2.75465 1.50235 3.02833
2.77036 1.48664 3.0625
2.75488 1.50212 3.05479
2.76997 1.48703 3.03927
2.76986 1.48714 3.01458
2.75455 1.50245 3.00263
2.76982 1.48718 2.98952
2.76981 1.48719 2.96436
2.78514 1.47186 2.97686
2.76982 1.48718 2.98952
2.7852 1.4718 3.02762
2.76997 1.48703 3.03927
2.76986 1.48714 3.01458
2.8005 1.4565 3.01395
2.8005 1.4565 3.03855
2.7852 1.4718 3.02762
2.8005 1.4565 2.91387
2.8005 1.4565 2.93898
2.78516 1.47184 2.92651
2.78515 1.47185 2.95167
2.8005 1.4565 2.93898
2.8005 1.4565 2.96406
2.8005 1.4565 2.96406
2.78514 1.47186 2.97686
2.78515 1.47185 2.95167
2.8005 1.4565 2.38652
2.8005 1.4565 2.41165
2.78518 1.47182 2.39907
2.78517 1.47183 2.85107
2.8005 1.4565 2.86361
2.78517 1.47183 2.87621
2.8005 1.4565 2.83848
2.8005 1.4565 2.86361
2.78517 1.47183 2.85107
2.78519 1.47181 2.72544
2.8005 1.4565 2.73799
2.78519 1.47181 2.75055
2.32274 1.93426 2.17059
2.33845 1.91855 2.1625
2.33845 1.91855 2.18563
2.27541 1.98159 3.0625
2.24359 2.01341 3.0625
2.25954 1.99746 3.05432
2.78515 1.47185 3.00212
2.76982 1.48718 2.98952
2.78514 1.47186 2.97686
2.76986 1.48714 3.01458
2.76982 1.48718 2.98952
2.78515 1.47185 3.00212
2.78515 1.47185 3.00212
2.7852 1.4718 3.02762
2.76986 1.48714 3.01458
2.8005 1.4565 3.01395
2.7852 1.4718 3.02762
2.78515 1.47185 3.00212
2.78544 1.47156 3.05384
2.8005 1.4565 3.03855
2.8005 1.4565 3.0625
2.78544 1.47156 3.05384
2.7852 1.4718 3.02762
2.8005 1.4565 3.03855
2.8005 1.4565 3.0625
2.77036 1.48664 3.0625
2.78544 1.47156 3.05384
2.77036 1.48664 3.0625
2.76997 1.48703 3.03927
2.78544 1.47156 3.05384
2.76997 1.48703 3.03927
2.7852 1.4718 3.02762
2.78544 1.47156 3.05384
2.78517 1.47183 2.87621
2.8005 1.4565 2.86361
2.8005 1.4565 2.88875
2.78514 1.47186 2.97686
2.8005 1.4565 2.96406
2.8005 1.4565 2.98907
2.8005 1.4565 3.01395
2.78515 1.47185 3.00212
2.8005 1.4565 2.98907
2.8005 1.4565 2.98907
2.78515 1.47185 3.00212
2.78514 1.47186 2.97686
2.8005 1.4565 2.71288
2.8005 1.4565 2.73799
2.78519 1.47181 2.72544
2.78518 1.47182 2.39907
2.8005 1.4565 2.41165
2.78518 1.47182 2.4242
2.76985 1.48715 2.83853
2.75454 1.50246 2.82598
2.76986 1.48714 2.81338
2.78516 1.47184 2.90136
2.8005 1.4565 2.91387
2.78516 1.47184 2.92651
2.78516 1.47184 2.90136
2.8005 1.4565 2.88875
2.8005 1.4565 2.91387
2.78516 1.47184 2.90136
2.76984 1.48716 2.88884
2.78517 1.47183 2.87621
2.78517 1.47183 2.87621
2.8005 1.4565 2.88875
2.78516 1.47184 2.90136
2.76982 1.48718 2.93918
2.78515 1.47185 2.95167
2.76981 1.48719 2.96436
2.76982 1.48718 2.93918
2.78516 1.47184 2.92651
2.78515 1.47185 2.95167
2.75451 1.50249 2.90149
2.7392 1.5178 2.91415
2.73921 1.51779 2.88894
2.53996 1.71704 3.02838
2.52458 1.73242 3.0149
2.53996 1.71704 3.00275
2.49374 1.76326 2.8638
2.49375 1.76325 2.889
2.47832 1.77868 2.87639
2.8005 1.4565 2.1625
2.8005 1.4565 2.18645
2.78544 1.47156 2.17116
2.27543 1.98157 3.03933
2.27541 1.98159 3.0625
2.25954 1.99746 3.05432
2.33845 1.91855 2.96446
2.32276 1.93424 2.97714
2.32275 1.93425 2.95185
2.25954 1.99746 3.05432
2.24359 2.01341 3.0625
2.24374 2.01326 3.03923
2.76987 1.48713 2.487
2.75455 1.50245 2.47443
2.76987 1.48713 2.46188
2.8005 1.4565 2.63759
2.78519 1.47181 2.62505
2.8005 1.4565 2.6125
2.78519 1.47181 2.67524
2.8005 1.4565 2.66269
2.8005 1.4565 2.68778
2.76988 1.48712 2.58741
2.75456 1.50244 2.59995
2.75456 1.50244 2.57486
2.76988 1.48712 2.6125
2.75456 1.50244 2.59995
2.76988 1.48712 2.58741
2.78519 1.47181 2.62505
2.76988 1.48712 2.63759
2.76988 1.48712 2.6125
2.75455 1.50245 2.75057
2.76987 1.48713 2.76312
2.75455 1.50245 2.7757
2.72393 1.53307 2.72547
2.72392 1.53308 2.75059
2.70861 1.54839 2.73803
2.75456 1.50244 2.72545
2.73924 1.51776 2.7129
2.75456 1.50244 2.70035
2.75456 1.50244 2.70035
2.76987 1.48713 2.71289
2.75456 1.50244 2.72545
2.73924 1.51776 2.7129
2.73925 1.51775 2.6878
2.75456 1.50244 2.70035
2.75456 1.50244 2.70035
2.73925 1.51775 2.6878
2.75456 1.50244 2.67524
2.8005 1.4565 2.68778
2.8005 1.4565 2.71288
2.78519 1.47181 2.70034
2.78519 1.47181 2.70034
2.78519 1.47181 2.67524
2.8005 1.4565 2.68778
2.78519 1.47181 2.70034
2.8005 1.4565 2.71288
2.78519 1.47181 2.72544
2.78519 1.47181 2.72544
2.76987 1.48713 2.71289
2.78519 1.47181 2.70034
2.75454 1.50246 2.80083
2.73923 1.51777 2.78828
2.75455 1.50245 2.7757
2.75454 1.50246 2.80083
2.76986 1.48714 2.81338
2.75454 1.50246 2.82598
2.7086 1.5484 2.7883
2.72392 1.53308 2.77572
2.72392 1.53308 2.80086
2.72392 1.53308 2.80086
2.72392 1.53308 2.77572
2.73923 1.51777 2.78828
2.8005 1.4565 2.7631
2.78519 1.47181 2.75055
2.8005 1.4565 2.73799
2.75455 1.50245 2.7757
2.76987 1.48713 2.76312
2.76986 1.48714 2.78825
2.76986 1.48714 2.78825
2.75454 1.50246 2.80083
2.75455 1.50245 2.7757
2.76986 1.48714 2.81338
2.75454 1.50246 2.80083
2.76986 1.48714 2.78825
2.78517 1.47183 2.87621
2.76984 1.48716 2.88884
2.76985 1.48715 2.86368
2.76985 1.48715 2.86368
2.78517 1.47183 2.85107
2.78517 1.47183 2.87621
2.76985 1.48715 2.83853
2.78517 1.47183 2.85107
2.76985 1.48715 2.86368
2.73921 1.51779 2.88894
2.73921 1.51779 2.86375
2.75452 1.50248 2.8763
2.75452 1.50248 2.8763
2.75451 1.50249 2.90149
2.73921 1.51779 2.88894
2.76984 1.48716 2.88884
2.75451 1.50249 2.90149
2.75452 1.50248 2.8763
2.75452 1.50248 2.8763
2.76985 1.48715 2.86368
2.76984 1.48716 2.88884
2.7239 1.5331 2.87638
2.73921 1.51779 2.86375
2.73921 1.51779 2.88894
2.7239 1.5331 2.87638
2.70859 1.54841 2.88901
2.70859 1.54841 2.86381
2.76981 1.48719 2.96436
2.76982 1.48718 2.98952
2.75451 1.50249 2.97722
2.75451 1.50249 2.97722
2.76982 1.48718 2.98952
2.75455 1.50245 3.00263
2.7392 1.5178 2.91415
2.75451 1.50249 2.90149
2.75451 1.50249 2.92669
2.75451 1.50249 2.92669
2.7392 1.5178 2.93937
2.7392 1.5178 2.91415
2.67798 1.57902 2.76317
2.66266 1.59434 2.77575
2.66266 1.59434 2.75061
2.70859 1.54841 2.86381
2.70859 1.54841 2.83862
2.7239 1.5331 2.85119
2.7239 1.5331 2.85119
2.7239 1.5331 2.87638
2.70859 1.54841 2.86381
2.73921 1.51779 2.86375
2.7239 1.5331 2.87638
2.7239 1.5331 2.85119
2.73922 1.51778 2.83858
2.73921 1.51779 2.86375
2.7239 1.5331 2.85119
2.57068 1.68632 3.00276
2.57068 1.68632 3.02839
2.55533 1.70167 3.01491
2.55533 1.70167 3.01491
2.57068 1.68632 3.02839
2.55533 1.70167 3.0395
2.55533 1.70167 3.01491
2.55533 1.70167 3.0395
2.53996 1.71704 3.02838
2.53996 1.71704 3.02838
2.53996 1.71704 3.00275
2.55533 1.70167 3.01491
2.52458 1.73242 2.98984
2.53996 1.71704 3.00275
2.52458 1.73242 3.0149
2.50912 1.74788 2.62505
2.50912 1.74788 2.65015
2.49371 1.76329 2.6376
2.41633 1.84067 2.75056
2.40077 1.85623 2.738
2.41632 1.84068 2.72545
2.41635 1.84065 2.80083
2.40081 1.85619 2.81339
2.40079 1.85621 2.78825
2.33845 1.91855 2.96446
2.32275 1.93425 2.95185
2.33843 1.91857 2.93924
2.33845 1.91855 2.98966
2.32276 1.93424 2.97714
2.33845 1.91855 2.96446
2.40087 1.85613 2.91412
2.40088 1.85612 2.93934
2.38531 1.87169 2.92672
2.30693 1.95007 2.86358
2.32265 1.93435 2.85103
2.32267 1.93433 2.8762
2.30684 1.95016 2.76303
2.29108 1.96592 2.77556
2.29106 1.96594 2.75046
2.32274 1.93426 3.05441
2.33845 1.91855 3.0625
2.30701 1.94999 3.0625
2.33845 1.91855 3.03937
2.33845 1.91855 3.0625
2.32274 1.93426 3.05441
2.35411 1.90289 3.05447
2.33845 1.91855 3.0625
2.33845 1.91855 3.03937
2.30704 1.94996 2.98961
2.30703 1.94997 3.01469
2.29128 1.96572 3.00246
2.55533 1.70167 3.0625
2.52458 1.73242 3.0625
2.53996 1.71704 3.05472
2.53996 1.71704 3.02838
2.55533 1.70167 3.0395
2.53996 1.71704 3.05472
2.53996 1.71704 3.05472
2.55533 1.70167 3.0395
2.55533 1.70167 3.0625
2.52458 1.73242 3.03949
2.52458 1.73242 3.0149
2.53996 1.71704 3.02838
2.53996 1.71704 3.02838
2.53996 1.71704 3.05472
2.52458 1.73242 3.03949
2.52458 1.73242 3.03949
2.53996 1.71704 3.05472
2.52458 1.73242 3.0625
2.41642 1.84058 2.92676
2.40088 1.85612 2.93934
2.40087 1.85613 2.91412
2.47831 1.77869 2.8512
2.49374 1.76326 2.83862
2.49374 1.76326 2.8638
2.49374 1.76326 2.8638
2.47832 1.77868 2.87639
2.47831 1.77869 2.8512
2.47833 1.77867 2.9016
2.47832 1.77868 2.87639
2.49375 1.76325 2.889
2.47833 1.77867 2.9016
2.49375 1.76325 2.889
2.49376 1.76324 2.91421
2.49376 1.76324 2.91421
2.47834 1.77866 2.92682
2.47833 1.77867 2.9016
2.47833 1.77867 2.9016
2.47834 1.77866 2.92682
2.46289 1.79411 2.91419
2.49377 1.76323 2.93943
2.47834 1.77866 2.92682
2.49376 1.76324 2.91421
2.49377 1.76323 2.96464
2.47835 1.77865 2.97734
2.47834 1.77866 2.95206
2.47834 1.77866 2.95206
2.49377 1.76323 2.93943
2.49377 1.76323 2.96464
2.47834 1.77866 2.92682
2.49377 1.76323 2.93943
2.47834 1.77866 2.95206
2.7852 1.4718 2.19738
2.78544 1.47156 2.17116
2.8005 1.4565 2.18645
2.76997 1.48703 2.18573
2.78544 1.47156 2.17116
2.7852 1.4718 2.19738
2.64739 1.60961 2.18548
2.64738 1.60962 2.1625
2.66272 1.59428 2.17021
2.70875 1.54825 2.1625
2.6934 1.5636 2.17017
2.67805 1.57895 2.1625
2.67805 1.57895 2.1625
2.66272 1.59428 2.17021
2.64738 1.60962 2.1625
2.19638 2.06062 2.19897
2.1963 2.0607 2.17286
2.2122 2.0448 2.18645
2.2122 2.0448 2.18645
2.22771 2.02929 2.17101
2.22802 2.02898 2.19745
2.18073 2.07627 2.18782
2.1963 2.0607 2.17286
2.19638 2.06062 2.19897
2.18073 2.07627 2.18782
2.18123 2.07577 2.1625
2.1963 2.0607 2.17286
2.27543 1.98157 2.18567
2.27541 1.98159 2.1625
2.29123 1.96577 2.17063
2.30701 1.94999 2.1625
[...]
<PointData Scalars="View Factor" >
<DataArray type="Float64" Name="View Factor" NumberOfComponents="1" format="ascii">
0.563791
0.563791
0.563791
0.552124
0.552124
0.552124
0.556299
0.556299
0.556299
0.573268
0.573268
0.573268
0.570848
0.570848
0.570848
0.566467
0.566467
0.566467
0.567085
0.567085
0.567085
0.568581
0.568581
0.568581
0.563103
0.563103
0.563103
0.564753
0.564753
0.564753
0.563904
0.563904
0.563904
0.562023
0.562023
0.562023
0.558278
0.558278
0.558278
0.5607
0.5607
0.5607
0.55577
0.55577
0.55577
0.549932
0.549932
0.549932
0.551754
0.551754
0.551754
0.553826
0.553826
0.553826
0.448872
0.448872
0.448872
0.545543
0.545543
0.545543
0.542982
0.542982
0.542982
0.529414
0.529414
0.529414
0.374612
0.374612
0.374612
0.58742
0.58742
0.58742
0.55776
0.55776
0.55776
0.559615
0.559615
0.559615
0.558981
0.558981
0.558981
0.55651
0.55651
0.55651
0.556619
0.556619
0.556619
0.557485
0.557485
0.557485
0.55929
0.55929
0.55929
0.561501
0.561501
0.561501
0.559946
0.559946
0.559946
0.54555
0.54555
0.54555
0.553333
0.553333
0.553333
0.554671
0.554671
0.554671
0.555288
0.555288
0.555288
0.526202
0.526202
0.526202
0.453772
0.453772
0.453772
0.547487
0.547487
0.547487
0.550179
0.550179
0.550179
0.547867
0.547867
0.547867
0.550454
0.550454
0.550454
0.547987
0.547987
0.547987
0.556698
0.556698
0.556698
0.554595
0.554595
0.554595
0.559909
0.559909
0.559909
0.594668
0.594668
0.594668
0.582975
0.582975
0.582975
0.368518
0.368518
0.368518
0.58687
0.58687
0.58687
0.580922
0.580922
0.580922
0.587646
0.587646
0.587646
0.477591
0.477591
0.477591
0.507774
0.507774
0.507774
0.517566
0.517566
0.517566
0.50773
0.50773
0.50773
0.509418
0.509418
0.509418
0.512503
0.512503
0.512503
0.54042
0.54042
0.54042
0.545744
0.545744
0.545744
0.534897
0.534897
0.534897
0.532563
0.532563
0.532563
0.533899
0.533899
0.533899
0.530525
0.530525
0.530525
0.522026
0.522026
0.522026
0.521047
0.521047
0.521047
0.525372
0.525372
0.525372
0.527798
0.527798
0.527798
0.546274
0.546274
0.546274
0.547161
0.547161
0.547161
0.553052
0.553052
0.553052
0.550841
0.550841
0.550841
0.530099
0.530099
0.530099
0.54102
0.54102
0.54102
0.543927
0.543927
0.543927
0.544388
0.544388
0.544388
0.550483
0.550483
0.550483
0.548008
0.548008
0.548008
0.547909
0.547909
0.547909
0.557592
0.557592
0.557592
0.557626
0.557626
0.557626
0.555277
0.555277
0.555277
0.552894
0.552894
0.552894
0.55987
0.55987
0.55987
0.564265
0.564265
0.564265
0.560687
0.560687
0.560687
0.562577
0.562577
0.562577
0.559817
0.559817
0.559817
0.561975
0.561975
0.561975
0.559714
0.559714
0.559714
0.561703
0.561703
0.561703
0.561938
0.561938
0.561938
0.559738
0.559738
0.559738
0.5573
0.5573
0.5573
0.59437
0.59437
0.59437
0.594997
0.594997
0.594997
0.595203
0.595203
0.595203
0.594789
0.594789
0.594789
0.594019
0.594019
0.594019
0.552866
0.552866
0.552866
0.554464
0.554464
0.554464
0.561975
0.561975
0.561975
0.579982
0.579982
0.579982
0.580986
0.580986
0.580986
0.572505
0.572505
0.572505
0.576418
0.576418
0.576418
0.569683
0.569683
0.569683
0.583981
0.583981
0.583981
0.583052
0.583052
0.583052
0.582198
0.582198
0.582198
0.584056
0.584056
0.584056
0.596108
0.596108
0.596108
0.595645
0.595645
0.595645
0.595942
0.595942
0.595942
0.594947
0.594947
0.594947
0.595513
0.595513
0.595513
0.595665
0.595665
0.595665
0.571252
0.571252
0.571252
0.580845
0.580845
0.580845
0.581201
0.581201
0.581201
0.5832
0.5832
0.5832
0.584877
0.584877
0.584877
0.584977
0.584977
0.584977
0.583171
0.583171
0.583171
0.586561
0.586561
0.586561
0.587899
0.587899
0.587899
0.588033
0.588033
0.588033
0.58654
0.58654
0.58654
0.373568
0.373568
0.373568
0.374553
0.374553
0.374553
0.380078
0.380078
0.380078
0.374019
0.374019
0.374019
0.37597
0.37597
0.37597
0.38977
0.38977
0.38977
0.388656
0.388656
0.388656
0.39014
0.39014
0.39014
0.381771
0.381771
0.381771
0.378121
0.378121
0.378121
0.370338
0.370338
0.370338
0.372312
0.372312
0.372312
0.481029
0.481029
0.481029
0.486259
0.486259
0.486259
0.584575
0.584575
0.584575
0.58473
0.58473
0.58473
0.584725
0.584725
0.584725
0.569445
0.569445
0.569445
0.570385
0.570385
0.570385
0.580829
0.580829
0.580829
0.445854
0.445854
0.445854
0.496797
0.496797
0.496797
0.491282
0.491282
0.491282
0.495608
0.495608
0.495608
0.484597
0.484597
0.484597
0.489063
0.489063
0.489063
0.491213
0.491213
0.491213
0.488852
0.488852
0.488852
0.484297
0.484297
0.484297
0.482194
0.482194
0.482194
0.382342
0.382342
0.382342
0.388172
0.388172
0.388172
0.377992
0.377992
0.377992
0.481745
0.481745
0.481745
0.456611
0.456611
0.456611
0.557769
0.557769
0.557769
0.561165
0.561165
0.561165
0.55001
0.55001
0.55001
0.549628
0.549628
0.549628
0.539338
0.539338
0.539338
0.537727
0.537727
0.537727
0.539576
0.539576
0.539576
0.543034
0.543034
0.543034
0.509981
0.509981
0.509981
0.502436
0.502436
0.502436
0.506326
0.506326
0.506326
0.508679
0.508679
0.508679
0.507114
0.507114
0.507114
0.503148
0.503148
0.503148
0.500824
0.500824
0.500824
0.546776
0.546776
0.546776
0.543462
0.543462
0.543462
0.532261
0.532261
0.532261
0.534191
0.534191
0.534191
0.537824
0.537824
0.537824
0.539557
0.539557
0.539557
0.53774
0.53774
0.53774
0.535338
0.535338
0.535338
0.542355
0.542355
0.542355
0.54125
0.54125
0.54125
0.533994
0.533994
0.533994
0.537657
0.537657
0.537657
0.534981
0.534981
0.534981
0.537378
0.537378
0.537378
0.536635
0.536635
0.536635
0.53185
0.53185
0.53185
0.531065
0.531065
0.531065
0.533453
0.533453
0.533453
0.543533
0.543533
0.543533
0.538974
0.538974
0.538974
0.538126
0.538126
0.538126
0.540404
0.540404
0.540404
0.541525
0.541525
0.541525
0.536038
0.536038
0.536038
0.538167
0.538167
0.538167
0.523459
0.523459
0.523459
0.524738
0.524738
0.524738
0.522373
0.522373
0.522373
0.528202
0.528202
0.528202
0.529242
0.529242
0.529242
0.526865
0.526865
0.526865
0.545711
0.545711
0.545711
0.547996
0.547996
0.547996
0.54733
0.54733
0.54733
0.542763
0.542763
0.542763
0.544343
0.544343
0.544343
0.54206
0.54206
0.54206
0.549541
0.549541
0.549541
0.548766
0.548766
0.548766
0.550898
0.550898
0.550898
0.552418
0.552418
0.552418
0.549085
0.549085
0.549085
0.551369
0.551369
0.551369
0.549509
0.549509
0.549509
0.552184
0.552184
0.552184
0.555786
0.555786
0.555786
0.535622
0.535622
0.535622
0.533176
0.533176
0.533176
0.533719
0.533719
0.533719
0.538619
0.538619
0.538619
0.540157
0.540157
0.540157
0.545077
0.545077
0.545077
0.542845
0.542845
0.542845
0.545307
0.545307
0.545307
0.537072
0.537072
0.537072
0.536667
0.536667
0.536667
0.539119
0.539119
0.539119
0.54198
0.54198
0.54198
0.542344
0.542344
0.542344
0.539888
0.539888
0.539888
0.555019
0.555019
0.555019
0.550319
0.550319
0.550319
0.55518
0.55518
0.55518
0.55283
0.55283
0.55283
0.552476
0.552476
0.552476
0.550125
0.550125
0.550125
0.562184
0.562184
0.562184
0.562177
0.562177
0.562177
0.564373
0.564373
0.564373
0.559109
0.559109
0.559109
0.563793
0.563793
0.563793
0.559418
0.559418
0.559418
0.561762
0.561762
0.561762
0.561118
0.561118
0.561118
0.56346
0.56346
0.56346
0.567768
0.567768
0.567768
0.566126
0.566126
0.566126
0.571605
0.571605
0.571605
0.570022
0.570022
0.570022
0.570638
0.570638
0.570638
0.565367
0.565367
0.565367
0.56895
0.56895
0.56895
0.564916
0.564916
0.564916
0.566693
0.566693
0.566693
0.557473
0.557473
0.557473
0.552647
0.552647
0.552647
0.554873
0.554873
0.554873
0.557286
0.557286
0.557286
0.552802
0.552802
0.552802
0.555215
0.555215
0.555215
0.566685
0.566685
0.566685
0.565292
0.565292
0.565292
0.562719
0.562719
0.562719
0.565489
0.565489
0.565489
0.560553
0.560553
0.560553
0.595543
0.595543
0.595543
0.595745
0.595745
0.595745
0.595249
0.595249
0.595249
0.554944
0.554944
0.554944
0.553264
0.553264
0.553264
0.545653
0.545653
0.545653
0.547863
0.547863
0.547863
0.553647
0.553647
0.553647
0.569253
0.569253
0.569253
0.556687
0.556687
0.556687
0.554815
0.554815
0.554815
0.558294
0.558294
0.558294
0.556033
0.556033
0.556033
0.579843
0.579843
0.579843
0.581843
0.581843
0.581843
0.58262
0.58262
0.58262
0.583377
0.583377
0.583377
0.579095
0.579095
0.579095
0.578057
0.578057
0.578057
0.577136
0.577136
0.577136
0.57707
0.57707
0.57707
0.572979
0.572979
0.572979
0.57186
0.57186
0.57186
0.57503
0.57503
0.57503
0.575961
0.575961
0.575961
0.575578
0.575578
0.575578
0.568092
0.568092
0.568092
0.574845
0.574845
0.574845
0.575929
0.575929
0.575929
0.575954
0.575954
0.575954
0.574643
0.574643
0.574643
0.57179
0.57179
0.57179
0.568021
0.568021
0.568021
0.581425
0.581425
0.581425
0.578336
0.578336
0.578336
0.581709
0.581709
0.581709
0.582549
0.582549
0.582549
0.594558
0.594558
0.594558
0.595158
0.595158
0.595158
0.57215
0.57215
0.57215
0.572565
0.572565
0.572565
0.579648
0.579648
0.579648
0.583888
0.583888
0.583888
0.581288
0.581288
0.581288
0.581425
0.581425
0.581425
0.586041
0.586041
0.586041
0.581146
0.581146
0.581146
0.366393
0.366393
0.366393
0.370453
0.370453
0.370453
0.379284
0.379284
0.379284
0.374075
0.374075
0.374075
0.371704
0.371704
0.371704
0.380073
0.380073
0.380073
0.388215
0.388215
0.388215
0.37386
0.37386
0.37386
0.37963
0.37963
0.37963
0.387238
0.387238
0.387238
0.378682
0.378682
0.378682
0.38671
0.38671
0.38671
0.395156
0.395156
0.395156
0.397813
0.397813
0.397813
0.406692
0.406692
0.406692
0.398338
0.398338
0.398338
0.381345
0.381345
0.381345
0.380757
0.380757
0.380757
0.375839
0.375839
0.375839
0.374961
0.374961
0.374961
0.458518
0.458518
0.458518
0.55061
0.55061
0.55061
0.469179
0.469179
0.469179
0.539628
0.539628
0.539628
0.533886
0.533886
0.533886
0.536902
0.536902
0.536902
0.534057
0.534057
0.534057
0.536986
0.536986
0.536986
0.504941
0.504941
0.504941
0.527703
0.527703
0.527703
0.559953
0.559953
0.559953
0.549022
0.549022
0.549022
0.551072
0.551072
0.551072
0.479517
0.479517
0.479517
0.478876
0.478876
0.478876
0.480467
0.480467
0.480467
0.480772
0.480772
0.480772
0.486142
0.486142
0.486142
0.497204
0.497204
0.497204
0.486124
0.486124
0.486124
0.475447
0.475447
0.475447
0.480971
0.480971
0.480971
0.528374
0.528374
0.528374
0.530257
0.530257
0.530257
0.548194
0.548194
0.548194
0.533707
0.533707
0.533707
0.530368
0.530368
0.530368
0.5286
0.5286
0.5286
0.546195
0.546195
0.546195
0.539019
0.539019
0.539019
0.541188
0.541188
0.541188
0.53808
0.53808
0.53808
0.583227
0.583227
0.583227
0.583991
0.583991
0.583991
0.584053
0.584053
0.584053
0.583379
0.583379
0.583379
0.585243
0.585243
0.585243
0.585331
0.585331
0.585331
0.585981
0.585981
0.585981
0.58639
0.58639
0.58639
0.585906
0.585906
0.585906
0.568024
0.568024
0.568024
0.570783
0.570783
0.570783
0.569492
0.569492
0.569492
0.571911
0.571911
0.571911
0.574712
0.574712
0.574712
0.57389
0.57389
0.57389
0.572492
0.572492
0.572492
0.573435
0.573435
0.573435
0.575628
0.575628
0.575628
0.574354
0.574354
0.574354
0.575981
0.575981
0.575981
0.579828
0.579828
0.579828
0.577624
0.577624
0.577624
0.579594
0.579594
0.579594
0.578523
0.578523
0.578523
0.58144
0.58144
0.58144
0.587943
0.587943
0.587943
0.588314
0.588314
0.588314
0.588362
0.588362
0.588362
0.585309
0.585309
0.585309
0.58588
0.58588
0.58588
0.586869
0.586869
0.586869
0.587257
0.587257
0.587257
0.586363
0.586363
0.586363
0.586278
0.586278
0.586278
0.380208
0.380208
0.380208
0.375801
0.375801
0.375801
0.376619
0.376619
0.376619
0.381964
0.381964
0.381964
0.378833
0.378833
0.378833
0.378134
0.378134
0.378134
0.382786
0.382786
0.382786
0.469006
0.469006
0.469006
0.380256
0.380256
0.380256
0.381272
0.381272
0.381272
0.384341
0.384341
0.384341
0.383332
0.383332
0.383332
0.497646
0.497646
0.497646
0.501828
0.501828
0.501828
0.503689
0.503689
0.503689
0.501414
0.501414
0.501414
0.484611
0.484611
0.484611
0.489078
0.489078
0.489078
0.497797
0.497797
0.497797
0.502091
0.502091
0.502091
0.49775
0.49775
0.49775
0.495621
0.495621
0.495621
0.53361
0.53361
0.53361
0.526852
0.526852
0.526852
0.486261
0.486261
0.486261
0.491112
0.491112
0.491112
0.490997
0.490997
0.490997
0.486205
0.486205
0.486205
0.486443
0.486443
0.486443
0.481554
0.481554
0.481554
0.481674
0.481674
0.481674
0.495602
0.495602
0.495602
0.495364
0.495364
0.495364
0.503471
0.503471
0.503471
0.434397
0.434397
0.434397
0.485744
0.485744
0.485744
0.436669
0.436669
0.436669
0.493438
0.493438
0.493438
0.523203
0.523203
0.523203
0.519738
0.519738
0.519738
0.503099
0.503099
0.503099
0.497754
0.497754
0.497754
0.502391
0.502391
0.502391
0.39511
0.39511
0.39511
0.380627
0.380627
0.380627
0.393806
0.393806
0.393806
0.387605
0.387605
0.387605
0.387924
0.387924
0.387924
0.382402
0.382402
0.382402
0.481333
0.481333
0.481333
0.469798
0.469798
0.469798
0.471005
0.471005
0.471005
0.475001
0.475001
0.475001
0.47705
0.47705
0.47705
0.501685
0.501685
0.501685
0.49887
0.49887
0.49887
0.495561
0.495561
0.495561
0.496953
0.496953
0.496953
0.506278
0.506278
0.506278
0.524948
0.524948
0.524948
0.528449
0.528449
0.528449
0.461399
0.461399
0.461399
0.464058
0.464058
0.464058
0.471212
0.471212
0.471212
0.475481
0.475481
0.475481
0.47084
0.47084
0.47084
0.468733
0.468733
0.468733
0.478063
0.478063
0.478063
0.482487
0.482487
0.482487
0.484698
0.484698
0.484698
0.482437
0.482437
0.482437
0.477923
0.477923
0.477923
0.475762
0.475762
0.475762
0.516435
0.516435
0.516435
0.518831
0.518831
0.518831
0.51759
0.51759
0.51759
0.512816
0.512816
0.512816
0.513905
0.513905
0.513905
0.511529
0.511529
0.511529
0.553702
0.553702
0.553702
0.558364
0.558364
0.558364
0.55666
0.55666
0.55666
0.552442
0.552442
0.552442
0.552055
0.552055
0.552055
0.555939
0.555939
0.555939
0.556921
0.556921
0.556921
0.554982
0.554982
0.554982
0.551864
0.551864
0.551864
0.552995
0.552995
0.552995
0.551048
0.551048
0.551048
0.547969
0.547969
0.547969
0.5333
0.5333
0.5333
0.537385
0.537385
0.537385
0.536818
0.536818
0.536818
0.538862
0.538862
0.538862
0.532565
0.532565
0.532565
0.531177
0.531177
0.531177
0.532343
0.532343
0.532343
0.534128
0.534128
0.534128
0.547903
0.547903
0.547903
0.549321
0.549321
0.549321
0.542768
0.542768
0.542768
0.544616
0.544616
0.544616
0.504189
0.504189
0.504189
0.50845
0.50845
0.50845
0.522584
0.522584
0.522584
0.508165
0.508165
0.508165
0.504052
0.504052
0.504052
0.504223
0.504223
0.504223
0.502059
0.502059
0.502059
0.557121
0.557121
0.557121
0.554157
0.554157
0.554157
0.55276
0.55276
0.55276
0.554338
0.554338
0.554338
0.557302
0.557302
0.557302
0.558688
0.558688
0.558688
0.561483
0.561483
0.561483
0.562879
0.562879
0.562879
0.54807
0.54807
0.54807
0.544765
0.544765
0.544765
0.543039
0.543039
0.543039
0.544638
0.544638
0.544638
0.548807
0.548807
0.548807
0.547532
0.547532
0.547532
0.531911
0.531911
0.531911
0.52739
0.52739
0.52739
0.542174
0.542174
0.542174
0.539261
0.539261
0.539261
0.544213
0.544213
0.544213
0.54276
0.54276
0.54276
0.519682
0.519682
0.519682
0.530094
0.530094
0.530094
0.533502
0.533502
0.533502
0.536457
0.536457
0.536457
0.539959
0.539959
0.539959
0.542715
0.542715
0.542715
0.545921
0.545921
0.545921
0.544823
0.544823
0.544823
0.546958
0.546958
0.546958
0.535061
0.535061
0.535061
0.537265
0.537265
0.537265
0.536171
0.536171
0.536171
0.540583
0.540583
0.540583
0.539446
0.539446
0.539446
0.541654
0.541654
0.541654
0.561
0.561
0.561
0.554075
0.554075
0.554075
0.556283
0.556283
0.556283
0.554466
0.554466
0.554466
0.558881
0.558881
0.558881
0.557038
0.557038
0.557038
0.559244
0.559244
0.559244
0.575201
0.575201
0.575201
0.573781
0.573781
0.573781
0.569435
0.569435
0.569435
0.56763
0.56763
0.56763
0.575354
0.575354
0.575354
0.575816
0.575816
0.575816
0.57372
0.57372
0.57372
0.564904
0.564904
0.564904
0.561534
0.561534
0.561534
0.56057
0.56057
0.56057
0.562262
0.562262
0.562262
0.571509
0.571509
0.571509
0.558621
0.558621
0.558621
0.554547
0.554547
0.554547
0.555843
0.555843
0.555843
0.553803
0.553803
0.553803
0.561973
0.561973
0.561973
0.562556
0.562556
0.562556
0.560529
0.560529
0.560529
0.557912
0.557912
0.557912
0.557305
0.557305
0.557305
0.55934
0.55934
0.55934
0.563897
0.563897
0.563897
0.566393
0.566393
0.566393
0.568191
0.568191
0.568191
0.563196
0.563196
0.563196
0.56382
0.56382
0.56382
0.563479
0.563479
0.563479
0.571103
0.571103
0.571103
0.572196
0.572196
0.572196
0.570544
0.570544
0.570544
0.574391
0.574391
0.574391
0.573314
0.573314
0.573314
0.574951
0.574951
0.574951
0.5893
0.5893
0.5893
0.590647
0.590647
0.590647
0.590368
0.590368
0.590368
0.589058
0.589058
0.589058
0.593536
0.593536
0.593536
0.592667
0.592667
0.592667
0.591733
0.591733
0.591733
0.591777
0.591777
0.591777
0.555899
0.555899
0.555899
0.560039
0.560039
0.560039
0.557383
0.557383
0.557383
0.559457
0.559457
0.559457
0.558609
0.558609
0.558609
0.568654
0.568654
0.568654
0.566291
0.566291
0.566291
0.557178
0.557178
0.557178
0.558417
0.558417
0.558417
0.561172
0.561172
0.561172
0.558715
0.558715
0.558715
0.562714
0.562714
0.562714
0.561495
0.561495
0.561495
0.563763
0.563763
0.563763
0.562194
0.562194
0.562194
0.564731
0.564731
0.564731
0.565502
0.565502
0.565502
0.55672
0.55672
0.55672
0.553786
0.553786
0.553786
0.551926
0.551926
0.551926
0.55579
0.55579
0.55579
0.555833
0.555833
0.555833
0.55813
0.55813
0.55813
0.560448
0.560448
0.560448
0.551268
0.551268
0.551268
0.543724
0.543724
0.543724
0.544514
0.544514
0.544514
0.540034
0.540034
0.540034
0.558105
0.558105
0.558105
0.559331
0.559331
0.559331
0.55486
0.55486
0.55486
0.552424
0.552424
0.552424
0.551103
0.551103
0.551103
0.577915
0.577915
0.577915
0.578815
0.578815
0.578815
0.574318
0.574318
0.574318
0.574546
0.574546
0.574546
0.575783
0.575783
0.575783
0.576784
0.576784
0.576784
0.575335
0.575335
0.575335
0.576563
0.576563
0.576563
0.579407
0.579407
0.579407
0.579111
0.579111
0.579111
0.578002
0.578002
0.578002
0.577178
0.577178
0.577178
0.577477
0.577477
0.577477
0.578597
0.578597
0.578597
0.58183
0.58183
0.58183
0.580963
0.580963
0.580963
0.582519
0.582519
0.582519
0.582609
0.582609
0.582609
0.573755
0.573755
0.573755
0.576067
0.576067
0.576067
0.574918
0.574918
0.574918
0.571265
0.571265
0.571265
0.5737
0.5737
0.5737
0.570813
0.570813
0.570813
0.571218
0.571218
0.571218
0.572664
0.572664
0.572664
0.571386
0.571386
0.571386
0.574257
0.574257
0.574257
0.571869
0.571869
0.571869
0.573308
0.573308
0.573308
0.572355
0.572355
0.572355
0.573786
0.573786
0.573786
0.565887
0.565887
0.565887
0.566408
0.566408
0.566408
0.563336
0.563336
0.563336
0.565145
0.565145
0.565145
0.569899
0.569899
0.569899
0.569801
0.569801
0.569801
0.568344
0.568344
0.568344
0.566984
0.566984
0.566984
0.5674
0.5674
0.5674
0.565591
0.565591
0.565591
0.573601
0.573601
0.573601
0.570904
0.570904
0.570904
0.5721
0.5721
0.5721
0.573446
0.573446
0.573446
0.572422
0.572422
0.572422
0.571072
0.571072
0.571072
0.574146
0.574146
0.574146
0.572743
0.572743
0.572743
0.574088
0.574088
0.574088
0.572667
0.572667
0.572667
0.564388
0.564388
0.564388
0.567065
0.567065
0.567065
0.567787
0.567787
0.567787
0.566731
0.566731
0.566731
0.5801
0.5801
0.5801
0.580109
0.580109
0.580109
0.579159
0.579159
0.579159
0.578186
0.578186
0.578186
0.581515
0.581515
0.581515
0.581659
0.581659
0.581659
0.580883
0.580883
0.580883
0.58064
0.58064
0.58064
0.581565
0.581565
0.581565
0.580421
0.580421
0.580421
0.581127
0.581127
0.581127
0.583984
0.583984
0.583984
0.583235
0.583235
0.583235
0.594503
0.594503
0.594503
0.592777
0.592777
0.592777
0.594451
0.594451
0.594451
0.593683
0.593683
0.593683
0.567757
0.567757
0.567757
0.570348
0.570348
0.570348
0.561974
0.561974
0.561974
0.564919
0.564919
0.564919
0.564615
0.564615
0.564615
0.561031
0.561031
0.561031
0.558584
0.558584
0.558584
0.558442
0.558442
0.558442
0.576499
0.576499
0.576499
0.577266
0.577266
0.577266
0.578972
0.578972
0.578972
0.578476
0.578476
0.578476
0.575099
0.575099
0.575099
0.574834
0.574834
0.574834
0.582794
0.582794
0.582794
0.585569
0.585569
0.585569
0.588074
0.588074
0.588074
0.590347
0.590347
0.590347
0.588892
0.588892
0.588892
0.590024
0.590024
0.590024
0.579238
0.579238
0.579238
0.580732
0.580732
0.580732
0.587178
0.587178
0.587178
0.582242
0.582242
0.582242
0.5831
0.5831
0.5831
0.585555
0.585555
0.585555
0.569097
0.569097
0.569097
0.568558
0.568558
0.568558
0.57946
0.57946
0.57946
0.57945
0.57945
0.57945
0.57739
0.57739
0.57739
0.575089
0.575089
0.575089
0.584707
0.584707
0.584707
0.584333
0.584333
0.584333
0.582913
0.582913
0.582913
0.581902
0.581902
0.581902
0.376419
0.376419
0.376419
0.371311
0.371311
0.371311
0.369102
0.369102
0.369102
0.373176
0.373176