<VTKFile type="UnstructuredGrid" version="1.0">
<UnstructuredGrid>
<Piece NumberOfPoints="8859" NumberOfCells="2953">
<Points>
<DataArray type="Float64" NumberOfComponents="3" format="ascii">
2.04744 2.20956 8.22762
2.06275 2.19425 8.23958
2.04754 2.20946 8.25333
2.07804 2.17896 8.17667
2.07805 2.17895 8.15152
2.0934 2.1636 8.16398
2.06271 2.19429 8.18936
2.07804 2.17896 8.17667
2.07804 2.17896 8.20186
2.01701 2.23999 8.27988
2.03242 2.22458 8.2875
2.00164 2.25536 8.2875
2.01701 2.23999 8.27988
2.03232 2.22468 8.26457
2.03242 2.22458 8.2875
2.04777 2.20923 8.27979
2.06326 2.19374 8.2875
2.03242 2.22458 8.2875
2.04777 2.20923 8.27979
2.03232 2.22468 8.26457
2.04754 2.20946 8.25333
2.03242 2.22458 8.2875
2.03232 2.22468 8.26457
2.04777 2.20923 8.27979
2.04754 2.20946 8.25333
2.06275 2.19425 8.23958
2.06287 2.19413 8.26427
2.06287 2.19413 8.26427
2.04777 2.20923 8.27979
2.04754 2.20946 8.25333
2.06326 2.19374 8.2875
2.04777 2.20923 8.27979
2.06287 2.19413 8.26427
2.06275 2.19425 8.23958
2.04744 2.20956 8.22762
2.06271 2.19429 8.21452
2.06271 2.19429 8.18936
2.07804 2.17896 8.20186
2.06271 2.19429 8.21452
2.07809 2.17891 8.25262
2.06287 2.19413 8.26427
2.06275 2.19425 8.23958
2.0934 2.1636 8.23895
2.0934 2.1636 8.26355
2.07809 2.17891 8.25262
2.0934 2.1636 8.13887
2.0934 2.1636 8.16398
2.07805 2.17895 8.15152
2.07804 2.17896 8.17667
2.0934 2.1636 8.16398
2.0934 2.1636 8.18906
2.0934 2.1636 8.18906
2.07804 2.17896 8.20186
2.07804 2.17896 8.17667
2.0934 2.1636 7.61152
2.0934 2.1636 7.63665
2.07807 2.17893 7.62407
2.07807 2.17893 8.07607
2.0934 2.1636 8.08861
2.07806 2.17894 8.10121
2.0934 2.1636 8.06348
2.0934 2.1636 8.08861
2.07807 2.17893 8.07607
2.07808 2.17892 7.95044
2.0934 2.1636 7.96299
2.07808 2.17892 7.97555
1.61564 2.64136 7.39559
1.63134 2.62566 7.3875
1.63134 2.62566 7.41063
1.5683 2.6887 8.2875
1.53648 2.72052 8.2875
1.55243 2.70457 8.27932
2.07804 2.17896 8.22712
2.06271 2.19429 8.21452
2.07804 2.17896 8.20186
2.06275 2.19425 8.23958
2.06271 2.19429 8.21452
2.07804 2.17896 8.22712
2.07804 2.17896 8.22712
2.07809 2.17891 8.25262
2.06275 2.19425 8.23958
2.0934 2.1636 8.23895
2.07809 2.17891 8.25262
2.07804 2.17896 8.22712
2.07833 2.17867 8.27884
2.0934 2.1636 8.26355
2.0934 2.1636 8.2875
2.07833 2.17867 8.27884
2.07809 2.17891 8.25262
2.0934 2.1636 8.26355
2.0934 2.1636 8.2875
2.06326 2.19374 8.2875
2.07833 2.17867 8.27884
2.06326 2.19374 8.2875
2.06287 2.19413 8.26427
2.07833 2.17867 8.27884
2.06287 2.19413 8.26427
2.07809 2.17891 8.25262
2.07833 2.17867 8.27884
2.07806 2.17894 8.10121
2.0934 2.1636 8.08861
2.0934 2.1636 8.11374
2.07804 2.17896 8.20186
2.0934 2.1636 8.18906
2.0934 2.1636 8.21407
2.0934 2.1636 8.23895
2.07804 2.17896 8.22712
2.0934 2.1636 8.21407
2.0934 2.1636 8.21407
2.07804 2.17896 8.22712
2.07804 2.17896 8.20186
2.0934 2.1636 7.93788
2.0934 2.1636 7.96299
2.07808 2.17892 7.95044
2.07807 2.17893 7.62407
2.0934 2.1636 7.63665
2.07807 2.17893 7.6492
2.06275 2.19425 8.06353
2.04743 2.20957 8.05098
2.06275 2.19425 8.03838
2.07806 2.17894 8.12636
2.0934 2.1636 8.13887
2.07805 2.17895 8.15152
2.07806 2.17894 8.12636
2.0934 2.1636 8.11374
2.0934 2.1636 8.13887
2.07806 2.17894 8.12636
2.06273 2.19427 8.11384
2.07806 2.17894 8.10121
2.07806 2.17894 8.10121
2.0934 2.1636 8.11374
2.07806 2.17894 8.12636
2.06271 2.19429 8.16418
2.07804 2.17896 8.17667
2.06271 2.19429 8.18936
2.06271 2.19429 8.16418
2.07805 2.17895 8.15152
2.07804 2.17896 8.17667
2.04741 2.20959 8.12649
2.03209 2.22491 8.13915
2.0321 2.2249 8.11394
1.83285 2.42415 8.25338
1.81747 2.43953 8.2399
1.83285 2.42415 8.22775
1.78664 2.47036 8.0888
1.78664 2.47036 8.114
1.77121 2.48579 8.10139
2.0934 2.1636 7.3875
2.0934 2.1636 7.41145
2.07833 2.17867 7.39616
1.56833 2.68867 8.26433
1.5683 2.6887 8.2875
1.55243 2.70457 8.27932
1.63134 2.62566 8.18946
1.61565 2.64135 8.20214
1.61564 2.64136 8.17685
1.55243 2.70457 8.27932
1.53648 2.72052 8.2875
1.53664 2.72036 8.26423
2.06276 2.19424 7.712
2.04745 2.20955 7.69943
2.06276 2.19424 7.68688
2.0934 2.1636 7.86259
2.07808 2.17892 7.85005
2.0934 2.1636 7.8375
2.07808 2.17892 7.90024
2.0934 2.1636 7.88769
2.0934 2.1636 7.91278
2.06277 2.19423 7.81241
2.04745 2.20955 7.82495
2.04745 2.20955 7.79986
2.06277 2.19423 7.8375
2.04745 2.20955 7.82495
2.06277 2.19423 7.81241
2.07808 2.17892 7.85005
2.06277 2.19423 7.86259
2.06277 2.19423 7.8375
2.04745 2.20955 7.97557
2.06276 2.19424 7.98812
2.04744 2.20956 8.0007
2.01682 2.24018 7.95047
2.01682 2.24018 7.97559
2.0015 2.2555 7.96303
2.04745 2.20955 7.95045
2.03214 2.22486 7.9379
2.04745 2.20955 7.92535
2.04745 2.20955 7.92535
2.06277 2.19423 7.93789
2.04745 2.20955 7.95045
2.03214 2.22486 7.9379
2.03214 2.22486 7.9128
2.04745 2.20955 7.92535
2.04745 2.20955 7.92535
2.03214 2.22486 7.9128
2.04745 2.20955 7.90024
2.0934 2.1636 7.91278
2.0934 2.1636 7.93788
2.07808 2.17892 7.92534
2.07808 2.17892 7.92534
2.07808 2.17892 7.90024
2.0934 2.1636 7.91278
2.07808 2.17892 7.92534
2.0934 2.1636 7.93788
2.07808 2.17892 7.95044
2.07808 2.17892 7.95044
2.06277 2.19423 7.93789
2.07808 2.17892 7.92534
2.04744 2.20956 8.02583
2.03213 2.22487 8.01328
2.04744 2.20956 8.0007
2.04744 2.20956 8.02583
2.06275 2.19425 8.03838
2.04743 2.20957 8.05098
2.0015 2.2555 8.0133
2.01681 2.24019 8.00072
2.01681 2.24019 8.02586
2.01681 2.24019 8.02586
2.01681 2.24019 8.00072
2.03213 2.22487 8.01328
2.0934 2.1636 7.9881
2.07808 2.17892 7.97555
2.0934 2.1636 7.96299
2.04744 2.20956 8.0007
2.06276 2.19424 7.98812
2.06276 2.19424 8.01325
2.06276 2.19424 8.01325
2.04744 2.20956 8.02583
2.04744 2.20956 8.0007
2.06275 2.19425 8.03838
2.04744 2.20956 8.02583
2.06276 2.19424 8.01325
2.07806 2.17894 8.10121
2.06273 2.19427 8.11384
2.06274 2.19426 8.08868
2.06274 2.19426 8.08868
2.07807 2.17893 8.07607
2.07806 2.17894 8.10121
2.06275 2.19425 8.06353
2.07807 2.17893 8.07607
2.06274 2.19426 8.08868
2.0321 2.2249 8.11394
2.03211 2.22489 8.08875
2.04742 2.20958 8.1013
2.04742 2.20958 8.1013
2.04741 2.20959 8.12649
2.0321 2.2249 8.11394
2.06273 2.19427 8.11384
2.04741 2.20959 8.12649
2.04742 2.20958 8.1013
2.04742 2.20958 8.1013
2.06274 2.19426 8.08868
2.06273 2.19427 8.11384
2.01679 2.24021 8.10138
2.03211 2.22489 8.08875
2.0321 2.2249 8.11394
2.01679 2.24021 8.10138
2.00148 2.25552 8.11401
2.00148 2.25552 8.08881
2.06271 2.19429 8.18936
2.06271 2.19429 8.21452
2.04741 2.20959 8.20222
2.04741 2.20959 8.20222
2.06271 2.19429 8.21452
2.04744 2.20956 8.22762
2.03209 2.22491 8.13915
2.04741 2.20959 8.12649
2.0474 2.2096 8.15169
2.0474 2.2096 8.15169
2.03209 2.22491 8.16437
2.03209 2.22491 8.13915
1.97087 2.28613 7.98817
1.95555 2.30145 8.00075
1.95555 2.30145 7.97561
2.00148 2.25552 8.08881
2.00149 2.25551 8.06362
2.0168 2.2402 8.07619
2.0168 2.2402 8.07619
2.01679 2.24021 8.10138
2.00148 2.25552 8.08881
2.03211 2.22489 8.08875
2.01679 2.24021 8.10138
2.0168 2.2402 8.07619
2.03211 2.22489 8.06358
2.03211 2.22489 8.08875
2.0168 2.2402 8.07619
1.86358 2.39342 8.22776
1.86358 2.39342 8.25339
1.84822 2.40878 8.23991
1.84822 2.40878 8.23991
1.86358 2.39342 8.25339
1.84822 2.40878 8.2645
1.84822 2.40878 8.23991
1.84822 2.40878 8.2645
1.83285 2.42415 8.25338
1.83285 2.42415 8.25338
1.83285 2.42415 8.22775
1.84822 2.40878 8.23991
1.81747 2.43953 8.21484
1.83285 2.42415 8.22775
1.81747 2.43953 8.2399
1.80202 2.45498 7.85005
1.80202 2.45498 7.87515
1.7866 2.4704 7.8626
1.70922 2.54778 7.97556
1.69367 2.56333 7.963
1.70922 2.54778 7.95045
1.70924 2.54776 8.02583
1.6937 2.5633 8.03839
1.69369 2.56331 8.01325
1.63134 2.62566 8.18946
1.61564 2.64136 8.17685
1.63132 2.62568 8.16424
1.63135 2.62565 8.21466
1.61565 2.64135 8.20214
1.63134 2.62566 8.18946
1.69376 2.56324 8.13912
1.69378 2.56322 8.16434
1.6782 2.5788 8.15172
1.59983 2.65717 8.08858
1.61554 2.64146 8.07603
1.61557 2.64143 8.1012
1.59973 2.65727 7.98803
1.58397 2.67303 8.00056
1.58396 2.67304 7.97546
1.61564 2.64136 8.27941
1.63134 2.62566 8.2875
1.5999 2.6571 8.2875
1.63134 2.62566 8.26437
1.63134 2.62566 8.2875
1.61564 2.64136 8.27941
1.647 2.61 8.27947
1.63134 2.62566 8.2875
1.63134 2.62566 8.26437
1.59993 2.65707 8.21461
1.59992 2.65708 8.23969
1.58418 2.67282 8.22746
1.84822 2.40878 8.2875
1.81747 2.43953 8.2875
1.83285 2.42415 8.27972
1.83285 2.42415 8.25338
1.84822 2.40878 8.2645
1.83285 2.42415 8.27972
1.83285 2.42415 8.27972
1.84822 2.40878 8.2645
1.84822 2.40878 8.2875
1.81747 2.43953 8.26449
1.81747 2.43953 8.2399
1.83285 2.42415 8.25338
1.83285 2.42415 8.25338
1.83285 2.42415 8.27972
1.81747 2.43953 8.26449
1.81747 2.43953 8.26449
1.83285 2.42415 8.27972
1.81747 2.43953 8.2875
1.70931 2.54769 8.15176
1.69378 2.56322 8.16434
1.69376 2.56324 8.13912
1.7712 2.4858 8.0762
1.78663 2.47037 8.06362
1.78664 2.47036 8.0888
1.78664 2.47036 8.0888
1.77121 2.48579 8.10139
1.7712 2.4858 8.0762
1.77122 2.48578 8.1266
1.77121 2.48579 8.10139
1.78664 2.47036 8.114
1.77122 2.48578 8.1266
1.78664 2.47036 8.114
1.78665 2.47035 8.13921
1.78665 2.47035 8.13921
1.77123 2.48577 8.15182
1.77122 2.48578 8.1266
1.77122 2.48578 8.1266
1.77123 2.48577 8.15182
1.75578 2.50122 8.13919
1.78666 2.47034 8.16443
1.77123 2.48577 8.15182
1.78665 2.47035 8.13921
1.78666 2.47034 8.18964
1.77124 2.48576 8.20234
1.77124 2.48576 8.17706
1.77124 2.48576 8.17706
1.78666 2.47034 8.16443
1.78666 2.47034 8.18964
1.77123 2.48577 8.15182
1.78666 2.47034 8.16443
1.77124 2.48576 8.17706
2.07809 2.17891 7.42238
2.07833 2.17867 7.39616
2.0934 2.1636 7.41145
2.06287 2.19413 7.41073
2.07833 2.17867 7.39616
2.07809 2.17891 7.42238
1.94028 2.31672 7.41048
1.94028 2.31672 7.3875
1.95561 2.30139 7.39521
2.00164 2.25536 7.3875
1.98629 2.27071 7.39517
1.97095 2.28605 7.3875
1.97095 2.28605 7.3875
1.95561 2.30139 7.39521
1.94028 2.31672 7.3875
1.48928 2.76772 7.42397
1.48919 2.76781 7.39786
1.50509 2.75191 7.41145
1.50509 2.75191 7.41145
1.5206 2.7364 7.39601
1.52092 2.73608 7.42245
1.47362 2.78338 7.41282
1.48919 2.76781 7.39786
1.48928 2.76772 7.42397
1.47362 2.78338 7.41282
1.47412 2.78288 7.3875
1.48919 2.76781 7.39786
1.56833 2.68867 7.41067
1.5683 2.6887 7.3875
1.58412 2.67288 7.39563
[...]
<PointData Scalars="View Factor" >
<DataArray type="Float64" Name="View Factor" NumberOfComponents="1" format="ascii">
6.05341e-06
6.05341e-06
6.05341e-06
6.08167e-06
6.08167e-06
6.08167e-06
6.07238e-06
6.07238e-06
6.07238e-06
6.06404e-06
6.06404e-06
6.06404e-06
6.05573e-06
6.05573e-06
6.05573e-06
6.0172e-06
6.0172e-06
6.0172e-06
6.043e-06
6.043e-06
6.043e-06
6.03951e-06
6.03951e-06
6.03951e-06
6.03309e-06
6.03309e-06
6.03309e-06
6.02704e-06
6.02704e-06
6.02704e-06
6.00803e-06
6.00803e-06
6.00803e-06
6.05839e-06
6.05839e-06
6.05839e-06
6.06775e-06
6.06775e-06
6.06775e-06
6.01733e-06
6.01733e-06
6.01733e-06
5.986e-06
5.986e-06
5.986e-06
6.08633e-06
6.08633e-06
6.08633e-06
6.06101e-06
6.06101e-06
6.06101e-06
6.05636e-06
6.05636e-06
6.05636e-06
6.64991e-06
6.64991e-06
6.64991e-06
6.1584e-06
6.1584e-06
6.1584e-06
6.16314e-06
6.16314e-06
6.16314e-06
6.28894e-06
6.28894e-06
6.28894e-06
1.23559e-05
1.23559e-05
1.23559e-05
1.16328e-05
1.16328e-05
1.16328e-05
6.04648e-06
6.04648e-06
6.04648e-06
6.04246e-06
6.04246e-06
6.04246e-06
6.02231e-06
6.02231e-06
6.02231e-06
6.00658e-06
6.00658e-06
6.00658e-06
5.96126e-06
5.96126e-06
5.96126e-06
5.98063e-06
5.98063e-06
5.98063e-06
5.96894e-06
5.96894e-06
5.96894e-06
5.99241e-06
5.99241e-06
5.99241e-06
5.99622e-06
5.99622e-06
5.99622e-06
6.1374e-06
6.1374e-06
6.1374e-06
6.03584e-06
6.03584e-06
6.03584e-06
6.01086e-06
6.01086e-06
6.01086e-06
6.0306e-06
6.0306e-06
6.0306e-06
6.29383e-06
6.29383e-06
6.29383e-06
6.64455e-06
6.64455e-06
6.64455e-06
6.23851e-06
6.23851e-06
6.23851e-06
6.10711e-06
6.10711e-06
6.10711e-06
6.11179e-06
6.11179e-06
6.11179e-06
6.14897e-06
6.14897e-06
6.14897e-06
6.13269e-06
6.13269e-06
6.13269e-06
6.09313e-06
6.09313e-06
6.09313e-06
6.09778e-06
6.09778e-06
6.09778e-06
6.19352e-06
6.19352e-06
6.19352e-06
7.98864e-06
7.98864e-06
7.98864e-06
8.81466e-06
8.81466e-06
8.81466e-06
6.91079e-06
6.91079e-06
6.91079e-06
1.15028e-05
1.15028e-05
1.15028e-05
1.08793e-05
1.08793e-05
1.08793e-05
1.17874e-05
1.17874e-05
1.17874e-05
6.61809e-06
6.61809e-06
6.61809e-06
6.40077e-06
6.40077e-06
6.40077e-06
6.34703e-06
6.34703e-06
6.34703e-06
6.50231e-06
6.50231e-06
6.50231e-06
6.47931e-06
6.47931e-06
6.47931e-06
6.43484e-06
6.43484e-06
6.43484e-06
6.31272e-06
6.31272e-06
6.31272e-06
6.40764e-06
6.40764e-06
6.40764e-06
6.38306e-06
6.38306e-06
6.38306e-06
6.36603e-06
6.36603e-06
6.36603e-06
6.40507e-06
6.40507e-06
6.40507e-06
6.41058e-06
6.41058e-06
6.41058e-06
6.32036e-06
6.32036e-06
6.32036e-06
6.34207e-06
6.34207e-06
6.34207e-06
6.31544e-06
6.31544e-06
6.31544e-06
6.33222e-06
6.33222e-06
6.33222e-06
6.30308e-06
6.30308e-06
6.30308e-06
6.25994e-06
6.25994e-06
6.25994e-06
6.35399e-06
6.35399e-06
6.35399e-06
6.33694e-06
6.33694e-06
6.33694e-06
6.26743e-06
6.26743e-06
6.26743e-06
6.29109e-06
6.29109e-06
6.29109e-06
6.28627e-06
6.28627e-06
6.28627e-06
6.26473e-06
6.26473e-06
6.26473e-06
6.17003e-06
6.17003e-06
6.17003e-06
6.17475e-06
6.17475e-06
6.17475e-06
6.19592e-06
6.19592e-06
6.19592e-06
6.21953e-06
6.21953e-06
6.21953e-06
6.19823e-06
6.19823e-06
6.19823e-06
6.18173e-06
6.18173e-06
6.18173e-06
6.18645e-06
6.18645e-06
6.18645e-06
6.23618e-06
6.23618e-06
6.23618e-06
6.26917e-06
6.26917e-06
6.26917e-06
6.08381e-06
6.08381e-06
6.08381e-06
6.0796e-06
6.0796e-06
6.0796e-06
6.17232e-06
6.17232e-06
6.17232e-06
6.16762e-06
6.16762e-06
6.16762e-06
6.46767e-06
6.46767e-06
6.46767e-06
6.29671e-06
6.29671e-06
6.29671e-06
6.27447e-06
6.27447e-06
6.27447e-06
6.25765e-06
6.25765e-06
6.25765e-06
6.26239e-06
6.26239e-06
6.26239e-06
7.5733e-06
7.5733e-06
7.5733e-06
7.62624e-06
7.62624e-06
7.62624e-06
7.76436e-06
7.76436e-06
7.76436e-06
7.85014e-06
7.85014e-06
7.85014e-06
8.07435e-06
8.07435e-06
8.07435e-06
8.953e-06
8.953e-06
8.953e-06
1.01187e-05
1.01187e-05
1.01187e-05
1.00861e-05
1.00861e-05
1.00861e-05
1.08307e-05
1.08307e-05
1.08307e-05
1.07867e-05
1.07867e-05
1.07867e-05
1.00177e-05
1.00177e-05
1.00177e-05
1.12112e-05
1.12112e-05
1.12112e-05
1.16997e-05
1.16997e-05
1.16997e-05
1.07805e-05
1.07805e-05
1.07805e-05
1.06529e-05
1.06529e-05
1.06529e-05
1.05121e-05
1.05121e-05
1.05121e-05
1.11671e-05
1.11671e-05
1.11671e-05
7.85934e-06
7.85934e-06
7.85934e-06
7.81766e-06
7.81766e-06
7.81766e-06
7.73343e-06
7.73343e-06
7.73343e-06
8.04158e-06
8.04158e-06
8.04158e-06
7.95564e-06
7.95564e-06
7.95564e-06
8.00924e-06
8.00924e-06
8.00924e-06
9.87519e-06
9.87519e-06
9.87519e-06
8.8531e-06
8.8531e-06
8.8531e-06
8.9046e-06
8.9046e-06
8.9046e-06
8.86837e-06
8.86837e-06
8.86837e-06
8.77755e-06
8.77755e-06
8.77755e-06
8.83023e-06
8.83023e-06
8.83023e-06
8.97185e-06
8.97185e-06
8.97185e-06
8.74148e-06
8.74148e-06
8.74148e-06
8.75665e-06
8.75665e-06
8.75665e-06
8.70441e-06
8.70441e-06
8.70441e-06
8.79233e-06
8.79233e-06
8.79233e-06
6.90619e-06
6.90619e-06
6.90619e-06
6.92479e-06
6.92479e-06
6.92479e-06
7.37602e-06
7.37602e-06
7.37602e-06
7.10839e-06
7.10839e-06
7.10839e-06
7.22622e-06
7.22622e-06
7.22622e-06
1.43819e-05
1.43819e-05
1.43819e-05
1.40566e-05
1.40566e-05
1.40566e-05
1.45444e-05
1.45444e-05
1.45444e-05
1.46525e-05
1.46525e-05
1.46525e-05
1.31768e-05
1.31768e-05
1.31768e-05
1.2536e-05
1.2536e-05
1.2536e-05
1.30302e-05
1.30302e-05
1.30302e-05
1.42294e-05
1.42294e-05
1.42294e-05
1.41183e-05
1.41183e-05
1.41183e-05
1.0934e-05
1.0934e-05
1.0934e-05
1.12152e-05
1.12152e-05
1.12152e-05
1.11219e-05
1.11219e-05
1.11219e-05
1.19481e-05
1.19481e-05
1.19481e-05
1.18484e-05
1.18484e-05
1.18484e-05
1.14068e-05
1.14068e-05
1.14068e-05
6.67297e-06
6.67297e-06
6.67297e-06
6.45509e-06
6.45509e-06
6.45509e-06
6.56212e-06
6.56212e-06
6.56212e-06
6.55637e-06
6.55637e-06
6.55637e-06
6.59003e-06
6.59003e-06
6.59003e-06
6.58484e-06
6.58484e-06
6.58484e-06
6.60248e-06
6.60248e-06
6.60248e-06
6.62538e-06
6.62538e-06
6.62538e-06
6.63058e-06
6.63058e-06
6.63058e-06
6.61287e-06
6.61287e-06
6.61287e-06
8.96942e-06
8.96942e-06
8.96942e-06
9.03085e-06
9.03085e-06
9.03085e-06
9.14324e-06
9.14324e-06
9.14324e-06
6.65361e-06
6.65361e-06
6.65361e-06
6.62161e-06
6.62161e-06
6.62161e-06
6.63073e-06
6.63073e-06
6.63073e-06
6.91975e-06
6.91975e-06
6.91975e-06
6.4423e-06
6.4423e-06
6.4423e-06
6.9194e-06
6.9194e-06
6.9194e-06
6.5822e-06
6.5822e-06
6.5822e-06
6.60572e-06
6.60572e-06
6.60572e-06
6.7441e-06
6.7441e-06
6.7441e-06
6.80311e-06
6.80311e-06
6.80311e-06
6.51972e-06
6.51972e-06
6.51972e-06
6.42786e-06
6.42786e-06
6.42786e-06
6.4228e-06
6.4228e-06
6.4228e-06
6.43987e-06
6.43987e-06
6.43987e-06
6.46207e-06
6.46207e-06
6.46207e-06
6.46714e-06
6.46714e-06
6.46714e-06
6.44999e-06
6.44999e-06
6.44999e-06
7.71601e-06
7.71601e-06
7.71601e-06
7.65775e-06
7.65775e-06
7.65775e-06
6.86084e-06
6.86084e-06
6.86084e-06
6.77232e-06
6.77232e-06
6.77232e-06
6.83125e-06
6.83125e-06
6.83125e-06
6.97841e-06
6.97841e-06
6.97841e-06
7.6902e-06
7.6902e-06
7.6902e-06
7.7816e-06
7.7816e-06
7.7816e-06
7.89545e-06
7.89545e-06
7.89545e-06
7.74729e-06
7.74729e-06
7.74729e-06
7.00863e-06
7.00863e-06
7.00863e-06
7.06725e-06
7.06725e-06
7.06725e-06
6.30077e-06
6.30077e-06
6.30077e-06
6.31757e-06
6.31757e-06
6.31757e-06
6.33931e-06
6.33931e-06
6.33931e-06
6.30564e-06
6.30564e-06
6.30564e-06
6.32732e-06
6.32732e-06
6.32732e-06
6.34419e-06
6.34419e-06
6.34419e-06
6.39043e-06
6.39043e-06
6.39043e-06
6.35627e-06
6.35627e-06
6.35627e-06
6.37817e-06
6.37817e-06
6.37817e-06
6.39529e-06
6.39529e-06
6.39529e-06
6.49618e-06
6.49618e-06
6.49618e-06
6.48479e-06
6.48479e-06
6.48479e-06
6.50228e-06
6.50228e-06
6.50228e-06
6.35892e-06
6.35892e-06
6.35892e-06
6.39784e-06
6.39784e-06
6.39784e-06
6.38081e-06
6.38081e-06
6.38081e-06
6.39349e-06
6.39349e-06
6.39349e-06
6.37094e-06
6.37094e-06
6.37094e-06
6.35399e-06
6.35399e-06
6.35399e-06
6.32478e-06
6.32478e-06
6.32478e-06
6.34175e-06
6.34175e-06
6.34175e-06
6.36362e-06
6.36362e-06
6.36362e-06
6.32961e-06
6.32961e-06
6.32961e-06
6.36845e-06
6.36845e-06
6.36845e-06
6.35141e-06
6.35141e-06
6.35141e-06
6.38078e-06
6.38078e-06
6.38078e-06
6.40221e-06
6.40221e-06
6.40221e-06
6.41948e-06
6.41948e-06
6.41948e-06
6.37654e-06
6.37654e-06
6.37654e-06
6.29827e-06
6.29827e-06
6.29827e-06
6.31517e-06
6.31517e-06
6.31517e-06
6.27668e-06
6.27668e-06
6.27668e-06
6.2719e-06
6.2719e-06
6.2719e-06
6.3492e-06
6.3492e-06
6.3492e-06
6.2786e-06
6.2786e-06
6.2786e-06
6.26199e-06
6.26199e-06
6.26199e-06
6.24118e-06
6.24118e-06
6.24118e-06
6.27435e-06
6.27435e-06
6.27435e-06
6.18902e-06
6.18902e-06
6.18902e-06
6.22194e-06
6.22194e-06
6.22194e-06
6.18425e-06
6.18425e-06
6.18425e-06
6.20067e-06
6.20067e-06
6.20067e-06
6.21503e-06
6.21503e-06
6.21503e-06
6.23693e-06
6.23693e-06
6.23693e-06
6.25348e-06
6.25348e-06
6.25348e-06
6.24808e-06
6.24808e-06
6.24808e-06
6.22672e-06
6.22672e-06
6.22672e-06
6.21022e-06
6.21022e-06
6.21022e-06
6.24565e-06
6.24565e-06
6.24565e-06
6.21242e-06
6.21242e-06
6.21242e-06
6.22425e-06
6.22425e-06
6.22425e-06
6.20768e-06
6.20768e-06
6.20768e-06
6.2504e-06
6.2504e-06
6.2504e-06
6.23375e-06
6.23375e-06
6.23375e-06
6.21009e-06
6.21009e-06
6.21009e-06
6.23146e-06
6.23146e-06
6.23146e-06
6.24823e-06
6.24823e-06
6.24823e-06
6.10929e-06
6.10929e-06
6.10929e-06
6.14127e-06
6.14127e-06
6.14127e-06
6.1302e-06
6.1302e-06
6.1302e-06
6.14652e-06
6.14652e-06
6.14652e-06
6.10401e-06
6.10401e-06
6.10401e-06
6.12024e-06
6.12024e-06
6.12024e-06
6.06508e-06
6.06508e-06
6.06508e-06
6.06944e-06
6.06944e-06
6.06944e-06
6.07596e-06
6.07596e-06
6.07596e-06
6.08126e-06
6.08126e-06
6.08126e-06
6.10185e-06
6.10185e-06
6.10185e-06
6.11671e-06
6.11671e-06
6.11671e-06
6.10677e-06
6.10677e-06
6.10677e-06
6.0957e-06
6.0957e-06
6.0957e-06
6.09053e-06
6.09053e-06
6.09053e-06
6.15591e-06
6.15591e-06
6.15591e-06
6.12331e-06
6.12331e-06
6.12331e-06
6.11864e-06
6.11864e-06
6.11864e-06
6.13489e-06
6.13489e-06
6.13489e-06
6.14427e-06
6.14427e-06
6.14427e-06
6.16061e-06
6.16061e-06
6.16061e-06
7.49781e-06
7.49781e-06
7.49781e-06
7.58684e-06
7.58684e-06
7.58684e-06
7.06414e-06
7.06414e-06
7.06414e-06
7.3532e-06
7.3532e-06
7.3532e-06
6.44531e-06
6.44531e-06
6.44531e-06
7.44845e-06
7.44845e-06
7.44845e-06
7.59592e-06
7.59592e-06
7.59592e-06
7.54137e-06
7.54137e-06
7.54137e-06
9.00756e-06
9.00756e-06
9.00756e-06
8.80503e-06
8.80503e-06
8.80503e-06
7.95343e-06
7.95343e-06
7.95343e-06
7.86358e-06
7.86358e-06
7.86358e-06
1.02157e-05
1.02157e-05
1.02157e-05
1.06248e-05
1.06248e-05
1.06248e-05
1.01707e-05
1.01707e-05
1.01707e-05
1.095e-05
1.095e-05
1.095e-05
1.11501e-05
1.11501e-05
1.11501e-05
1.10994e-05
1.10994e-05
1.10994e-05
1.09259e-05
1.09259e-05
1.09259e-05
1.08352e-05
1.08352e-05
1.08352e-05
1.09777e-05
1.09777e-05
1.09777e-05
1.10246e-05
1.10246e-05
1.10246e-05
1.06876e-05
1.06876e-05
1.06876e-05
1.064e-05
1.064e-05
1.064e-05
1.04025e-05
1.04025e-05
1.04025e-05
1.04969e-05
1.04969e-05
1.04969e-05
1.05352e-05
1.05352e-05
1.05352e-05
1.03909e-05
1.03909e-05
1.03909e-05
1.08241e-05
1.08241e-05
1.08241e-05
1.09691e-05
1.09691e-05
1.09691e-05
1.10656e-05
1.10656e-05
1.10656e-05
1.04792e-05
1.04792e-05
1.04792e-05
1.03029e-05
1.03029e-05
1.03029e-05
1.0446e-05
1.0446e-05
1.0446e-05
1.13075e-05
1.13075e-05
1.13075e-05
1.12588e-05
1.12588e-05
1.12588e-05
1.11598e-05
1.11598e-05
1.11598e-05
1.16495e-05
1.16495e-05
1.16495e-05
1.03571e-05
1.03571e-05
1.03571e-05
9.93794e-06
9.93794e-06
9.93794e-06
1.10224e-05
1.10224e-05
1.10224e-05
1.10713e-05
1.10713e-05
1.10713e-05
8.27534e-06
8.27534e-06
8.27534e-06
8.14706e-06
8.14706e-06
8.14706e-06
9.16303e-06
9.16303e-06
9.16303e-06
9.21511e-06
9.21511e-06
9.21511e-06
8.74617e-06
8.74617e-06
8.74617e-06
9.06284e-06
9.06284e-06
9.06284e-06
9.06264e-06
9.06264e-06
9.06264e-06
9.0106e-06
9.0106e-06
9.0106e-06
8.89703e-06
8.89703e-06
8.89703e-06
9.17868e-06
9.17868e-06
9.17868e-06
6.93836e-06
6.93836e-06
6.93836e-06
6.94756e-06
6.94756e-06
6.94756e-06
7.01894e-06
7.01894e-06
7.01894e-06
7.02372e-06
7.02372e-06
7.02372e-06
7.0523e-06
7.0523e-06
7.0523e-06
1.38392e-05
1.38392e-05
1.38392e-05
1.38931e-05
1.38931e-05
1.38931e-05
1.35237e-05
1.35237e-05
1.35237e-05
1.36735e-05
1.36735e-05
1.36735e-05
1.35642e-05
1.35642e-05
1.35642e-05
1.33419e-05
1.33419e-05
1.33419e-05
1.33994e-05
1.33994e-05
1.33994e-05
1.32844e-05
1.32844e-05
1.32844e-05
1.41044e-05
1.41044e-05
1.41044e-05
1.43177e-05
1.43177e-05
1.43177e-05
1.42674e-05
1.42674e-05
1.42674e-05
1.43311e-05
1.43311e-05
1.43311e-05
1.41689e-05
1.41689e-05
1.41689e-05
1.45116e-05
1.45116e-05
1.45116e-05
1.40234e-05
1.40234e-05
1.40234e-05
1.27868e-05
1.27868e-05
1.27868e-05
1.27147e-05
1.27147e-05
1.27147e-05
1.25739e-05
1.25739e-05
1.25739e-05
1.40178e-05
1.40178e-05
1.40178e-05
1.40774e-05
1.40774e-05
1.40774e-05
1.39688e-05
1.39688e-05
1.39688e-05
1.37644e-05
1.37644e-05
1.37644e-05
1.38126e-05
1.38126e-05
1.38126e-05
1.43188e-05
1.43188e-05
1.43188e-05
1.36651e-05
1.36651e-05
1.36651e-05
1.36768e-05
1.36768e-05
1.36768e-05
1.29732e-05
1.29732e-05
1.29732e-05
1.28683e-05
1.28683e-05
1.28683e-05
1.34258e-05
1.34258e-05
1.34258e-05
1.32657e-05
1.32657e-05
1.32657e-05
1.37467e-05
1.37467e-05
1.37467e-05
1.39074e-05
1.39074e-05
1.39074e-05
1.39577e-05
1.39577e-05
1.39577e-05
1.28353e-05
1.28353e-05
1.28353e-05
1.4441e-05
1.4441e-05
1.4441e-05
1.45023e-05
1.45023e-05
1.45023e-05
1.43908e-05
1.43908e-05
1.43908e-05
1.07266e-05
1.07266e-05
1.07266e-05
1.06292e-05
1.06292e-05
1.06292e-05
1.14433e-05
1.14433e-05
1.14433e-05
1.0433e-05
1.0433e-05
1.0433e-05
1.03802e-05
1.03802e-05
1.03802e-05
1.04778e-05
1.04778e-05
1.04778e-05
9.69596e-06
9.69596e-06
9.69596e-06
9.88615e-06
9.88615e-06
9.88615e-06
1.1847e-05
1.1847e-05
1.1847e-05
1.17954e-05
1.17954e-05
1.17954e-05
1.07432e-05
1.07432e-05
1.07432e-05
1.08846e-05
1.08846e-05
1.08846e-05
1.09799e-05
1.09799e-05
1.09799e-05
1.09296e-05
1.09296e-05
1.09296e-05
1.10755e-05
1.10755e-05
1.10755e-05
1.11686e-05
1.11686e-05
1.11686e-05
1.12037e-05
1.12037e-05
1.12037e-05
1.13604e-05
1.13604e-05
1.13604e-05
1.13107e-05
1.13107e-05
1.13107e-05
1.3609e-05
1.3609e-05
1.3609e-05
1.35519e-05
1.35519e-05
1.35519e-05
1.35049e-05
1.35049e-05
1.35049e-05
1.18982e-05
1.18982e-05
1.18982e-05
1.19944e-05
1.19944e-05
1.19944e-05
1.20952e-05
1.20952e-05
1.20952e-05
1.2047e-05
1.2047e-05
1.2047e-05
1.23449e-05
1.23449e-05
1.23449e-05
1.22916e-05
1.22916e-05
1.22916e-05
1.22438e-05
1.22438e-05
1.22438e-05
1.24402e-05
1.24402e-05
1.24402e-05
1.13585e-05
1.13585e-05
1.13585e-05
1.12602e-05
1.12602e-05
1.12602e-05
1.19422e-05
1.19422e-05
1.19422e-05
1.18936e-05
1.18936e-05
1.18936e-05
1.15518e-05
1.15518e-05
1.15518e-05
1.19306e-05
1.19306e-05
1.19306e-05
1.2061e-05
1.2061e-05
1.2061e-05
1.22168e-05
1.22168e-05
1.22168e-05
1.13577e-05
1.13577e-05
1.13577e-05
1.14066e-05
1.14066e-05
1.14066e-05
1.1594e-05
1.1594e-05
1.1594e-05
1.17367e-05
1.17367e-05
1.17367e-05
1.15492e-05
1.15492e-05
1.15492e-05
1.16438e-05
1.16438e-05
1.16438e-05
7.03794e-06
7.03794e-06
7.03794e-06
7.06116e-06
7.06116e-06
7.06116e-06
7.08033e-06
7.08033e-06
7.08033e-06
7.0762e-06
7.0762e-06
7.0762e-06
7.13772e-06
7.13772e-06
7.13772e-06
7.11826e-06
7.11826e-06
7.11826e-06
7.09548e-06
7.09548e-06
7.09548e-06
8.29962e-06
8.29962e-06
8.29962e-06
6.91865e-06
6.91865e-06
6.91865e-06
6.93737e-06
6.93737e-06
6.93737e-06
6.9936e-06
6.9936e-06
6.9936e-06
6.97478e-06
6.97478e-06
6.97478e-06
6.53439e-06
6.53439e-06
6.53439e-06
6.52928e-06
6.52928e-06
6.52928e-06
6.50679e-06
6.50679e-06
6.50679e-06
6.48945e-06
6.48945e-06
6.48945e-06
6.50998e-06
6.50998e-06
6.50998e-06
6.54465e-06
6.54465e-06
6.54465e-06
6.57391e-06
6.57391e-06
6.57391e-06
6.60992e-06
6.60992e-06
6.60992e-06
6.61505e-06
6.61505e-06
6.61505e-06
6.59732e-06
6.59732e-06
6.59732e-06
8.8623e-06
8.8623e-06
8.8623e-06
8.7489e-06
8.7489e-06
8.7489e-06
8.93726e-06
8.93726e-06
8.93726e-06
9.14855e-06
9.14855e-06
9.14855e-06
9.30231e-06
9.30231e-06
9.30231e-06
9.39928e-06
9.39928e-06
9.39928e-06
9.09113e-06
9.09113e-06
9.09113e-06
9.34256e-06
9.34256e-06
9.34256e-06
9.18816e-06
9.18816e-06
9.18816e-06
9.05239e-06
9.05239e-06
9.05239e-06
9.35966e-06
9.35966e-06
9.35966e-06
9.47238e-06
9.47238e-06
9.47238e-06
1.06635e-05
1.06635e-05
1.06635e-05
9.55352e-06
9.55352e-06
9.55352e-06
1.05056e-05
1.05056e-05
1.05056e-05
7.73666e-06
7.73666e-06
7.73666e-06
8.69128e-06
8.69128e-06
8.69128e-06
8.78619e-06
8.78619e-06
8.78619e-06
8.55605e-06
8.55605e-06
8.55605e-06
8.34628e-06
8.34628e-06
8.34628e-06
8.40384e-06
8.40384e-06
8.40384e-06
8.93245e-06
8.93245e-06
8.93245e-06
7.53504e-06
7.53504e-06
7.53504e-06
7.97927e-06
7.97927e-06
7.97927e-06
8.07619e-06
8.07619e-06
8.07619e-06
8.23511e-06
8.23511e-06
8.23511e-06
8.33158e-06
8.33158e-06
8.33158e-06
8.87973e-06
8.87973e-06
8.87973e-06
8.45402e-06
8.45402e-06
8.45402e-06
8.76269e-06
8.76269e-06
8.76269e-06
6.64105e-06
6.64105e-06
6.64105e-06
6.65885e-06
6.65885e-06
6.65885e-06
7.70374e-06
7.70374e-06
7.70374e-06
7.40056e-06
7.40056e-06
7.40056e-06
7.49255e-06
7.49255e-06
7.49255e-06
7.64428e-06
7.64428e-06
7.64428e-06
6.97795e-06
6.97795e-06
6.97795e-06
7.36579e-06
7.36579e-06
7.36579e-06
6.80074e-06
6.80074e-06
6.80074e-06
6.61569e-06
6.61569e-06
6.61569e-06
6.59349e-06
6.59349e-06
6.59349e-06
6.56549e-06
6.56549e-06
6.56549e-06
6.60047e-06
6.60047e-06
6.60047e-06
6.60633e-06
6.60633e-06
6.60633e-06
6.58881e-06
6.58881e-06
6.58881e-06
6.53766e-06
6.53766e-06
6.53766e-06
6.53246e-06
6.53246e-06
6.53246e-06
6.54983e-06
6.54983e-06
6.54983e-06
6.57248e-06
6.57248e-06
6.57248e-06
6.5777e-06
6.5777e-06
6.5777e-06
6.56025e-06
6.56025e-06
6.56025e-06
6.36884e-06
6.36884e-06
6.36884e-06
6.38577e-06
6.38577e-06
6.38577e-06
6.40775e-06
6.40775e-06
6.40775e-06
6.37383e-06
6.37383e-06
6.37383e-06
6.41275e-06
6.41275e-06
6.41275e-06
6.39575e-06
6.39575e-06
6.39575e-06
6.65902e-06
6.65902e-06
6.65902e-06
6.86198e-06
6.86198e-06
6.86198e-06
6.71732e-06
6.71732e-06
6.71732e-06
6.74599e-06
6.74599e-06
6.74599e-06
6.45977e-06
6.45977e-06
6.45977e-06
6.49465e-06
6.49465e-06
6.49465e-06
6.47219e-06
6.47219e-06
6.47219e-06
6.45464e-06
6.45464e-06
6.45464e-06
6.52235e-06
6.52235e-06
6.52235e-06
6.49978e-06
6.49978e-06
6.49978e-06
6.48216e-06
6.48216e-06
6.48216e-06
6.48731e-06
6.48731e-06
6.48731e-06
6.52856e-06
6.52856e-06
6.52856e-06
6.56435e-06
6.56435e-06
6.56435e-06
6.52451e-06
6.52451e-06
6.52451e-06
6.54226e-06
6.54226e-06
6.54226e-06
6.48913e-06
6.48913e-06
6.48913e-06
6.51098e-06
6.51098e-06
6.51098e-06
6.63341e-06
6.63341e-06
6.63341e-06
6.61008e-06
6.61008e-06
6.61008e-06
6.77352e-06
6.77352e-06
6.77352e-06
6.68745e-06
6.68745e-06
6.68745e-06
6.57727e-06
6.57727e-06
6.57727e-06
6.71505e-06
6.71505e-06
6.71505e-06
6.62774e-06
6.62774e-06
6.62774e-06
6.62203e-06
6.62203e-06
6.62203e-06
6.58457e-06
6.58457e-06
6.58457e-06
6.54104e-06
6.54104e-06
6.54104e-06
6.54672e-06
6.54672e-06
6.54672e-06
6.58706e-06
6.58706e-06
6.58706e-06
6.56939e-06
6.56939e-06
6.56939e-06
6.94895e-06
6.94895e-06
6.94895e-06
6.89126e-06
6.89126e-06
6.89126e-06
6.97795e-06
6.97795e-06
6.97795e-06
7.12359e-06
7.12359e-06
7.12359e-06
7.18128e-06
7.18128e-06
7.18128e-06
7.09396e-06
7.09396e-06
7.09396e-06
7.15143e-06
7.15143e-06
7.15143e-06
7.29627e-06
7.29627e-06
7.29627e-06
7.00779e-06
7.00779e-06
7.00779e-06
6.94964e-06
6.94964e-06
6.94964e-06
7.03743e-06
7.03743e-06
7.03743e-06
7.18435e-06
7.18435e-06
7.18435e-06
7.62541e-06
7.62541e-06
7.62541e-06
7.47834e-06
7.47834e-06
7.47834e-06
7.0972e-06
7.0972e-06
7.0972e-06
7.27612e-06
7.27612e-06
7.27612e-06
7.51002e-06
7.51002e-06
7.51002e-06
7.21478e-06
7.21478e-06
7.21478e-06
7.42048e-06
7.42048e-06
7.42048e-06
7.27318e-06
7.27318e-06
7.27318e-06
7.54768e-06
7.54768e-06
7.54768e-06
8.65563e-06
8.65563e-06
8.65563e-06
8.71226e-06
8.71226e-06
8.71226e-06
7.93042e-06
7.93042e-06
7.93042e-06
7.9872e-06
7.9872e-06
7.9872e-06
6.47437e-06
6.47437e-06
6.47437e-06
6.46979e-06
6.46979e-06
6.46979e-06
6.42979e-06
6.42979e-06
6.42979e-06
6.44716e-06
6.44716e-06
6.44716e-06
6.44445e-06
6.44445e-06
6.44445e-06
6.46181e-06
6.46181e-06
6.46181e-06
6.42227e-06
6.42227e-06
6.42227e-06
6.45691e-06
6.45691e-06
6.45691e-06
6.41737e-06
6.41737e-06
6.41737e-06
6.43466e-06
6.43466e-06
6.43466e-06
6.33907e-06
6.33907e-06
6.33907e-06
6.3098e-06
6.3098e-06
6.3098e-06
6.32676e-06
6.32676e-06
6.32676e-06
6.28874e-06
6.28874e-06
6.28874e-06
6.32199e-06