<VTKFile type="UnstructuredGrid" version="1.0">
<UnstructuredGrid>
<Piece NumberOfPoints="8859" NumberOfCells="2953">
<Points>
<DataArray type="Float64" NumberOfComponents="3" format="ascii">
2.75455 1.50245 16.5876
2.76986 1.48714 16.5996
2.75465 1.50235 16.6133
2.78515 1.47185 16.5367
2.78516 1.47184 16.5115
2.8005 1.4565 16.524
2.76981 1.48719 16.5494
2.78515 1.47185 16.5367
2.78514 1.47186 16.5619
2.72412 1.53288 16.6399
2.73952 1.51748 16.6475
2.70875 1.54825 16.6475
2.72412 1.53288 16.6399
2.73943 1.51757 16.6246
2.73952 1.51748 16.6475
2.75488 1.50212 16.6398
2.77036 1.48664 16.6475
2.73952 1.51748 16.6475
2.75488 1.50212 16.6398
2.73943 1.51757 16.6246
2.75465 1.50235 16.6133
2.73952 1.51748 16.6475
2.73943 1.51757 16.6246
2.75488 1.50212 16.6398
2.75465 1.50235 16.6133
2.76986 1.48714 16.5996
2.76997 1.48703 16.6243
2.76997 1.48703 16.6243
2.75488 1.50212 16.6398
2.75465 1.50235 16.6133
2.77036 1.48664 16.6475
2.75488 1.50212 16.6398
2.76997 1.48703 16.6243
2.76986 1.48714 16.5996
2.75455 1.50245 16.5876
2.76982 1.48718 16.5745
2.76981 1.48719 16.5494
2.78514 1.47186 16.5619
2.76982 1.48718 16.5745
2.7852 1.4718 16.6126
2.76997 1.48703 16.6243
2.76986 1.48714 16.5996
2.8005 1.4565 16.5989
2.8005 1.4565 16.6236
2.7852 1.4718 16.6126
2.8005 1.4565 16.4989
2.8005 1.4565 16.524
2.78516 1.47184 16.5115
2.78515 1.47185 16.5367
2.8005 1.4565 16.524
2.8005 1.4565 16.5491
2.8005 1.4565 16.5491
2.78514 1.47186 16.5619
2.78515 1.47185 16.5367
2.8005 1.4565 15.9715
2.8005 1.4565 15.9967
2.78518 1.47182 15.9841
2.78517 1.47183 16.4361
2.8005 1.4565 16.4486
2.78517 1.47183 16.4612
2.8005 1.4565 16.4235
2.8005 1.4565 16.4486
2.78517 1.47183 16.4361
2.78519 1.47181 16.3104
2.8005 1.4565 16.323
2.78519 1.47181 16.3356
2.32274 1.93426 15.7556
2.33845 1.91855 15.7475
2.33845 1.91855 15.7706
2.27541 1.98159 16.6475
2.24359 2.01341 16.6475
2.25954 1.99746 16.6393
2.78515 1.47185 16.5871
2.76982 1.48718 16.5745
2.78514 1.47186 16.5619
2.76986 1.48714 16.5996
2.76982 1.48718 16.5745
2.78515 1.47185 16.5871
2.78515 1.47185 16.5871
2.7852 1.4718 16.6126
2.76986 1.48714 16.5996
2.8005 1.4565 16.5989
2.7852 1.4718 16.6126
2.78515 1.47185 16.5871
2.78544 1.47156 16.6388
2.8005 1.4565 16.6236
2.8005 1.4565 16.6475
2.78544 1.47156 16.6388
2.7852 1.4718 16.6126
2.8005 1.4565 16.6236
2.8005 1.4565 16.6475
2.77036 1.48664 16.6475
2.78544 1.47156 16.6388
2.77036 1.48664 16.6475
2.76997 1.48703 16.6243
2.78544 1.47156 16.6388
2.76997 1.48703 16.6243
2.7852 1.4718 16.6126
2.78544 1.47156 16.6388
2.78517 1.47183 16.4612
2.8005 1.4565 16.4486
2.8005 1.4565 16.4737
2.78514 1.47186 16.5619
2.8005 1.4565 16.5491
2.8005 1.4565 16.5741
2.8005 1.4565 16.5989
2.78515 1.47185 16.5871
2.8005 1.4565 16.5741
2.8005 1.4565 16.5741
2.78515 1.47185 16.5871
2.78514 1.47186 16.5619
2.8005 1.4565 16.2979
2.8005 1.4565 16.323
2.78519 1.47181 16.3104
2.78518 1.47182 15.9841
2.8005 1.4565 15.9967
2.78518 1.47182 16.0092
2.76985 1.48715 16.4235
2.75454 1.50246 16.411
2.76986 1.48714 16.3984
2.78516 1.47184 16.4864
2.8005 1.4565 16.4989
2.78516 1.47184 16.5115
2.78516 1.47184 16.4864
2.8005 1.4565 16.4737
2.8005 1.4565 16.4989
2.78516 1.47184 16.4864
2.76984 1.48716 16.4738
2.78517 1.47183 16.4612
2.78517 1.47183 16.4612
2.8005 1.4565 16.4737
2.78516 1.47184 16.4864
2.76982 1.48718 16.5242
2.78515 1.47185 16.5367
2.76981 1.48719 16.5494
2.76982 1.48718 16.5242
2.78516 1.47184 16.5115
2.78515 1.47185 16.5367
2.75451 1.50249 16.4865
2.7392 1.5178 16.4991
2.73921 1.51779 16.4739
2.53996 1.71704 16.6134
2.52458 1.73242 16.5999
2.53996 1.71704 16.5877
2.49374 1.76326 16.4488
2.49375 1.76325 16.474
2.47832 1.77868 16.4614
2.8005 1.4565 15.7475
2.8005 1.4565 15.7714
2.78544 1.47156 15.7562
2.27543 1.98157 16.6243
2.27541 1.98159 16.6475
2.25954 1.99746 16.6393
2.33845 1.91855 16.5495
2.32276 1.93424 16.5621
2.32275 1.93425 16.5369
2.25954 1.99746 16.6393
2.24359 2.01341 16.6475
2.24374 2.01326 16.6242
2.76987 1.48713 16.072
2.75455 1.50245 16.0594
2.76987 1.48713 16.0469
2.8005 1.4565 16.2226
2.78519 1.47181 16.21
2.8005 1.4565 16.1975
2.78519 1.47181 16.2602
2.8005 1.4565 16.2477
2.8005 1.4565 16.2728
2.76988 1.48712 16.1724
2.75456 1.50244 16.185
2.75456 1.50244 16.1599
2.76988 1.48712 16.1975
2.75456 1.50244 16.185
2.76988 1.48712 16.1724
2.78519 1.47181 16.21
2.76988 1.48712 16.2226
2.76988 1.48712 16.1975
2.75455 1.50245 16.3356
2.76987 1.48713 16.3481
2.75455 1.50245 16.3607
2.72393 1.53307 16.3105
2.72392 1.53308 16.3356
2.70861 1.54839 16.323
2.75456 1.50244 16.3105
2.73924 1.51776 16.2979
2.75456 1.50244 16.2853
2.75456 1.50244 16.2853
2.76987 1.48713 16.2979
2.75456 1.50244 16.3105
2.73924 1.51776 16.2979
2.73925 1.51775 16.2728
2.75456 1.50244 16.2853
2.75456 1.50244 16.2853
2.73925 1.51775 16.2728
2.75456 1.50244 16.2602
2.8005 1.4565 16.2728
2.8005 1.4565 16.2979
2.78519 1.47181 16.2853
2.78519 1.47181 16.2853
2.78519 1.47181 16.2602
2.8005 1.4565 16.2728
2.78519 1.47181 16.2853
2.8005 1.4565 16.2979
2.78519 1.47181 16.3104
2.78519 1.47181 16.3104
2.76987 1.48713 16.2979
2.78519 1.47181 16.2853
2.75454 1.50246 16.3858
2.73923 1.51777 16.3733
2.75455 1.50245 16.3607
2.75454 1.50246 16.3858
2.76986 1.48714 16.3984
2.75454 1.50246 16.411
2.7086 1.5484 16.3733
2.72392 1.53308 16.3607
2.72392 1.53308 16.3859
2.72392 1.53308 16.3859
2.72392 1.53308 16.3607
2.73923 1.51777 16.3733
2.8005 1.4565 16.3481
2.78519 1.47181 16.3356
2.8005 1.4565 16.323
2.75455 1.50245 16.3607
2.76987 1.48713 16.3481
2.76986 1.48714 16.3732
2.76986 1.48714 16.3732
2.75454 1.50246 16.3858
2.75455 1.50245 16.3607
2.76986 1.48714 16.3984
2.75454 1.50246 16.3858
2.76986 1.48714 16.3732
2.78517 1.47183 16.4612
2.76984 1.48716 16.4738
2.76985 1.48715 16.4487
2.76985 1.48715 16.4487
2.78517 1.47183 16.4361
2.78517 1.47183 16.4612
2.76985 1.48715 16.4235
2.78517 1.47183 16.4361
2.76985 1.48715 16.4487
2.73921 1.51779 16.4739
2.73921 1.51779 16.4488
2.75452 1.50248 16.4613
2.75452 1.50248 16.4613
2.75451 1.50249 16.4865
2.73921 1.51779 16.4739
2.76984 1.48716 16.4738
2.75451 1.50249 16.4865
2.75452 1.50248 16.4613
2.75452 1.50248 16.4613
2.76985 1.48715 16.4487
2.76984 1.48716 16.4738
2.7239 1.5331 16.4614
2.73921 1.51779 16.4488
2.73921 1.51779 16.4739
2.7239 1.5331 16.4614
2.70859 1.54841 16.474
2.70859 1.54841 16.4488
2.76981 1.48719 16.5494
2.76982 1.48718 16.5745
2.75451 1.50249 16.5622
2.75451 1.50249 16.5622
2.76982 1.48718 16.5745
2.75455 1.50245 16.5876
2.7392 1.5178 16.4991
2.75451 1.50249 16.4865
2.75451 1.50249 16.5117
2.75451 1.50249 16.5117
2.7392 1.5178 16.5244
2.7392 1.5178 16.4991
2.67798 1.57902 16.3482
2.66266 1.59434 16.3607
2.66266 1.59434 16.3356
2.70859 1.54841 16.4488
2.70859 1.54841 16.4236
2.7239 1.5331 16.4362
2.7239 1.5331 16.4362
2.7239 1.5331 16.4614
2.70859 1.54841 16.4488
2.73921 1.51779 16.4488
2.7239 1.5331 16.4614
2.7239 1.5331 16.4362
2.73922 1.51778 16.4236
2.73921 1.51779 16.4488
2.7239 1.5331 16.4362
2.57068 1.68632 16.5878
2.57068 1.68632 16.6134
2.55533 1.70167 16.5999
2.55533 1.70167 16.5999
2.57068 1.68632 16.6134
2.55533 1.70167 16.6245
2.55533 1.70167 16.5999
2.55533 1.70167 16.6245
2.53996 1.71704 16.6134
2.53996 1.71704 16.6134
2.53996 1.71704 16.5877
2.55533 1.70167 16.5999
2.52458 1.73242 16.5748
2.53996 1.71704 16.5877
2.52458 1.73242 16.5999
2.50912 1.74788 16.21
2.50912 1.74788 16.2351
2.49371 1.76329 16.2226
2.41633 1.84067 16.3356
2.40077 1.85623 16.323
2.41632 1.84068 16.3104
2.41635 1.84065 16.3858
2.40081 1.85619 16.3984
2.40079 1.85621 16.3732
2.33845 1.91855 16.5495
2.32275 1.93425 16.5369
2.33843 1.91857 16.5242
2.33845 1.91855 16.5747
2.32276 1.93424 16.5621
2.33845 1.91855 16.5495
2.40087 1.85613 16.4991
2.40088 1.85612 16.5243
2.38531 1.87169 16.5117
2.30693 1.95007 16.4486
2.32265 1.93435 16.436
2.32267 1.93433 16.4612
2.30684 1.95016 16.348
2.29108 1.96592 16.3606
2.29106 1.96594 16.3355
2.32274 1.93426 16.6394
2.33845 1.91855 16.6475
2.30701 1.94999 16.6475
2.33845 1.91855 16.6244
2.33845 1.91855 16.6475
2.32274 1.93426 16.6394
2.35411 1.90289 16.6395
2.33845 1.91855 16.6475
2.33845 1.91855 16.6244
2.30704 1.94996 16.5746
2.30703 1.94997 16.5997
2.29128 1.96572 16.5875
2.55533 1.70167 16.6475
2.52458 1.73242 16.6475
2.53996 1.71704 16.6397
2.53996 1.71704 16.6134
2.55533 1.70167 16.6245
2.53996 1.71704 16.6397
2.53996 1.71704 16.6397
2.55533 1.70167 16.6245
2.55533 1.70167 16.6475
2.52458 1.73242 16.6245
2.52458 1.73242 16.5999
2.53996 1.71704 16.6134
2.53996 1.71704 16.6134
2.53996 1.71704 16.6397
2.52458 1.73242 16.6245
2.52458 1.73242 16.6245
2.53996 1.71704 16.6397
2.52458 1.73242 16.6475
2.41642 1.84058 16.5118
2.40088 1.85612 16.5243
2.40087 1.85613 16.4991
2.47831 1.77869 16.4362
2.49374 1.76326 16.4236
2.49374 1.76326 16.4488
2.49374 1.76326 16.4488
2.47832 1.77868 16.4614
2.47831 1.77869 16.4362
2.47833 1.77867 16.4866
2.47832 1.77868 16.4614
2.49375 1.76325 16.474
2.47833 1.77867 16.4866
2.49375 1.76325 16.474
2.49376 1.76324 16.4992
2.49376 1.76324 16.4992
2.47834 1.77866 16.5118
2.47833 1.77867 16.4866
2.47833 1.77867 16.4866
2.47834 1.77866 16.5118
2.46289 1.79411 16.4992
2.49377 1.76323 16.5244
2.47834 1.77866 16.5118
2.49376 1.76324 16.4992
2.49377 1.76323 16.5496
2.47835 1.77865 16.5623
2.47834 1.77866 16.5371
2.47834 1.77866 16.5371
2.49377 1.76323 16.5244
2.49377 1.76323 16.5496
2.47834 1.77866 16.5118
2.49377 1.76323 16.5244
2.47834 1.77866 16.5371
2.7852 1.4718 15.7824
2.78544 1.47156 15.7562
2.8005 1.4565 15.7714
2.76997 1.48703 15.7707
2.78544 1.47156 15.7562
2.7852 1.4718 15.7824
2.64739 1.60961 15.7705
2.64738 1.60962 15.7475
2.66272 1.59428 15.7552
2.70875 1.54825 15.7475
2.6934 1.5636 15.7552
2.67805 1.57895 15.7475
2.67805 1.57895 15.7475
2.66272 1.59428 15.7552
2.64738 1.60962 15.7475
2.19638 2.06062 15.784
2.1963 2.0607 15.7579
2.2122 2.0448 15.7714
2.2122 2.0448 15.7714
2.22771 2.02929 15.756
2.22802 2.02898 15.7825
2.18073 2.07627 15.7728
2.1963 2.0607 15.7579
2.19638 2.06062 15.784
2.18073 2.07627 15.7728
2.18123 2.07577 15.7475
2.1963 2.0607 15.7579
2.27543 1.98157 15.7707
[...]
<PointData Scalars="View Factor" >
<DataArray type="Float64" Name="View Factor" NumberOfComponents="1" format="ascii">
3.78774e-06
3.78774e-06
3.78774e-06
3.97272e-06
3.97272e-06
3.97272e-06
3.91024e-06
3.91024e-06
3.91024e-06
3.59711e-06
3.59711e-06
3.59711e-06
3.64962e-06
3.64962e-06
3.64962e-06
3.7427e-06
3.7427e-06
3.7427e-06
3.72689e-06
3.72689e-06
3.72689e-06
3.69817e-06
3.69817e-06
3.69817e-06
3.80582e-06
3.80582e-06
3.80582e-06
3.77521e-06
3.77521e-06
3.77521e-06
3.7943e-06
3.7943e-06
3.7943e-06
3.81807e-06
3.81807e-06
3.81807e-06
3.87978e-06
3.87978e-06
3.87978e-06
3.85429e-06
3.85429e-06
3.85429e-06
3.95135e-06
3.95135e-06
3.95135e-06
4.00399e-06
4.00399e-06
4.00399e-06
3.99069e-06
3.99069e-06
3.99069e-06
3.95926e-06
3.95926e-06
3.95926e-06
4.2962e-06
4.2962e-06
4.2962e-06
4.01269e-06
4.01269e-06
4.01269e-06
4.04424e-06
4.04424e-06
4.04424e-06
4.08006e-06
4.08006e-06
4.08006e-06
2.50452e-06
2.50452e-06
2.50452e-06
2.26643e-06
2.26643e-06
2.26643e-06
3.89773e-06
3.89773e-06
3.89773e-06
3.86675e-06
3.86675e-06
3.86675e-06
3.88465e-06
3.88465e-06
3.88465e-06
3.93334e-06
3.93334e-06
3.93334e-06
3.93876e-06
3.93876e-06
3.93876e-06
3.92085e-06
3.92085e-06
3.92085e-06
3.88641e-06
3.88641e-06
3.88641e-06
3.84264e-06
3.84264e-06
3.84264e-06
3.87249e-06
3.87249e-06
3.87249e-06
4.03076e-06
4.03076e-06
4.03076e-06
3.97746e-06
3.97746e-06
3.97746e-06
3.96433e-06
3.96433e-06
3.96433e-06
3.94662e-06
3.94662e-06
3.94662e-06
4.11238e-06
4.11238e-06
4.11238e-06
4.26234e-06
4.26234e-06
4.26234e-06
3.9078e-06
3.9078e-06
3.9078e-06
3.98624e-06
3.98624e-06
3.98624e-06
4.01734e-06
4.01734e-06
4.01734e-06
3.94962e-06
3.94962e-06
3.94962e-06
3.99906e-06
3.99906e-06
3.99906e-06
3.89224e-06
3.89224e-06
3.89224e-06
3.92355e-06
3.92355e-06
3.92355e-06
3.77085e-06
3.77085e-06
3.77085e-06
2.71874e-06
2.71874e-06
2.71874e-06
2.54558e-06
2.54558e-06
2.54558e-06
4.42983e-06
4.42983e-06
4.42983e-06
2.26269e-06
2.26269e-06
2.26269e-06
2.25599e-06
2.25599e-06
2.25599e-06
2.27504e-06
2.27504e-06
2.27504e-06
4.09653e-06
4.09653e-06
4.09653e-06
4.16787e-06
4.16787e-06
4.16787e-06
4.14001e-06
4.14001e-06
4.14001e-06
4.00901e-06
4.00901e-06
4.00901e-06
4.0277e-06
4.0277e-06
4.0277e-06
4.06584e-06
4.06584e-06
4.06584e-06
3.91603e-06
3.91603e-06
3.91603e-06
3.7279e-06
3.7279e-06
3.7279e-06
3.89179e-06
3.89179e-06
3.89179e-06
3.94235e-06
3.94235e-06
3.94235e-06
3.87277e-06
3.87277e-06
3.87277e-06
3.90486e-06
3.90486e-06
3.90486e-06
4.12617e-06
4.12617e-06
4.12617e-06
4.10798e-06
4.10798e-06
4.10798e-06
4.094e-06
4.094e-06
4.094e-06
4.04345e-06
4.04345e-06
4.04345e-06
3.85313e-06
3.85313e-06
3.85313e-06
3.88965e-06
3.88965e-06
3.88965e-06
3.70254e-06
3.70254e-06
3.70254e-06
3.75257e-06
3.75257e-06
3.75257e-06
4.09865e-06
4.09865e-06
4.09865e-06
3.93479e-06
3.93479e-06
3.93479e-06
3.90318e-06
3.90318e-06
3.90318e-06
3.92164e-06
3.92164e-06
3.92164e-06
3.93147e-06
3.93147e-06
3.93147e-06
3.96309e-06
3.96309e-06
3.96309e-06
3.94513e-06
3.94513e-06
3.94513e-06
3.78302e-06
3.78302e-06
3.78302e-06
3.80138e-06
3.80138e-06
3.80138e-06
3.85078e-06
3.85078e-06
3.85078e-06
3.88198e-06
3.88198e-06
3.88198e-06
3.73357e-06
3.73357e-06
3.73357e-06
3.63514e-06
3.63514e-06
3.63514e-06
3.83092e-06
3.83092e-06
3.83092e-06
3.79972e-06
3.79972e-06
3.79972e-06
3.78892e-06
3.78892e-06
3.78892e-06
3.75803e-06
3.75803e-06
3.75803e-06
3.46419e-06
3.46419e-06
3.46419e-06
3.6471e-06
3.6471e-06
3.6471e-06
3.66599e-06
3.66599e-06
3.66599e-06
3.71552e-06
3.71552e-06
3.71552e-06
3.74655e-06
3.74655e-06
3.74655e-06
2.86488e-06
2.86488e-06
2.86488e-06
2.83562e-06
2.83562e-06
2.83562e-06
2.78705e-06
2.78705e-06
2.78705e-06
2.7674e-06
2.7674e-06
2.7674e-06
2.69929e-06
2.69929e-06
2.69929e-06
2.70467e-06
2.70467e-06
2.70467e-06
2.27669e-06
2.27669e-06
2.27669e-06
2.26053e-06
2.26053e-06
2.26053e-06
2.25678e-06
2.25678e-06
2.25678e-06
2.24927e-06
2.24927e-06
2.24927e-06
2.22888e-06
2.22888e-06
2.22888e-06
2.29224e-06
2.29224e-06
2.29224e-06
2.33555e-06
2.33555e-06
2.33555e-06
2.23045e-06
2.23045e-06
2.23045e-06
2.22688e-06
2.22688e-06
2.22688e-06
2.22102e-06
2.22102e-06
2.22102e-06
2.25955e-06
2.25955e-06
2.25955e-06
2.72755e-06
2.72755e-06
2.72755e-06
2.75794e-06
2.75794e-06
2.75794e-06
2.77819e-06
2.77819e-06
2.77819e-06
2.68987e-06
2.68987e-06
2.68987e-06
2.70944e-06
2.70944e-06
2.70944e-06
2.68133e-06
2.68133e-06
2.68133e-06
2.2231e-06
2.2231e-06
2.2231e-06
2.55389e-06
2.55389e-06
2.55389e-06
2.52506e-06
2.52506e-06
2.52506e-06
2.51669e-06
2.51669e-06
2.51669e-06
2.5373e-06
2.5373e-06
2.5373e-06
2.50819e-06
2.50819e-06
2.50819e-06
2.45868e-06
2.45868e-06
2.45868e-06
2.52857e-06
2.52857e-06
2.52857e-06
2.49142e-06
2.49142e-06
2.49142e-06
2.52033e-06
2.52033e-06
2.52033e-06
2.49972e-06
2.49972e-06
2.49972e-06
4.39547e-06
4.39547e-06
4.39547e-06
4.34152e-06
4.34152e-06
4.34152e-06
3.66876e-06
3.66876e-06
3.66876e-06
3.89076e-06
3.89076e-06
3.89076e-06
3.72653e-06
3.72653e-06
3.72653e-06
2.58447e-06
2.58447e-06
2.58447e-06
2.57109e-06
2.57109e-06
2.57109e-06
2.59122e-06
2.59122e-06
2.59122e-06
2.59882e-06
2.59882e-06
2.59882e-06
2.53786e-06
2.53786e-06
2.53786e-06
2.51382e-06
2.51382e-06
2.51382e-06
2.53338e-06
2.53338e-06
2.53338e-06
2.53849e-06
2.53849e-06
2.53849e-06
2.53083e-06
2.53083e-06
2.53083e-06
2.23884e-06
2.23884e-06
2.23884e-06
2.25874e-06
2.25874e-06
2.25874e-06
2.2521e-06
2.2521e-06
2.2521e-06
2.34867e-06
2.34867e-06
2.34867e-06
2.34177e-06
2.34177e-06
2.34177e-06
2.28895e-06
2.28895e-06
2.28895e-06
4.27705e-06
4.27705e-06
4.27705e-06
4.19596e-06
4.19596e-06
4.19596e-06
4.06877e-06
4.06877e-06
4.06877e-06
4.03606e-06
4.03606e-06
4.03606e-06
4.0825e-06
4.0825e-06
4.0825e-06
4.04967e-06
4.04967e-06
4.04967e-06
3.99774e-06
3.99774e-06
3.99774e-06
3.97823e-06
3.97823e-06
3.97823e-06
4.01148e-06
4.01148e-06
4.01148e-06
4.06358e-06
4.06358e-06
4.06358e-06
3.1248e-06
3.1248e-06
3.1248e-06
3.09296e-06
3.09296e-06
3.09296e-06
3.0729e-06
3.0729e-06
3.0729e-06
3.99167e-06
3.99167e-06
3.99167e-06
4.28169e-06
4.28169e-06
4.28169e-06
3.42565e-06
3.42565e-06
3.42565e-06
3.32468e-06
3.32468e-06
3.32468e-06
3.62714e-06
3.62714e-06
3.62714e-06
3.37824e-06
3.37824e-06
3.37824e-06
3.54251e-06
3.54251e-06
3.54251e-06
3.5225e-06
3.5225e-06
3.5225e-06
3.47144e-06
3.47144e-06
3.47144e-06
3.44014e-06
3.44014e-06
3.44014e-06
3.95761e-06
3.95761e-06
3.95761e-06
4.18189e-06
4.18189e-06
4.18189e-06
4.14926e-06
4.14926e-06
4.14926e-06
4.09803e-06
4.09803e-06
4.09803e-06
4.079e-06
4.079e-06
4.079e-06
4.11181e-06
4.11181e-06
4.11181e-06
4.16321e-06
4.16321e-06
4.16321e-06
3.1447e-06
3.1447e-06
3.1447e-06
3.17581e-06
3.17581e-06
3.17581e-06
3.4633e-06
3.4633e-06
3.4633e-06
3.48332e-06
3.48332e-06
3.48332e-06
3.45212e-06
3.45212e-06
3.45212e-06
3.40097e-06
3.40097e-06
3.40097e-06
3.18649e-06
3.18649e-06
3.18649e-06
3.16569e-06
3.16569e-06
3.16569e-06
3.10428e-06
3.10428e-06
3.10428e-06
3.15566e-06
3.15566e-06
3.15566e-06
3.41198e-06
3.41198e-06
3.41198e-06
3.38085e-06
3.38085e-06
3.38085e-06
3.9978e-06
3.9978e-06
3.9978e-06
3.94749e-06
3.94749e-06
3.94749e-06
3.92892e-06
3.92892e-06
3.92892e-06
4.02968e-06
4.02968e-06
4.02968e-06
4.01145e-06
4.01145e-06
4.01145e-06
3.96098e-06
3.96098e-06
3.96098e-06
3.77827e-06
3.77827e-06
3.77827e-06
3.87855e-06
3.87855e-06
3.87855e-06
3.86029e-06
3.86029e-06
3.86029e-06
3.80983e-06
3.80983e-06
3.80983e-06
3.65154e-06
3.65154e-06
3.65154e-06
3.73339e-06
3.73339e-06
3.73339e-06
3.6826e-06
3.6826e-06
3.6826e-06
4.05726e-06
4.05726e-06
4.05726e-06
3.98786e-06
3.98786e-06
3.98786e-06
4.03866e-06
4.03866e-06
4.03866e-06
3.95558e-06
3.95558e-06
3.95558e-06
3.97427e-06
3.97427e-06
3.97427e-06
4.0249e-06
4.0249e-06
4.0249e-06
3.83405e-06
3.83405e-06
3.83405e-06
3.78392e-06
3.78392e-06
3.78392e-06
3.76539e-06
3.76539e-06
3.76539e-06
3.86582e-06
3.86582e-06
3.86582e-06
3.79709e-06
3.79709e-06
3.79709e-06
3.84739e-06
3.84739e-06
3.84739e-06
3.7152e-06
3.7152e-06
3.7152e-06
3.69628e-06
3.69628e-06
3.69628e-06
3.646e-06
3.646e-06
3.646e-06
3.68369e-06
3.68369e-06
3.68369e-06
3.82146e-06
3.82146e-06
3.82146e-06
3.7715e-06
3.7715e-06
3.7715e-06
3.83977e-06
3.83977e-06
3.83977e-06
3.80845e-06
3.80845e-06
3.80845e-06
3.67183e-06
3.67183e-06
3.67183e-06
4.01696e-06
4.01696e-06
4.01696e-06
4.06719e-06
4.06719e-06
4.06719e-06
4.08497e-06
4.08497e-06
4.08497e-06
3.98492e-06
3.98492e-06
3.98492e-06
4.05776e-06
4.05776e-06
4.05776e-06
3.95762e-06
3.95762e-06
3.95762e-06
4.02611e-06
4.02611e-06
4.02611e-06
3.97636e-06
3.97636e-06
3.97636e-06
4.07133e-06
4.07133e-06
4.07133e-06
4.05261e-06
4.05261e-06
4.05261e-06
4.00256e-06
4.00256e-06
4.00256e-06
3.97163e-06
3.97163e-06
3.97163e-06
3.98994e-06
3.98994e-06
3.98994e-06
4.03984e-06
4.03984e-06
4.03984e-06
3.79618e-06
3.79618e-06
3.79618e-06
3.89548e-06
3.89548e-06
3.89548e-06
3.81437e-06
3.81437e-06
3.81437e-06
3.86393e-06
3.86393e-06
3.86393e-06
3.8274e-06
3.8274e-06
3.8274e-06
3.87713e-06
3.87713e-06
3.87713e-06
3.72155e-06
3.72155e-06
3.72155e-06
3.70265e-06
3.70265e-06
3.70265e-06
3.6533e-06
3.6533e-06
3.6533e-06
3.84321e-06
3.84321e-06
3.84321e-06
3.74574e-06
3.74574e-06
3.74574e-06
3.82556e-06
3.82556e-06
3.82556e-06
3.77651e-06
3.77651e-06
3.77651e-06
3.81283e-06
3.81283e-06
3.81283e-06
3.76394e-06
3.76394e-06
3.76394e-06
3.709e-06
3.709e-06
3.709e-06
3.73924e-06
3.73924e-06
3.73924e-06
3.63016e-06
3.63016e-06
3.63016e-06
3.66058e-06
3.66058e-06
3.66058e-06
3.64201e-06
3.64201e-06
3.64201e-06
3.73287e-06
3.73287e-06
3.73287e-06
3.6721e-06
3.6721e-06
3.6721e-06
3.75103e-06
3.75103e-06
3.75103e-06
3.72066e-06
3.72066e-06
3.72066e-06
3.83814e-06
3.83814e-06
3.83814e-06
3.93693e-06
3.93693e-06
3.93693e-06
3.90551e-06
3.90551e-06
3.90551e-06
3.85631e-06
3.85631e-06
3.85631e-06
3.91883e-06
3.91883e-06
3.91883e-06
3.86948e-06
3.86948e-06
3.86948e-06
3.12308e-06
3.12308e-06
3.12308e-06
3.10324e-06
3.10324e-06
3.10324e-06
3.27428e-06
3.27428e-06
3.27428e-06
3.17348e-06
3.17348e-06
3.17348e-06
3.48346e-06
3.48346e-06
3.48346e-06
2.87267e-06
2.87267e-06
2.87267e-06
2.82661e-06
2.82661e-06
2.82661e-06
2.85491e-06
2.85491e-06
2.85491e-06
2.6742e-06
2.6742e-06
2.6742e-06
2.75595e-06
2.75595e-06
2.75595e-06
3.07323e-06
3.07323e-06
3.07323e-06
3.09349e-06
3.09349e-06
3.09349e-06
2.28346e-06
2.28346e-06
2.28346e-06
2.27661e-06
2.27661e-06
2.27661e-06
2.27555e-06
2.27555e-06
2.27555e-06
2.32186e-06
2.32186e-06
2.32186e-06
2.32727e-06
2.32727e-06
2.32727e-06
2.32796e-06
2.32796e-06
2.32796e-06
2.2634e-06
2.2634e-06
2.2634e-06
2.2482e-06
2.2482e-06
2.2482e-06
2.25416e-06
2.25416e-06
2.25416e-06
2.25356e-06
2.25356e-06
2.25356e-06
2.25085e-06
2.25085e-06
2.25085e-06
2.25136e-06
2.25136e-06
2.25136e-06
2.23892e-06
2.23892e-06
2.23892e-06
2.24546e-06
2.24546e-06
2.24546e-06
2.26145e-06
2.26145e-06
2.26145e-06
2.25554e-06
2.25554e-06
2.25554e-06
2.27336e-06
2.27336e-06
2.27336e-06
2.27935e-06
2.27935e-06
2.27935e-06
2.28618e-06
2.28618e-06
2.28618e-06
2.27065e-06
2.27065e-06
2.27065e-06
2.24053e-06
2.24053e-06
2.24053e-06
2.24641e-06
2.24641e-06
2.24641e-06
2.29911e-06
2.29911e-06
2.29911e-06
2.2999e-06
2.2999e-06
2.2999e-06
2.30149e-06
2.30149e-06
2.30149e-06
2.33635e-06
2.33635e-06
2.33635e-06
2.21352e-06
2.21352e-06
2.21352e-06
2.196e-06
2.196e-06
2.196e-06
2.26197e-06
2.26197e-06
2.26197e-06
2.26106e-06
2.26106e-06
2.26106e-06
2.58147e-06
2.58147e-06
2.58147e-06
2.63285e-06
2.63285e-06
2.63285e-06
2.50003e-06
2.50003e-06
2.50003e-06
2.47042e-06
2.47042e-06
2.47042e-06
2.6126e-06
2.6126e-06
2.6126e-06
2.32087e-06
2.32087e-06
2.32087e-06
2.43811e-06
2.43811e-06
2.43811e-06
2.46701e-06
2.46701e-06
2.46701e-06
2.44225e-06
2.44225e-06
2.44225e-06
2.34412e-06
2.34412e-06
2.34412e-06
4.38184e-06
4.38184e-06
4.38184e-06
4.32258e-06
4.32258e-06
4.32258e-06
4.07105e-06
4.07105e-06
4.07105e-06
4.10421e-06
4.10421e-06
4.10421e-06
4.05452e-06
4.05452e-06
4.05452e-06
2.56498e-06
2.56498e-06
2.56498e-06
2.56431e-06
2.56431e-06
2.56431e-06
2.55422e-06
2.55422e-06
2.55422e-06
2.55813e-06
2.55813e-06
2.55813e-06
2.55084e-06
2.55084e-06
2.55084e-06
2.54464e-06
2.54464e-06
2.54464e-06
2.54404e-06
2.54404e-06
2.54404e-06
2.53594e-06
2.53594e-06
2.53594e-06
2.56977e-06
2.56977e-06
2.56977e-06
2.57555e-06
2.57555e-06
2.57555e-06
2.5765e-06
2.5765e-06
2.5765e-06
2.58537e-06
2.58537e-06
2.58537e-06
2.57872e-06
2.57872e-06
2.57872e-06
2.59498e-06
2.59498e-06
2.59498e-06
2.57466e-06
2.57466e-06
2.57466e-06
2.48758e-06
2.48758e-06
2.48758e-06
2.41551e-06
2.41551e-06
2.41551e-06
2.47247e-06
2.47247e-06
2.47247e-06
2.48552e-06
2.48552e-06
2.48552e-06
2.49386e-06
2.49386e-06
2.49386e-06
2.48632e-06
2.48632e-06
2.48632e-06
2.48041e-06
2.48041e-06
2.48041e-06
2.47961e-06
2.47961e-06
2.47961e-06
2.52754e-06
2.52754e-06
2.52754e-06
2.48233e-06
2.48233e-06
2.48233e-06
2.4451e-06
2.4451e-06
2.4451e-06
2.42931e-06
2.42931e-06
2.42931e-06
2.42199e-06
2.42199e-06
2.42199e-06
2.50466e-06
2.50466e-06
2.50466e-06
2.49799e-06
2.49799e-06
2.49799e-06
2.5181e-06
2.5181e-06
2.5181e-06
2.52487e-06
2.52487e-06
2.52487e-06
2.52402e-06
2.52402e-06
2.52402e-06
2.46787e-06
2.46787e-06
2.46787e-06
2.54454e-06
2.54454e-06
2.54454e-06
2.55306e-06
2.55306e-06
2.55306e-06
2.54535e-06
2.54535e-06
2.54535e-06
2.34266e-06
2.34266e-06
2.34266e-06
2.3357e-06
2.3357e-06
2.3357e-06
2.35679e-06
2.35679e-06
2.35679e-06
2.32171e-06
2.32171e-06
2.32171e-06
2.3226e-06
2.3226e-06
2.3226e-06
2.32965e-06
2.32965e-06
2.32965e-06
2.44739e-06
2.44739e-06
2.44739e-06
2.40406e-06
2.40406e-06
2.40406e-06
2.38519e-06
2.38519e-06
2.38519e-06
2.38589e-06
2.38589e-06
2.38589e-06
2.23333e-06
2.23333e-06
2.23333e-06
2.23925e-06
2.23925e-06
2.23925e-06
2.24612e-06
2.24612e-06
2.24612e-06
2.24692e-06
2.24692e-06
2.24692e-06
2.24479e-06
2.24479e-06
2.24479e-06
2.25104e-06
2.25104e-06
2.25104e-06
2.24872e-06
2.24872e-06
2.24872e-06
2.25664e-06
2.25664e-06
2.25664e-06
2.25705e-06
2.25705e-06
2.25705e-06
2.42809e-06
2.42809e-06
2.42809e-06
2.42003e-06
2.42003e-06
2.42003e-06
2.42077e-06
2.42077e-06
2.42077e-06
2.34098e-06
2.34098e-06
2.34098e-06
2.33914e-06
2.33914e-06
2.33914e-06
2.34618e-06
2.34618e-06
2.34618e-06
2.34724e-06
2.34724e-06
2.34724e-06
2.35971e-06
2.35971e-06
2.35971e-06
2.35185e-06
2.35185e-06
2.35185e-06
2.35247e-06
2.35247e-06
2.35247e-06
2.35818e-06
2.35818e-06
2.35818e-06
2.28973e-06
2.28973e-06
2.28973e-06
2.29144e-06
2.29144e-06
2.29144e-06
2.32295e-06
2.32295e-06
2.32295e-06
2.32344e-06
2.32344e-06
2.32344e-06
2.29505e-06
2.29505e-06
2.29505e-06
2.28121e-06
2.28121e-06
2.28121e-06
2.28509e-06
2.28509e-06
2.28509e-06
2.29359e-06
2.29359e-06
2.29359e-06
2.26476e-06
2.26476e-06
2.26476e-06
2.26412e-06
2.26412e-06
2.26412e-06
2.26916e-06
2.26916e-06
2.26916e-06
2.27526e-06
2.27526e-06
2.27526e-06
2.27018e-06
2.27018e-06
2.27018e-06
2.27717e-06
2.27717e-06
2.27717e-06
4.01667e-06
4.01667e-06
4.01667e-06
3.9957e-06
3.9957e-06
3.9957e-06
3.94119e-06
3.94119e-06
3.94119e-06
3.90769e-06
3.90769e-06
3.90769e-06
3.77757e-06
3.77757e-06
3.77757e-06
3.83201e-06
3.83201e-06
3.83201e-06
3.85333e-06
3.85333e-06
3.85333e-06
3.17859e-06
3.17859e-06
3.17859e-06
4.30651e-06
4.30651e-06
4.30651e-06
4.25261e-06
4.25261e-06
4.25261e-06
4.09057e-06
4.09057e-06
4.09057e-06
4.14464e-06
4.14464e-06
4.14464e-06
4.05486e-06
4.05486e-06
4.05486e-06
4.02251e-06
4.02251e-06
4.02251e-06
4.04175e-06
4.04175e-06
4.04175e-06
4.09323e-06
4.09323e-06
4.09323e-06
4.22429e-06
4.22429e-06
4.22429e-06
4.12061e-06
4.12061e-06
4.12061e-06
3.98431e-06
3.98431e-06
3.98431e-06
3.88106e-06
3.88106e-06
3.88106e-06
3.91351e-06
3.91351e-06
3.91351e-06
3.96535e-06
3.96535e-06
3.96535e-06
2.81411e-06
2.81411e-06
2.81411e-06
2.87598e-06
2.87598e-06
2.87598e-06
2.92485e-06
2.92485e-06
2.92485e-06
2.84067e-06
2.84067e-06
2.84067e-06
2.78781e-06
2.78781e-06
2.78781e-06
2.76607e-06
2.76607e-06
2.76607e-06
2.87196e-06
2.87196e-06
2.87196e-06
2.7973e-06
2.7973e-06
2.7973e-06
2.85034e-06
2.85034e-06
2.85034e-06
2.8624e-06
2.8624e-06
2.8624e-06
2.75669e-06
2.75669e-06
2.75669e-06
2.69471e-06
2.69471e-06
2.69471e-06
2.42726e-06
2.42726e-06
2.42726e-06
2.71308e-06
2.71308e-06
2.71308e-06
2.48122e-06
2.48122e-06
2.48122e-06
3.30409e-06
3.30409e-06
3.30409e-06
2.90651e-06
2.90651e-06
2.90651e-06
2.88533e-06
2.88533e-06
2.88533e-06
3.01029e-06
3.01029e-06
3.01029e-06
3.09384e-06
3.09384e-06
3.09384e-06
3.06277e-06
3.06277e-06
3.06277e-06
3.11457e-06
3.11457e-06
3.11457e-06
3.61435e-06
3.61435e-06
3.61435e-06
3.4401e-06
3.4401e-06
3.4401e-06
3.41912e-06
3.41912e-06
3.41912e-06
3.36478e-06
3.36478e-06
3.36478e-06
3.34236e-06
3.34236e-06
3.34236e-06
2.95631e-06
2.95631e-06
2.95631e-06
3.12551e-06
3.12551e-06
3.12551e-06
3.0195e-06
3.0195e-06
3.0195e-06
4.07705e-06
4.07705e-06
4.07705e-06
4.02479e-06
4.02479e-06
4.02479e-06
3.29272e-06
3.29272e-06
3.29272e-06
3.39754e-06
3.39754e-06
3.39754e-06
3.3773e-06
3.3773e-06
3.3773e-06
3.3249e-06
3.3249e-06
3.3249e-06
3.51043e-06
3.51043e-06
3.51043e-06
3.33165e-06
3.33165e-06
3.33165e-06
3.49526e-06
3.49526e-06
3.49526e-06
4.24874e-06
4.24874e-06
4.24874e-06
4.26725e-06
4.26725e-06
4.26725e-06
4.25286e-06
4.25286e-06
4.25286e-06
4.14873e-06
4.14873e-06
4.14873e-06
4.1811e-06
4.1811e-06
4.1811e-06
4.23338e-06
4.23338e-06
4.23338e-06
4.23854e-06
4.23854e-06
4.23854e-06
4.20544e-06
4.20544e-06
4.20544e-06
4.15352e-06
4.15352e-06
4.15352e-06
4.13451e-06
4.13451e-06
4.13451e-06
4.16779e-06
4.16779e-06
4.16779e-06
4.2199e-06
4.2199e-06
4.2199e-06
4.12126e-06
4.12126e-06
4.12126e-06
4.07038e-06
4.07038e-06
4.07038e-06
4.05172e-06
4.05172e-06
4.05172e-06
4.15392e-06
4.15392e-06
4.15392e-06
4.0843e-06
4.0843e-06
4.0843e-06
4.13536e-06
4.13536e-06
4.13536e-06
3.43671e-06
3.43671e-06
3.43671e-06
3.35548e-06
3.35548e-06
3.35548e-06
3.40594e-06
3.40594e-06
3.40594e-06
3.41716e-06
3.41716e-06
3.41716e-06
3.57677e-06
3.57677e-06
3.57677e-06
3.47603e-06
3.47603e-06
3.47603e-06
3.49536e-06
3.49536e-06
3.49536e-06
3.54564e-06
3.54564e-06
3.54564e-06
3.48726e-06
3.48726e-06
3.48726e-06
3.50686e-06
3.50686e-06
3.50686e-06
3.55732e-06
3.55732e-06
3.55732e-06
3.58833e-06
3.58833e-06
3.58833e-06
3.69543e-06
3.69543e-06
3.69543e-06
3.59349e-06
3.59349e-06
3.59349e-06
3.66356e-06
3.66356e-06
3.66356e-06
3.61269e-06
3.61269e-06
3.61269e-06
3.76556e-06
3.76556e-06
3.76556e-06
3.7464e-06
3.7464e-06
3.7464e-06
3.53456e-06
3.53456e-06
3.53456e-06
3.55421e-06
3.55421e-06
3.55421e-06
3.42905e-06
3.42905e-06
3.42905e-06
3.44846e-06
3.44846e-06
3.44846e-06
3.51114e-06
3.51114e-06
3.51114e-06
3.46025e-06
3.46025e-06
3.46025e-06
3.82932e-06
3.82932e-06
3.82932e-06
3.79705e-06
3.79705e-06
3.79705e-06
3.72008e-06
3.72008e-06
3.72008e-06
3.93853e-06
3.93853e-06
3.93853e-06
3.97094e-06
3.97094e-06
3.97094e-06
3.90013e-06
3.90013e-06
3.90013e-06
3.95179e-06
3.95179e-06
3.95179e-06
3.33583e-06
3.33583e-06
3.33583e-06
3.36653e-06
3.36653e-06
3.36653e-06
3.34722e-06
3.34722e-06
3.34722e-06
3.29649e-06
3.29649e-06
3.29649e-06
3.26524e-06
3.26524e-06
3.26524e-06
3.28526e-06
3.28526e-06
3.28526e-06
3.25432e-06
3.25432e-06
3.25432e-06
3.20384e-06
3.20384e-06
3.20384e-06
3.35804e-06
3.35804e-06
3.35804e-06
3.38917e-06
3.38917e-06
3.38917e-06
3.36973e-06
3.36973e-06
3.36973e-06
3.31866e-06
3.31866e-06
3.31866e-06
3.16517e-06
3.16517e-06
3.16517e-06
3.21628e-06
3.21628e-06
3.21628e-06
3.39201e-06
3.39201e-06
3.39201e-06
3.35226e-06
3.35226e-06
3.35226e-06
3.22709e-06
3.22709e-06
3.22709e-06
3.32961e-06
3.32961e-06
3.32961e-06
3.24727e-06
3.24727e-06
3.24727e-06
3.29844e-06
3.29844e-06
3.29844e-06
3.29142e-06
3.29142e-06
3.29142e-06
2.89674e-06
2.89674e-06
2.89674e-06
2.86596e-06
2.86596e-06
2.86596e-06
3.11414e-06
3.11414e-06
3.11414e-06
3.08357e-06
3.08357e-06
3.08357e-06
3.67074e-06
3.67074e-06
3.67074e-06
3.63887e-06
3.63887e-06
3.63887e-06
3.70869e-06
3.70869e-06
3.70869e-06
3.65822e-06
3.65822e-06
3.65822e-06
3.8032e-06
3.8032e-06
3.8032e-06
3.75249e-06
3.75249e-06
3.75249e-06
3.82214e-06
3.82214e-06
3.82214e-06
3.72136e-06
3.72136e-06
3.72136e-06
3.79071e-06
3.79071e-06
3.79071e-06
3.74018e-06
3.74018e-06
3.74018e-06
3.60955e-06
3.60955e-06
3.60955e-06
3.74072e-06
3.74072e-06
3.74072e-06
3.69085e-06
3.69085e-06
3.69085e-06
3.75867e-06
3.75867e-06
3.75867e-06
3.65932e-06
3.65932e-06
3.65932e-06