<VTKFile type="UnstructuredGrid" version="1.0">
<UnstructuredGrid>
<Piece NumberOfPoints="8859" NumberOfCells="2953">
<Points>
<DataArray type="Float64" NumberOfComponents="3" format="ascii">
0.5 3.01 1.995
0.512524 3.01 2.0175
0.487476 3.01 2.0175
0.17352 3.01 1.1175
0.160827 3.01 1.13922
0.148445 3.01 1.1175
0.122979 3.01 1.16089
0.110383 3.01 1.13921
0.135644 3.01 1.13922
0.135644 3.01 1.13922
0.110383 3.01 1.13921
0.123433 3.01 1.1175
0.123433 3.01 1.1175
0.148445 3.01 1.1175
0.135644 3.01 1.13922
0.135644 3.01 1.13922
0.148445 3.01 1.1175
0.160827 3.01 1.13922
0.17352 3.01 1.1175
0.198629 3.01 1.1175
0.185985 3.01 1.1392
0.185985 3.01 1.1392
0.160827 3.01 1.13922
0.17352 3.01 1.1175
0.0732297 3.01 1.16067
0.0586606 3.01 1.13881
0.0848754 3.01 1.13914
0.05 3.01 1.95027
0.05 3.01 1.9051
0.058509 3.01 1.92756
0.324276 3.01 1.1175
0.349395 3.01 1.1175
0.336827 3.01 1.13916
0.148138 3.01 1.1609
0.135644 3.01 1.13922
0.160827 3.01 1.13922
0.122979 3.01 1.16089
0.135644 3.01 1.13922
0.148138 3.01 1.1609
0.160827 3.01 1.13922
0.185985 3.01 1.1392
0.173316 3.01 1.16089
0.185806 3.01 1.18255
0.160572 3.01 1.18255
0.173316 3.01 1.16089
0.173316 3.01 1.16089
0.148138 3.01 1.1609
0.160827 3.01 1.13922
0.160572 3.01 1.18255
0.148138 3.01 1.1609
0.173316 3.01 1.16089
0.211137 3.01 1.13919
0.185985 3.01 1.1392
0.198629 3.01 1.1175
0.0979162 3.01 1.16084
0.110383 3.01 1.13921
0.122979 3.01 1.16089
0.122979 3.01 1.16089
0.109875 3.01 1.18249
0.0979162 3.01 1.16084
0.0732297 3.01 1.16067
0.0848754 3.01 1.13914
0.0979162 3.01 1.16084
0.0979162 3.01 1.16084
0.0848754 3.01 1.13914
0.110383 3.01 1.13921
0.0975729 3.01 1.20404
0.109875 3.01 1.18249
0.122678 3.01 1.20414
0.0841718 3.01 1.18235
0.0577122 3.01 1.18202
0.0732297 3.01 1.16067
0.0729308 3.01 1.20388
0.0577122 3.01 1.18202
0.0841718 3.01 1.18235
0.0732297 3.01 1.16067
0.0979162 3.01 1.16084
0.0841718 3.01 1.18235
0.0841718 3.01 1.18235
0.0979162 3.01 1.16084
0.109875 3.01 1.18249
0.0975729 3.01 1.20404
0.0729308 3.01 1.20388
0.0841718 3.01 1.18235
0.0841718 3.01 1.18235
0.109875 3.01 1.18249
0.0975729 3.01 1.20404
0.073948 3.01 1.1175
0.0586606 3.01 1.13881
0.05 3.01 1.1175
0.073948 3.01 1.1175
0.0848754 3.01 1.13914
0.0586606 3.01 1.13881
0.05 3.01 1.99329
0.05 3.01 1.95027
0.0603641 3.01 1.97197
0.0603641 3.01 1.97197
0.0753197 3.01 1.99399
0.05 3.01 1.99329
0.0709395 3.01 2.0175
0.05 3.01 2.0175
0.05 3.01 1.99329
0.05 3.01 1.99329
0.0753197 3.01 1.99399
0.0709395 3.01 2.0175
0.0579641 3.01 1.70463
0.05 3.01 1.72669
0.05 3.01 1.68261
0.0841948 3.01 1.6168
0.097638 3.01 1.59493
0.109814 3.01 1.6168
0.0841948 3.01 1.6168
0.0730539 3.01 1.6387
0.0578646 3.01 1.6168
0.0580261 3.01 1.7488
0.05 3.01 1.77095
0.05 3.01 1.72669
0.942292 3.01 1.31236
0.95 3.01 1.29067
0.95 3.01 1.33404
0.95 3.01 1.24726
0.95 3.01 1.29067
0.942332 3.01 1.26897
0.73872 3.01 1.52953
0.726137 3.01 1.50776
0.75132 3.01 1.50775
0.751305 3.01 1.55132
0.726124 3.01 1.55133
0.73872 3.01 1.52953
0.713546 3.01 1.52954
0.726137 3.01 1.50776
0.73872 3.01 1.52953
0.73872 3.01 1.52953
0.726124 3.01 1.55133
0.713546 3.01 1.52954
0.814318 3.01 1.57311
0.789096 3.01 1.57312
0.801709 3.01 1.5513
0.7765 3.01 1.55131
0.789115 3.01 1.52951
0.801709 3.01 1.5513
0.801709 3.01 1.5513
0.789096 3.01 1.57312
0.7765 3.01 1.55131
0.7765 3.01 1.55131
0.789096 3.01 1.57312
0.763892 3.01 1.57314
0.763892 3.01 1.57314
0.751305 3.01 1.55132
0.7765 3.01 1.55131
0.95 3.01 2.0175
0.929061 3.01 2.0175
0.95 3.01 1.99329
0.95 3.01 1.8154
0.926844 3.01 1.8154
0.941913 3.01 1.79315
0.941913 3.01 1.79315
0.95 3.01 1.77095
0.95 3.01 1.8154
0.926866 3.01 1.77094
0.95 3.01 1.77095
0.941913 3.01 1.79315
0.941974 3.01 1.7488
0.95 3.01 1.77095
0.926866 3.01 1.77094
0.95 3.01 1.72669
0.95 3.01 1.77095
0.941974 3.01 1.7488
0.941974 3.01 1.7488
0.926895 3.01 1.72669
0.95 3.01 1.72669
0.6127 3.01 2.0175
0.625238 3.01 1.99498
0.637734 3.01 2.0175
0.662757 3.01 2.0175
0.637734 3.01 2.0175
0.650275 3.01 1.99497
0.650275 3.01 1.99497
0.637734 3.01 2.0175
0.625238 3.01 1.99498
0.600415 3.01 1.55137
0.587856 3.01 1.5732
0.575304 3.01 1.55137
0.575304 3.01 1.55137
0.587856 3.01 1.5732
0.562749 3.01 1.5732
0.336827 3.01 1.13916
0.349395 3.01 1.1175
0.361946 3.01 1.13916
0.223755 3.01 1.1175
0.211137 3.01 1.13919
0.198629 3.01 1.1175
0.185985 3.01 1.1392
0.211137 3.01 1.13919
0.198492 3.01 1.16088
0.185806 3.01 1.18255
0.173316 3.01 1.16089
0.198492 3.01 1.16088
0.198492 3.01 1.16088
0.173316 3.01 1.16089
0.185985 3.01 1.1392
0.0576202 3.01 1.22553
0.05 3.01 1.24726
0.05 3.01 1.20374
0.05 3.01 1.20374
0.0729308 3.01 1.20388
0.0576202 3.01 1.22553
0.05 3.01 1.20374
0.0577122 3.01 1.18202
0.0729308 3.01 1.20388
0.135283 3.01 1.18254
0.109875 3.01 1.18249
0.122979 3.01 1.16089
0.135283 3.01 1.18254
0.122678 3.01 1.20414
0.109875 3.01 1.18249
0.122979 3.01 1.16089
0.148138 3.01 1.1609
0.135283 3.01 1.18254
0.135283 3.01 1.18254
0.148138 3.01 1.1609
0.160572 3.01 1.18255
0.123433 3.01 1.1175
0.110383 3.01 1.13921
0.0985513 3.01 1.1175
0.110383 3.01 1.13921
0.0848754 3.01 1.13914
0.0985513 3.01 1.1175
0.0848754 3.01 1.13914
0.073948 3.01 1.1175
0.0985513 3.01 1.1175
0.0603641 3.01 1.97197
0.05 3.01 1.95027
0.0739464 3.01 1.94949
0.0739464 3.01 1.94949
0.05 3.01 1.95027
0.058509 3.01 1.92756
0.058509 3.01 1.92756
0.0849548 3.01 1.92711
0.0739464 3.01 1.94949
0.058509 3.01 1.92756
0.05 3.01 1.9051
0.0732725 3.01 1.90488
0.0732725 3.01 1.90488
0.0849548 3.01 1.92711
0.058509 3.01 1.92756
0.5 3.01 1.995
0.487476 3.01 2.0175
0.47495 3.01 1.995
0.097663 3.01 1.6387
0.0841948 3.01 1.6168
0.109814 3.01 1.6168
0.0730539 3.01 1.6387
0.0841948 3.01 1.6168
0.097663 3.01 1.6387
0.0578646 3.01 1.6168
0.0730539 3.01 1.6387
0.05 3.01 1.6387
0.05 3.01 1.6387
0.05 3.01 1.59492
0.0578646 3.01 1.6168
0.05 3.01 1.8154
0.05 3.01 1.77095
0.0580869 3.01 1.79315
0.05 3.01 1.77095
0.0580261 3.01 1.7488
0.073134 3.01 1.77094
0.073134 3.01 1.77094
0.0580869 3.01 1.79315
0.05 3.01 1.77095
0.942268 3.01 1.35573
0.95 3.01 1.33404
0.95 3.01 1.37741
0.942292 3.01 1.31236
0.95 3.01 1.33404
0.927025 3.01 1.33404
0.927025 3.01 1.33404
0.942268 3.01 1.35573
0.915919 3.01 1.35572
0.95 3.01 1.33404
0.942268 3.01 1.35573
0.927025 3.01 1.33404
0.927013 3.01 1.37741
0.942268 3.01 1.35573
0.95 3.01 1.37741
0.915919 3.01 1.35572
0.942268 3.01 1.35573
0.927013 3.01 1.37741
0.801738 3.01 1.46425
0.814364 3.01 1.44253
0.826957 3.01 1.46425
0.852174 3.01 1.46424
0.826957 3.01 1.46425
0.839609 3.01 1.44252
0.839609 3.01 1.44252
0.826957 3.01 1.46425
0.814364 3.01 1.44253
0.776516 3.01 1.50775
0.75132 3.01 1.50775
0.763923 3.01 1.486
0.776516 3.01 1.50775
0.801725 3.01 1.50774
0.789115 3.01 1.52951
0.738704 3.01 1.57315
0.751305 3.01 1.55132
0.763892 3.01 1.57314
0.726124 3.01 1.55133
0.751305 3.01 1.55132
0.738704 3.01 1.57315
0.915617 3.01 1.79314
0.902228 3.01 1.77094
0.926866 3.01 1.77094
0.926866 3.01 1.77094
0.941913 3.01 1.79315
0.915617 3.01 1.79314
0.915617 3.01 1.79314
0.941913 3.01 1.79315
0.926844 3.01 1.8154
0.915617 3.01 1.79314
0.926844 3.01 1.8154
0.902193 3.01 1.81538
0.926866 3.01 1.77094
0.902228 3.01 1.77094
0.915668 3.01 1.74879
0.902267 3.01 1.72668
0.926895 3.01 1.72669
0.915668 3.01 1.74879
0.915668 3.01 1.74879
0.941974 3.01 1.7488
0.926866 3.01 1.77094
0.926895 3.01 1.72669
0.941974 3.01 1.7488
0.915668 3.01 1.74879
0.902267 3.01 1.72668
0.915668 3.01 1.74879
0.890059 3.01 1.74879
0.890059 3.01 1.74879
0.915668 3.01 1.74879
0.902228 3.01 1.77094
0.826927 3.01 1.55129
0.814318 3.01 1.57311
0.801709 3.01 1.5513
0.864816 3.01 1.6168
0.877308 3.01 1.59493
0.890186 3.01 1.6168
0.877308 3.01 1.59493
0.864816 3.01 1.6168
0.852122 3.01 1.59494
0.890186 3.01 1.6168
0.877308 3.01 1.59493
0.902362 3.01 1.59493
0.902362 3.01 1.59493
0.915805 3.01 1.6168
0.890186 3.01 1.6168
0.902362 3.01 1.59493
0.926964 3.01 1.59492
0.915805 3.01 1.6168
0.915835 3.01 1.57309
0.926964 3.01 1.59492
0.902362 3.01 1.59493
0.942171 3.01 1.57309
0.926964 3.01 1.59492
0.915835 3.01 1.57309
0.915835 3.01 1.57309
0.926978 3.01 1.55127
0.942171 3.01 1.57309
0.942171 3.01 1.57309
0.926978 3.01 1.55127
0.95 3.01 1.55127
0.87737 3.01 1.42081
0.890277 3.01 1.39911
0.902417 3.01 1.4208
0.852144 3.01 1.55128
0.877329 3.01 1.55128
0.864842 3.01 1.57309
0.877308 3.01 1.59493
0.852122 3.01 1.59494
0.864842 3.01 1.57309
0.902396 3.01 1.50772
0.915858 3.01 1.52948
0.890234 3.01 1.52949
0.926997 3.01 1.46423
0.942237 3.01 1.44251
0.95 3.01 1.46423
0.91589 3.01 1.44251
0.942237 3.01 1.44251
0.926997 3.01 1.46423
0.942199 3.01 1.52948
0.95 3.01 1.50771
0.95 3.01 1.55127
0.95 3.01 1.55127
0.926978 3.01 1.55127
0.942199 3.01 1.52948
0.942199 3.01 1.52948
0.926978 3.01 1.55127
0.915858 3.01 1.52948
0.95 3.01 1.46423
0.95 3.01 1.50771
0.942221 3.01 1.48597
0.942221 3.01 1.48597
0.926997 3.01 1.46423
0.95 3.01 1.46423
0.915876 3.01 1.48597
0.926997 3.01 1.46423
0.942221 3.01 1.48597
0.926989 3.01 1.50771
0.915858 3.01 1.52948
0.902396 3.01 1.50772
0.902396 3.01 1.50772
0.915876 3.01 1.48597
0.926989 3.01 1.50771
0.926989 3.01 1.50771
0.942199 3.01 1.52948
0.915858 3.01 1.52948
0.95 3.01 1.50771
0.942199 3.01 1.52948
0.926989 3.01 1.50771
0.915876 3.01 1.48597
0.942221 3.01 1.48597
0.926989 3.01 1.50771
0.926989 3.01 1.50771
0.942221 3.01 1.48597
0.95 3.01 1.50771
0.91353 3.01 1.97185
0.926054 3.01 1.94949
0.939636 3.01 1.97197
0.926728 3.01 1.90488
0.95 3.01 1.9051
0.941491 3.01 1.92756
0.926728 3.01 1.90488
0.941822 3.01 1.88254
0.95 3.01 1.9051
0.95 3.01 1.95027
0.95 3.01 1.99329
0.939636 3.01 1.97197
0.95 3.01 1.95027
0.926054 3.01 1.94949
0.941491 3.01 1.92756
0.939636 3.01 1.97197
0.926054 3.01 1.94949
0.95 3.01 1.95027
0.941491 3.01 1.92756
0.95 3.01 1.9051
0.95 3.01 1.95027
0.941869 3.01 1.83772
0.926844 3.01 1.8154
0.95 3.01 1.8154
0.762942 3.01 1.97228
0.75028 3.01 1.99489
0.737933 3.01 1.97234
0.71291 3.01 1.97239
0.725533 3.01 1.94985
0.737933 3.01 1.97234
0.71291 3.01 1.97239
0.737933 3.01 1.97234
0.725313 3.01 1.99492
0.725313 3.01 1.99492
0.737933 3.01 1.97234
0.75028 3.01 1.99489
0.737693 3.01 2.0175
0.712746 3.01 2.0175
[...]
<PointData Scalars="View Factor" >
<DataArray type="Float64" Name="View Factor" NumberOfComponents="1" format="ascii">
5.80175e-05
5.80175e-05
5.80175e-05
4.67393e-05
4.67393e-05
4.67393e-05
4.69867e-05
4.69867e-05
4.69867e-05
4.6824e-05
4.6824e-05
4.6824e-05
4.67418e-05
4.67418e-05
4.67418e-05
4.68218e-05
4.68218e-05
4.68218e-05
4.67364e-05
4.67364e-05
4.67364e-05
4.6819e-05
4.6819e-05
4.6819e-05
4.69874e-05
4.69874e-05
4.69874e-05
5.69346e-05
5.69346e-05
5.69346e-05
4.67102e-05
4.67102e-05
4.67102e-05
4.69845e-05
4.69845e-05
4.69845e-05
4.70672e-05
4.70672e-05
4.70672e-05
4.69817e-05
4.69817e-05
4.69817e-05
4.73088e-05
4.73088e-05
4.73088e-05
4.70647e-05
4.70647e-05
4.70647e-05
4.72283e-05
4.72283e-05
4.72283e-05
4.68158e-05
4.68158e-05
4.68158e-05
4.7069e-05
4.7069e-05
4.7069e-05
4.72324e-05
4.72324e-05
4.72324e-05
4.70696e-05
4.70696e-05
4.70696e-05
4.69881e-05
4.69881e-05
4.69881e-05
4.75608e-05
4.75608e-05
4.75608e-05
4.73135e-05
4.73135e-05
4.73135e-05
4.74777e-05
4.74777e-05
4.74777e-05
4.72326e-05
4.72326e-05
4.72326e-05
4.73145e-05
4.73145e-05
4.73145e-05
4.75609e-05
4.75609e-05
4.75609e-05
4.74786e-05
4.74786e-05
4.74786e-05
4.67451e-05
4.67451e-05
4.67451e-05
4.68255e-05
4.68255e-05
4.68255e-05
5.75724e-05
5.75724e-05
5.75724e-05
5.77842e-05
5.77842e-05
5.77842e-05
5.81215e-05
5.81215e-05
5.81215e-05
5.8006e-05
5.8006e-05
5.8006e-05
5.38481e-05
5.38481e-05
5.38481e-05
5.25924e-05
5.25924e-05
5.25924e-05
5.27839e-05
5.27839e-05
5.27839e-05
5.44425e-05
5.44425e-05
5.44425e-05
4.85946e-05
4.85946e-05
4.85946e-05
4.80886e-05
4.80886e-05
4.80886e-05
5.11808e-05
5.11808e-05
5.11808e-05
5.15464e-05
5.15464e-05
5.15464e-05
5.12789e-05
5.12789e-05
5.12789e-05
5.14617e-05
5.14617e-05
5.14617e-05
5.17855e-05
5.17855e-05
5.17855e-05
5.15168e-05
5.15168e-05
5.15168e-05
5.17009e-05
5.17009e-05
5.17009e-05
5.18009e-05
5.18009e-05
5.18009e-05
5.1716e-05
5.1716e-05
5.1716e-05
5.77194e-05
5.77194e-05
5.77194e-05
5.48813e-05
5.48813e-05
5.48813e-05
5.46732e-05
5.46732e-05
5.46732e-05
5.44781e-05
5.44781e-05
5.44781e-05
5.42784e-05
5.42784e-05
5.42784e-05
5.40741e-05
5.40741e-05
5.40741e-05
5.38826e-05
5.38826e-05
5.38826e-05
5.79534e-05
5.79534e-05
5.79534e-05
5.79388e-05
5.79388e-05
5.79388e-05
5.78364e-05
5.78364e-05
5.78364e-05
5.18081e-05
5.18081e-05
5.18081e-05
5.19064e-05
5.19064e-05
5.19064e-05
4.67883e-05
4.67883e-05
4.67883e-05
4.6733e-05
4.6733e-05
4.6733e-05
4.69785e-05
4.69785e-05
4.69785e-05
4.72252e-05
4.72252e-05
4.72252e-05
4.70617e-05
4.70617e-05
4.70617e-05
4.78929e-05
4.78929e-05
4.78929e-05
4.7726e-05
4.7726e-05
4.7726e-05
4.75597e-05
4.75597e-05
4.75597e-05
4.73135e-05
4.73135e-05
4.73135e-05
4.74778e-05
4.74778e-05
4.74778e-05
4.72307e-05
4.72307e-05
4.72307e-05
4.73115e-05
4.73115e-05
4.73115e-05
4.67438e-05
4.67438e-05
4.67438e-05
4.68255e-05
4.68255e-05
4.68255e-05
4.67451e-05
4.67451e-05
4.67451e-05
5.73603e-05
5.73603e-05
5.73603e-05
5.71467e-05
5.71467e-05
5.71467e-05
5.7035e-05
5.7035e-05
5.7035e-05
5.67179e-05
5.67179e-05
5.67179e-05
5.6822e-05
5.6822e-05
5.6822e-05
5.79133e-05
5.79133e-05
5.79133e-05
5.27822e-05
5.27822e-05
5.27822e-05
5.28783e-05
5.28783e-05
5.28783e-05
5.28798e-05
5.28798e-05
5.28798e-05
5.26899e-05
5.26899e-05
5.26899e-05
5.50477e-05
5.50477e-05
5.50477e-05
5.46425e-05
5.46425e-05
5.46425e-05
5.48442e-05
5.48442e-05
5.48442e-05
4.91071e-05
4.91071e-05
4.91071e-05
4.87698e-05
4.87698e-05
4.87698e-05
4.90338e-05
4.90338e-05
4.90338e-05
4.89406e-05
4.89406e-05
4.89406e-05
4.92846e-05
4.92846e-05
4.92846e-05
4.92059e-05
4.92059e-05
4.92059e-05
5.04169e-05
5.04169e-05
5.04169e-05
5.04014e-05
5.04014e-05
5.04014e-05
5.03203e-05
5.03203e-05
5.03203e-05
5.09851e-05
5.09851e-05
5.09851e-05
5.11515e-05
5.11515e-05
5.11515e-05
5.18158e-05
5.18158e-05
5.18158e-05
5.17307e-05
5.17307e-05
5.17307e-05
5.4497e-05
5.4497e-05
5.4497e-05
5.45873e-05
5.45873e-05
5.45873e-05
5.47889e-05
5.47889e-05
5.47889e-05
5.49003e-05
5.49003e-05
5.49003e-05
5.42972e-05
5.42972e-05
5.42972e-05
5.39011e-05
5.39011e-05
5.39011e-05
5.41878e-05
5.41878e-05
5.41878e-05
5.39898e-05
5.39898e-05
5.39898e-05
5.40088e-05
5.40088e-05
5.40088e-05
5.42069e-05
5.42069e-05
5.42069e-05
5.16852e-05
5.16852e-05
5.16852e-05
5.22948e-05
5.22948e-05
5.22948e-05
5.22097e-05
5.22097e-05
5.22097e-05
5.21924e-05
5.21924e-05
5.21924e-05
5.22771e-05
5.22771e-05
5.22771e-05
5.21748e-05
5.21748e-05
5.21748e-05
5.19883e-05
5.19883e-05
5.19883e-05
5.1886e-05
5.1886e-05
5.1886e-05
5.1701e-05
5.1701e-05
5.1701e-05
5.16007e-05
5.16007e-05
5.16007e-05
4.98394e-05
4.98394e-05
4.98394e-05
5.16526e-05
5.16526e-05
5.16526e-05
5.2023e-05
5.2023e-05
5.2023e-05
5.11695e-05
5.11695e-05
5.11695e-05
5.03356e-05
5.03356e-05
5.03356e-05
5.02547e-05
5.02547e-05
5.02547e-05
5.12293e-05
5.12293e-05
5.12293e-05
5.14172e-05
5.14172e-05
5.14172e-05
5.13339e-05
5.13339e-05
5.13339e-05
5.06872e-05
5.06872e-05
5.06872e-05
5.05136e-05
5.05136e-05
5.05136e-05
5.06109e-05
5.06109e-05
5.06109e-05
5.10703e-05
5.10703e-05
5.10703e-05
5.08895e-05
5.08895e-05
5.08895e-05
5.11518e-05
5.11518e-05
5.11518e-05
5.10531e-05
5.10531e-05
5.10531e-05
5.07903e-05
5.07903e-05
5.07903e-05
5.08724e-05
5.08724e-05
5.08724e-05
5.70831e-05
5.70831e-05
5.70831e-05
5.63332e-05
5.63332e-05
5.63332e-05
5.61218e-05
5.61218e-05
5.61218e-05
5.71727e-05
5.71727e-05
5.71727e-05
5.67579e-05
5.67579e-05
5.67579e-05
5.69699e-05
5.69699e-05
5.69699e-05
5.6541e-05
5.6541e-05
5.6541e-05
5.50847e-05
5.50847e-05
5.50847e-05
5.74367e-05
5.74367e-05
5.74367e-05
5.72369e-05
5.72369e-05
5.72369e-05
5.74539e-05
5.74539e-05
5.74539e-05
5.75545e-05
5.75545e-05
5.75545e-05
5.78918e-05
5.78918e-05
5.78918e-05
5.77734e-05
5.77734e-05
5.77734e-05
5.78749e-05
5.78749e-05
5.78749e-05
5.65268e-05
5.65268e-05
5.65268e-05
5.68066e-05
5.68066e-05
5.68066e-05
5.71372e-05
5.71372e-05
5.71372e-05
5.69221e-05
5.69221e-05
5.69221e-05
5.71689e-05
5.71689e-05
5.71689e-05
5.69537e-05
5.69537e-05
5.69537e-05
5.7632e-05
5.7632e-05
5.7632e-05
5.78507e-05
5.78507e-05
5.78507e-05
5.79673e-05
5.79673e-05
5.79673e-05
5.15861e-05
5.15861e-05
5.15861e-05
5.1895e-05
5.1895e-05
5.1895e-05
5.24792e-05
5.24792e-05
5.24792e-05
5.26573e-05
5.26573e-05
5.26573e-05
5.24681e-05
5.24681e-05
5.24681e-05
5.23794e-05
5.23794e-05
5.23794e-05
5.20926e-05
5.20926e-05
5.20926e-05
5.21917e-05
5.21917e-05
5.21917e-05
5.26685e-05
5.26685e-05
5.26685e-05
5.2758e-05
5.2758e-05
5.2758e-05
5.38273e-05
5.38273e-05
5.38273e-05
5.24185e-05
5.24185e-05
5.24185e-05
5.2331e-05
5.2331e-05
5.2331e-05
5.19709e-05
5.19709e-05
5.19709e-05
5.23449e-05
5.23449e-05
5.23449e-05
4.67206e-05
4.67206e-05
4.67206e-05
4.67251e-05
4.67251e-05
4.67251e-05
4.68039e-05
4.68039e-05
4.68039e-05
4.69663e-05
4.69663e-05
4.69663e-05
4.66666e-05
4.66666e-05
4.66666e-05
5.06105e-05
5.06105e-05
5.06105e-05
5.09703e-05
5.09703e-05
5.09703e-05
5.07075e-05
5.07075e-05
5.07075e-05
5.08874e-05
5.08874e-05
5.08874e-05
5.09019e-05
5.09019e-05
5.09019e-05
5.09994e-05
5.09994e-05
5.09994e-05
4.70454e-05
4.70454e-05
4.70454e-05
4.67044e-05
4.67044e-05
4.67044e-05
4.66136e-05
4.66136e-05
4.66136e-05
4.93038e-05
4.93038e-05
4.93038e-05
4.92203e-05
4.92203e-05
4.92203e-05
4.73934e-05
4.73934e-05
4.73934e-05
4.69049e-05
4.69049e-05
4.69049e-05
4.70668e-05
4.70668e-05
4.70668e-05
4.72299e-05
4.72299e-05
4.72299e-05
5.71387e-05
5.71387e-05
5.71387e-05
5.80286e-05
5.80286e-05
5.80286e-05
5.40446e-05
5.40446e-05
5.40446e-05
5.42427e-05
5.42427e-05
5.42427e-05
5.30697e-05
5.30697e-05
5.30697e-05
4.80494e-05
4.80494e-05
4.80494e-05
5.40411e-05
5.40411e-05
5.40411e-05
5.42391e-05
5.42391e-05
5.42391e-05
5.24969e-05
5.24969e-05
5.24969e-05
5.25903e-05
5.25903e-05
5.25903e-05
5.23105e-05
5.23105e-05
5.23105e-05
5.24988e-05
5.24988e-05
5.24988e-05
5.25002e-05
5.25002e-05
5.25002e-05
5.25941e-05
5.25941e-05
5.25941e-05
5.21251e-05
5.21251e-05
5.21251e-05
5.23119e-05
5.23119e-05
5.23119e-05
5.22176e-05
5.22176e-05
5.22176e-05
5.20309e-05
5.20309e-05
5.20309e-05
5.19385e-05
5.19385e-05
5.19385e-05
5.14688e-05
5.14688e-05
5.14688e-05
5.13688e-05
5.13688e-05
5.13688e-05
4.93009e-05
4.93009e-05
4.93009e-05
5.05954e-05
5.05954e-05
5.05954e-05
5.06926e-05
5.06926e-05
5.06926e-05
5.08724e-05
5.08724e-05
5.08724e-05
5.03046e-05
5.03046e-05
5.03046e-05
5.03855e-05
5.03855e-05
5.03855e-05
4.97599e-05
4.97599e-05
4.97599e-05
4.8692e-05
4.8692e-05
4.8692e-05
4.94058e-05
4.94058e-05
4.94058e-05
5.11664e-05
5.11664e-05
5.11664e-05
5.15319e-05
5.15319e-05
5.15319e-05
5.14327e-05
5.14327e-05
5.14327e-05
5.125e-05
5.125e-05
5.125e-05
5.12647e-05
5.12647e-05
5.12647e-05
5.14475e-05
5.14475e-05
5.14475e-05
5.20015e-05
5.20015e-05
5.20015e-05
5.21021e-05
5.21021e-05
5.21021e-05
5.18303e-05
5.18303e-05
5.18303e-05
5.2016e-05
5.2016e-05
5.2016e-05
5.25936e-05
5.25936e-05
5.25936e-05
5.26814e-05
5.26814e-05
5.26814e-05
5.21435e-05
5.21435e-05
5.21435e-05
5.24652e-05
5.24652e-05
5.24652e-05
5.39196e-05
5.39196e-05
5.39196e-05
5.37413e-05
5.37413e-05
5.37413e-05
5.37233e-05
5.37233e-05
5.37233e-05
5.36345e-05
5.36345e-05
5.36345e-05
5.71027e-05
5.71027e-05
5.71027e-05
5.72196e-05
5.72196e-05
5.72196e-05
5.71203e-05
5.71203e-05
5.71203e-05
5.69052e-05
5.69052e-05
5.69052e-05
5.59441e-05
5.59441e-05
5.59441e-05
5.65208e-05
5.65208e-05
5.65208e-05
5.67335e-05
5.67335e-05
5.67335e-05
5.55699e-05
5.55699e-05
5.55699e-05
5.57955e-05
5.57955e-05
5.57955e-05
5.54576e-05
5.54576e-05
5.54576e-05
5.0955e-05
5.0955e-05
5.0955e-05
5.17696e-05
5.17696e-05
5.17696e-05
5.16691e-05
5.16691e-05
5.16691e-05
5.17532e-05
5.17532e-05
5.17532e-05
5.19384e-05
5.19384e-05
5.19384e-05
5.25002e-05
5.25002e-05
5.25002e-05
5.2312e-05
5.2312e-05
5.2312e-05
5.16182e-05
5.16182e-05
5.16182e-05
5.14519e-05
5.14519e-05
5.14519e-05
5.14346e-05
5.14346e-05
5.14346e-05
5.13517e-05
5.13517e-05
5.13517e-05
5.19706e-05
5.19706e-05
5.19706e-05
5.17797e-05
5.17797e-05
5.17797e-05
5.08078e-05
5.08078e-05
5.08078e-05
5.05638e-05
5.05638e-05
5.05638e-05
5.06451e-05
5.06451e-05
5.06451e-05
5.00949e-05
5.00949e-05
5.00949e-05
5.02885e-05
5.02885e-05
5.02885e-05
5.00152e-05
5.00152e-05
5.00152e-05
5.01115e-05
5.01115e-05
5.01115e-05
4.97435e-05
4.97435e-05
4.97435e-05
4.95691e-05
4.95691e-05
4.95691e-05
4.94741e-05
4.94741e-05
4.94741e-05
5.73606e-05
5.73606e-05
5.73606e-05
5.71634e-05
5.71634e-05
5.71634e-05
5.73899e-05
5.73899e-05
5.73899e-05
5.72969e-05
5.72969e-05
5.72969e-05
5.76126e-05
5.76126e-05
5.76126e-05
5.69856e-05
5.69856e-05
5.69856e-05
5.63492e-05
5.63492e-05
5.63492e-05
5.67721e-05
5.67721e-05
5.67721e-05
5.66576e-05
5.66576e-05
5.66576e-05
5.64464e-05
5.64464e-05
5.64464e-05
5.60992e-05
5.60992e-05
5.60992e-05
5.5777e-05
5.5777e-05
5.5777e-05
5.58903e-05
5.58903e-05
5.58903e-05
5.58716e-05
5.58716e-05
5.58716e-05
5.51038e-05
5.51038e-05
5.51038e-05
5.51959e-05
5.51959e-05
5.51959e-05
5.60249e-05
5.60249e-05
5.60249e-05
5.6139e-05
5.6139e-05
5.6139e-05
5.72693e-05
5.72693e-05
5.72693e-05
5.72535e-05
5.72535e-05
5.72535e-05
5.71534e-05
5.71534e-05
5.71534e-05
5.7908e-05
5.7908e-05
5.7908e-05
5.77901e-05
5.77901e-05
5.77901e-05
5.75713e-05
5.75713e-05
5.75713e-05
5.74705e-05
5.74705e-05
5.74705e-05
5.77005e-05
5.77005e-05
5.77005e-05
5.73807e-05
5.73807e-05
5.73807e-05
5.74801e-05
5.74801e-05
5.74801e-05
5.7821e-05
5.7821e-05
5.7821e-05
5.7537e-05
5.7537e-05
5.7537e-05
5.77562e-05
5.77562e-05
5.77562e-05
5.65933e-05
5.65933e-05
5.65933e-05
5.64954e-05
5.64954e-05
5.64954e-05
5.50559e-05
5.50559e-05
5.50559e-05
5.49467e-05
5.49467e-05
5.49467e-05
5.55288e-05
5.55288e-05
5.55288e-05
5.6284e-05
5.6284e-05
5.6284e-05
5.61705e-05
5.61705e-05
5.61705e-05
5.63152e-05
5.63152e-05
5.63152e-05
5.56406e-05
5.56406e-05
5.56406e-05
5.58483e-05
5.58483e-05
5.58483e-05
5.59609e-05
5.59609e-05
5.59609e-05
5.58647e-05
5.58647e-05
5.58647e-05
5.68231e-05
5.68231e-05
5.68231e-05
5.66255e-05
5.66255e-05
5.66255e-05
5.68389e-05
5.68389e-05
5.68389e-05
5.69382e-05
5.69382e-05
5.69382e-05
5.65115e-05
5.65115e-05
5.65115e-05
5.66098e-05
5.66098e-05
5.66098e-05
5.72845e-05
5.72845e-05
5.72845e-05
5.75015e-05
5.75015e-05
5.75015e-05
5.76177e-05
5.76177e-05
5.76177e-05
5.7516e-05
5.7516e-05
5.7516e-05
5.6854e-05
5.6854e-05
5.6854e-05
5.66405e-05
5.66405e-05
5.66405e-05
5.65415e-05
5.65415e-05
5.65415e-05
5.47053e-05
5.47053e-05
5.47053e-05
5.45042e-05
5.45042e-05
5.45042e-05
5.11791e-05
5.11791e-05
5.11791e-05
5.19143e-05
5.19143e-05
5.19143e-05
5.10907e-05
5.10907e-05
5.10907e-05
5.11838e-05
5.11838e-05
5.11838e-05
5.20047e-05
5.20047e-05
5.20047e-05
5.16825e-05
5.16825e-05
5.16825e-05
5.15945e-05
5.15945e-05
5.15945e-05
5.25271e-05
5.25271e-05
5.25271e-05
5.24285e-05
5.24285e-05
5.24285e-05
5.22317e-05
5.22317e-05
5.22317e-05
5.27167e-05
5.27167e-05
5.27167e-05
5.2816e-05
5.2816e-05
5.2816e-05
5.30072e-05
5.30072e-05
5.30072e-05
5.30991e-05
5.30991e-05
5.30991e-05
5.17964e-05
5.17964e-05
5.17964e-05
5.20811e-05
5.20811e-05
5.20811e-05
5.21804e-05
5.21804e-05
5.21804e-05
5.23681e-05
5.23681e-05
5.23681e-05
5.24564e-05
5.24564e-05
5.24564e-05
5.33929e-05
5.33929e-05
5.33929e-05
5.32919e-05
5.32919e-05
5.32919e-05
5.2769e-05
5.2769e-05
5.2769e-05
5.29489e-05
5.29489e-05
5.29489e-05
5.25186e-05
5.25186e-05
5.25186e-05
5.24197e-05
5.24197e-05
5.24197e-05
5.33658e-05
5.33658e-05
5.33658e-05
5.32641e-05
5.32641e-05
5.32641e-05
5.26207e-05
5.26207e-05
5.26207e-05
5.24316e-05
5.24316e-05
5.24316e-05
5.25333e-05
5.25333e-05
5.25333e-05
5.4097e-05
5.4097e-05
5.4097e-05
4.67293e-05
4.67293e-05
4.67293e-05
4.68083e-05
4.68083e-05
4.68083e-05
4.68123e-05
4.68123e-05
4.68123e-05
4.79262e-05
4.79262e-05
4.79262e-05
4.75883e-05
4.75883e-05
4.75883e-05
4.77595e-05
4.77595e-05
4.77595e-05
4.66889e-05
4.66889e-05
4.66889e-05
4.65432e-05
4.65432e-05
4.65432e-05
4.65802e-05
4.65802e-05
4.65802e-05
5.06251e-05
5.06251e-05
5.06251e-05
5.07219e-05
5.07219e-05
5.07219e-05
5.06392e-05
5.06392e-05
5.06392e-05
5.04605e-05
5.04605e-05
5.04605e-05
5.0916e-05
5.0916e-05
5.0916e-05
5.07358e-05
5.07358e-05
5.07358e-05
4.67991e-05
4.67991e-05
4.67991e-05
4.69614e-05
4.69614e-05
4.69614e-05
4.67156e-05
4.67156e-05
4.67156e-05
4.67939e-05
4.67939e-05
4.67939e-05
4.69505e-05
4.69505e-05
4.69505e-05
4.70289e-05
4.70289e-05
4.70289e-05
4.71922e-05
4.71922e-05
4.71922e-05
4.71859e-05
4.71859e-05
4.71859e-05
4.7271e-05
4.7271e-05
4.7271e-05
4.75209e-05
4.75209e-05
4.75209e-05
4.74353e-05
4.74353e-05
4.74353e-05
4.66846e-05
4.66846e-05
4.66846e-05
4.66995e-05
4.66995e-05
4.66995e-05
4.94771e-05
4.94771e-05
4.94771e-05
4.98263e-05
4.98263e-05
4.98263e-05
4.6985e-05
4.6985e-05
4.6985e-05
4.705e-05
4.705e-05
4.705e-05
4.72135e-05
4.72135e-05
4.72135e-05
4.69707e-05
4.69707e-05
4.69707e-05
5.57478e-05
5.57478e-05
5.57478e-05
5.61561e-05
5.61561e-05
5.61561e-05
5.68043e-05
5.68043e-05
5.68043e-05
5.68074e-05
5.68074e-05
5.68074e-05
5.66993e-05
5.66993e-05
5.66993e-05
5.61724e-05
5.61724e-05
5.61724e-05
5.64869e-05
5.64869e-05
5.64869e-05
5.63828e-05
5.63828e-05
5.63828e-05
5.6696e-05
5.6696e-05
5.6696e-05
5.70299e-05
5.70299e-05
5.70299e-05
5.65044e-05
5.65044e-05
5.65044e-05
5.62934e-05
5.62934e-05
5.62934e-05
5.79241e-05
5.79241e-05
5.79241e-05
5.73837e-05
5.73837e-05
5.73837e-05
5.76011e-05
5.76011e-05
5.76011e-05
5.77051e-05
5.77051e-05
5.77051e-05
5.69523e-05
5.69523e-05
5.69523e-05
5.74026e-05
5.74026e-05
5.74026e-05
5.76201e-05
5.76201e-05
5.76201e-05
5.39435e-05
5.39435e-05
5.39435e-05
5.40431e-05
5.40431e-05
5.40431e-05
5.39453e-05
5.39453e-05
5.39453e-05
5.45414e-05
5.45414e-05
5.45414e-05
5.43415e-05
5.43415e-05
5.43415e-05
5.46409e-05
5.46409e-05
5.46409e-05
5.45396e-05
5.45396e-05
5.45396e-05
5.42412e-05
5.42412e-05
5.42412e-05
5.43397e-05
5.43397e-05
5.43397e-05
5.31649e-05
5.31649e-05
5.31649e-05
5.33557e-05
5.33557e-05
5.33557e-05
5.32641e-05
5.32641e-05
5.32641e-05
5.30712e-05
5.30712e-05
5.30712e-05
5.31666e-05
5.31666e-05
5.31666e-05
4.80605e-05
4.80605e-05
4.80605e-05
4.9333e-05
4.9333e-05
4.9333e-05
4.89883e-05
4.89883e-05
4.89883e-05
4.98371e-05
4.98371e-05
4.98371e-05
5.0013e-05
5.0013e-05
5.0013e-05
4.99507e-05
4.99507e-05
4.99507e-05
5.04825e-05
5.04825e-05
5.04825e-05
5.0661e-05
5.0661e-05
5.0661e-05
4.94263e-05
4.94263e-05
4.94263e-05
4.92514e-05
4.92514e-05
4.92514e-05
4.9079e-05
4.9079e-05
4.9079e-05
4.92528e-05
4.92528e-05
4.92528e-05
4.93387e-05
4.93387e-05
4.93387e-05
4.92477e-05
4.92477e-05
4.92477e-05
4.90754e-05
4.90754e-05
4.90754e-05
4.8821e-05
4.8821e-05
4.8821e-05
4.89923e-05
4.89923e-05
4.89923e-05
4.90774e-05
4.90774e-05
4.90774e-05
4.89905e-05
4.89905e-05
4.89905e-05
4.8217e-05
4.8217e-05
4.8217e-05
5.46388e-05
5.46388e-05
5.46388e-05
5.48405e-05
5.48405e-05
5.48405e-05
5.28764e-05
5.28764e-05
5.28764e-05
5.27801e-05
5.27801e-05
5.27801e-05
5.30678e-05
5.30678e-05
5.30678e-05
5.31628e-05
5.31628e-05
5.31628e-05
5.24946e-05
5.24946e-05
5.24946e-05
5.10218e-05
5.10218e-05
5.10218e-05
5.09305e-05
5.09305e-05
5.09305e-05
5.08408e-05
5.08408e-05
5.08408e-05
5.08395e-05
5.08395e-05
5.08395e-05
5.09289e-05
5.09289e-05
5.09289e-05
5.19371e-05
5.19371e-05
5.19371e-05
5.17518e-05
5.17518e-05
5.17518e-05
5.11054e-05
5.11054e-05
5.11054e-05
5.23087e-05
5.23087e-05
5.23087e-05
5.19352e-05
5.19352e-05
5.19352e-05
5.2216e-05
5.2216e-05
5.2216e-05
5.20292e-05
5.20292e-05
5.20292e-05
4.91533e-05
4.91533e-05
4.91533e-05
4.93259e-05
4.93259e-05
4.93259e-05
5.01431e-05
5.01431e-05
5.01431e-05
4.94904e-05
4.94904e-05
4.94904e-05
4.95854e-05
4.95854e-05
4.95854e-05
5.00314e-05
5.00314e-05
5.00314e-05
4.98556e-05
4.98556e-05
4.98556e-05
5.01275e-05
5.01275e-05
5.01275e-05
5.00471e-05
5.00471e-05
5.00471e-05
5.00624e-05
5.00624e-05
5.00624e-05
4.98865e-05
4.98865e-05
4.98865e-05
4.89567e-05
4.89567e-05
4.89567e-05
4.87858e-05
4.87858e-05
4.87858e-05
5.20872e-05
5.20872e-05
5.20872e-05
5.19865e-05
5.19865e-05
5.19865e-05
5.20719e-05
5.20719e-05
5.20719e-05
5.22589e-05
5.22589e-05
5.22589e-05
5.23606e-05
5.23606e-05
5.23606e-05
5.22743e-05
5.22743e-05
5.22743e-05
5.21164e-05
5.21164e-05
5.21164e-05
5.23037e-05
5.23037e-05
5.23037e-05
5.23176e-05
5.23176e-05
5.23176e-05
5.24048e-05
5.24048e-05
5.24048e-05
5.17448e-05
5.17448e-05
5.17448e-05
5.14755e-05
5.14755e-05
5.14755e-05
5.15605e-05
5.15605e-05
5.15605e-05
5.26074e-05
5.26074e-05
5.26074e-05
5.26954e-05
5.26954e-05
5.26954e-05
5.2709e-05
5.2709e-05
5.2709e-05
5.38094e-05
5.38094e-05
5.38094e-05
5.40062e-05
5.40062e-05
5.40062e-05
5.28799e-05
5.28799e-05
5.28799e-05
5.25509e-05
5.25509e-05
5.25509e-05
5.2483e-05
5.2483e-05
5.2483e-05
5.25687e-05
5.25687e-05
5.25687e-05
5.25862e-05
5.25862e-05
5.25862e-05
5.2776e-05
5.2776e-05
5.2776e-05
5.34216e-05
5.34216e-05
5.34216e-05
5.37049e-05
5.37049e-05
5.37049e-05
5.36162e-05
5.36162e-05
5.36162e-05
5.43158e-05
5.43158e-05
5.43158e-05
5.48082e-05
5.48082e-05
5.48082e-05
5.46066e-05
5.46066e-05
5.46066e-05
5.45157e-05
5.45157e-05
5.45157e-05
5.46253e-05
5.46253e-05
5.46253e-05
5.52524e-05
5.52524e-05
5.52524e-05
5.68692e-05
5.68692e-05
5.68692e-05
5.70652e-05
5.70652e-05
5.70652e-05
5.68502e-05
5.68502e-05
5.68502e-05
5.67528e-05
5.67528e-05
5.67528e-05
5.67714e-05
5.67714e-05
5.67714e-05
5.67894e-05
5.67894e-05
5.67894e-05
5.68875e-05
5.68875e-05
5.68875e-05
5.65583e-05
5.65583e-05
5.65583e-05
5.68306e-05
5.68306e-05
5.68306e-05
5.71434e-05
5.71434e-05
5.71434e-05
5.70455e-05
5.70455e-05
5.70455e-05
5.6714e-05
5.6714e-05
5.6714e-05
5.62135e-05
5.62135e-05
5.62135e-05
5.64244e-05
5.64244e-05
5.64244e-05
5.65398e-05
5.65398e-05
5.65398e-05
5.64431e-05
5.64431e-05
5.64431e-05
5.52152e-05
5.52152e-05
5.52152e-05
5.54204e-05
5.54204e-05
5.54204e-05
5.55514e-05
5.55514e-05
5.55514e-05
5.57583e-05
5.57583e-05
5.57583e-05
5.55329e-05
5.55329e-05
5.55329e-05
5.54391e-05
5.54391e-05
5.54391e-05
5.11362e-05
5.11362e-05
5.11362e-05
5.15013e-05
5.15013e-05
5.15013e-05
5.14175e-05
5.14175e-05
5.14175e-05
5.12349e-05
5.12349e-05
5.12349e-05
5.14853e-05
5.14853e-05
5.14853e-05
5.11204e-05
5.11204e-05
5.11204e-05
5.14017e-05
5.14017e-05
5.14017e-05
5.12192e-05
5.12192e-05
5.12192e-05
5.13855e-05
5.13855e-05
5.13855e-05
5.12031e-05
5.12031e-05
5.12031e-05
5.06772e-05
5.06772e-05
5.06772e-05
5.0857e-05
5.0857e-05
5.0857e-05
5.09393e-05
5.09393e-05