<VTKFile type="UnstructuredGrid" version="1.0">
<UnstructuredGrid>
<Piece NumberOfPoints="8859" NumberOfCells="2953">
<Points>
<DataArray type="Float64" NumberOfComponents="3" format="ascii">
0.5 3.01 12.445
0.512524 3.01 12.4675
0.487476 3.01 12.4675
0.17352 3.01 11.5675
0.160827 3.01 11.5892
0.148445 3.01 11.5675
0.122979 3.01 11.6109
0.110383 3.01 11.5892
0.135644 3.01 11.5892
0.135644 3.01 11.5892
0.110383 3.01 11.5892
0.123433 3.01 11.5675
0.123433 3.01 11.5675
0.148445 3.01 11.5675
0.135644 3.01 11.5892
0.135644 3.01 11.5892
0.148445 3.01 11.5675
0.160827 3.01 11.5892
0.17352 3.01 11.5675
0.198629 3.01 11.5675
0.185985 3.01 11.5892
0.185985 3.01 11.5892
0.160827 3.01 11.5892
0.17352 3.01 11.5675
0.0732297 3.01 11.6107
0.0586606 3.01 11.5888
0.0848754 3.01 11.5891
0.05 3.01 12.4003
0.05 3.01 12.3551
0.058509 3.01 12.3776
0.324276 3.01 11.5675
0.349395 3.01 11.5675
0.336827 3.01 11.5892
0.148138 3.01 11.6109
0.135644 3.01 11.5892
0.160827 3.01 11.5892
0.122979 3.01 11.6109
0.135644 3.01 11.5892
0.148138 3.01 11.6109
0.160827 3.01 11.5892
0.185985 3.01 11.5892
0.173316 3.01 11.6109
0.185806 3.01 11.6325
0.160572 3.01 11.6326
0.173316 3.01 11.6109
0.173316 3.01 11.6109
0.148138 3.01 11.6109
0.160827 3.01 11.5892
0.160572 3.01 11.6326
0.148138 3.01 11.6109
0.173316 3.01 11.6109
0.211137 3.01 11.5892
0.185985 3.01 11.5892
0.198629 3.01 11.5675
0.0979162 3.01 11.6108
0.110383 3.01 11.5892
0.122979 3.01 11.6109
0.122979 3.01 11.6109
0.109875 3.01 11.6325
0.0979162 3.01 11.6108
0.0732297 3.01 11.6107
0.0848754 3.01 11.5891
0.0979162 3.01 11.6108
0.0979162 3.01 11.6108
0.0848754 3.01 11.5891
0.110383 3.01 11.5892
0.0975729 3.01 11.654
0.109875 3.01 11.6325
0.122678 3.01 11.6541
0.0841718 3.01 11.6323
0.0577122 3.01 11.632
0.0732297 3.01 11.6107
0.0729308 3.01 11.6539
0.0577122 3.01 11.632
0.0841718 3.01 11.6323
0.0732297 3.01 11.6107
0.0979162 3.01 11.6108
0.0841718 3.01 11.6323
0.0841718 3.01 11.6323
0.0979162 3.01 11.6108
0.109875 3.01 11.6325
0.0975729 3.01 11.654
0.0729308 3.01 11.6539
0.0841718 3.01 11.6323
0.0841718 3.01 11.6323
0.109875 3.01 11.6325
0.0975729 3.01 11.654
0.073948 3.01 11.5675
0.0586606 3.01 11.5888
0.05 3.01 11.5675
0.073948 3.01 11.5675
0.0848754 3.01 11.5891
0.0586606 3.01 11.5888
0.05 3.01 12.4433
0.05 3.01 12.4003
0.0603641 3.01 12.422
0.0603641 3.01 12.422
0.0753197 3.01 12.444
0.05 3.01 12.4433
0.0709395 3.01 12.4675
0.05 3.01 12.4675
0.05 3.01 12.4433
0.05 3.01 12.4433
0.0753197 3.01 12.444
0.0709395 3.01 12.4675
0.0579641 3.01 12.1546
0.05 3.01 12.1767
0.05 3.01 12.1326
0.0841948 3.01 12.0668
0.097638 3.01 12.0449
0.109814 3.01 12.0668
0.0841948 3.01 12.0668
0.0730539 3.01 12.0887
0.0578646 3.01 12.0668
0.0580261 3.01 12.1988
0.05 3.01 12.2209
0.05 3.01 12.1767
0.942292 3.01 11.7624
0.95 3.01 11.7407
0.95 3.01 11.784
0.95 3.01 11.6973
0.95 3.01 11.7407
0.942332 3.01 11.719
0.73872 3.01 11.9795
0.726137 3.01 11.9578
0.75132 3.01 11.9578
0.751305 3.01 12.0013
0.726124 3.01 12.0013
0.73872 3.01 11.9795
0.713546 3.01 11.9795
0.726137 3.01 11.9578
0.73872 3.01 11.9795
0.73872 3.01 11.9795
0.726124 3.01 12.0013
0.713546 3.01 11.9795
0.814318 3.01 12.0231
0.789096 3.01 12.0231
0.801709 3.01 12.0013
0.7765 3.01 12.0013
0.789115 3.01 11.9795
0.801709 3.01 12.0013
0.801709 3.01 12.0013
0.789096 3.01 12.0231
0.7765 3.01 12.0013
0.7765 3.01 12.0013
0.789096 3.01 12.0231
0.763892 3.01 12.0231
0.763892 3.01 12.0231
0.751305 3.01 12.0013
0.7765 3.01 12.0013
0.95 3.01 12.4675
0.929061 3.01 12.4675
0.95 3.01 12.4433
0.95 3.01 12.2654
0.926844 3.01 12.2654
0.941913 3.01 12.2432
0.941913 3.01 12.2432
0.95 3.01 12.2209
0.95 3.01 12.2654
0.926866 3.01 12.2209
0.95 3.01 12.2209
0.941913 3.01 12.2432
0.941974 3.01 12.1988
0.95 3.01 12.2209
0.926866 3.01 12.2209
0.95 3.01 12.1767
0.95 3.01 12.2209
0.941974 3.01 12.1988
0.941974 3.01 12.1988
0.926895 3.01 12.1767
0.95 3.01 12.1767
0.6127 3.01 12.4675
0.625238 3.01 12.445
0.637734 3.01 12.4675
0.662757 3.01 12.4675
0.637734 3.01 12.4675
0.650275 3.01 12.445
0.650275 3.01 12.445
0.637734 3.01 12.4675
0.625238 3.01 12.445
0.600415 3.01 12.0014
0.587856 3.01 12.0232
0.575304 3.01 12.0014
0.575304 3.01 12.0014
0.587856 3.01 12.0232
0.562749 3.01 12.0232
0.336827 3.01 11.5892
0.349395 3.01 11.5675
0.361946 3.01 11.5892
0.223755 3.01 11.5675
0.211137 3.01 11.5892
0.198629 3.01 11.5675
0.185985 3.01 11.5892
0.211137 3.01 11.5892
0.198492 3.01 11.6109
0.185806 3.01 11.6325
0.173316 3.01 11.6109
0.198492 3.01 11.6109
0.198492 3.01 11.6109
0.173316 3.01 11.6109
0.185985 3.01 11.5892
0.0576202 3.01 11.6755
0.05 3.01 11.6973
0.05 3.01 11.6537
0.05 3.01 11.6537
0.0729308 3.01 11.6539
0.0576202 3.01 11.6755
0.05 3.01 11.6537
0.0577122 3.01 11.632
0.0729308 3.01 11.6539
0.135283 3.01 11.6325
0.109875 3.01 11.6325
0.122979 3.01 11.6109
0.135283 3.01 11.6325
0.122678 3.01 11.6541
0.109875 3.01 11.6325
0.122979 3.01 11.6109
0.148138 3.01 11.6109
0.135283 3.01 11.6325
0.135283 3.01 11.6325
0.148138 3.01 11.6109
0.160572 3.01 11.6326
0.123433 3.01 11.5675
0.110383 3.01 11.5892
0.0985513 3.01 11.5675
0.110383 3.01 11.5892
0.0848754 3.01 11.5891
0.0985513 3.01 11.5675
0.0848754 3.01 11.5891
0.073948 3.01 11.5675
0.0985513 3.01 11.5675
0.0603641 3.01 12.422
0.05 3.01 12.4003
0.0739464 3.01 12.3995
0.0739464 3.01 12.3995
0.05 3.01 12.4003
0.058509 3.01 12.3776
0.058509 3.01 12.3776
0.0849548 3.01 12.3771
0.0739464 3.01 12.3995
0.058509 3.01 12.3776
0.05 3.01 12.3551
0.0732725 3.01 12.3549
0.0732725 3.01 12.3549
0.0849548 3.01 12.3771
0.058509 3.01 12.3776
0.5 3.01 12.445
0.487476 3.01 12.4675
0.47495 3.01 12.445
0.097663 3.01 12.0887
0.0841948 3.01 12.0668
0.109814 3.01 12.0668
0.0730539 3.01 12.0887
0.0841948 3.01 12.0668
0.097663 3.01 12.0887
0.0578646 3.01 12.0668
0.0730539 3.01 12.0887
0.05 3.01 12.0887
0.05 3.01 12.0887
0.05 3.01 12.0449
0.0578646 3.01 12.0668
0.05 3.01 12.2654
0.05 3.01 12.2209
0.0580869 3.01 12.2432
0.05 3.01 12.2209
0.0580261 3.01 12.1988
0.073134 3.01 12.2209
0.073134 3.01 12.2209
0.0580869 3.01 12.2432
0.05 3.01 12.2209
0.942268 3.01 11.8057
0.95 3.01 11.784
0.95 3.01 11.8274
0.942292 3.01 11.7624
0.95 3.01 11.784
0.927025 3.01 11.784
0.927025 3.01 11.784
0.942268 3.01 11.8057
0.915919 3.01 11.8057
0.95 3.01 11.784
0.942268 3.01 11.8057
0.927025 3.01 11.784
0.927013 3.01 11.8274
0.942268 3.01 11.8057
0.95 3.01 11.8274
0.915919 3.01 11.8057
0.942268 3.01 11.8057
0.927013 3.01 11.8274
0.801738 3.01 11.9143
0.814364 3.01 11.8925
0.826957 3.01 11.9142
0.852174 3.01 11.9142
0.826957 3.01 11.9142
0.839609 3.01 11.8925
0.839609 3.01 11.8925
0.826957 3.01 11.9142
0.814364 3.01 11.8925
0.776516 3.01 11.9577
0.75132 3.01 11.9578
0.763923 3.01 11.936
0.776516 3.01 11.9577
0.801725 3.01 11.9577
0.789115 3.01 11.9795
0.738704 3.01 12.0231
0.751305 3.01 12.0013
0.763892 3.01 12.0231
0.726124 3.01 12.0013
0.751305 3.01 12.0013
0.738704 3.01 12.0231
0.915617 3.01 12.2431
0.902228 3.01 12.2209
0.926866 3.01 12.2209
0.926866 3.01 12.2209
0.941913 3.01 12.2432
0.915617 3.01 12.2431
0.915617 3.01 12.2431
0.941913 3.01 12.2432
0.926844 3.01 12.2654
0.915617 3.01 12.2431
0.926844 3.01 12.2654
0.902193 3.01 12.2654
0.926866 3.01 12.2209
0.902228 3.01 12.2209
0.915668 3.01 12.1988
0.902267 3.01 12.1767
0.926895 3.01 12.1767
0.915668 3.01 12.1988
0.915668 3.01 12.1988
0.941974 3.01 12.1988
0.926866 3.01 12.2209
0.926895 3.01 12.1767
0.941974 3.01 12.1988
0.915668 3.01 12.1988
0.902267 3.01 12.1767
0.915668 3.01 12.1988
0.890059 3.01 12.1988
0.890059 3.01 12.1988
0.915668 3.01 12.1988
0.902228 3.01 12.2209
0.826927 3.01 12.0013
0.814318 3.01 12.0231
0.801709 3.01 12.0013
0.864816 3.01 12.0668
0.877308 3.01 12.0449
0.890186 3.01 12.0668
0.877308 3.01 12.0449
0.864816 3.01 12.0668
0.852122 3.01 12.0449
0.890186 3.01 12.0668
0.877308 3.01 12.0449
0.902362 3.01 12.0449
0.902362 3.01 12.0449
0.915805 3.01 12.0668
0.890186 3.01 12.0668
0.902362 3.01 12.0449
0.926964 3.01 12.0449
0.915805 3.01 12.0668
0.915835 3.01 12.0231
0.926964 3.01 12.0449
0.902362 3.01 12.0449
0.942171 3.01 12.0231
0.926964 3.01 12.0449
0.915835 3.01 12.0231
0.915835 3.01 12.0231
0.926978 3.01 12.0013
0.942171 3.01 12.0231
0.942171 3.01 12.0231
0.926978 3.01 12.0013
0.95 3.01 12.0013
0.87737 3.01 11.8708
0.890277 3.01 11.8491
0.902417 3.01 11.8708
0.852144 3.01 12.0013
0.877329 3.01 12.0013
0.864842 3.01 12.0231
0.877308 3.01 12.0449
0.852122 3.01 12.0449
0.864842 3.01 12.0231
0.902396 3.01 11.9577
0.915858 3.01 11.9795
0.890234 3.01 11.9795
0.926997 3.01 11.9142
0.942237 3.01 11.8925
0.95 3.01 11.9142
0.91589 3.01 11.8925
0.942237 3.01 11.8925
0.926997 3.01 11.9142
0.942199 3.01 11.9795
0.95 3.01 11.9577
0.95 3.01 12.0013
0.95 3.01 12.0013
0.926978 3.01 12.0013
0.942199 3.01 11.9795
0.942199 3.01 11.9795
0.926978 3.01 12.0013
0.915858 3.01 11.9795
0.95 3.01 11.9142
0.95 3.01 11.9577
0.942221 3.01 11.936
0.942221 3.01 11.936
0.926997 3.01 11.9142
0.95 3.01 11.9142
0.915876 3.01 11.936
0.926997 3.01 11.9142
0.942221 3.01 11.936
0.926989 3.01 11.9577
0.915858 3.01 11.9795
0.902396 3.01 11.9577
0.902396 3.01 11.9577
0.915876 3.01 11.936
0.926989 3.01 11.9577
0.926989 3.01 11.9577
0.942199 3.01 11.9795
0.915858 3.01 11.9795
0.95 3.01 11.9577
0.942199 3.01 11.9795
0.926989 3.01 11.9577
0.915876 3.01 11.936
0.942221 3.01 11.936
0.926989 3.01 11.9577
0.926989 3.01 11.9577
0.942221 3.01 11.936
0.95 3.01 11.9577
0.91353 3.01 12.4219
0.926054 3.01 12.3995
0.939636 3.01 12.422
0.926728 3.01 12.3549
0.95 3.01 12.3551
0.941491 3.01 12.3776
0.926728 3.01 12.3549
0.941822 3.01 12.3325
0.95 3.01 12.3551
0.95 3.01 12.4003
0.95 3.01 12.4433
0.939636 3.01 12.422
0.95 3.01 12.4003
0.926054 3.01 12.3995
0.941491 3.01 12.3776
0.939636 3.01 12.422
0.926054 3.01 12.3995
0.95 3.01 12.4003
0.941491 3.01 12.3776
0.95 3.01 12.3551
0.95 3.01 12.4003
0.941869 3.01 12.2877
0.926844 3.01 12.2654
0.95 3.01 12.2654
0.762942 3.01 12.4223
0.75028 3.01 12.4449
0.737933 3.01 12.4223
0.71291 3.01 12.4224
0.725533 3.01 12.3999
0.737933 3.01 12.4223
0.71291 3.01 12.4224
0.737933 3.01 12.4223
0.725313 3.01 12.4449
0.725313 3.01 12.4449
[...]
<PointData Scalars="View Factor" >
<DataArray type="Float64" Name="View Factor" NumberOfComponents="1" format="ascii">
0.000464837
0.000464837
0.000464837
0.000692668
0.000692668
0.000692668
0.000685871
0.000685871
0.000685871
0.000690517
0.000690517
0.000690517
0.000692798
0.000692798
0.000692798
0.000690397
0.000690397
0.000690397
0.000692515
0.000692515
0.000692515
0.000690256
0.000690256
0.000690256
0.00068612
0.00068612
0.00068612
0.00048398
0.00048398
0.00048398
0.000691127
0.000691127
0.000691127
0.000685751
0.000685751
0.000685751
0.000683507
0.000683507
0.000683507
0.000685613
0.000685613
0.000685613
0.000676454
0.000676454
0.000676454
0.000683379
0.000683379
0.000683379
0.000678799
0.000678799
0.000678799
0.000690094
0.000690094
0.000690094
0.000683622
0.000683622
0.000683622
0.000679047
0.000679047
0.000679047
0.000683738
0.000683738
0.000683738
0.000685983
0.000685983
0.000685983
0.000670019
0.000670019
0.000670019
0.000676978
0.000676978
0.000676978
0.000672465
0.000672465
0.000672465
0.000679169
0.000679169
0.000679169
0.000676838
0.000676838
0.000676838
0.000670144
0.000670144
0.000670144
0.000672326
0.000672326
0.000672326
0.000693104
0.000693104
0.000693104
0.000690744
0.000690744
0.000690744
0.00047493
0.00047493
0.00047493
0.000471983
0.000471983
0.000471983
0.000467396
0.000467396
0.000467396
0.000468944
0.000468944
0.000468944
0.00053306
0.00053306
0.00053306
0.000555796
0.000555796
0.000555796
0.000552274
0.000552274
0.000552274
0.000522863
0.000522863
0.000522863
0.000621714
0.000621714
0.000621714
0.00063409
0.00063409
0.00063409
0.000572425
0.000572425
0.000572425
0.000565087
0.000565087
0.000565087
0.000570825
0.000570825
0.000570825
0.000567154
0.000567154
0.000567154
0.000558404
0.000558404
0.000558404
0.000564081
0.000564081
0.000564081
0.000560462
0.000560462
0.000560462
0.000558916
0.000558916
0.000558916
0.000560968
0.000560968
0.000560968
0.000458694
0.000458694
0.000458694
0.000499775
0.000499775
0.000499775
0.000502808
0.000502808
0.000502808
0.000506189
0.000506189
0.000506189
0.000509427
0.000509427
0.000509427
0.000512517
0.000512517
0.000512517
0.000515966
0.000515966
0.000515966
0.000463449
0.000463449
0.000463449
0.000463136
0.000463136
0.000463136
0.000464767
0.000464767
0.000464767
0.000564062
0.000564062
0.000564062
0.000562434
0.000562434
0.000562434
0.000688651
0.000688651
0.000688651
0.00069234
0.00069234
0.00069234
0.000685454
0.000685454
0.000685454
0.000678652
0.000678652
0.000678652
0.000683231
0.000683231
0.000683231
0.000661356
0.000661356
0.000661356
0.00066578
0.00066578
0.00066578
0.000670269
0.000670269
0.000670269
0.000676717
0.000676717
0.000676717
0.000672202
0.000672202
0.000672202
0.000678928
0.000678928
0.000678928
0.000676592
0.000676592
0.000676592
0.000692909
0.000692909
0.000692909
0.000690624
0.000690624
0.000690624
0.000693004
0.000693004
0.000693004
0.000477886
0.000477886
0.000477886
0.000480917
0.000480917
0.000480917
0.000482492
0.000482492
0.000482492
0.000487118
0.000487118
0.000487118
0.000485573
0.000485573
0.000485573
0.000466439
0.000466439
0.000466439
0.000552219
0.000552219
0.000552219
0.000550468
0.000550468
0.000550468
0.000550513
0.000550513
0.000550513
0.000554088
0.000554088
0.000554088
0.000512867
0.000512867
0.000512867
0.000519502
0.000519502
0.000519502
0.00051617
0.00051617
0.00051617
0.000609643
0.000609643
0.000609643
0.000617875
0.000617875
0.000617875
0.000612163
0.000612163
0.000612163
0.000613849
0.000613849
0.000613849
0.000605895
0.000605895
0.000605895
0.000608183
0.000608183
0.000608183
0.000585806
0.000585806
0.000585806
0.00058523
0.00058523
0.00058523
0.000587419
0.000587419
0.000587419
0.000575624
0.000575624
0.000575624
0.000571398
0.000571398
0.000571398
0.000559412
0.000559412
0.000559412
0.000561458
0.000561458
0.000561458
0.000506704
0.000506704
0.000506704
0.000504817
0.000504817
0.000504817
0.000501608
0.000501608
0.000501608
0.000500282
0.000500282
0.000500282
0.000509946
0.000509946
0.000509946
0.000516495
0.000516495
0.000516495
0.000511297
0.000511297
0.000511297
0.000514569
0.000514569
0.000514569
0.000515106
0.000515106
0.000515106
0.000511829
0.000511829
0.000511829
0.000559939
0.000559939
0.000559939
0.000546162
0.000546162
0.000546162
0.000548191
0.000548191
0.000548191
0.000547637
0.000547637
0.000547637
0.000545599
0.000545599
0.000545599
0.000547069
0.000547069
0.000547069
0.000550585
0.000550585
0.000550585
0.000552041
0.000552041
0.000552041
0.000555592
0.000555592
0.000555592
0.000557103
0.000557103
0.000557103
0.000595488
0.000595488
0.000595488
0.000558846
0.000558846
0.000558846
0.000551718
0.000551718
0.000551718
0.000567015
0.000567015
0.000567015
0.000582774
0.000582774
0.000582774
0.000584953
0.000584953
0.000584953
0.000564111
0.000564111
0.000564111
0.000560689
0.000560689
0.000560689
0.00056277
0.00056277
0.00056277
0.000575105
0.000575105
0.000575105
0.000579023
0.000579023
0.000579023
0.000577447
0.000577447
0.000577447
0.000568547
0.000568547
0.000568547
0.000572219
0.000572219
0.000572219
0.000566398
0.000566398
0.000566398
0.000567941
0.000567941
0.000567941
0.000573737
0.000573737
0.000573737
0.000571608
0.000571608
0.000571608
0.000467788
0.000467788
0.000467788
0.000477949
0.000477949
0.000477949
0.000481007
0.000481007
0.000481007
0.000465952
0.000465952
0.000465952
0.000471923
0.000471923
0.000471923
0.000468986
0.000468986
0.000468986
0.000474739
0.000474739
0.000474739
0.000496599
0.000496599
0.000496599
0.000467684
0.000467684
0.000467684
0.000471031
0.000471031
0.000471031
0.000468042
0.000468042
0.000468042
0.000466378
0.000466378
0.000466378
0.000462128
0.000462128
0.000462128
0.000463421
0.000463421
0.000463421
0.00046177
0.00046177
0.00046177
0.000482538
0.000482538
0.000482538
0.000477069
0.000477069
0.000477069
0.00047271
0.00047271
0.00047271
0.000475731
0.000475731
0.000475731
0.000473395
0.000473395
0.000473395
0.000476421
0.000476421
0.000476421
0.00046804
0.00046804
0.00046804
0.000465075
0.000465075
0.000465075
0.000463751
0.000463751
0.000463751
0.000571462
0.000571462
0.000571462
0.00056205
0.00056205
0.00056205
0.000552017
0.000552017
0.000552017
0.000548118
0.000548118
0.000548118
0.00055166
0.00055166
0.00055166
0.000553621
0.000553621
0.000553621
0.000558817
0.000558817
0.000558817
0.000557202
0.000557202
0.000557202
0.000548473
0.000548473
0.000548473
0.000546535
0.000546535
0.000546535
0.000527709
0.000527709
0.000527709
0.000550075
0.000550075
0.000550075
0.00055206
0.00055206
0.00055206
0.000554827
0.000554827
0.000554827
0.000547748
0.000547748
0.000547748
0.000691679
0.000691679
0.000691679
0.000691922
0.000691922
0.000691922
0.000689473
0.000689473
0.000689473
0.000684842
0.000684842
0.000684842
0.000682219
0.000682219
0.000682219
0.000582581
0.000582581
0.000582581
0.000575098
0.000575098
0.000575098
0.000580969
0.000580969
0.000580969
0.000577225
0.000577225
0.000577225
0.000577745
0.000577745
0.000577745
0.000576134
0.000576134
0.000576134
0.000682421
0.000682421
0.000682421
0.000690818
0.000690818
0.000690818
0.000685979
0.000685979
0.000685979
0.000623478
0.000623478
0.000623478
0.000625655
0.000625655
0.000625655
0.000674836
0.000674836
0.000674836
0.000688534
0.000688534
0.000688534
0.000683913
0.000683913
0.000683913
0.00067934
0.00067934
0.00067934
0.00048097
0.00048097
0.00048097
0.000465078
0.000465078
0.000465078
0.000529631
0.000529631
0.000529631
0.000526232
0.000526232
0.000526232
0.000546928
0.000546928
0.000546928
0.00065618
0.00065618
0.00065618
0.00052953
0.00052953
0.00052953
0.000526133
0.000526133
0.000526133
0.000557559
0.000557559
0.000557559
0.000555723
0.000555723
0.000555723
0.000561238
0.000561238
0.000561238
0.000557623
0.000557623
0.000557623
0.000557669
0.000557669
0.000557669
0.000555851
0.000555851
0.000555851
0.000564937
0.000564937
0.000564937
0.000561285
0.000561285
0.000561285
0.000563083
0.000563083
0.000563083
0.000566738
0.000566738
0.000566738
0.000568596
0.000568596
0.000568596
0.000562449
0.000562449
0.000562449
0.000563971
0.000563971
0.000563971
0.000606562
0.000606562
0.000606562
0.000582027
0.000582027
0.000582027
0.000580426
0.000580426
0.000580426
0.000576687
0.000576687
0.000576687
0.000586831
0.000586831
0.000586831
0.000584637
0.000584637
0.000584637
0.00059774
0.00059774
0.00059774
0.00062022
0.00062022
0.00062022
0.000610823
0.000610823
0.000610823
0.00057192
0.00057192
0.00057192
0.000564592
0.000564592
0.000564592
0.000566159
0.000566159
0.000566159
0.00056982
0.00056982
0.00056982
0.000570331
0.000570331
0.000570331
0.000566665
0.000566665
0.000566665
0.000555824
0.000555824
0.000555824
0.000554278
0.000554278
0.000554278
0.000559891
0.000559891
0.000559891
0.000556299
0.000556299
0.000556299
0.000546119
0.000546119
0.000546119
0.000544148
0.000544148
0.000544148
0.000555625
0.000555625
0.000555625
0.000542117
0.000542117
0.000542117
0.000517017
0.000517017
0.000517017
0.000520842
0.000520842
0.000520842
0.000520329
0.000520329
0.000520329
0.000522251
0.000522251
0.000522251
0.000471986
0.000471986
0.000471986
0.00047067
0.00047067
0.00047067
0.000472353
0.000472353
0.000472353
0.00047537
0.00047537
0.00047537
0.000489013
0.000489013
0.000489013
0.000478567
0.000478567
0.000478567
0.000475536
0.000475536
0.000475536
0.000492243
0.000492243
0.000492243
0.000489555
0.000489555
0.000489555
0.000493584
0.000493584
0.000493584
0.000574555
0.000574555
0.000574555
0.000557876
0.000557876
0.000557876
0.000559401
0.000559401
0.000559401
0.000557332
0.000557332
0.000557332
0.000553765
0.000553765
0.000553765
0.000543215
0.000543215
0.000543215
0.000546707
0.000546707
0.000546707
0.000557692
0.000557692
0.000557692
0.000561873
0.000561873
0.000561873
0.000561284
0.000561284
0.000561284
0.000563381
0.000563381
0.000563381
0.000550006
0.000550006
0.000550006
0.000553356
0.000553356
0.000553356
0.000574365
0.000574365
0.000574365
0.000580869
0.000580869
0.000580869
0.000578695
0.000578695
0.000578695
0.000589403
0.000589403
0.000589403
0.000586225
0.000586225
0.000586225
0.000591638
0.000591638
0.000591638
0.000590034
0.000590034
0.000590034
0.000597097
0.000597097
0.000597097
0.000600989
0.000600989
0.000600989
0.000602626
0.000602626
0.000602626
0.000466157
0.000466157
0.000466157
0.000469531
0.000469531
0.000469531
0.000463252
0.000463252
0.000463252
0.000464874
0.000464874
0.000464874
0.000460363
0.000460363
0.000460363
0.000469516
0.000469516
0.000469516
0.000478483
0.000478483
0.000478483
0.000472482
0.000472482
0.000472482
0.000473691
0.000473691
0.000473691
0.000476685
0.000476685
0.000476685
0.000484691
0.000484691
0.000484691
0.000489119
0.000489119
0.000489119
0.000487784
0.000487784
0.000487784
0.000487342
0.000487342
0.000487342
0.000497102
0.000497102
0.000497102
0.000495252
0.000495252
0.000495252
0.000482784
0.000482784
0.000482784
0.000481524
0.000481524
0.000481524
0.000471723
0.000471723
0.000471723
0.000471382
0.000471382
0.000471382
0.000473057
0.000473057
0.000473057
0.000462475
0.000462475
0.000462475
0.000463774
0.000463774
0.000463774
0.000466731
0.000466731
0.000466731
0.000468392
0.000468392
0.000468392
0.000461918
0.000461918
0.000461918
0.000466553
0.000466553
0.000466553
0.000464875
0.000464875
0.000464875
0.000460637
0.000460637
0.000460637
0.000466015
0.000466015
0.000466015
0.000463058
0.000463058
0.000463058
0.000480119
0.000480119
0.000480119
0.000481835
0.000481835
0.000481835
0.000504255
0.000504255
0.000504255
0.00050568
0.00050568
0.00050568
0.000495296
0.000495296
0.000495296
0.000484919
0.000484919
0.000484919
0.000486283
0.000486283
0.000486283
0.000485628
0.000485628
0.000485628
0.000493914
0.000493914
0.000493914
0.00049077
0.00049077
0.00049077
0.000489397
0.000489397
0.000489397
0.00049115
0.00049115
0.00049115
0.000477426
0.000477426
0.000477426
0.000480829
0.000480829
0.000480829
0.000477772
0.000477772
0.000477772
0.000476081
0.000476081
0.000476081
0.000482192
0.000482192
0.000482192
0.00048048
0.00048048
0.00048048
0.000472053
0.000472053
0.000472053
0.000469059
0.000469059
0.000469059
0.000467729
0.000467729
0.000467729
0.000469376
0.000469376
0.000469376
0.000478108
0.000478108
0.000478108
0.000481168
0.000481168
0.000481168
0.000482872
0.000482872
0.000482872
0.000512193
0.000512193
0.000512193
0.00051549
0.00051549
0.00051549
0.000582643
0.000582643
0.000582643
0.000567725
0.000567725
0.000567725
0.000584629
0.000584629
0.000584629
0.000582817
0.000582817
0.000582817
0.000565801
0.000565801
0.000565801
0.000569764
0.000569764
0.000569764
0.000571756
0.000571756
0.000571756
0.000553575
0.000553575
0.000553575
0.000555225
0.000555225
0.000555225
0.000558529
0.000558529
0.000558529
0.000550016
0.000550016
0.000550016
0.000548379
0.000548379
0.000548379
0.000544855
0.000544855
0.000544855
0.000542971
0.000542971
0.000542971
0.000563668
0.000563668
0.000563668
0.000558437
0.000558437
0.000558437
0.000556831
0.000556831
0.000556831
0.000553254
0.000553254
0.000553254
0.000551287
0.000551287
0.000551287
0.00053788
0.00053788
0.00053788
0.000539485
0.000539485
0.000539485
0.00054688
0.00054688
0.00054688
0.000543029
0.000543029
0.000543029
0.000553295
0.000553295
0.000553295
0.000554935
0.000554935
0.000554935
0.00053705
0.00053705
0.00053705
0.000538629
0.000538629
0.000538629
0.000546964
0.000546964
0.000546964
0.000550494
0.000550494
0.000550494
0.000544246
0.000544246
0.000544246
0.000517528
0.000517528
0.000517528
0.000692142
0.000692142
0.000692142
0.000689703
0.000689703
0.000689703
0.00068991
0.00068991
0.00068991
0.000638511
0.000638511
0.000638511
0.000646793
0.000646793
0.000646793
0.000642745
0.000642745
0.000642745
0.000683397
0.000683397
0.000683397
0.000682237
0.000682237
0.000682237
0.000684204
0.000684204
0.000684204
0.000583118
0.000583118
0.000583118
0.000581494
0.000581494
0.000581494
0.000583637
0.000583637
0.000583637
0.000587432
0.000587432
0.000587432
0.000578249
0.000578249
0.000578249
0.000582003
0.000582003
0.000582003
0.000689221
0.000689221
0.000689221
0.000684594
0.000684594
0.000684594
0.000691414
0.000691414
0.000691414
0.000688947
0.000688947
0.000688947
0.00068403
0.00068403
0.00068403
0.00068158
0.00068158
0.00068158
0.000677019
0.000677019
0.000677019
0.000676699
0.000676699
0.000676699
0.000674596
0.000674596
0.000674596
0.000668011
0.000668011
0.000668011
0.000670094
0.000670094
0.000670094
0.00068976
0.00068976
0.00068976
0.000683954
0.000683954
0.000683954
0.000619392
0.000619392
0.000619392
0.000611317
0.000611317
0.000611317
0.000679313
0.000679313
0.000679313
0.000682657
0.000682657
0.000682657
0.000678084
0.000678084
0.000678084
0.000685069
0.000685069
0.000685069
0.000500924
0.000500924
0.000500924
0.000494241
0.000494241
0.000494241
0.000485247
0.000485247
0.000485247
0.000485362
0.000485362
0.000485362
0.000486863
0.000486863
0.000486863
0.000494779
0.000494779
0.000494779
0.000489991
0.000489991
0.000489991
0.000491618
0.000491618
0.000491618
0.000486741
0.000486741
0.000486741
0.000482491
0.000482491
0.000482491
0.000490265
0.000490265
0.000490265
0.000493429
0.000493429
0.000493429
0.000466675
0.000466675
0.000466675
0.00047428
0.00047428
0.00047428
0.000471266
0.000471266
0.000471266
0.000469653
0.000469653
0.000469653
0.000480375
0.000480375
0.000480375
0.000474716
0.000474716
0.000474716
0.000471698
0.000471698
0.000471698
0.00053127
0.00053127
0.00053127
0.000529589
0.000529589
0.000529589
0.000531321
0.000531321
0.000531321
0.000521159
0.000521159
0.000521159
0.000524524
0.000524524
0.000524524
0.000519462
0.000519462
0.000519462
0.00052111
0.00052111
0.00052111
0.000526191
0.000526191
0.000526191
0.000524474
0.000524474
0.000524474
0.000545139
0.000545139
0.000545139
0.000541566
0.000541566
0.000541566
0.000543466
0.000543466
0.000543466
0.000546973
0.000546973
0.000546973
0.000545193
0.000545193
0.000545193
0.000656924
0.000656924
0.000656924
0.000624755
0.000624755
0.000624755
0.000633051
0.000633051
0.000633051
0.000611762
0.000611762
0.000611762
0.000607768
0.000607768
0.000607768
0.000610834
0.000610834
0.000610834
0.000598961
0.000598961
0.000598961
0.000595053
0.000595053
0.000595053
0.000622995
0.000622995
0.000622995
0.000627048
0.000627048
0.000627048
0.000631201
0.000631201
0.000631201
0.000627102
0.000627102
0.000627102
0.000625016
0.000625016
0.000625016
0.000626873
0.000626873
0.000626873
0.000631022
0.000631022
0.000631022
0.000637458
0.000637458
0.000637458
0.000633254
0.000633254
0.000633254
0.000631123
0.000631123
0.000631123
0.000633163
0.000633163
0.000633163
0.00065183
0.00065183
0.00065183
0.000519405
0.000519405
0.000519405
0.000516075
0.000516075
0.000516075
0.000550406
0.000550406
0.000550406
0.000552147
0.000552147
0.000552147
0.000546866
0.000546866
0.000546866
0.000545069
0.000545069
0.000545069
0.000557478
0.000557478
0.000557478
0.000587362
0.000587362
0.000587362
0.000589244
0.000589244
0.000589244
0.000591187
0.000591187
0.000591187
0.000591137
0.000591137
0.000591137
0.000589184
0.000589184
0.000589184
0.000568548
0.000568548
0.000568548
0.000572243
0.000572243
0.000572243
0.000585189
0.000585189
0.000585189
0.000561174
0.000561174
0.000561174
0.000568483
0.000568483
0.000568483
0.000563026
0.000563026
0.000563026
0.000566681
0.000566681
0.000566681
0.00061712
0.00061712
0.00061712
0.000613095
0.000613095
0.000613095
0.000591239
0.000591239
0.000591239
0.00060328
0.00060328
0.00060328
0.000601638
0.000601638
0.000601638
0.00059226
0.00059226
0.00059226
0.000596115
0.000596115
0.000596115
0.000590645
0.000590645
0.000590645
0.000592864
0.000592864
0.000592864
0.000593451
0.000593451
0.000593451
0.000597318
0.000597318
0.000597318
0.000614529
0.000614529
0.000614529
0.000618561
0.000618561
0.000618561
0.000553798
0.000553798
0.000553798
0.000555334
0.000555334
0.000555334
0.000553302
0.000553302
0.000553302
0.00054976
0.00054976
0.00054976
0.000548245
0.000548245
0.000548245
0.000550251
0.000550251
0.000550251
0.000554743
0.000554743
0.000554743
0.000551186
0.000551186
0.000551186
0.000551631
0.000551631
0.000551631
0.000549641
0.000549641
0.000549641
0.000561932
0.000561932
0.000561932
0.000567627
0.000567627
0.000567627
0.000565565
0.000565565
0.000565565
0.000546549
0.000546549
0.000546549
0.000544584
0.000544584
0.000544584
0.000545004
0.000545004
0.000545004
0.000522743
0.000522743
0.000522743
0.000519408
0.000519408
0.000519408
0.000536304
0.000536304
0.000536304
0.000540112
0.000540112
0.000540112
0.000542675
0.000542675
0.000542675
0.000540669
0.000540669
0.000540669
0.000541213
0.000541213
0.000541213
0.00053776
0.00053776
0.00053776
0.000525065
0.000525065
0.000525065
0.000519801
0.000519801
0.000519801
0.000521723
0.000521723
0.000521723
0.00051046
0.00051046
0.00051046
0.000502128
0.000502128
0.000502128
0.000505341
0.000505341
0.000505341
0.000507214
0.000507214
0.000507214
0.000505846
0.000505846
0.000505846
0.000496738
0.000496738
0.000496738
0.00047462
0.00047462
0.00047462
0.000471223
0.000471223
0.000471223
0.000474229
0.000474229
0.000474229
0.000475937
0.000475937
0.000475937
0.000476325
0.000476325
0.000476325
0.000476702
0.000476702
0.000476702
0.000475
0.000475
0.000475
0.000479367
0.000479367
0.000479367
0.000473824
0.000473824
0.000473824
0.000469129
0.000469129
0.000469129
0.000470825
0.000470825
0.000470825
0.000475119
0.000475119
0.000475119
0.000483362
0.000483362
0.000483362
0.000480297
0.000480297
0.000480297
0.000478974
0.000478974
0.000478974
0.0004807
0.0004807
0.0004807
0.000495766
0.000495766
0.000495766
0.000492617
0.000492617
0.000492617
0.000491783
0.000491783
0.000491783
0.000488664
0.000488664
0.000488664
0.000491302
0.000491302
0.000491302
0.000493111
0.000493111
0.000493111
0.000570861
0.000570861
0.000570861
0.000563553
0.000563553
0.000563553
0.000565637
0.000565637
0.000565637
0.000569293
0.000569293
0.000569293
0.000563009
0.000563009
0.000563009
0.000570306
0.000570306
0.000570306
0.000565099
0.000565099
0.000565099
0.00056875
0.00056875
0.00056875
0.000564543
0.000564543
0.000564543
0.000568189
0.000568189
0.000568189
0.000579867
0.000579867
0.000579867
0.000576133
0.000576133
0.000576133
0.000573995
0.000573995