<VTKFile type="UnstructuredGrid" version="1.0">
<UnstructuredGrid>
<Piece NumberOfPoints="8859" NumberOfCells="2953">
<Points>
<DataArray type="Float64" NumberOfComponents="3" format="ascii">
3.01 0.5 10.355
3.01 0.487476 10.3775
3.01 0.512524 10.3775
3.01 0.17352 9.4775
3.01 0.148445 9.4775
3.01 0.160827 9.49922
3.01 0.122979 9.52089
3.01 0.135644 9.49922
3.01 0.110383 9.49921
3.01 0.135644 9.49922
3.01 0.123433 9.4775
3.01 0.110383 9.49921
3.01 0.123433 9.4775
3.01 0.135644 9.49922
3.01 0.148445 9.4775
3.01 0.135644 9.49922
3.01 0.160827 9.49922
3.01 0.148445 9.4775
3.01 0.17352 9.4775
3.01 0.185985 9.4992
3.01 0.198629 9.4775
3.01 0.185985 9.4992
3.01 0.17352 9.4775
3.01 0.160827 9.49922
3.01 0.0732297 9.52067
3.01 0.0848754 9.49914
3.01 0.0586606 9.49881
3.01 0.05 10.3103
3.01 0.058509 10.2876
3.01 0.05 10.2651
3.01 0.324276 9.4775
3.01 0.336827 9.49916
3.01 0.349395 9.4775
3.01 0.148138 9.5209
3.01 0.160827 9.49922
3.01 0.135644 9.49922
3.01 0.122979 9.52089
3.01 0.148138 9.5209
3.01 0.135644 9.49922
3.01 0.160827 9.49922
3.01 0.173316 9.52089
3.01 0.185985 9.4992
3.01 0.185806 9.54255
3.01 0.173316 9.52089
3.01 0.160572 9.54255
3.01 0.173316 9.52089
3.01 0.160827 9.49922
3.01 0.148138 9.5209
3.01 0.160572 9.54255
3.01 0.173316 9.52089
3.01 0.148138 9.5209
3.01 0.211137 9.49919
3.01 0.198629 9.4775
3.01 0.185985 9.4992
3.01 0.0979162 9.52084
3.01 0.122979 9.52089
3.01 0.110383 9.49921
3.01 0.122979 9.52089
3.01 0.0979162 9.52084
3.01 0.109875 9.54249
3.01 0.0732297 9.52067
3.01 0.0979162 9.52084
3.01 0.0848754 9.49914
3.01 0.0979162 9.52084
3.01 0.110383 9.49921
3.01 0.0848754 9.49914
3.01 0.0975729 9.56404
3.01 0.122678 9.56414
3.01 0.109875 9.54249
3.01 0.0841718 9.54235
3.01 0.0732297 9.52067
3.01 0.0577122 9.54202
3.01 0.0729308 9.56388
3.01 0.0841718 9.54235
3.01 0.0577122 9.54202
3.01 0.0732297 9.52067
3.01 0.0841718 9.54235
3.01 0.0979162 9.52084
3.01 0.0841718 9.54235
3.01 0.109875 9.54249
3.01 0.0979162 9.52084
3.01 0.0975729 9.56404
3.01 0.0841718 9.54235
3.01 0.0729308 9.56388
3.01 0.0841718 9.54235
3.01 0.0975729 9.56404
3.01 0.109875 9.54249
3.01 0.073948 9.4775
3.01 0.05 9.4775
3.01 0.0586606 9.49881
3.01 0.073948 9.4775
3.01 0.0586606 9.49881
3.01 0.0848754 9.49914
3.01 0.05 10.3533
3.01 0.0603641 10.332
3.01 0.05 10.3103
3.01 0.0603641 10.332
3.01 0.05 10.3533
3.01 0.0753197 10.354
3.01 0.0709395 10.3775
3.01 0.05 10.3533
3.01 0.05 10.3775
3.01 0.05 10.3533
3.01 0.0709395 10.3775
3.01 0.0753197 10.354
3.01 0.0579641 10.0646
3.01 0.05 10.0426
3.01 0.05 10.0867
3.01 0.0841948 9.9768
3.01 0.109814 9.9768
3.01 0.097638 9.95493
3.01 0.0841948 9.9768
3.01 0.0578646 9.9768
3.01 0.0730539 9.9987
3.01 0.0580261 10.1088
3.01 0.05 10.0867
3.01 0.05 10.1309
3.01 0.942292 9.67236
3.01 0.95 9.69404
3.01 0.95 9.65067
3.01 0.95 9.60726
3.01 0.942332 9.62897
3.01 0.95 9.65067
3.01 0.73872 9.88953
3.01 0.75132 9.86775
3.01 0.726137 9.86776
3.01 0.751305 9.91132
3.01 0.73872 9.88953
3.01 0.726124 9.91133
3.01 0.713546 9.88954
3.01 0.73872 9.88953
3.01 0.726137 9.86776
3.01 0.73872 9.88953
3.01 0.713546 9.88954
3.01 0.726124 9.91133
3.01 0.814318 9.93311
3.01 0.801709 9.9113
3.01 0.789096 9.93312
3.01 0.7765 9.91131
3.01 0.801709 9.9113
3.01 0.789115 9.88951
3.01 0.801709 9.9113
3.01 0.7765 9.91131
3.01 0.789096 9.93312
3.01 0.7765 9.91131
3.01 0.763892 9.93314
3.01 0.789096 9.93312
3.01 0.763892 9.93314
3.01 0.7765 9.91131
3.01 0.751305 9.91132
3.01 0.95 10.3775
3.01 0.95 10.3533
3.01 0.929061 10.3775
3.01 0.95 10.1754
3.01 0.941913 10.1532
3.01 0.926844 10.1754
3.01 0.941913 10.1532
3.01 0.95 10.1754
3.01 0.95 10.1309
3.01 0.926866 10.1309
3.01 0.941913 10.1532
3.01 0.95 10.1309
3.01 0.941974 10.1088
3.01 0.926866 10.1309
3.01 0.95 10.1309
3.01 0.95 10.0867
3.01 0.941974 10.1088
3.01 0.95 10.1309
3.01 0.941974 10.1088
3.01 0.95 10.0867
3.01 0.926895 10.0867
3.01 0.6127 10.3775
3.01 0.637734 10.3775
3.01 0.625238 10.355
3.01 0.662757 10.3775
3.01 0.650275 10.355
3.01 0.637734 10.3775
3.01 0.650275 10.355
3.01 0.625238 10.355
3.01 0.637734 10.3775
3.01 0.600415 9.91137
3.01 0.575304 9.91137
3.01 0.587856 9.9332
3.01 0.575304 9.91137
3.01 0.562749 9.9332
3.01 0.587856 9.9332
3.01 0.336827 9.49916
3.01 0.361946 9.49916
3.01 0.349395 9.4775
3.01 0.223755 9.4775
3.01 0.198629 9.4775
3.01 0.211137 9.49919
3.01 0.185985 9.4992
3.01 0.198492 9.52088
3.01 0.211137 9.49919
3.01 0.185806 9.54255
3.01 0.198492 9.52088
3.01 0.173316 9.52089
3.01 0.198492 9.52088
3.01 0.185985 9.4992
3.01 0.173316 9.52089
3.01 0.0576202 9.58553
3.01 0.05 9.56374
3.01 0.05 9.60726
3.01 0.05 9.56374
3.01 0.0576202 9.58553
3.01 0.0729308 9.56388
3.01 0.05 9.56374
3.01 0.0729308 9.56388
3.01 0.0577122 9.54202
3.01 0.135283 9.54254
3.01 0.122979 9.52089
3.01 0.109875 9.54249
3.01 0.135283 9.54254
3.01 0.109875 9.54249
3.01 0.122678 9.56414
3.01 0.122979 9.52089
3.01 0.135283 9.54254
3.01 0.148138 9.5209
3.01 0.135283 9.54254
3.01 0.160572 9.54255
3.01 0.148138 9.5209
3.01 0.123433 9.4775
3.01 0.0985513 9.4775
3.01 0.110383 9.49921
3.01 0.110383 9.49921
3.01 0.0985513 9.4775
3.01 0.0848754 9.49914
3.01 0.0848754 9.49914
3.01 0.0985513 9.4775
3.01 0.073948 9.4775
3.01 0.0603641 10.332
3.01 0.0739464 10.3095
3.01 0.05 10.3103
3.01 0.0739464 10.3095
3.01 0.058509 10.2876
3.01 0.05 10.3103
3.01 0.058509 10.2876
3.01 0.0739464 10.3095
3.01 0.0849548 10.2871
3.01 0.058509 10.2876
3.01 0.0732725 10.2649
3.01 0.05 10.2651
3.01 0.0732725 10.2649
3.01 0.058509 10.2876
3.01 0.0849548 10.2871
3.01 0.5 10.355
3.01 0.47495 10.355
3.01 0.487476 10.3775
3.01 0.097663 9.9987
3.01 0.109814 9.9768
3.01 0.0841948 9.9768
3.01 0.0730539 9.9987
3.01 0.097663 9.9987
3.01 0.0841948 9.9768
3.01 0.0578646 9.9768
3.01 0.05 9.9987
3.01 0.0730539 9.9987
3.01 0.05 9.9987
3.01 0.0578646 9.9768
3.01 0.05 9.95492
3.01 0.05 10.1754
3.01 0.0580869 10.1532
3.01 0.05 10.1309
3.01 0.05 10.1309
3.01 0.073134 10.1309
3.01 0.0580261 10.1088
3.01 0.073134 10.1309
3.01 0.05 10.1309
3.01 0.0580869 10.1532
3.01 0.942268 9.71573
3.01 0.95 9.73741
3.01 0.95 9.69404
3.01 0.942292 9.67236
3.01 0.927025 9.69404
3.01 0.95 9.69404
3.01 0.927025 9.69404
3.01 0.915919 9.71572
3.01 0.942268 9.71573
3.01 0.95 9.69404
3.01 0.927025 9.69404
3.01 0.942268 9.71573
3.01 0.927013 9.73741
3.01 0.95 9.73741
3.01 0.942268 9.71573
3.01 0.915919 9.71572
3.01 0.927013 9.73741
3.01 0.942268 9.71573
3.01 0.801738 9.82425
3.01 0.826957 9.82425
3.01 0.814364 9.80253
3.01 0.852174 9.82424
3.01 0.839609 9.80252
3.01 0.826957 9.82425
3.01 0.839609 9.80252
3.01 0.814364 9.80253
3.01 0.826957 9.82425
3.01 0.776516 9.86775
3.01 0.763923 9.846
3.01 0.75132 9.86775
3.01 0.776516 9.86775
3.01 0.789115 9.88951
3.01 0.801725 9.86774
3.01 0.738704 9.93315
3.01 0.763892 9.93314
3.01 0.751305 9.91132
3.01 0.726124 9.91133
3.01 0.738704 9.93315
3.01 0.751305 9.91132
3.01 0.915617 10.1531
3.01 0.926866 10.1309
3.01 0.902228 10.1309
3.01 0.926866 10.1309
3.01 0.915617 10.1531
3.01 0.941913 10.1532
3.01 0.915617 10.1531
3.01 0.926844 10.1754
3.01 0.941913 10.1532
3.01 0.915617 10.1531
3.01 0.902193 10.1754
3.01 0.926844 10.1754
3.01 0.926866 10.1309
3.01 0.915668 10.1088
3.01 0.902228 10.1309
3.01 0.902267 10.0867
3.01 0.915668 10.1088
3.01 0.926895 10.0867
3.01 0.915668 10.1088
3.01 0.926866 10.1309
3.01 0.941974 10.1088
3.01 0.926895 10.0867
3.01 0.915668 10.1088
3.01 0.941974 10.1088
3.01 0.902267 10.0867
3.01 0.890059 10.1088
3.01 0.915668 10.1088
3.01 0.890059 10.1088
3.01 0.902228 10.1309
3.01 0.915668 10.1088
3.01 0.826927 9.91129
3.01 0.801709 9.9113
3.01 0.814318 9.93311
3.01 0.864816 9.9768
3.01 0.890186 9.9768
3.01 0.877308 9.95493
3.01 0.877308 9.95493
3.01 0.852122 9.95494
3.01 0.864816 9.9768
3.01 0.890186 9.9768
3.01 0.902362 9.95493
3.01 0.877308 9.95493
3.01 0.902362 9.95493
3.01 0.890186 9.9768
3.01 0.915805 9.9768
3.01 0.902362 9.95493
3.01 0.915805 9.9768
3.01 0.926964 9.95492
3.01 0.915835 9.93309
3.01 0.902362 9.95493
3.01 0.926964 9.95492
3.01 0.942171 9.93309
3.01 0.915835 9.93309
3.01 0.926964 9.95492
3.01 0.915835 9.93309
3.01 0.942171 9.93309
3.01 0.926978 9.91127
3.01 0.942171 9.93309
3.01 0.95 9.91127
3.01 0.926978 9.91127
3.01 0.87737 9.78081
3.01 0.902417 9.7808
3.01 0.890277 9.75911
3.01 0.852144 9.91128
3.01 0.864842 9.93309
3.01 0.877329 9.91128
3.01 0.877308 9.95493
3.01 0.864842 9.93309
3.01 0.852122 9.95494
3.01 0.902396 9.86772
3.01 0.890234 9.88949
3.01 0.915858 9.88948
3.01 0.926997 9.82423
3.01 0.95 9.82423
3.01 0.942237 9.80251
3.01 0.91589 9.80251
3.01 0.926997 9.82423
3.01 0.942237 9.80251
3.01 0.942199 9.88948
3.01 0.95 9.91127
3.01 0.95 9.86771
3.01 0.95 9.91127
3.01 0.942199 9.88948
3.01 0.926978 9.91127
3.01 0.942199 9.88948
3.01 0.915858 9.88948
3.01 0.926978 9.91127
3.01 0.95 9.82423
3.01 0.942221 9.84597
3.01 0.95 9.86771
3.01 0.942221 9.84597
3.01 0.95 9.82423
3.01 0.926997 9.82423
3.01 0.915876 9.84597
3.01 0.942221 9.84597
3.01 0.926997 9.82423
3.01 0.926989 9.86771
3.01 0.902396 9.86772
3.01 0.915858 9.88948
3.01 0.902396 9.86772
3.01 0.926989 9.86771
3.01 0.915876 9.84597
3.01 0.926989 9.86771
3.01 0.915858 9.88948
3.01 0.942199 9.88948
3.01 0.95 9.86771
3.01 0.926989 9.86771
3.01 0.942199 9.88948
3.01 0.915876 9.84597
3.01 0.926989 9.86771
3.01 0.942221 9.84597
3.01 0.926989 9.86771
3.01 0.95 9.86771
3.01 0.942221 9.84597
3.01 0.91353 10.3319
3.01 0.939636 10.332
3.01 0.926054 10.3095
3.01 0.926728 10.2649
3.01 0.941491 10.2876
3.01 0.95 10.2651
3.01 0.926728 10.2649
3.01 0.95 10.2651
3.01 0.941822 10.2425
3.01 0.95 10.3103
3.01 0.939636 10.332
3.01 0.95 10.3533
3.01 0.95 10.3103
3.01 0.941491 10.2876
3.01 0.926054 10.3095
3.01 0.939636 10.332
3.01 0.95 10.3103
3.01 0.926054 10.3095
3.01 0.941491 10.2876
3.01 0.95 10.3103
3.01 0.95 10.2651
3.01 0.941869 10.1977
3.01 0.95 10.1754
3.01 0.926844 10.1754
3.01 0.762942 10.3323
3.01 0.737933 10.3323
3.01 0.75028 10.3549
3.01 0.71291 10.3324
3.01 0.737933 10.3323
3.01 0.725533 10.3099
3.01 0.71291 10.3324
3.01 0.725313 10.3549
3.01 0.737933 10.3323
3.01 0.725313 10.3549
3.01 0.75028 10.3549
3.01 0.737933 10.3323
[...]
<PointData Scalars="View Factor" >
<DataArray type="Float64" Name="View Factor" NumberOfComponents="1" format="ascii">
8.15121e-06
8.15121e-06
8.15121e-06
9.48243e-06
9.48243e-06
9.48243e-06
9.44724e-06
9.44724e-06
9.44724e-06
9.47092e-06
9.47092e-06
9.47092e-06
9.48269e-06
9.48269e-06
9.48269e-06
9.47068e-06
9.47068e-06
9.47068e-06
9.48213e-06
9.48213e-06
9.48213e-06
9.47041e-06
9.47041e-06
9.47041e-06
9.44797e-06
9.44797e-06
9.44797e-06
8.27125e-06
8.27125e-06
8.27125e-06
9.47937e-06
9.47937e-06
9.47937e-06
9.44699e-06
9.44699e-06
9.44699e-06
9.43531e-06
9.43531e-06
9.43531e-06
9.44672e-06
9.44672e-06
9.44672e-06
9.39963e-06
9.39963e-06
9.39963e-06
9.43505e-06
9.43505e-06
9.43505e-06
9.41151e-06
9.41151e-06
9.41151e-06
9.47009e-06
9.47009e-06
9.47009e-06
9.43557e-06
9.43557e-06
9.43557e-06
9.41205e-06
9.41205e-06
9.41205e-06
9.4359e-06
9.4359e-06
9.4359e-06
9.44751e-06
9.44751e-06
9.44751e-06
9.3653e-06
9.3653e-06
9.3653e-06
9.40101e-06
9.40101e-06
9.40101e-06
9.37764e-06
9.37764e-06
9.37764e-06
9.41242e-06
9.41242e-06
9.41242e-06
9.40052e-06
9.40052e-06
9.40052e-06
9.36569e-06
9.36569e-06
9.36569e-06
9.37715e-06
9.37715e-06
9.37715e-06
9.48344e-06
9.48344e-06
9.48344e-06
9.47154e-06
9.47154e-06
9.47154e-06
8.21032e-06
8.21032e-06
8.21032e-06
8.19032e-06
8.19032e-06
8.19032e-06
8.15894e-06
8.15894e-06
8.15894e-06
8.16959e-06
8.16959e-06
8.16959e-06
8.58742e-06
8.58742e-06
8.58742e-06
8.72669e-06
8.72669e-06
8.72669e-06
8.70525e-06
8.70525e-06
8.70525e-06
8.52361e-06
8.52361e-06
8.52361e-06
9.15113e-06
9.15113e-06
9.15113e-06
9.21958e-06
9.21958e-06
9.21958e-06
8.85092e-06
8.85092e-06
8.85092e-06
8.8073e-06
8.8073e-06
8.8073e-06
8.84058e-06
8.84058e-06
8.84058e-06
8.81876e-06
8.81876e-06
8.81876e-06
8.77171e-06
8.77171e-06
8.77171e-06
8.8049e-06
8.8049e-06
8.8049e-06
8.78318e-06
8.78318e-06
8.78318e-06
8.77294e-06
8.77294e-06
8.77294e-06
8.78439e-06
8.78439e-06
8.78439e-06
8.13402e-06
8.13402e-06
8.13402e-06
8.41303e-06
8.41303e-06
8.41303e-06
8.43357e-06
8.43357e-06
8.43357e-06
8.45505e-06
8.45505e-06
8.45505e-06
8.47611e-06
8.47611e-06
8.47611e-06
8.49675e-06
8.49675e-06
8.49675e-06
8.51834e-06
8.51834e-06
8.51834e-06
8.14725e-06
8.14725e-06
8.14725e-06
8.14636e-06
8.14636e-06
8.14636e-06
8.15702e-06
8.15702e-06
8.15702e-06
8.79181e-06
8.79181e-06
8.79181e-06
8.7814e-06
8.7814e-06
8.7814e-06
9.46722e-06
9.46722e-06
9.46722e-06
9.48178e-06
9.48178e-06
9.48178e-06
9.44641e-06
9.44641e-06
9.44641e-06
9.41122e-06
9.41122e-06
9.41122e-06
9.43477e-06
9.43477e-06
9.43477e-06
9.31948e-06
9.31948e-06
9.31948e-06
9.34273e-06
9.34273e-06
9.34273e-06
9.36615e-06
9.36615e-06
9.36615e-06
9.40019e-06
9.40019e-06
9.40019e-06
9.3768e-06
9.3768e-06
9.3768e-06
9.41178e-06
9.41178e-06
9.41178e-06
9.39991e-06
9.39991e-06
9.39991e-06
9.48291e-06
9.48291e-06
9.48291e-06
9.47116e-06
9.47116e-06
9.47116e-06
9.48313e-06
9.48313e-06
9.48313e-06
8.23035e-06
8.23035e-06
8.23035e-06
8.25077e-06
8.25077e-06
8.25077e-06
8.26139e-06
8.26139e-06
8.26139e-06
8.29221e-06
8.29221e-06
8.29221e-06
8.28199e-06
8.28199e-06
8.28199e-06
8.16176e-06
8.16176e-06
8.16176e-06
8.70512e-06
8.70512e-06
8.70512e-06
8.69442e-06
8.69442e-06
8.69442e-06
8.69453e-06
8.69453e-06
8.69453e-06
8.71609e-06
8.71609e-06
8.71609e-06
8.46013e-06
8.46013e-06
8.46013e-06
8.50241e-06
8.50241e-06
8.50241e-06
8.48125e-06
8.48125e-06
8.48125e-06
9.08335e-06
9.08335e-06
9.08335e-06
9.12895e-06
9.12895e-06
9.12895e-06
9.0958e-06
9.0958e-06
9.0958e-06
9.10636e-06
9.10636e-06
9.10636e-06
9.06138e-06
9.06138e-06
9.06138e-06
9.0733e-06
9.0733e-06
9.0733e-06
8.93506e-06
8.93506e-06
8.93506e-06
8.93372e-06
8.93372e-06
8.93372e-06
8.94543e-06
8.94543e-06
8.94543e-06
8.87161e-06
8.87161e-06
8.87161e-06
8.8485e-06
8.8485e-06
8.8485e-06
8.77414e-06
8.77414e-06
8.77414e-06
8.78557e-06
8.78557e-06
8.78557e-06
8.45642e-06
8.45642e-06
8.45642e-06
8.44517e-06
8.44517e-06
8.44517e-06
8.42416e-06
8.42416e-06
8.42416e-06
8.4144e-06
8.4144e-06
8.4144e-06
8.47749e-06
8.47749e-06
8.47749e-06
8.51972e-06
8.51972e-06
8.51972e-06
8.48729e-06
8.48729e-06
8.48729e-06
8.50841e-06
8.50841e-06
8.50841e-06
8.50982e-06
8.50982e-06
8.50982e-06
8.4887e-06
8.4887e-06
8.4887e-06
8.78192e-06
8.78192e-06
8.78192e-06
8.70302e-06
8.70302e-06
8.70302e-06
8.71446e-06
8.71446e-06
8.71446e-06
8.7131e-06
8.7131e-06
8.7131e-06
8.70163e-06
8.70163e-06
8.70163e-06
8.71169e-06
8.71169e-06
8.71169e-06
8.73324e-06
8.73324e-06
8.73324e-06
8.74327e-06
8.74327e-06
8.74327e-06
8.76488e-06
8.76488e-06
8.76488e-06
8.77504e-06
8.77504e-06
8.77504e-06
8.99736e-06
8.99736e-06
8.99736e-06
8.77928e-06
8.77928e-06
8.77928e-06
8.73602e-06
8.73602e-06
8.73602e-06
8.83151e-06
8.83151e-06
8.83151e-06
8.92798e-06
8.92798e-06
8.92798e-06
8.9397e-06
8.9397e-06
8.9397e-06
8.818e-06
8.818e-06
8.818e-06
8.79673e-06
8.79673e-06
8.79673e-06
8.80826e-06
8.80826e-06
8.80826e-06
8.88354e-06
8.88354e-06
8.88354e-06
8.90597e-06
8.90597e-06
8.90597e-06
8.89566e-06
8.89566e-06
8.89566e-06
8.84171e-06
8.84171e-06
8.84171e-06
8.86356e-06
8.86356e-06
8.86356e-06
8.83003e-06
8.83003e-06
8.83003e-06
8.84026e-06
8.84026e-06
8.84026e-06
8.87373e-06
8.87373e-06
8.87373e-06
8.86211e-06
8.86211e-06
8.86211e-06
8.19616e-06
8.19616e-06
8.19616e-06
8.26689e-06
8.26689e-06
8.26689e-06
8.28767e-06
8.28767e-06
8.28767e-06
8.18496e-06
8.18496e-06
8.18496e-06
8.22564e-06
8.22564e-06
8.22564e-06
8.20536e-06
8.20536e-06
8.20536e-06
8.24558e-06
8.24558e-06
8.24558e-06
8.39206e-06
8.39206e-06
8.39206e-06
8.18347e-06
8.18347e-06
8.18347e-06
8.20501e-06
8.20501e-06
8.20501e-06
8.18445e-06
8.18445e-06
8.18445e-06
8.1737e-06
8.1737e-06
8.1737e-06
8.14348e-06
8.14348e-06
8.14348e-06
8.15321e-06
8.15321e-06
8.15321e-06
8.14246e-06
8.14246e-06
8.14246e-06
8.27963e-06
8.27963e-06
8.27963e-06
8.24623e-06
8.24623e-06
8.24623e-06
8.21578e-06
8.21578e-06
8.21578e-06
8.23639e-06
8.23639e-06
8.23639e-06
8.21764e-06
8.21764e-06
8.21764e-06
8.23826e-06
8.23826e-06
8.23826e-06
8.17834e-06
8.17834e-06
8.17834e-06
8.15789e-06
8.15789e-06
8.15789e-06
8.14811e-06
8.14811e-06
8.14811e-06
8.82901e-06
8.82901e-06
8.82901e-06
8.78048e-06
8.78048e-06
8.78048e-06
8.71734e-06
8.71734e-06
8.71734e-06
8.69491e-06
8.69491e-06
8.69491e-06
8.71647e-06
8.71647e-06
8.71647e-06
8.7277e-06
8.7277e-06
8.7277e-06
8.75971e-06
8.75971e-06
8.75971e-06
8.74932e-06
8.74932e-06
8.74932e-06
8.69578e-06
8.69578e-06
8.69578e-06
8.68459e-06
8.68459e-06
8.68459e-06
8.56732e-06
8.56732e-06
8.56732e-06
8.7126e-06
8.7126e-06
8.7126e-06
8.7239e-06
8.7239e-06
8.7239e-06
8.75007e-06
8.75007e-06
8.75007e-06
8.70692e-06
8.70692e-06
8.70692e-06
9.48047e-06
9.48047e-06
9.48047e-06
9.48095e-06
9.48095e-06
9.48095e-06
9.46886e-06
9.46886e-06
9.46886e-06
9.44521e-06
9.44521e-06
9.44521e-06
9.45423e-06
9.45423e-06
9.45423e-06
8.9143e-06
8.9143e-06
8.9143e-06
8.87038e-06
8.87038e-06
8.87038e-06
8.90393e-06
8.90393e-06
8.90393e-06
8.88196e-06
8.88196e-06
8.88196e-06
8.88318e-06
8.88318e-06
8.88318e-06
8.87281e-06
8.87281e-06
8.87281e-06
9.43317e-06
9.43317e-06
9.43317e-06
9.47875e-06
9.47875e-06
9.47875e-06
9.46902e-06
9.46902e-06
9.46902e-06
9.12085e-06
9.12085e-06
9.12085e-06
9.13242e-06
9.13242e-06
9.13242e-06
9.38981e-06
9.38981e-06
9.38981e-06
9.46016e-06
9.46016e-06
9.46016e-06
9.4366e-06
9.4366e-06
9.4366e-06
9.41311e-06
9.41311e-06
9.41311e-06
8.25127e-06
8.25127e-06
8.25127e-06
8.1519e-06
8.1519e-06
8.1519e-06
8.5661e-06
8.5661e-06
8.5661e-06
8.54483e-06
8.54483e-06
8.54483e-06
8.67291e-06
8.67291e-06
8.67291e-06
9.29435e-06
9.29435e-06
9.29435e-06
8.56585e-06
8.56585e-06
8.56585e-06
8.54458e-06
8.54458e-06
8.54458e-06
8.73741e-06
8.73741e-06
8.73741e-06
8.72651e-06
8.72651e-06
8.72651e-06
8.75921e-06
8.75921e-06
8.75921e-06
8.73756e-06
8.73756e-06
8.73756e-06
8.73767e-06
8.73767e-06
8.73767e-06
8.72682e-06
8.72682e-06
8.72682e-06
8.78103e-06
8.78103e-06
8.78103e-06
8.75932e-06
8.75932e-06
8.75932e-06
8.77011e-06
8.77011e-06
8.77011e-06
8.79182e-06
8.79182e-06
8.79182e-06
8.80275e-06
8.80275e-06
8.80275e-06
8.80098e-06
8.80098e-06
8.80098e-06
8.81116e-06
8.81116e-06
8.81116e-06
9.06289e-06
9.06289e-06
9.06289e-06
8.91301e-06
8.91301e-06
8.91301e-06
8.90266e-06
8.90266e-06
8.90266e-06
8.8807e-06
8.8807e-06
8.8807e-06
8.94407e-06
8.94407e-06
8.94407e-06
8.93234e-06
8.93234e-06
8.93234e-06
9.00921e-06
9.00921e-06
9.00921e-06
9.14099e-06
9.14099e-06
9.14099e-06
9.07244e-06
9.07244e-06
9.07244e-06
8.84973e-06
8.84973e-06
8.84973e-06
8.80612e-06
8.80612e-06
8.80612e-06
8.81639e-06
8.81639e-06
8.81639e-06
8.8382e-06
8.8382e-06
8.8382e-06
8.83941e-06
8.83941e-06
8.83941e-06
8.8176e-06
8.8176e-06
8.8176e-06
8.75248e-06
8.75248e-06
8.75248e-06
8.74225e-06
8.74225e-06
8.74225e-06
8.77529e-06
8.77529e-06
8.77529e-06
8.75363e-06
8.75363e-06
8.75363e-06
8.69001e-06
8.69001e-06
8.69001e-06
8.67873e-06
8.67873e-06
8.67873e-06
8.74551e-06
8.74551e-06
8.74551e-06
8.68015e-06
8.68015e-06
8.68015e-06
8.52108e-06
8.52108e-06
8.52108e-06
8.54358e-06
8.54358e-06
8.54358e-06
8.54226e-06
8.54226e-06
8.54226e-06
8.55352e-06
8.55352e-06
8.55352e-06
8.21383e-06
8.21383e-06
8.21383e-06
8.20403e-06
8.20403e-06
8.20403e-06
8.21481e-06
8.21481e-06
8.21481e-06
8.23543e-06
8.23543e-06
8.23543e-06
8.3282e-06
8.3282e-06
8.3282e-06
8.26284e-06
8.26284e-06
8.26284e-06
8.2422e-06
8.2422e-06
8.2422e-06
8.3556e-06
8.3556e-06
8.3556e-06
8.33594e-06
8.33594e-06
8.33594e-06
8.36542e-06
8.36542e-06
8.36542e-06
8.8691e-06
8.8691e-06
8.8691e-06
8.77044e-06
8.77044e-06
8.77044e-06
8.78062e-06
8.78062e-06
8.78062e-06
8.76912e-06
8.76912e-06
8.76912e-06
8.74749e-06
8.74749e-06
8.74749e-06
8.68288e-06
8.68288e-06
8.68288e-06
8.70437e-06
8.70437e-06
8.70437e-06
8.77648e-06
8.77648e-06
8.77648e-06
8.79959e-06
8.79959e-06
8.79959e-06
8.79817e-06
8.79817e-06
8.79817e-06
8.80974e-06
8.80974e-06
8.80974e-06
8.73181e-06
8.73181e-06
8.73181e-06
8.75294e-06
8.75294e-06
8.75294e-06
8.87522e-06
8.87522e-06
8.87522e-06
8.9103e-06
8.9103e-06
8.9103e-06
8.8986e-06
8.8986e-06
8.8986e-06
8.96333e-06
8.96333e-06
8.96333e-06
8.94267e-06
8.94267e-06
8.94267e-06
8.97515e-06
8.97515e-06
8.97515e-06
8.96479e-06
8.96479e-06
8.96479e-06
9.00774e-06
9.00774e-06
9.00774e-06
9.03004e-06
9.03004e-06
9.03004e-06
9.04049e-06
9.04049e-06
9.04049e-06
8.17938e-06
8.17938e-06
8.17938e-06
8.20101e-06
8.20101e-06
8.20101e-06
8.16554e-06
8.16554e-06
8.16554e-06
8.17591e-06
8.17591e-06
8.17591e-06
8.14509e-06
8.14509e-06
8.14509e-06
8.20713e-06
8.20713e-06
8.20713e-06
8.26862e-06
8.26862e-06
8.26862e-06
8.22758e-06
8.22758e-06
8.22758e-06
8.23689e-06
8.23689e-06
8.23689e-06
8.25738e-06
8.25738e-06
8.25738e-06
8.30422e-06
8.30422e-06
8.30422e-06
8.33479e-06
8.33479e-06
8.33479e-06
8.32498e-06
8.32498e-06
8.32498e-06
8.32379e-06
8.32379e-06
8.32379e-06
8.39343e-06
8.39343e-06
8.39343e-06
8.38223e-06
8.38223e-06
8.38223e-06
8.2988e-06
8.2988e-06
8.2988e-06
8.28926e-06
8.28926e-06
8.28926e-06
8.2069e-06
8.2069e-06
8.2069e-06
8.20596e-06
8.20596e-06
8.20596e-06
8.21672e-06
8.21672e-06
8.21672e-06
8.14447e-06
8.14447e-06
8.14447e-06
8.1542e-06
8.1542e-06
8.1542e-06
8.17468e-06
8.17468e-06
8.17468e-06
8.18542e-06
8.18542e-06
8.18542e-06
8.14902e-06
8.14902e-06
8.14902e-06
8.18043e-06
8.18043e-06
8.18043e-06
8.16963e-06
8.16963e-06
8.16963e-06
8.13925e-06
8.13925e-06
8.13925e-06
8.1727e-06
8.1727e-06
8.1727e-06
8.15219e-06
8.15219e-06
8.15219e-06
8.26691e-06
8.26691e-06
8.26691e-06
8.27775e-06
8.27775e-06
8.27775e-06
8.42482e-06
8.42482e-06
8.42482e-06
8.43484e-06
8.43484e-06
8.43484e-06
8.36991e-06
8.36991e-06
8.36991e-06
8.29849e-06
8.29849e-06
8.29849e-06
8.30839e-06
8.30839e-06
8.30839e-06
8.30038e-06
8.30038e-06
8.30038e-06
8.35998e-06
8.35998e-06
8.35998e-06
8.33911e-06
8.33911e-06
8.33911e-06
8.3292e-06
8.3292e-06
8.3292e-06
8.34011e-06
8.34011e-06
8.34011e-06
8.24719e-06
8.24719e-06
8.24719e-06
8.26881e-06
8.26881e-06
8.26881e-06
8.24812e-06
8.24812e-06
8.24812e-06
8.23733e-06
8.23733e-06
8.23733e-06
8.2787e-06
8.2787e-06
8.2787e-06
8.26787e-06
8.26787e-06
8.26787e-06
8.20781e-06
8.20781e-06
8.20781e-06
8.18727e-06
8.18727e-06
8.18727e-06
8.17747e-06
8.17747e-06
8.17747e-06
8.18816e-06
8.18816e-06
8.18816e-06
8.24903e-06
8.24903e-06
8.24903e-06
8.26972e-06
8.26972e-06
8.26972e-06
8.28053e-06
8.28053e-06
8.28053e-06
8.47064e-06
8.47064e-06
8.47064e-06
8.49178e-06
8.49178e-06
8.49178e-06
8.88809e-06
8.88809e-06
8.88809e-06
8.80062e-06
8.80062e-06
8.80062e-06
8.8993e-06
8.8993e-06
8.8993e-06
8.8885e-06
8.8885e-06
8.8885e-06
8.78952e-06
8.78952e-06
8.78952e-06
8.81845e-06
8.81845e-06
8.81845e-06
8.82971e-06
8.82971e-06
8.82971e-06
8.72115e-06
8.72115e-06
8.72115e-06
8.73162e-06
8.73162e-06
8.73162e-06
8.75254e-06
8.75254e-06
8.75254e-06
8.69958e-06
8.69958e-06
8.69958e-06
8.68914e-06
8.68914e-06
8.68914e-06
8.66764e-06
8.66764e-06
8.66764e-06
8.65657e-06
8.65657e-06
8.65657e-06
8.79086e-06
8.79086e-06
8.79086e-06
8.75879e-06
8.75879e-06
8.75879e-06
8.74843e-06
8.74843e-06
8.74843e-06
8.72681e-06
8.72681e-06
8.72681e-06
8.71555e-06
8.71555e-06
8.71555e-06
8.62475e-06
8.62475e-06
8.62475e-06
8.63513e-06
8.63513e-06
8.63513e-06
8.68544e-06
8.68544e-06
8.68544e-06
8.6631e-06
8.6631e-06
8.6631e-06
8.72046e-06
8.72046e-06
8.72046e-06
8.73091e-06
8.73091e-06
8.73091e-06
8.62266e-06
8.62266e-06
8.62266e-06
8.63298e-06
8.63298e-06
8.63298e-06
8.69208e-06
8.69208e-06
8.69208e-06
8.71362e-06
8.71362e-06
8.71362e-06
8.68542e-06
8.68542e-06
8.68542e-06
8.51605e-06
8.51605e-06
8.51605e-06
9.48139e-06
9.48139e-06
9.48139e-06
9.46932e-06
9.46932e-06
9.46932e-06
9.46973e-06
9.46973e-06
9.46973e-06
9.24303e-06
9.24303e-06
9.24303e-06
9.28877e-06
9.28877e-06
9.28877e-06
9.26609e-06
9.26609e-06
9.26609e-06
9.45662e-06
9.45662e-06
9.45662e-06
9.46143e-06
9.46143e-06
9.46143e-06
9.46543e-06
9.46543e-06
9.46543e-06
8.91555e-06
8.91555e-06
8.91555e-06
8.90516e-06
8.90516e-06
8.90516e-06
8.91676e-06
8.91676e-06
8.91676e-06
8.93882e-06
8.93882e-06
8.93882e-06
8.88437e-06
8.88437e-06
8.88437e-06
8.90634e-06
8.90634e-06
8.90634e-06
9.46836e-06
9.46836e-06
9.46836e-06
9.44471e-06
9.44471e-06
9.44471e-06
9.47994e-06
9.47994e-06
9.47994e-06
9.46781e-06
9.46781e-06
9.46781e-06
9.44358e-06
9.44358e-06
9.44358e-06
9.43148e-06
9.43148e-06
9.43148e-06
9.40796e-06
9.40796e-06
9.40796e-06
9.40731e-06
9.40731e-06
9.40731e-06
9.39591e-06
9.39591e-06
9.39591e-06
9.36113e-06
9.36113e-06
9.36113e-06
9.37249e-06
9.37249e-06
9.37249e-06
9.47663e-06
9.47663e-06
9.47663e-06
9.45775e-06
9.45775e-06
9.45775e-06
9.09827e-06
9.09827e-06
9.09827e-06
9.05331e-06
9.05331e-06
9.05331e-06
9.42688e-06
9.42688e-06
9.42688e-06
9.43364e-06
9.43364e-06
9.43364e-06
9.4101e-06
9.4101e-06
9.4101e-06
9.44566e-06
9.44566e-06
9.44566e-06
8.38506e-06
8.38506e-06
8.38506e-06
8.34234e-06
8.34234e-06
8.34234e-06
8.28123e-06
8.28123e-06
8.28123e-06
8.28161e-06
8.28161e-06
8.28161e-06
8.2918e-06
8.2918e-06
8.2918e-06
8.34398e-06
8.34398e-06
8.34398e-06
8.31258e-06
8.31258e-06
8.31258e-06
8.32315e-06
8.32315e-06
8.32315e-06
8.29141e-06
8.29141e-06
8.29141e-06
8.26157e-06
8.26157e-06
8.26157e-06
8.3131e-06
8.3131e-06
8.3131e-06
8.33396e-06
8.33396e-06
8.33396e-06
8.16244e-06
8.16244e-06
8.16244e-06
8.21402e-06
8.21402e-06
8.21402e-06
8.19347e-06
8.19347e-06
8.19347e-06
8.1829e-06
8.1829e-06
8.1829e-06
8.25528e-06
8.25528e-06
8.25528e-06
8.21525e-06
8.21525e-06
8.21525e-06
8.1947e-06
8.1947e-06
8.1947e-06
8.57658e-06
8.57658e-06
8.57658e-06
8.566e-06
8.566e-06
8.566e-06
8.5767e-06
8.5767e-06
8.5767e-06
8.51296e-06
8.51296e-06
8.51296e-06
8.53417e-06
8.53417e-06
8.53417e-06
8.50231e-06
8.50231e-06
8.50231e-06
8.51284e-06
8.51284e-06
8.51284e-06
8.54473e-06
8.54473e-06
8.54473e-06
8.53405e-06
8.53405e-06
8.53405e-06
8.6621e-06
8.6621e-06
8.6621e-06
8.64048e-06
8.64048e-06
8.64048e-06
8.65157e-06
8.65157e-06
8.65157e-06
8.67302e-06
8.67302e-06
8.67302e-06
8.66224e-06
8.66224e-06
8.66224e-06
9.29616e-06
9.29616e-06
9.29616e-06
9.12369e-06
9.12369e-06
9.12369e-06
9.16906e-06
9.16906e-06
9.16906e-06
9.05431e-06
9.05431e-06
9.05431e-06
9.03192e-06
9.03192e-06
9.03192e-06
9.04554e-06
9.04554e-06
9.04554e-06
8.97863e-06
8.97863e-06
8.97863e-06
8.95642e-06
8.95642e-06
8.95642e-06
9.11304e-06
9.11304e-06
9.11304e-06
9.13554e-06
9.13554e-06
9.13554e-06
9.15824e-06
9.15824e-06
9.15824e-06
9.13565e-06
9.13565e-06
9.13565e-06
9.12428e-06
9.12428e-06
9.12428e-06
9.13514e-06
9.13514e-06
9.13514e-06
9.15783e-06
9.15783e-06
9.15783e-06
9.19234e-06
9.19234e-06
9.19234e-06
9.16954e-06
9.16954e-06
9.16954e-06
9.15806e-06
9.15806e-06
9.15806e-06
9.16933e-06
9.16933e-06
9.16933e-06
9.27127e-06
9.27127e-06
9.27127e-06
8.50217e-06
8.50217e-06
8.50217e-06
8.48102e-06
8.48102e-06
8.48102e-06
8.69426e-06
8.69426e-06
8.69426e-06
8.70493e-06
8.70493e-06
8.70493e-06
8.67275e-06
8.67275e-06
8.67275e-06
8.66192e-06
8.66192e-06
8.66192e-06
8.7372e-06
8.7372e-06
8.7372e-06
8.91226e-06
8.91226e-06
8.91226e-06
8.92321e-06
8.92321e-06
8.92321e-06
8.9343e-06
8.9343e-06
8.9343e-06
8.93418e-06
8.93418e-06
8.93418e-06
8.92307e-06
8.92307e-06
8.92307e-06
8.80263e-06
8.80263e-06
8.80263e-06
8.82442e-06
8.82442e-06
8.82442e-06
8.90062e-06
8.90062e-06
8.90062e-06
8.75905e-06
8.75905e-06
8.75905e-06
8.80248e-06
8.80248e-06
8.80248e-06
8.76997e-06
8.76997e-06
8.76997e-06
8.79169e-06
8.79169e-06
8.79169e-06
9.1068e-06
9.1068e-06
9.1068e-06
9.08428e-06
9.08428e-06
9.08428e-06
8.96756e-06
8.96756e-06
8.96756e-06
9.04197e-06
9.04197e-06
9.04197e-06
9.03152e-06
9.03152e-06
9.03152e-06
8.97658e-06
8.97658e-06
8.97658e-06
8.9988e-06
8.9988e-06
8.9988e-06
8.9662e-06
8.9662e-06
8.9662e-06
8.97797e-06
8.97797e-06
8.97797e-06
8.97932e-06
8.97932e-06
8.97932e-06
9.00154e-06
9.00154e-06
9.00154e-06
9.10788e-06
9.10788e-06
9.10788e-06
9.13048e-06
9.13048e-06
9.13048e-06
8.74108e-06
8.74108e-06
8.74108e-06
8.75129e-06
8.75129e-06
8.75129e-06
8.73988e-06
8.73988e-06
8.73988e-06
8.7183e-06
8.7183e-06
8.7183e-06
8.70814e-06
8.70814e-06
8.70814e-06
8.7195e-06
8.7195e-06
8.7195e-06
8.74337e-06
8.74337e-06
8.74337e-06
8.72178e-06
8.72178e-06
8.72178e-06
8.72286e-06
8.72286e-06
8.72286e-06
8.71154e-06
8.71154e-06
8.71154e-06
8.7867e-06
8.7867e-06
8.7867e-06
8.81989e-06
8.81989e-06
8.81989e-06
8.80844e-06
8.80844e-06
8.80844e-06
8.69107e-06
8.69107e-06
8.69107e-06
8.67979e-06
8.67979e-06
8.67979e-06
8.68083e-06
8.68083e-06
8.68083e-06
8.54841e-06
8.54841e-06
8.54841e-06
8.5272e-06
8.5272e-06
8.5272e-06
8.64003e-06
8.64003e-06
8.64003e-06
8.66874e-06
8.66874e-06
8.66874e-06
8.68154e-06
8.68154e-06
8.68154e-06
8.67013e-06
8.67013e-06
8.67013e-06
8.67149e-06
8.67149e-06
8.67149e-06
8.65007e-06
8.65007e-06
8.65007e-06
8.57339e-06
8.57339e-06
8.57339e-06
8.54089e-06
8.54089e-06
8.54089e-06
8.55216e-06
8.55216e-06
8.55216e-06
8.47884e-06
8.47884e-06
8.47884e-06
8.42556e-06
8.42556e-06
8.42556e-06
8.44657e-06
8.44657e-06
8.44657e-06
8.45778e-06
8.45778e-06
8.45778e-06
8.44791e-06
8.44791e-06
8.44791e-06
8.3863e-06
8.3863e-06
8.3863e-06
8.23345e-06
8.23345e-06
8.23345e-06
8.21182e-06
8.21182e-06
8.21182e-06
8.23242e-06
8.23242e-06
8.23242e-06
8.24325e-06
8.24325e-06
8.24325e-06
8.24427e-06
8.24427e-06
8.24427e-06
8.24526e-06
8.24526e-06
8.24526e-06
8.23445e-06
8.23445e-06
8.23445e-06
8.26494e-06
8.26494e-06
8.26494e-06
8.23135e-06
8.23135e-06
8.23135e-06
8.19994e-06
8.19994e-06
8.19994e-06
8.21077e-06
8.21077e-06
8.21077e-06
8.24109e-06
8.24109e-06
8.24109e-06
8.29442e-06
8.29442e-06
8.29442e-06
8.27371e-06
8.27371e-06
8.27371e-06
8.26391e-06
8.26391e-06
8.26391e-06
8.27477e-06
8.27477e-06
8.27477e-06
8.38365e-06
8.38365e-06
8.38365e-06
8.36275e-06
8.36275e-06
8.36275e-06
8.35436e-06
8.35436e-06
8.35436e-06
8.33355e-06
8.33355e-06
8.33355e-06
8.35303e-06
8.35303e-06
8.35303e-06
8.36413e-06
8.36413e-06
8.36413e-06
8.84722e-06
8.84722e-06
8.84722e-06
8.80363e-06
8.80363e-06
8.80363e-06
8.81515e-06
8.81515e-06
8.81515e-06
8.83695e-06
8.83695e-06
8.83695e-06
8.80233e-06
8.80233e-06
8.80233e-06
8.8459e-06
8.8459e-06
8.8459e-06
8.81386e-06
8.81386e-06
8.81386e-06
8.83565e-06
8.83565e-06
8.83565e-06
8.81253e-06
8.81253e-06
8.81253e-06
8.83432e-06
8.83432e-06
8.83432e-06
8.90135e-06
8.90135e-06
8.90135e-06
8.8794e-06
8.8794e-06
8.8794e-06
8.86777e-06
8.86777e-06
8.86777e-06
8.91168e-06