<VTKFile type="UnstructuredGrid" version="1.0">
<UnstructuredGrid>
<Piece NumberOfPoints="8859" NumberOfCells="2953">
<Points>
<DataArray type="Float64" NumberOfComponents="3" format="ascii">
3.01 0.5 8.265
3.01 0.487476 8.2875
3.01 0.512524 8.2875
3.01 0.17352 7.3875
3.01 0.148445 7.3875
3.01 0.160827 7.40922
3.01 0.122979 7.43089
3.01 0.135644 7.40922
3.01 0.110383 7.40921
3.01 0.135644 7.40922
3.01 0.123433 7.3875
3.01 0.110383 7.40921
3.01 0.123433 7.3875
3.01 0.135644 7.40922
3.01 0.148445 7.3875
3.01 0.135644 7.40922
3.01 0.160827 7.40922
3.01 0.148445 7.3875
3.01 0.17352 7.3875
3.01 0.185985 7.4092
3.01 0.198629 7.3875
3.01 0.185985 7.4092
3.01 0.17352 7.3875
3.01 0.160827 7.40922
3.01 0.0732297 7.43067
3.01 0.0848754 7.40914
3.01 0.0586606 7.40881
3.01 0.05 8.22027
3.01 0.058509 8.19756
3.01 0.05 8.1751
3.01 0.324276 7.3875
3.01 0.336827 7.40916
3.01 0.349395 7.3875
3.01 0.148138 7.4309
3.01 0.160827 7.40922
3.01 0.135644 7.40922
3.01 0.122979 7.43089
3.01 0.148138 7.4309
3.01 0.135644 7.40922
3.01 0.160827 7.40922
3.01 0.173316 7.43089
3.01 0.185985 7.4092
3.01 0.185806 7.45255
3.01 0.173316 7.43089
3.01 0.160572 7.45255
3.01 0.173316 7.43089
3.01 0.160827 7.40922
3.01 0.148138 7.4309
3.01 0.160572 7.45255
3.01 0.173316 7.43089
3.01 0.148138 7.4309
3.01 0.211137 7.40919
3.01 0.198629 7.3875
3.01 0.185985 7.4092
3.01 0.0979162 7.43084
3.01 0.122979 7.43089
3.01 0.110383 7.40921
3.01 0.122979 7.43089
3.01 0.0979162 7.43084
3.01 0.109875 7.45249
3.01 0.0732297 7.43067
3.01 0.0979162 7.43084
3.01 0.0848754 7.40914
3.01 0.0979162 7.43084
3.01 0.110383 7.40921
3.01 0.0848754 7.40914
3.01 0.0975729 7.47404
3.01 0.122678 7.47414
3.01 0.109875 7.45249
3.01 0.0841718 7.45235
3.01 0.0732297 7.43067
3.01 0.0577122 7.45202
3.01 0.0729308 7.47388
3.01 0.0841718 7.45235
3.01 0.0577122 7.45202
3.01 0.0732297 7.43067
3.01 0.0841718 7.45235
3.01 0.0979162 7.43084
3.01 0.0841718 7.45235
3.01 0.109875 7.45249
3.01 0.0979162 7.43084
3.01 0.0975729 7.47404
3.01 0.0841718 7.45235
3.01 0.0729308 7.47388
3.01 0.0841718 7.45235
3.01 0.0975729 7.47404
3.01 0.109875 7.45249
3.01 0.073948 7.3875
3.01 0.05 7.3875
3.01 0.0586606 7.40881
3.01 0.073948 7.3875
3.01 0.0586606 7.40881
3.01 0.0848754 7.40914
3.01 0.05 8.26329
3.01 0.0603641 8.24197
3.01 0.05 8.22027
3.01 0.0603641 8.24197
3.01 0.05 8.26329
3.01 0.0753197 8.26399
3.01 0.0709395 8.2875
3.01 0.05 8.26329
3.01 0.05 8.2875
3.01 0.05 8.26329
3.01 0.0709395 8.2875
3.01 0.0753197 8.26399
3.01 0.0579641 7.97463
3.01 0.05 7.95261
3.01 0.05 7.99669
3.01 0.0841948 7.8868
3.01 0.109814 7.8868
3.01 0.097638 7.86493
3.01 0.0841948 7.8868
3.01 0.0578646 7.8868
3.01 0.0730539 7.9087
3.01 0.0580261 8.0188
3.01 0.05 7.99669
3.01 0.05 8.04095
3.01 0.942292 7.58236
3.01 0.95 7.60404
3.01 0.95 7.56067
3.01 0.95 7.51726
3.01 0.942332 7.53897
3.01 0.95 7.56067
3.01 0.73872 7.79953
3.01 0.75132 7.77775
3.01 0.726137 7.77776
3.01 0.751305 7.82132
3.01 0.73872 7.79953
3.01 0.726124 7.82133
3.01 0.713546 7.79954
3.01 0.73872 7.79953
3.01 0.726137 7.77776
3.01 0.73872 7.79953
3.01 0.713546 7.79954
3.01 0.726124 7.82133
3.01 0.814318 7.84311
3.01 0.801709 7.8213
3.01 0.789096 7.84312
3.01 0.7765 7.82131
3.01 0.801709 7.8213
3.01 0.789115 7.79951
3.01 0.801709 7.8213
3.01 0.7765 7.82131
3.01 0.789096 7.84312
3.01 0.7765 7.82131
3.01 0.763892 7.84314
3.01 0.789096 7.84312
3.01 0.763892 7.84314
3.01 0.7765 7.82131
3.01 0.751305 7.82132
3.01 0.95 8.2875
3.01 0.95 8.26329
3.01 0.929061 8.2875
3.01 0.95 8.0854
3.01 0.941913 8.06315
3.01 0.926844 8.0854
3.01 0.941913 8.06315
3.01 0.95 8.0854
3.01 0.95 8.04095
3.01 0.926866 8.04094
3.01 0.941913 8.06315
3.01 0.95 8.04095
3.01 0.941974 8.0188
3.01 0.926866 8.04094
3.01 0.95 8.04095
3.01 0.95 7.99669
3.01 0.941974 8.0188
3.01 0.95 8.04095
3.01 0.941974 8.0188
3.01 0.95 7.99669
3.01 0.926895 7.99669
3.01 0.6127 8.2875
3.01 0.637734 8.2875
3.01 0.625238 8.26498
3.01 0.662757 8.2875
3.01 0.650275 8.26497
3.01 0.637734 8.2875
3.01 0.650275 8.26497
3.01 0.625238 8.26498
3.01 0.637734 8.2875
3.01 0.600415 7.82137
3.01 0.575304 7.82137
3.01 0.587856 7.8432
3.01 0.575304 7.82137
3.01 0.562749 7.8432
3.01 0.587856 7.8432
3.01 0.336827 7.40916
3.01 0.361946 7.40916
3.01 0.349395 7.3875
3.01 0.223755 7.3875
3.01 0.198629 7.3875
3.01 0.211137 7.40919
3.01 0.185985 7.4092
3.01 0.198492 7.43088
3.01 0.211137 7.40919
3.01 0.185806 7.45255
3.01 0.198492 7.43088
3.01 0.173316 7.43089
3.01 0.198492 7.43088
3.01 0.185985 7.4092
3.01 0.173316 7.43089
3.01 0.0576202 7.49553
3.01 0.05 7.47374
3.01 0.05 7.51726
3.01 0.05 7.47374
3.01 0.0576202 7.49553
3.01 0.0729308 7.47388
3.01 0.05 7.47374
3.01 0.0729308 7.47388
3.01 0.0577122 7.45202
3.01 0.135283 7.45254
3.01 0.122979 7.43089
3.01 0.109875 7.45249
3.01 0.135283 7.45254
3.01 0.109875 7.45249
3.01 0.122678 7.47414
3.01 0.122979 7.43089
3.01 0.135283 7.45254
3.01 0.148138 7.4309
3.01 0.135283 7.45254
3.01 0.160572 7.45255
3.01 0.148138 7.4309
3.01 0.123433 7.3875
3.01 0.0985513 7.3875
3.01 0.110383 7.40921
3.01 0.110383 7.40921
3.01 0.0985513 7.3875
3.01 0.0848754 7.40914
3.01 0.0848754 7.40914
3.01 0.0985513 7.3875
3.01 0.073948 7.3875
3.01 0.0603641 8.24197
3.01 0.0739464 8.21949
3.01 0.05 8.22027
3.01 0.0739464 8.21949
3.01 0.058509 8.19756
3.01 0.05 8.22027
3.01 0.058509 8.19756
3.01 0.0739464 8.21949
3.01 0.0849548 8.19711
3.01 0.058509 8.19756
3.01 0.0732725 8.17488
3.01 0.05 8.1751
3.01 0.0732725 8.17488
3.01 0.058509 8.19756
3.01 0.0849548 8.19711
3.01 0.5 8.265
3.01 0.47495 8.265
3.01 0.487476 8.2875
3.01 0.097663 7.9087
3.01 0.109814 7.8868
3.01 0.0841948 7.8868
3.01 0.0730539 7.9087
3.01 0.097663 7.9087
3.01 0.0841948 7.8868
3.01 0.0578646 7.8868
3.01 0.05 7.9087
3.01 0.0730539 7.9087
3.01 0.05 7.9087
3.01 0.0578646 7.8868
3.01 0.05 7.86492
3.01 0.05 8.0854
3.01 0.0580869 8.06315
3.01 0.05 8.04095
3.01 0.05 8.04095
3.01 0.073134 8.04094
3.01 0.0580261 8.0188
3.01 0.073134 8.04094
3.01 0.05 8.04095
3.01 0.0580869 8.06315
3.01 0.942268 7.62573
3.01 0.95 7.64741
3.01 0.95 7.60404
3.01 0.942292 7.58236
3.01 0.927025 7.60404
3.01 0.95 7.60404
3.01 0.927025 7.60404
3.01 0.915919 7.62572
3.01 0.942268 7.62573
3.01 0.95 7.60404
3.01 0.927025 7.60404
3.01 0.942268 7.62573
3.01 0.927013 7.64741
3.01 0.95 7.64741
3.01 0.942268 7.62573
3.01 0.915919 7.62572
3.01 0.927013 7.64741
3.01 0.942268 7.62573
3.01 0.801738 7.73425
3.01 0.826957 7.73425
3.01 0.814364 7.71253
3.01 0.852174 7.73424
3.01 0.839609 7.71252
3.01 0.826957 7.73425
3.01 0.839609 7.71252
3.01 0.814364 7.71253
3.01 0.826957 7.73425
3.01 0.776516 7.77775
3.01 0.763923 7.756
3.01 0.75132 7.77775
3.01 0.776516 7.77775
3.01 0.789115 7.79951
3.01 0.801725 7.77774
3.01 0.738704 7.84315
3.01 0.763892 7.84314
3.01 0.751305 7.82132
3.01 0.726124 7.82133
3.01 0.738704 7.84315
3.01 0.751305 7.82132
3.01 0.915617 8.06314
3.01 0.926866 8.04094
3.01 0.902228 8.04094
3.01 0.926866 8.04094
3.01 0.915617 8.06314
3.01 0.941913 8.06315
3.01 0.915617 8.06314
3.01 0.926844 8.0854
3.01 0.941913 8.06315
3.01 0.915617 8.06314
3.01 0.902193 8.08538
3.01 0.926844 8.0854
3.01 0.926866 8.04094
3.01 0.915668 8.01879
3.01 0.902228 8.04094
3.01 0.902267 7.99668
3.01 0.915668 8.01879
3.01 0.926895 7.99669
3.01 0.915668 8.01879
3.01 0.926866 8.04094
3.01 0.941974 8.0188
3.01 0.926895 7.99669
3.01 0.915668 8.01879
3.01 0.941974 8.0188
3.01 0.902267 7.99668
3.01 0.890059 8.01879
3.01 0.915668 8.01879
3.01 0.890059 8.01879
3.01 0.902228 8.04094
3.01 0.915668 8.01879
3.01 0.826927 7.82129
3.01 0.801709 7.8213
3.01 0.814318 7.84311
3.01 0.864816 7.8868
3.01 0.890186 7.8868
3.01 0.877308 7.86493
3.01 0.877308 7.86493
3.01 0.852122 7.86494
3.01 0.864816 7.8868
3.01 0.890186 7.8868
3.01 0.902362 7.86493
3.01 0.877308 7.86493
3.01 0.902362 7.86493
3.01 0.890186 7.8868
3.01 0.915805 7.8868
3.01 0.902362 7.86493
3.01 0.915805 7.8868
3.01 0.926964 7.86492
3.01 0.915835 7.84309
3.01 0.902362 7.86493
3.01 0.926964 7.86492
3.01 0.942171 7.84309
3.01 0.915835 7.84309
3.01 0.926964 7.86492
3.01 0.915835 7.84309
3.01 0.942171 7.84309
3.01 0.926978 7.82127
3.01 0.942171 7.84309
3.01 0.95 7.82127
3.01 0.926978 7.82127
3.01 0.87737 7.69081
3.01 0.902417 7.6908
3.01 0.890277 7.66911
3.01 0.852144 7.82128
3.01 0.864842 7.84309
3.01 0.877329 7.82128
3.01 0.877308 7.86493
3.01 0.864842 7.84309
3.01 0.852122 7.86494
3.01 0.902396 7.77772
3.01 0.890234 7.79949
3.01 0.915858 7.79948
3.01 0.926997 7.73423
3.01 0.95 7.73423
3.01 0.942237 7.71251
3.01 0.91589 7.71251
3.01 0.926997 7.73423
3.01 0.942237 7.71251
3.01 0.942199 7.79948
3.01 0.95 7.82127
3.01 0.95 7.77771
3.01 0.95 7.82127
3.01 0.942199 7.79948
3.01 0.926978 7.82127
3.01 0.942199 7.79948
3.01 0.915858 7.79948
3.01 0.926978 7.82127
3.01 0.95 7.73423
3.01 0.942221 7.75597
3.01 0.95 7.77771
3.01 0.942221 7.75597
3.01 0.95 7.73423
3.01 0.926997 7.73423
3.01 0.915876 7.75597
3.01 0.942221 7.75597
3.01 0.926997 7.73423
3.01 0.926989 7.77771
3.01 0.902396 7.77772
3.01 0.915858 7.79948
3.01 0.902396 7.77772
3.01 0.926989 7.77771
3.01 0.915876 7.75597
3.01 0.926989 7.77771
3.01 0.915858 7.79948
3.01 0.942199 7.79948
3.01 0.95 7.77771
3.01 0.926989 7.77771
3.01 0.942199 7.79948
3.01 0.915876 7.75597
3.01 0.926989 7.77771
3.01 0.942221 7.75597
3.01 0.926989 7.77771
3.01 0.95 7.77771
3.01 0.942221 7.75597
3.01 0.91353 8.24185
3.01 0.939636 8.24197
3.01 0.926054 8.21949
3.01 0.926728 8.17488
3.01 0.941491 8.19756
3.01 0.95 8.1751
3.01 0.926728 8.17488
3.01 0.95 8.1751
3.01 0.941822 8.15254
3.01 0.95 8.22027
3.01 0.939636 8.24197
3.01 0.95 8.26329
3.01 0.95 8.22027
3.01 0.941491 8.19756
3.01 0.926054 8.21949
3.01 0.939636 8.24197
3.01 0.95 8.22027
3.01 0.926054 8.21949
3.01 0.941491 8.19756
3.01 0.95 8.22027
3.01 0.95 8.1751
3.01 0.941869 8.10772
3.01 0.95 8.0854
3.01 0.926844 8.0854
3.01 0.762942 8.24228
3.01 0.737933 8.24234
3.01 0.75028 8.26489
3.01 0.71291 8.24239
3.01 0.737933 8.24234
3.01 0.725533 8.21985
3.01 0.71291 8.24239
3.01 0.725313 8.26492
3.01 0.737933 8.24234
3.01 0.725313 8.26492
3.01 0.75028 8.26489
3.01 0.737933 8.24234
3.01 0.737693 8.2875
3.01 0.725313 8.26492
[...]
<PointData Scalars="View Factor" >
<DataArray type="Float64" Name="View Factor" NumberOfComponents="1" format="ascii">
8.15121e-06
8.15121e-06
8.15121e-06
9.48243e-06
9.48243e-06
9.48243e-06
9.44723e-06
9.44723e-06
9.44723e-06
9.47092e-06
9.47092e-06
9.47092e-06
9.48269e-06
9.48269e-06
9.48269e-06
9.47068e-06
9.47068e-06
9.47068e-06
9.48213e-06
9.48213e-06
9.48213e-06
9.4704e-06
9.4704e-06
9.4704e-06
9.44797e-06
9.44797e-06
9.44797e-06
8.27125e-06
8.27125e-06
8.27125e-06
9.47937e-06
9.47937e-06
9.47937e-06
9.44699e-06
9.44699e-06
9.44699e-06
9.43531e-06
9.43531e-06
9.43531e-06
9.44672e-06
9.44672e-06
9.44672e-06
9.39963e-06
9.39963e-06
9.39963e-06
9.43505e-06
9.43505e-06
9.43505e-06
9.41151e-06
9.41151e-06
9.41151e-06
9.47009e-06
9.47009e-06
9.47009e-06
9.43556e-06
9.43556e-06
9.43556e-06
9.41205e-06
9.41205e-06
9.41205e-06
9.43589e-06
9.43589e-06
9.43589e-06
9.4475e-06
9.4475e-06
9.4475e-06
9.3653e-06
9.3653e-06
9.3653e-06
9.40101e-06
9.40101e-06
9.40101e-06
9.37764e-06
9.37764e-06
9.37764e-06
9.41242e-06
9.41242e-06
9.41242e-06
9.40051e-06
9.40051e-06
9.40051e-06
9.36569e-06
9.36569e-06
9.36569e-06
9.37715e-06
9.37715e-06
9.37715e-06
9.48344e-06
9.48344e-06
9.48344e-06
9.47154e-06
9.47154e-06
9.47154e-06
8.21031e-06
8.21031e-06
8.21031e-06
8.19032e-06
8.19032e-06
8.19032e-06
8.15894e-06
8.15894e-06
8.15894e-06
8.16958e-06
8.16958e-06
8.16958e-06
8.58741e-06
8.58741e-06
8.58741e-06
8.72668e-06
8.72668e-06
8.72668e-06
8.70525e-06
8.70525e-06
8.70525e-06
8.52361e-06
8.52361e-06
8.52361e-06
9.15113e-06
9.15113e-06
9.15113e-06
9.21958e-06
9.21958e-06
9.21958e-06
8.85092e-06
8.85092e-06
8.85092e-06
8.8073e-06
8.8073e-06
8.8073e-06
8.84057e-06
8.84057e-06
8.84057e-06
8.81876e-06
8.81876e-06
8.81876e-06
8.77171e-06
8.77171e-06
8.77171e-06
8.80489e-06
8.80489e-06
8.80489e-06
8.78317e-06
8.78317e-06
8.78317e-06
8.77294e-06
8.77294e-06
8.77294e-06
8.78439e-06
8.78439e-06
8.78439e-06
8.13401e-06
8.13401e-06
8.13401e-06
8.41302e-06
8.41302e-06
8.41302e-06
8.43357e-06
8.43357e-06
8.43357e-06
8.45504e-06
8.45504e-06
8.45504e-06
8.47611e-06
8.47611e-06
8.47611e-06
8.49675e-06
8.49675e-06
8.49675e-06
8.51833e-06
8.51833e-06
8.51833e-06
8.14725e-06
8.14725e-06
8.14725e-06
8.14636e-06
8.14636e-06
8.14636e-06
8.15701e-06
8.15701e-06
8.15701e-06
8.7918e-06
8.7918e-06
8.7918e-06
8.7814e-06
8.7814e-06
8.7814e-06
9.46722e-06
9.46722e-06
9.46722e-06
9.48178e-06
9.48178e-06
9.48178e-06
9.44641e-06
9.44641e-06
9.44641e-06
9.41121e-06
9.41121e-06
9.41121e-06
9.43476e-06
9.43476e-06
9.43476e-06
9.31947e-06
9.31947e-06
9.31947e-06
9.34273e-06
9.34273e-06
9.34273e-06
9.36615e-06
9.36615e-06
9.36615e-06
9.40019e-06
9.40019e-06
9.40019e-06
9.3768e-06
9.3768e-06
9.3768e-06
9.41177e-06
9.41177e-06
9.41177e-06
9.39991e-06
9.39991e-06
9.39991e-06
9.48291e-06
9.48291e-06
9.48291e-06
9.47116e-06
9.47116e-06
9.47116e-06
9.48312e-06
9.48312e-06
9.48312e-06
8.23035e-06
8.23035e-06
8.23035e-06
8.25076e-06
8.25076e-06
8.25076e-06
8.26139e-06
8.26139e-06
8.26139e-06
8.29221e-06
8.29221e-06
8.29221e-06
8.28198e-06
8.28198e-06
8.28198e-06
8.16176e-06
8.16176e-06
8.16176e-06
8.70511e-06
8.70511e-06
8.70511e-06
8.69441e-06
8.69441e-06
8.69441e-06
8.69452e-06
8.69452e-06
8.69452e-06
8.71609e-06
8.71609e-06
8.71609e-06
8.46013e-06
8.46013e-06
8.46013e-06
8.50241e-06
8.50241e-06
8.50241e-06
8.48125e-06
8.48125e-06
8.48125e-06
9.08335e-06
9.08335e-06
9.08335e-06
9.12895e-06
9.12895e-06
9.12895e-06
9.09579e-06
9.09579e-06
9.09579e-06
9.10636e-06
9.10636e-06
9.10636e-06
9.06137e-06
9.06137e-06
9.06137e-06
9.0733e-06
9.0733e-06
9.0733e-06
8.93505e-06
8.93505e-06
8.93505e-06
8.93371e-06
8.93371e-06
8.93371e-06
8.94543e-06
8.94543e-06
8.94543e-06
8.87161e-06
8.87161e-06
8.87161e-06
8.84849e-06
8.84849e-06
8.84849e-06
8.77413e-06
8.77413e-06
8.77413e-06
8.78556e-06
8.78556e-06
8.78556e-06
8.45642e-06
8.45642e-06
8.45642e-06
8.44517e-06
8.44517e-06
8.44517e-06
8.42415e-06
8.42415e-06
8.42415e-06
8.41439e-06
8.41439e-06
8.41439e-06
8.47748e-06
8.47748e-06
8.47748e-06
8.51972e-06
8.51972e-06
8.51972e-06
8.48729e-06
8.48729e-06
8.48729e-06
8.50841e-06
8.50841e-06
8.50841e-06
8.50981e-06
8.50981e-06
8.50981e-06
8.4887e-06
8.4887e-06
8.4887e-06
8.78191e-06
8.78191e-06
8.78191e-06
8.70302e-06
8.70302e-06
8.70302e-06
8.71446e-06
8.71446e-06
8.71446e-06
8.71309e-06
8.71309e-06
8.71309e-06
8.70162e-06
8.70162e-06
8.70162e-06
8.71169e-06
8.71169e-06
8.71169e-06
8.73324e-06
8.73324e-06
8.73324e-06
8.74326e-06
8.74326e-06
8.74326e-06
8.76488e-06
8.76488e-06
8.76488e-06
8.77504e-06
8.77504e-06
8.77504e-06
8.99736e-06
8.99736e-06
8.99736e-06
8.77927e-06
8.77927e-06
8.77927e-06
8.73602e-06
8.73602e-06
8.73602e-06
8.83151e-06
8.83151e-06
8.83151e-06
8.92798e-06
8.92798e-06
8.92798e-06
8.9397e-06
8.9397e-06
8.9397e-06
8.818e-06
8.818e-06
8.818e-06
8.79672e-06
8.79672e-06
8.79672e-06
8.80826e-06
8.80826e-06
8.80826e-06
8.88354e-06
8.88354e-06
8.88354e-06
8.90596e-06
8.90596e-06
8.90596e-06
8.89566e-06
8.89566e-06
8.89566e-06
8.84171e-06
8.84171e-06
8.84171e-06
8.86356e-06
8.86356e-06
8.86356e-06
8.83003e-06
8.83003e-06
8.83003e-06
8.84026e-06
8.84026e-06
8.84026e-06
8.87372e-06
8.87372e-06
8.87372e-06
8.8621e-06
8.8621e-06
8.8621e-06
8.19615e-06
8.19615e-06
8.19615e-06
8.26689e-06
8.26689e-06
8.26689e-06
8.28767e-06
8.28767e-06
8.28767e-06
8.18496e-06
8.18496e-06
8.18496e-06
8.22564e-06
8.22564e-06
8.22564e-06
8.20536e-06
8.20536e-06
8.20536e-06
8.24557e-06
8.24557e-06
8.24557e-06
8.39206e-06
8.39206e-06
8.39206e-06
8.18347e-06
8.18347e-06
8.18347e-06
8.205e-06
8.205e-06
8.205e-06
8.18445e-06
8.18445e-06
8.18445e-06
8.1737e-06
8.1737e-06
8.1737e-06
8.14348e-06
8.14348e-06
8.14348e-06
8.1532e-06
8.1532e-06
8.1532e-06
8.14246e-06
8.14246e-06
8.14246e-06
8.27962e-06
8.27962e-06
8.27962e-06
8.24623e-06
8.24623e-06
8.24623e-06
8.21577e-06
8.21577e-06
8.21577e-06
8.23639e-06
8.23639e-06
8.23639e-06
8.21764e-06
8.21764e-06
8.21764e-06
8.23825e-06
8.23825e-06
8.23825e-06
8.17834e-06
8.17834e-06
8.17834e-06
8.15789e-06
8.15789e-06
8.15789e-06
8.14811e-06
8.14811e-06
8.14811e-06
8.829e-06
8.829e-06
8.829e-06
8.78047e-06
8.78047e-06
8.78047e-06
8.71734e-06
8.71734e-06
8.71734e-06
8.69491e-06
8.69491e-06
8.69491e-06
8.71646e-06
8.71646e-06
8.71646e-06
8.7277e-06
8.7277e-06
8.7277e-06
8.7597e-06
8.7597e-06
8.7597e-06
8.74932e-06
8.74932e-06
8.74932e-06
8.69578e-06
8.69578e-06
8.69578e-06
8.68459e-06
8.68459e-06
8.68459e-06
8.56732e-06
8.56732e-06
8.56732e-06
8.7126e-06
8.7126e-06
8.7126e-06
8.7239e-06
8.7239e-06
8.7239e-06
8.75006e-06
8.75006e-06
8.75006e-06
8.70692e-06
8.70692e-06
8.70692e-06
9.48047e-06
9.48047e-06
9.48047e-06
9.48095e-06
9.48095e-06
9.48095e-06
9.46886e-06
9.46886e-06
9.46886e-06
9.4452e-06
9.4452e-06
9.4452e-06
9.45422e-06
9.45422e-06
9.45422e-06
8.9143e-06
8.9143e-06
8.9143e-06
8.87037e-06
8.87037e-06
8.87037e-06
8.90392e-06
8.90392e-06
8.90392e-06
8.88196e-06
8.88196e-06
8.88196e-06
8.88318e-06
8.88318e-06
8.88318e-06
8.87281e-06
8.87281e-06
8.87281e-06
9.43316e-06
9.43316e-06
9.43316e-06
9.47875e-06
9.47875e-06
9.47875e-06
9.46901e-06
9.46901e-06
9.46901e-06
9.12084e-06
9.12084e-06
9.12084e-06
9.13242e-06
9.13242e-06
9.13242e-06
9.38981e-06
9.38981e-06
9.38981e-06
9.46016e-06
9.46016e-06
9.46016e-06
9.43659e-06
9.43659e-06
9.43659e-06
9.41311e-06
9.41311e-06
9.41311e-06
8.25127e-06
8.25127e-06
8.25127e-06
8.15189e-06
8.15189e-06
8.15189e-06
8.5661e-06
8.5661e-06
8.5661e-06
8.54483e-06
8.54483e-06
8.54483e-06
8.67291e-06
8.67291e-06
8.67291e-06
9.29435e-06
9.29435e-06
9.29435e-06
8.56584e-06
8.56584e-06
8.56584e-06
8.54458e-06
8.54458e-06
8.54458e-06
8.7374e-06
8.7374e-06
8.7374e-06
8.7265e-06
8.7265e-06
8.7265e-06
8.7592e-06
8.7592e-06
8.7592e-06
8.73756e-06
8.73756e-06
8.73756e-06
8.73767e-06
8.73767e-06
8.73767e-06
8.72682e-06
8.72682e-06
8.72682e-06
8.78102e-06
8.78102e-06
8.78102e-06
8.75931e-06
8.75931e-06
8.75931e-06
8.77011e-06
8.77011e-06
8.77011e-06
8.79182e-06
8.79182e-06
8.79182e-06
8.80275e-06
8.80275e-06
8.80275e-06
8.80098e-06
8.80098e-06
8.80098e-06
8.81115e-06
8.81115e-06
8.81115e-06
9.06288e-06
9.06288e-06
9.06288e-06
8.91301e-06
8.91301e-06
8.91301e-06
8.90266e-06
8.90266e-06
8.90266e-06
8.8807e-06
8.8807e-06
8.8807e-06
8.94407e-06
8.94407e-06
8.94407e-06
8.93233e-06
8.93233e-06
8.93233e-06
9.00921e-06
9.00921e-06
9.00921e-06
9.14099e-06
9.14099e-06
9.14099e-06
9.07243e-06
9.07243e-06
9.07243e-06
8.84973e-06
8.84973e-06
8.84973e-06
8.80612e-06
8.80612e-06
8.80612e-06
8.81639e-06
8.81639e-06
8.81639e-06
8.83819e-06
8.83819e-06
8.83819e-06
8.8394e-06
8.8394e-06
8.8394e-06
8.8176e-06
8.8176e-06
8.8176e-06
8.75248e-06
8.75248e-06
8.75248e-06
8.74224e-06
8.74224e-06
8.74224e-06
8.77529e-06
8.77529e-06
8.77529e-06
8.75362e-06
8.75362e-06
8.75362e-06
8.69001e-06
8.69001e-06
8.69001e-06
8.67872e-06
8.67872e-06
8.67872e-06
8.7455e-06
8.7455e-06
8.7455e-06
8.68015e-06
8.68015e-06
8.68015e-06
8.52108e-06
8.52108e-06
8.52108e-06
8.54358e-06
8.54358e-06
8.54358e-06
8.54225e-06
8.54225e-06
8.54225e-06
8.55352e-06
8.55352e-06
8.55352e-06
8.21383e-06
8.21383e-06
8.21383e-06
8.20403e-06
8.20403e-06
8.20403e-06
8.21481e-06
8.21481e-06
8.21481e-06
8.23543e-06
8.23543e-06
8.23543e-06
8.32819e-06
8.32819e-06
8.32819e-06
8.26283e-06
8.26283e-06
8.26283e-06
8.2422e-06
8.2422e-06
8.2422e-06
8.3556e-06
8.3556e-06
8.3556e-06
8.33594e-06
8.33594e-06
8.33594e-06
8.36541e-06
8.36541e-06
8.36541e-06
8.86909e-06
8.86909e-06
8.86909e-06
8.77043e-06
8.77043e-06
8.77043e-06
8.78062e-06
8.78062e-06
8.78062e-06
8.76911e-06
8.76911e-06
8.76911e-06
8.74748e-06
8.74748e-06
8.74748e-06
8.68287e-06
8.68287e-06
8.68287e-06
8.70436e-06
8.70436e-06
8.70436e-06
8.77647e-06
8.77647e-06
8.77647e-06
8.79959e-06
8.79959e-06
8.79959e-06
8.79817e-06
8.79817e-06
8.79817e-06
8.80973e-06
8.80973e-06
8.80973e-06
8.73181e-06
8.73181e-06
8.73181e-06
8.75294e-06
8.75294e-06
8.75294e-06
8.87522e-06
8.87522e-06
8.87522e-06
8.9103e-06
8.9103e-06
8.9103e-06
8.8986e-06
8.8986e-06
8.8986e-06
8.96332e-06
8.96332e-06
8.96332e-06
8.94266e-06
8.94266e-06
8.94266e-06
8.97515e-06
8.97515e-06
8.97515e-06
8.96478e-06
8.96478e-06
8.96478e-06
9.00774e-06
9.00774e-06
9.00774e-06
9.03004e-06
9.03004e-06
9.03004e-06
9.04048e-06
9.04048e-06
9.04048e-06
8.17938e-06
8.17938e-06
8.17938e-06
8.20101e-06
8.20101e-06
8.20101e-06
8.16553e-06
8.16553e-06
8.16553e-06
8.17591e-06
8.17591e-06
8.17591e-06
8.14509e-06
8.14509e-06
8.14509e-06
8.20713e-06
8.20713e-06
8.20713e-06
8.26862e-06
8.26862e-06
8.26862e-06
8.22758e-06
8.22758e-06
8.22758e-06
8.23688e-06
8.23688e-06
8.23688e-06
8.25737e-06
8.25737e-06
8.25737e-06
8.30422e-06
8.30422e-06
8.30422e-06
8.33479e-06
8.33479e-06
8.33479e-06
8.32498e-06
8.32498e-06
8.32498e-06
8.32379e-06
8.32379e-06
8.32379e-06
8.39343e-06
8.39343e-06
8.39343e-06
8.38223e-06
8.38223e-06
8.38223e-06
8.29879e-06
8.29879e-06
8.29879e-06
8.28926e-06
8.28926e-06
8.28926e-06
8.20689e-06
8.20689e-06
8.20689e-06
8.20596e-06
8.20596e-06
8.20596e-06
8.21672e-06
8.21672e-06
8.21672e-06
8.14447e-06
8.14447e-06
8.14447e-06
8.1542e-06
8.1542e-06
8.1542e-06
8.17468e-06
8.17468e-06
8.17468e-06
8.18541e-06
8.18541e-06
8.18541e-06
8.14902e-06
8.14902e-06
8.14902e-06
8.18043e-06
8.18043e-06
8.18043e-06
8.16962e-06
8.16962e-06
8.16962e-06
8.13925e-06
8.13925e-06
8.13925e-06
8.1727e-06
8.1727e-06
8.1727e-06
8.15219e-06
8.15219e-06
8.15219e-06
8.26691e-06
8.26691e-06
8.26691e-06
8.27775e-06
8.27775e-06
8.27775e-06
8.42482e-06
8.42482e-06
8.42482e-06
8.43484e-06
8.43484e-06
8.43484e-06
8.3699e-06
8.3699e-06
8.3699e-06
8.29849e-06
8.29849e-06
8.29849e-06
8.30839e-06
8.30839e-06
8.30839e-06
8.30037e-06
8.30037e-06
8.30037e-06
8.35997e-06
8.35997e-06
8.35997e-06
8.33911e-06
8.33911e-06
8.33911e-06
8.32919e-06
8.32919e-06
8.32919e-06
8.3401e-06
8.3401e-06
8.3401e-06
8.24719e-06
8.24719e-06
8.24719e-06
8.2688e-06
8.2688e-06
8.2688e-06
8.24812e-06
8.24812e-06
8.24812e-06
8.23733e-06
8.23733e-06
8.23733e-06
8.27869e-06
8.27869e-06
8.27869e-06
8.26787e-06
8.26787e-06
8.26787e-06
8.2078e-06
8.2078e-06
8.2078e-06
8.18727e-06
8.18727e-06
8.18727e-06
8.17747e-06
8.17747e-06
8.17747e-06
8.18815e-06
8.18815e-06
8.18815e-06
8.24903e-06
8.24903e-06
8.24903e-06
8.26972e-06
8.26972e-06
8.26972e-06
8.28052e-06
8.28052e-06
8.28052e-06
8.47064e-06
8.47064e-06
8.47064e-06
8.49177e-06
8.49177e-06
8.49177e-06
8.88809e-06
8.88809e-06
8.88809e-06
8.80062e-06
8.80062e-06
8.80062e-06
8.89929e-06
8.89929e-06
8.89929e-06
8.8885e-06
8.8885e-06
8.8885e-06
8.78952e-06
8.78952e-06
8.78952e-06
8.81845e-06
8.81845e-06
8.81845e-06
8.8297e-06
8.8297e-06
8.8297e-06
8.72115e-06
8.72115e-06
8.72115e-06
8.73161e-06
8.73161e-06
8.73161e-06
8.75254e-06
8.75254e-06
8.75254e-06
8.69958e-06
8.69958e-06
8.69958e-06
8.68914e-06
8.68914e-06
8.68914e-06
8.66763e-06
8.66763e-06
8.66763e-06
8.65657e-06
8.65657e-06
8.65657e-06
8.79086e-06
8.79086e-06
8.79086e-06
8.75879e-06
8.75879e-06
8.75879e-06
8.74842e-06
8.74842e-06
8.74842e-06
8.7268e-06
8.7268e-06
8.7268e-06
8.71555e-06
8.71555e-06
8.71555e-06
8.62475e-06
8.62475e-06
8.62475e-06
8.63512e-06
8.63512e-06
8.63512e-06
8.68544e-06
8.68544e-06
8.68544e-06
8.6631e-06
8.6631e-06
8.6631e-06
8.72046e-06
8.72046e-06
8.72046e-06
8.7309e-06
8.7309e-06
8.7309e-06
8.62265e-06
8.62265e-06
8.62265e-06
8.63298e-06
8.63298e-06
8.63298e-06
8.69208e-06
8.69208e-06
8.69208e-06
8.71362e-06
8.71362e-06
8.71362e-06
8.68541e-06
8.68541e-06
8.68541e-06
8.51605e-06
8.51605e-06
8.51605e-06
9.48139e-06
9.48139e-06
9.48139e-06
9.46931e-06
9.46931e-06
9.46931e-06
9.46972e-06
9.46972e-06
9.46972e-06
9.24303e-06
9.24303e-06
9.24303e-06
9.28877e-06
9.28877e-06
9.28877e-06
9.26609e-06
9.26609e-06
9.26609e-06
9.45662e-06
9.45662e-06
9.45662e-06
9.46142e-06
9.46142e-06
9.46142e-06
9.46542e-06
9.46542e-06
9.46542e-06
8.91555e-06
8.91555e-06
8.91555e-06
8.90515e-06
8.90515e-06
8.90515e-06
8.91676e-06
8.91676e-06
8.91676e-06
8.93882e-06
8.93882e-06
8.93882e-06
8.88436e-06
8.88436e-06
8.88436e-06
8.90634e-06
8.90634e-06
8.90634e-06
9.46836e-06
9.46836e-06
9.46836e-06
9.44471e-06
9.44471e-06
9.44471e-06
9.47994e-06
9.47994e-06
9.47994e-06
9.46781e-06
9.46781e-06
9.46781e-06
9.44358e-06
9.44358e-06
9.44358e-06
9.43148e-06
9.43148e-06
9.43148e-06
9.40795e-06
9.40795e-06
9.40795e-06
9.4073e-06
9.4073e-06
9.4073e-06
9.3959e-06
9.3959e-06
9.3959e-06
9.36113e-06
9.36113e-06
9.36113e-06
9.37249e-06
9.37249e-06
9.37249e-06
9.47663e-06
9.47663e-06
9.47663e-06
9.45775e-06
9.45775e-06
9.45775e-06
9.09827e-06
9.09827e-06
9.09827e-06
9.05331e-06
9.05331e-06
9.05331e-06
9.42688e-06
9.42688e-06
9.42688e-06
9.43363e-06
9.43363e-06
9.43363e-06
9.4101e-06
9.4101e-06
9.4101e-06
9.44565e-06
9.44565e-06
9.44565e-06
8.38505e-06
8.38505e-06
8.38505e-06
8.34234e-06
8.34234e-06
8.34234e-06
8.28123e-06
8.28123e-06
8.28123e-06
8.28161e-06
8.28161e-06
8.28161e-06
8.2918e-06
8.2918e-06
8.2918e-06
8.34398e-06
8.34398e-06
8.34398e-06
8.31258e-06
8.31258e-06
8.31258e-06
8.32315e-06
8.32315e-06
8.32315e-06
8.2914e-06
8.2914e-06
8.2914e-06
8.26157e-06
8.26157e-06
8.26157e-06
8.31309e-06
8.31309e-06
8.31309e-06
8.33395e-06
8.33395e-06
8.33395e-06
8.16243e-06
8.16243e-06
8.16243e-06
8.21402e-06
8.21402e-06
8.21402e-06
8.19347e-06
8.19347e-06
8.19347e-06
8.18289e-06
8.18289e-06
8.18289e-06
8.25528e-06
8.25528e-06
8.25528e-06
8.21525e-06
8.21525e-06
8.21525e-06
8.19469e-06
8.19469e-06
8.19469e-06
8.57657e-06
8.57657e-06
8.57657e-06
8.566e-06
8.566e-06
8.566e-06
8.5767e-06
8.5767e-06
8.5767e-06
8.51296e-06
8.51296e-06
8.51296e-06
8.53417e-06
8.53417e-06
8.53417e-06
8.50231e-06
8.50231e-06
8.50231e-06
8.51283e-06
8.51283e-06
8.51283e-06
8.54473e-06
8.54473e-06
8.54473e-06
8.53404e-06
8.53404e-06
8.53404e-06
8.6621e-06
8.6621e-06
8.6621e-06
8.64048e-06
8.64048e-06
8.64048e-06
8.65156e-06
8.65156e-06
8.65156e-06
8.67302e-06
8.67302e-06
8.67302e-06
8.66223e-06
8.66223e-06
8.66223e-06
9.29616e-06
9.29616e-06
9.29616e-06
9.12368e-06
9.12368e-06
9.12368e-06
9.16906e-06
9.16906e-06
9.16906e-06
9.0543e-06
9.0543e-06
9.0543e-06
9.03192e-06
9.03192e-06
9.03192e-06
9.04554e-06
9.04554e-06
9.04554e-06
8.97862e-06
8.97862e-06
8.97862e-06
8.95642e-06
8.95642e-06
8.95642e-06
9.11304e-06
9.11304e-06
9.11304e-06
9.13553e-06
9.13553e-06
9.13553e-06
9.15824e-06
9.15824e-06
9.15824e-06
9.13565e-06
9.13565e-06
9.13565e-06
9.12428e-06
9.12428e-06
9.12428e-06
9.13513e-06
9.13513e-06
9.13513e-06
9.15783e-06
9.15783e-06
9.15783e-06
9.19234e-06
9.19234e-06
9.19234e-06
9.16953e-06
9.16953e-06
9.16953e-06
9.15806e-06
9.15806e-06
9.15806e-06
9.16932e-06
9.16932e-06
9.16932e-06
9.27127e-06
9.27127e-06
9.27127e-06
8.50217e-06
8.50217e-06
8.50217e-06
8.48101e-06
8.48101e-06
8.48101e-06
8.69426e-06
8.69426e-06
8.69426e-06
8.70493e-06
8.70493e-06
8.70493e-06
8.67275e-06
8.67275e-06
8.67275e-06
8.66192e-06
8.66192e-06
8.66192e-06
8.7372e-06
8.7372e-06
8.7372e-06
8.91225e-06
8.91225e-06
8.91225e-06
8.92321e-06
8.92321e-06
8.92321e-06
8.9343e-06
8.9343e-06
8.9343e-06
8.93418e-06
8.93418e-06
8.93418e-06
8.92307e-06
8.92307e-06
8.92307e-06
8.80263e-06
8.80263e-06
8.80263e-06
8.82442e-06
8.82442e-06
8.82442e-06
8.90062e-06
8.90062e-06
8.90062e-06
8.75904e-06
8.75904e-06
8.75904e-06
8.80247e-06
8.80247e-06
8.80247e-06
8.76997e-06
8.76997e-06
8.76997e-06
8.79168e-06
8.79168e-06
8.79168e-06
9.1068e-06
9.1068e-06
9.1068e-06
9.08428e-06
9.08428e-06
9.08428e-06
8.96756e-06
8.96756e-06
8.96756e-06
9.04197e-06
9.04197e-06
9.04197e-06
9.03151e-06
9.03151e-06
9.03151e-06
8.97658e-06
8.97658e-06
8.97658e-06
8.9988e-06
8.9988e-06
8.9988e-06
8.96619e-06
8.96619e-06
8.96619e-06
8.97797e-06
8.97797e-06
8.97797e-06
8.97932e-06
8.97932e-06
8.97932e-06
9.00154e-06
9.00154e-06
9.00154e-06
9.10788e-06
9.10788e-06
9.10788e-06
9.13048e-06
9.13048e-06
9.13048e-06
8.74108e-06
8.74108e-06
8.74108e-06
8.75129e-06
8.75129e-06
8.75129e-06
8.73988e-06
8.73988e-06
8.73988e-06
8.7183e-06
8.7183e-06
8.7183e-06
8.70813e-06
8.70813e-06
8.70813e-06
8.7195e-06
8.7195e-06
8.7195e-06
8.74337e-06
8.74337e-06
8.74337e-06
8.72177e-06
8.72177e-06
8.72177e-06
8.72286e-06
8.72286e-06
8.72286e-06
8.71154e-06
8.71154e-06
8.71154e-06
8.7867e-06
8.7867e-06
8.7867e-06
8.81989e-06
8.81989e-06
8.81989e-06
8.80844e-06
8.80844e-06
8.80844e-06
8.69106e-06
8.69106e-06
8.69106e-06
8.67979e-06
8.67979e-06
8.67979e-06
8.68082e-06
8.68082e-06
8.68082e-06
8.5484e-06
8.5484e-06
8.5484e-06
8.5272e-06
8.5272e-06
8.5272e-06
8.64002e-06
8.64002e-06
8.64002e-06
8.66874e-06
8.66874e-06
8.66874e-06
8.68153e-06
8.68153e-06
8.68153e-06
8.67013e-06
8.67013e-06
8.67013e-06
8.67148e-06
8.67148e-06
8.67148e-06
8.65006e-06
8.65006e-06
8.65006e-06
8.57339e-06
8.57339e-06
8.57339e-06
8.54089e-06
8.54089e-06
8.54089e-06
8.55216e-06
8.55216e-06
8.55216e-06
8.47884e-06
8.47884e-06
8.47884e-06
8.42555e-06
8.42555e-06
8.42555e-06
8.44657e-06
8.44657e-06
8.44657e-06
8.45777e-06
8.45777e-06
8.45777e-06
8.44791e-06
8.44791e-06
8.44791e-06
8.3863e-06
8.3863e-06
8.3863e-06
8.23344e-06
8.23344e-06
8.23344e-06
8.21181e-06
8.21181e-06
8.21181e-06
8.23242e-06
8.23242e-06
8.23242e-06
8.24325e-06
8.24325e-06
8.24325e-06
8.24427e-06
8.24427e-06
8.24427e-06
8.24526e-06
8.24526e-06
8.24526e-06
8.23444e-06
8.23444e-06
8.23444e-06
8.26493e-06
8.26493e-06
8.26493e-06
8.23135e-06
8.23135e-06
8.23135e-06
8.19994e-06
8.19994e-06
8.19994e-06
8.21076e-06
8.21076e-06
8.21076e-06
8.24108e-06
8.24108e-06
8.24108e-06
8.29441e-06
8.29441e-06
8.29441e-06
8.27371e-06
8.27371e-06
8.27371e-06
8.2639e-06
8.2639e-06
8.2639e-06
8.27477e-06
8.27477e-06
8.27477e-06
8.38364e-06
8.38364e-06
8.38364e-06
8.36275e-06
8.36275e-06
8.36275e-06
8.35436e-06
8.35436e-06
8.35436e-06
8.33355e-06
8.33355e-06
8.33355e-06
8.35303e-06
8.35303e-06
8.35303e-06
8.36413e-06
8.36413e-06
8.36413e-06
8.84722e-06
8.84722e-06
8.84722e-06
8.80363e-06
8.80363e-06
8.80363e-06
8.81515e-06
8.81515e-06
8.81515e-06
8.83694e-06
8.83694e-06
8.83694e-06
8.80233e-06
8.80233e-06
8.80233e-06
8.8459e-06
8.8459e-06
8.8459e-06
8.81386e-06
8.81386e-06
8.81386e-06
8.83565e-06
8.83565e-06
8.83565e-06
8.81253e-06
8.81253e-06
8.81253e-06
8.83431e-06
8.83431e-06
8.83431e-06
8.90135e-06
8.90135e-06
8.90135e-06
8.87939e-06
8.87939e-06
8.87939e-06
8.86777e-06
8.86777e-06
8.86777e-06
8.91168e-06
8.91168e-06
8.91168e-06