<VTKFile type="UnstructuredGrid" version="1.0">
<UnstructuredGrid>
<Piece NumberOfPoints="8859" NumberOfCells="2953">
<Points>
<DataArray type="Float64" NumberOfComponents="3" format="ascii">
3.01 0.5 1.995
3.01 0.487476 2.0175
3.01 0.512524 2.0175
3.01 0.17352 1.1175
3.01 0.148445 1.1175
3.01 0.160827 1.13922
3.01 0.122979 1.16089
3.01 0.135644 1.13922
3.01 0.110383 1.13921
3.01 0.135644 1.13922
3.01 0.123433 1.1175
3.01 0.110383 1.13921
3.01 0.123433 1.1175
3.01 0.135644 1.13922
3.01 0.148445 1.1175
3.01 0.135644 1.13922
3.01 0.160827 1.13922
3.01 0.148445 1.1175
3.01 0.17352 1.1175
3.01 0.185985 1.1392
3.01 0.198629 1.1175
3.01 0.185985 1.1392
3.01 0.17352 1.1175
3.01 0.160827 1.13922
3.01 0.0732297 1.16067
3.01 0.0848754 1.13914
3.01 0.0586606 1.13881
3.01 0.05 1.95027
3.01 0.058509 1.92756
3.01 0.05 1.9051
3.01 0.324276 1.1175
3.01 0.336827 1.13916
3.01 0.349395 1.1175
3.01 0.148138 1.1609
3.01 0.160827 1.13922
3.01 0.135644 1.13922
3.01 0.122979 1.16089
3.01 0.148138 1.1609
3.01 0.135644 1.13922
3.01 0.160827 1.13922
3.01 0.173316 1.16089
3.01 0.185985 1.1392
3.01 0.185806 1.18255
3.01 0.173316 1.16089
3.01 0.160572 1.18255
3.01 0.173316 1.16089
3.01 0.160827 1.13922
3.01 0.148138 1.1609
3.01 0.160572 1.18255
3.01 0.173316 1.16089
3.01 0.148138 1.1609
3.01 0.211137 1.13919
3.01 0.198629 1.1175
3.01 0.185985 1.1392
3.01 0.0979162 1.16084
3.01 0.122979 1.16089
3.01 0.110383 1.13921
3.01 0.122979 1.16089
3.01 0.0979162 1.16084
3.01 0.109875 1.18249
3.01 0.0732297 1.16067
3.01 0.0979162 1.16084
3.01 0.0848754 1.13914
3.01 0.0979162 1.16084
3.01 0.110383 1.13921
3.01 0.0848754 1.13914
3.01 0.0975729 1.20404
3.01 0.122678 1.20414
3.01 0.109875 1.18249
3.01 0.0841718 1.18235
3.01 0.0732297 1.16067
3.01 0.0577122 1.18202
3.01 0.0729308 1.20388
3.01 0.0841718 1.18235
3.01 0.0577122 1.18202
3.01 0.0732297 1.16067
3.01 0.0841718 1.18235
3.01 0.0979162 1.16084
3.01 0.0841718 1.18235
3.01 0.109875 1.18249
3.01 0.0979162 1.16084
3.01 0.0975729 1.20404
3.01 0.0841718 1.18235
3.01 0.0729308 1.20388
3.01 0.0841718 1.18235
3.01 0.0975729 1.20404
3.01 0.109875 1.18249
3.01 0.073948 1.1175
3.01 0.05 1.1175
3.01 0.0586606 1.13881
3.01 0.073948 1.1175
3.01 0.0586606 1.13881
3.01 0.0848754 1.13914
3.01 0.05 1.99329
3.01 0.0603641 1.97197
3.01 0.05 1.95027
3.01 0.0603641 1.97197
3.01 0.05 1.99329
3.01 0.0753197 1.99399
3.01 0.0709395 2.0175
3.01 0.05 1.99329
3.01 0.05 2.0175
3.01 0.05 1.99329
3.01 0.0709395 2.0175
3.01 0.0753197 1.99399
3.01 0.0579641 1.70463
3.01 0.05 1.68261
3.01 0.05 1.72669
3.01 0.0841948 1.6168
3.01 0.109814 1.6168
3.01 0.097638 1.59493
3.01 0.0841948 1.6168
3.01 0.0578646 1.6168
3.01 0.0730539 1.6387
3.01 0.0580261 1.7488
3.01 0.05 1.72669
3.01 0.05 1.77095
3.01 0.942292 1.31236
3.01 0.95 1.33404
3.01 0.95 1.29067
3.01 0.95 1.24726
3.01 0.942332 1.26897
3.01 0.95 1.29067
3.01 0.73872 1.52953
3.01 0.75132 1.50775
3.01 0.726137 1.50776
3.01 0.751305 1.55132
3.01 0.73872 1.52953
3.01 0.726124 1.55133
3.01 0.713546 1.52954
3.01 0.73872 1.52953
3.01 0.726137 1.50776
3.01 0.73872 1.52953
3.01 0.713546 1.52954
3.01 0.726124 1.55133
3.01 0.814318 1.57311
3.01 0.801709 1.5513
3.01 0.789096 1.57312
3.01 0.7765 1.55131
3.01 0.801709 1.5513
3.01 0.789115 1.52951
3.01 0.801709 1.5513
3.01 0.7765 1.55131
3.01 0.789096 1.57312
3.01 0.7765 1.55131
3.01 0.763892 1.57314
3.01 0.789096 1.57312
3.01 0.763892 1.57314
3.01 0.7765 1.55131
3.01 0.751305 1.55132
3.01 0.95 2.0175
3.01 0.95 1.99329
3.01 0.929061 2.0175
3.01 0.95 1.8154
3.01 0.941913 1.79315
3.01 0.926844 1.8154
3.01 0.941913 1.79315
3.01 0.95 1.8154
3.01 0.95 1.77095
3.01 0.926866 1.77094
3.01 0.941913 1.79315
3.01 0.95 1.77095
3.01 0.941974 1.7488
3.01 0.926866 1.77094
3.01 0.95 1.77095
3.01 0.95 1.72669
3.01 0.941974 1.7488
3.01 0.95 1.77095
3.01 0.941974 1.7488
3.01 0.95 1.72669
3.01 0.926895 1.72669
3.01 0.6127 2.0175
3.01 0.637734 2.0175
3.01 0.625238 1.99498
3.01 0.662757 2.0175
3.01 0.650275 1.99497
3.01 0.637734 2.0175
3.01 0.650275 1.99497
3.01 0.625238 1.99498
3.01 0.637734 2.0175
3.01 0.600415 1.55137
3.01 0.575304 1.55137
3.01 0.587856 1.5732
3.01 0.575304 1.55137
3.01 0.562749 1.5732
3.01 0.587856 1.5732
3.01 0.336827 1.13916
3.01 0.361946 1.13916
3.01 0.349395 1.1175
3.01 0.223755 1.1175
3.01 0.198629 1.1175
3.01 0.211137 1.13919
3.01 0.185985 1.1392
3.01 0.198492 1.16088
3.01 0.211137 1.13919
3.01 0.185806 1.18255
3.01 0.198492 1.16088
3.01 0.173316 1.16089
3.01 0.198492 1.16088
3.01 0.185985 1.1392
3.01 0.173316 1.16089
3.01 0.0576202 1.22553
3.01 0.05 1.20374
3.01 0.05 1.24726
3.01 0.05 1.20374
3.01 0.0576202 1.22553
3.01 0.0729308 1.20388
3.01 0.05 1.20374
3.01 0.0729308 1.20388
3.01 0.0577122 1.18202
3.01 0.135283 1.18254
3.01 0.122979 1.16089
3.01 0.109875 1.18249
3.01 0.135283 1.18254
3.01 0.109875 1.18249
3.01 0.122678 1.20414
3.01 0.122979 1.16089
3.01 0.135283 1.18254
3.01 0.148138 1.1609
3.01 0.135283 1.18254
3.01 0.160572 1.18255
3.01 0.148138 1.1609
3.01 0.123433 1.1175
3.01 0.0985513 1.1175
3.01 0.110383 1.13921
3.01 0.110383 1.13921
3.01 0.0985513 1.1175
3.01 0.0848754 1.13914
3.01 0.0848754 1.13914
3.01 0.0985513 1.1175
3.01 0.073948 1.1175
3.01 0.0603641 1.97197
3.01 0.0739464 1.94949
3.01 0.05 1.95027
3.01 0.0739464 1.94949
3.01 0.058509 1.92756
3.01 0.05 1.95027
3.01 0.058509 1.92756
3.01 0.0739464 1.94949
3.01 0.0849548 1.92711
3.01 0.058509 1.92756
3.01 0.0732725 1.90488
3.01 0.05 1.9051
3.01 0.0732725 1.90488
3.01 0.058509 1.92756
3.01 0.0849548 1.92711
3.01 0.5 1.995
3.01 0.47495 1.995
3.01 0.487476 2.0175
3.01 0.097663 1.6387
3.01 0.109814 1.6168
3.01 0.0841948 1.6168
3.01 0.0730539 1.6387
3.01 0.097663 1.6387
3.01 0.0841948 1.6168
3.01 0.0578646 1.6168
3.01 0.05 1.6387
3.01 0.0730539 1.6387
3.01 0.05 1.6387
3.01 0.0578646 1.6168
3.01 0.05 1.59492
3.01 0.05 1.8154
3.01 0.0580869 1.79315
3.01 0.05 1.77095
3.01 0.05 1.77095
3.01 0.073134 1.77094
3.01 0.0580261 1.7488
3.01 0.073134 1.77094
3.01 0.05 1.77095
3.01 0.0580869 1.79315
3.01 0.942268 1.35573
3.01 0.95 1.37741
3.01 0.95 1.33404
3.01 0.942292 1.31236
3.01 0.927025 1.33404
3.01 0.95 1.33404
3.01 0.927025 1.33404
3.01 0.915919 1.35572
3.01 0.942268 1.35573
3.01 0.95 1.33404
3.01 0.927025 1.33404
3.01 0.942268 1.35573
3.01 0.927013 1.37741
3.01 0.95 1.37741
3.01 0.942268 1.35573
3.01 0.915919 1.35572
3.01 0.927013 1.37741
3.01 0.942268 1.35573
3.01 0.801738 1.46425
3.01 0.826957 1.46425
3.01 0.814364 1.44253
3.01 0.852174 1.46424
3.01 0.839609 1.44252
3.01 0.826957 1.46425
3.01 0.839609 1.44252
3.01 0.814364 1.44253
3.01 0.826957 1.46425
3.01 0.776516 1.50775
3.01 0.763923 1.486
3.01 0.75132 1.50775
3.01 0.776516 1.50775
3.01 0.789115 1.52951
3.01 0.801725 1.50774
3.01 0.738704 1.57315
3.01 0.763892 1.57314
3.01 0.751305 1.55132
3.01 0.726124 1.55133
3.01 0.738704 1.57315
3.01 0.751305 1.55132
3.01 0.915617 1.79314
3.01 0.926866 1.77094
3.01 0.902228 1.77094
3.01 0.926866 1.77094
3.01 0.915617 1.79314
3.01 0.941913 1.79315
3.01 0.915617 1.79314
3.01 0.926844 1.8154
3.01 0.941913 1.79315
3.01 0.915617 1.79314
3.01 0.902193 1.81538
3.01 0.926844 1.8154
3.01 0.926866 1.77094
3.01 0.915668 1.74879
3.01 0.902228 1.77094
3.01 0.902267 1.72668
3.01 0.915668 1.74879
3.01 0.926895 1.72669
3.01 0.915668 1.74879
3.01 0.926866 1.77094
3.01 0.941974 1.7488
3.01 0.926895 1.72669
3.01 0.915668 1.74879
3.01 0.941974 1.7488
3.01 0.902267 1.72668
3.01 0.890059 1.74879
3.01 0.915668 1.74879
3.01 0.890059 1.74879
3.01 0.902228 1.77094
3.01 0.915668 1.74879
3.01 0.826927 1.55129
3.01 0.801709 1.5513
3.01 0.814318 1.57311
3.01 0.864816 1.6168
3.01 0.890186 1.6168
3.01 0.877308 1.59493
3.01 0.877308 1.59493
3.01 0.852122 1.59494
3.01 0.864816 1.6168
3.01 0.890186 1.6168
3.01 0.902362 1.59493
3.01 0.877308 1.59493
3.01 0.902362 1.59493
3.01 0.890186 1.6168
3.01 0.915805 1.6168
3.01 0.902362 1.59493
3.01 0.915805 1.6168
3.01 0.926964 1.59492
3.01 0.915835 1.57309
3.01 0.902362 1.59493
3.01 0.926964 1.59492
3.01 0.942171 1.57309
3.01 0.915835 1.57309
3.01 0.926964 1.59492
3.01 0.915835 1.57309
3.01 0.942171 1.57309
3.01 0.926978 1.55127
3.01 0.942171 1.57309
3.01 0.95 1.55127
3.01 0.926978 1.55127
3.01 0.87737 1.42081
3.01 0.902417 1.4208
3.01 0.890277 1.39911
3.01 0.852144 1.55128
3.01 0.864842 1.57309
3.01 0.877329 1.55128
3.01 0.877308 1.59493
3.01 0.864842 1.57309
3.01 0.852122 1.59494
3.01 0.902396 1.50772
3.01 0.890234 1.52949
3.01 0.915858 1.52948
3.01 0.926997 1.46423
3.01 0.95 1.46423
3.01 0.942237 1.44251
3.01 0.91589 1.44251
3.01 0.926997 1.46423
3.01 0.942237 1.44251
3.01 0.942199 1.52948
3.01 0.95 1.55127
3.01 0.95 1.50771
3.01 0.95 1.55127
3.01 0.942199 1.52948
3.01 0.926978 1.55127
3.01 0.942199 1.52948
3.01 0.915858 1.52948
3.01 0.926978 1.55127
3.01 0.95 1.46423
3.01 0.942221 1.48597
3.01 0.95 1.50771
3.01 0.942221 1.48597
3.01 0.95 1.46423
3.01 0.926997 1.46423
3.01 0.915876 1.48597
3.01 0.942221 1.48597
3.01 0.926997 1.46423
3.01 0.926989 1.50771
3.01 0.902396 1.50772
3.01 0.915858 1.52948
3.01 0.902396 1.50772
3.01 0.926989 1.50771
3.01 0.915876 1.48597
3.01 0.926989 1.50771
3.01 0.915858 1.52948
3.01 0.942199 1.52948
3.01 0.95 1.50771
3.01 0.926989 1.50771
3.01 0.942199 1.52948
3.01 0.915876 1.48597
3.01 0.926989 1.50771
3.01 0.942221 1.48597
3.01 0.926989 1.50771
3.01 0.95 1.50771
3.01 0.942221 1.48597
3.01 0.91353 1.97185
3.01 0.939636 1.97197
3.01 0.926054 1.94949
3.01 0.926728 1.90488
3.01 0.941491 1.92756
3.01 0.95 1.9051
3.01 0.926728 1.90488
3.01 0.95 1.9051
3.01 0.941822 1.88254
3.01 0.95 1.95027
3.01 0.939636 1.97197
3.01 0.95 1.99329
3.01 0.95 1.95027
3.01 0.941491 1.92756
3.01 0.926054 1.94949
3.01 0.939636 1.97197
3.01 0.95 1.95027
3.01 0.926054 1.94949
3.01 0.941491 1.92756
3.01 0.95 1.95027
3.01 0.95 1.9051
3.01 0.941869 1.83772
3.01 0.95 1.8154
3.01 0.926844 1.8154
3.01 0.762942 1.97228
3.01 0.737933 1.97234
3.01 0.75028 1.99489
3.01 0.71291 1.97239
3.01 0.737933 1.97234
3.01 0.725533 1.94985
3.01 0.71291 1.97239
3.01 0.725313 1.99492
3.01 0.737933 1.97234
3.01 0.725313 1.99492
3.01 0.75028 1.99489
3.01 0.737933 1.97234
3.01 0.737693 2.0175
3.01 0.725313 1.99492
[...]
<PointData Scalars="View Factor" >
<DataArray type="Float64" Name="View Factor" NumberOfComponents="1" format="ascii">
4.34313e-05
4.34313e-05
4.34313e-05
3.4976e-05
3.4976e-05
3.4976e-05
3.51615e-05
3.51615e-05
3.51615e-05
3.50396e-05
3.50396e-05
3.50396e-05
3.49779e-05
3.49779e-05
3.49779e-05
3.50379e-05
3.50379e-05
3.50379e-05
3.49739e-05
3.49739e-05
3.49739e-05
3.50358e-05
3.50358e-05
3.50358e-05
3.5162e-05
3.5162e-05
3.5162e-05
4.26196e-05
4.26196e-05
4.26196e-05
3.49542e-05
3.49542e-05
3.49542e-05
3.51598e-05
3.51598e-05
3.51598e-05
3.52219e-05
3.52219e-05
3.52219e-05
3.51577e-05
3.51577e-05
3.51577e-05
3.54029e-05
3.54029e-05
3.54029e-05
3.522e-05
3.522e-05
3.522e-05
3.53425e-05
3.53425e-05
3.53425e-05
3.50334e-05
3.50334e-05
3.50334e-05
3.52232e-05
3.52232e-05
3.52232e-05
3.53456e-05
3.53456e-05
3.53456e-05
3.52236e-05
3.52236e-05
3.52236e-05
3.51625e-05
3.51625e-05
3.51625e-05
3.55918e-05
3.55918e-05
3.55918e-05
3.54065e-05
3.54065e-05
3.54065e-05
3.55295e-05
3.55295e-05
3.55295e-05
3.53458e-05
3.53458e-05
3.53458e-05
3.54072e-05
3.54072e-05
3.54072e-05
3.55919e-05
3.55919e-05
3.55919e-05
3.55302e-05
3.55302e-05
3.55302e-05
3.49804e-05
3.49804e-05
3.49804e-05
3.50406e-05
3.50406e-05
3.50406e-05
4.30979e-05
4.30979e-05
4.30979e-05
4.32567e-05
4.32567e-05
4.32567e-05
4.35097e-05
4.35097e-05
4.35097e-05
4.3423e-05
4.3423e-05
4.3423e-05
4.03052e-05
4.03052e-05
4.03052e-05
3.93637e-05
3.93637e-05
3.93637e-05
3.95073e-05
3.95073e-05
3.95073e-05
4.07509e-05
4.07509e-05
4.07509e-05
3.63659e-05
3.63659e-05
3.63659e-05
3.59866e-05
3.59866e-05
3.59866e-05
3.83049e-05
3.83049e-05
3.83049e-05
3.8579e-05
3.8579e-05
3.8579e-05
3.83784e-05
3.83784e-05
3.83784e-05
3.85155e-05
3.85155e-05
3.85155e-05
3.87581e-05
3.87581e-05
3.87581e-05
3.85567e-05
3.85567e-05
3.85567e-05
3.86947e-05
3.86947e-05
3.86947e-05
3.87697e-05
3.87697e-05
3.87697e-05
3.87061e-05
3.87061e-05
3.87061e-05
4.3207e-05
4.3207e-05
4.3207e-05
4.10788e-05
4.10788e-05
4.10788e-05
4.09228e-05
4.09228e-05
4.09228e-05
4.07766e-05
4.07766e-05
4.07766e-05
4.06268e-05
4.06268e-05
4.06268e-05
4.04736e-05
4.04736e-05
4.04736e-05
4.033e-05
4.033e-05
4.033e-05
4.33831e-05
4.33831e-05
4.33831e-05
4.33721e-05
4.33721e-05
4.33721e-05
4.32953e-05
4.32953e-05
4.32953e-05
3.87753e-05
3.87753e-05
3.87753e-05
3.88491e-05
3.88491e-05
3.88491e-05
3.50127e-05
3.50127e-05
3.50127e-05
3.49714e-05
3.49714e-05
3.49714e-05
3.51553e-05
3.51553e-05
3.51553e-05
3.53403e-05
3.53403e-05
3.53403e-05
3.52177e-05
3.52177e-05
3.52177e-05
3.58408e-05
3.58408e-05
3.58408e-05
3.57157e-05
3.57157e-05
3.57157e-05
3.5591e-05
3.5591e-05
3.5591e-05
3.54065e-05
3.54065e-05
3.54065e-05
3.55296e-05
3.55296e-05
3.55296e-05
3.53444e-05
3.53444e-05
3.53444e-05
3.5405e-05
3.5405e-05
3.5405e-05
3.49794e-05
3.49794e-05
3.49794e-05
3.50407e-05
3.50407e-05
3.50407e-05
3.49804e-05
3.49804e-05
3.49804e-05
4.29388e-05
4.29388e-05
4.29388e-05
4.27786e-05
4.27786e-05
4.27786e-05
4.26949e-05
4.26949e-05
4.26949e-05
4.24571e-05
4.24571e-05
4.24571e-05
4.25351e-05
4.25351e-05
4.25351e-05
4.33532e-05
4.33532e-05
4.33532e-05
3.9506e-05
3.9506e-05
3.9506e-05
3.95781e-05
3.95781e-05
3.95781e-05
3.95792e-05
3.95792e-05
3.95792e-05
3.94368e-05
3.94368e-05
3.94368e-05
4.12047e-05
4.12047e-05
4.12047e-05
4.09008e-05
4.09008e-05
4.09008e-05
4.10521e-05
4.10521e-05
4.10521e-05
3.67501e-05
3.67501e-05
3.67501e-05
3.64972e-05
3.64972e-05
3.64972e-05
3.66952e-05
3.66952e-05
3.66952e-05
3.66253e-05
3.66253e-05
3.66253e-05
3.68831e-05
3.68831e-05
3.68831e-05
3.68241e-05
3.68241e-05
3.68241e-05
3.77321e-05
3.77321e-05
3.77321e-05
3.77205e-05
3.77205e-05
3.77205e-05
3.76597e-05
3.76597e-05
3.76597e-05
3.81581e-05
3.81581e-05
3.81581e-05
3.82829e-05
3.82829e-05
3.82829e-05
3.87809e-05
3.87809e-05
3.87809e-05
3.87171e-05
3.87171e-05
3.87171e-05
4.07908e-05
4.07908e-05
4.07908e-05
4.08585e-05
4.08585e-05
4.08585e-05
4.10096e-05
4.10096e-05
4.10096e-05
4.10931e-05
4.10931e-05
4.10931e-05
4.0641e-05
4.0641e-05
4.0641e-05
4.0344e-05
4.0344e-05
4.0344e-05
4.05589e-05
4.05589e-05
4.05589e-05
4.04105e-05
4.04105e-05
4.04105e-05
4.04248e-05
4.04248e-05
4.04248e-05
4.05733e-05
4.05733e-05
4.05733e-05
3.86829e-05
3.86829e-05
3.86829e-05
3.91398e-05
3.91398e-05
3.91398e-05
3.9076e-05
3.9076e-05
3.9076e-05
3.9063e-05
3.9063e-05
3.9063e-05
3.91265e-05
3.91265e-05
3.91265e-05
3.90498e-05
3.90498e-05
3.90498e-05
3.89099e-05
3.89099e-05
3.89099e-05
3.88332e-05
3.88332e-05
3.88332e-05
3.86945e-05
3.86945e-05
3.86945e-05
3.86194e-05
3.86194e-05
3.86194e-05
3.72991e-05
3.72991e-05
3.72991e-05
3.86584e-05
3.86584e-05
3.86584e-05
3.89361e-05
3.89361e-05
3.89361e-05
3.82961e-05
3.82961e-05
3.82961e-05
3.76709e-05
3.76709e-05
3.76709e-05
3.76103e-05
3.76103e-05
3.76103e-05
3.83409e-05
3.83409e-05
3.83409e-05
3.84818e-05
3.84818e-05
3.84818e-05
3.84194e-05
3.84194e-05
3.84194e-05
3.79345e-05
3.79345e-05
3.79345e-05
3.78044e-05
3.78044e-05
3.78044e-05
3.78773e-05
3.78773e-05
3.78773e-05
3.82217e-05
3.82217e-05
3.82217e-05
3.80862e-05
3.80862e-05
3.80862e-05
3.82828e-05
3.82828e-05
3.82828e-05
3.82088e-05
3.82088e-05
3.82088e-05
3.80118e-05
3.80118e-05
3.80118e-05
3.80733e-05
3.80733e-05
3.80733e-05
4.27299e-05
4.27299e-05
4.27299e-05
4.21675e-05
4.21675e-05
4.21675e-05
4.2009e-05
4.2009e-05
4.2009e-05
4.2797e-05
4.2797e-05
4.2797e-05
4.2486e-05
4.2486e-05
4.2486e-05
4.2645e-05
4.2645e-05
4.2645e-05
4.23233e-05
4.23233e-05
4.23233e-05
4.12314e-05
4.12314e-05
4.12314e-05
4.29954e-05
4.29954e-05
4.29954e-05
4.28456e-05
4.28456e-05
4.28456e-05
4.30084e-05
4.30084e-05
4.30084e-05
4.30837e-05
4.30837e-05
4.30837e-05
4.33367e-05
4.33367e-05
4.33367e-05
4.32479e-05
4.32479e-05
4.32479e-05
4.3324e-05
4.3324e-05
4.3324e-05
4.23132e-05
4.23132e-05
4.23132e-05
4.25229e-05
4.25229e-05
4.25229e-05
4.27709e-05
4.27709e-05
4.27709e-05
4.26095e-05
4.26095e-05
4.26095e-05
4.27947e-05
4.27947e-05
4.27947e-05
4.26333e-05
4.26333e-05
4.26333e-05
4.31421e-05
4.31421e-05
4.31421e-05
4.33061e-05
4.33061e-05
4.33061e-05
4.33936e-05
4.33936e-05
4.33936e-05
3.86091e-05
3.86091e-05
3.86091e-05
3.88405e-05
3.88405e-05
3.88405e-05
3.92785e-05
3.92785e-05
3.92785e-05
3.94121e-05
3.94121e-05
3.94121e-05
3.92702e-05
3.92702e-05
3.92702e-05
3.92037e-05
3.92037e-05
3.92037e-05
3.89887e-05
3.89887e-05
3.89887e-05
3.9063e-05
3.9063e-05
3.9063e-05
3.94205e-05
3.94205e-05
3.94205e-05
3.94876e-05
3.94876e-05
3.94876e-05
4.02893e-05
4.02893e-05
4.02893e-05
3.92328e-05
3.92328e-05
3.92328e-05
3.91673e-05
3.91673e-05
3.91673e-05
3.88971e-05
3.88971e-05
3.88971e-05
3.91775e-05
3.91775e-05
3.91775e-05
3.4962e-05
3.4962e-05
3.4962e-05
3.49654e-05
3.49654e-05
3.49654e-05
3.50244e-05
3.50244e-05
3.50244e-05
3.51462e-05
3.51462e-05
3.51462e-05
3.49212e-05
3.49212e-05
3.49212e-05
3.78773e-05
3.78773e-05
3.78773e-05
3.8147e-05
3.8147e-05
3.8147e-05
3.795e-05
3.795e-05
3.795e-05
3.80849e-05
3.80849e-05
3.80849e-05
3.80958e-05
3.80958e-05
3.80958e-05
3.81689e-05
3.81689e-05
3.81689e-05
3.52054e-05
3.52054e-05
3.52054e-05
3.49498e-05
3.49498e-05
3.49498e-05
3.48815e-05
3.48815e-05
3.48815e-05
3.68982e-05
3.68982e-05
3.68982e-05
3.68356e-05
3.68356e-05
3.68356e-05
3.54664e-05
3.54664e-05
3.54664e-05
3.51002e-05
3.51002e-05
3.51002e-05
3.52216e-05
3.52216e-05
3.52216e-05
3.53438e-05
3.53438e-05
3.53438e-05
4.27726e-05
4.27726e-05
4.27726e-05
4.34397e-05
4.34397e-05
4.34397e-05
4.04525e-05
4.04525e-05
4.04525e-05
4.06011e-05
4.06011e-05
4.06011e-05
3.97216e-05
3.97216e-05
3.97216e-05
3.5958e-05
3.5958e-05
3.5958e-05
4.04499e-05
4.04499e-05
4.04499e-05
4.05984e-05
4.05984e-05
4.05984e-05
3.92921e-05
3.92921e-05
3.92921e-05
3.93621e-05
3.93621e-05
3.93621e-05
3.91524e-05
3.91524e-05
3.91524e-05
3.92935e-05
3.92935e-05
3.92935e-05
3.92946e-05
3.92946e-05
3.92946e-05
3.9365e-05
3.9365e-05
3.9365e-05
3.90134e-05
3.90134e-05
3.90134e-05
3.91535e-05
3.91535e-05
3.91535e-05
3.90827e-05
3.90827e-05
3.90827e-05
3.89427e-05
3.89427e-05
3.89427e-05
3.88735e-05
3.88735e-05
3.88735e-05
3.85206e-05
3.85206e-05
3.85206e-05
3.84456e-05
3.84456e-05
3.84456e-05
3.68954e-05
3.68954e-05
3.68954e-05
3.78659e-05
3.78659e-05
3.78659e-05
3.79388e-05
3.79388e-05
3.79388e-05
3.80736e-05
3.80736e-05
3.80736e-05
3.76479e-05
3.76479e-05
3.76479e-05
3.77085e-05
3.77085e-05
3.77085e-05
3.72395e-05
3.72395e-05
3.72395e-05
3.6439e-05
3.6439e-05
3.6439e-05
3.69743e-05
3.69743e-05
3.69743e-05
3.82941e-05
3.82941e-05
3.82941e-05
3.8568e-05
3.8568e-05
3.8568e-05
3.84937e-05
3.84937e-05
3.84937e-05
3.83567e-05
3.83567e-05
3.83567e-05
3.83678e-05
3.83678e-05
3.83678e-05
3.85048e-05
3.85048e-05
3.85048e-05
3.89201e-05
3.89201e-05
3.89201e-05
3.89955e-05
3.89955e-05
3.89955e-05
3.87918e-05
3.87918e-05
3.87918e-05
3.89311e-05
3.89311e-05
3.89311e-05
3.93641e-05
3.93641e-05
3.93641e-05
3.94299e-05
3.94299e-05
3.94299e-05
3.90267e-05
3.90267e-05
3.90267e-05
3.92675e-05
3.92675e-05
3.92675e-05
4.03579e-05
4.03579e-05
4.03579e-05
4.02243e-05
4.02243e-05
4.02243e-05
4.02107e-05
4.02107e-05
4.02107e-05
4.01442e-05
4.01442e-05
4.01442e-05
4.27449e-05
4.27449e-05
4.27449e-05
4.28326e-05
4.28326e-05
4.28326e-05
4.27582e-05
4.27582e-05
4.27582e-05
4.25968e-05
4.25968e-05
4.25968e-05
4.18761e-05
4.18761e-05
4.18761e-05
4.23084e-05
4.23084e-05
4.23084e-05
4.2468e-05
4.2468e-05
4.2468e-05
4.15954e-05
4.15954e-05
4.15954e-05
4.17646e-05
4.17646e-05
4.17646e-05
4.15112e-05
4.15112e-05
4.15112e-05
3.81355e-05
3.81355e-05
3.81355e-05
3.87461e-05
3.87461e-05
3.87461e-05
3.86708e-05
3.86708e-05
3.86708e-05
3.87338e-05
3.87338e-05
3.87338e-05
3.88727e-05
3.88727e-05
3.88727e-05
3.92939e-05
3.92939e-05
3.92939e-05
3.91527e-05
3.91527e-05
3.91527e-05
3.86325e-05
3.86325e-05
3.86325e-05
3.85079e-05
3.85079e-05
3.85079e-05
3.84949e-05
3.84949e-05
3.84949e-05
3.84327e-05
3.84327e-05
3.84327e-05
3.88966e-05
3.88966e-05
3.88966e-05
3.87535e-05
3.87535e-05
3.87535e-05
3.8025e-05
3.8025e-05
3.8025e-05
3.78422e-05
3.78422e-05
3.78422e-05
3.7903e-05
3.7903e-05
3.7903e-05
3.74906e-05
3.74906e-05
3.74906e-05
3.76357e-05
3.76357e-05
3.76357e-05
3.74308e-05
3.74308e-05
3.74308e-05
3.7503e-05
3.7503e-05
3.7503e-05
3.72272e-05
3.72272e-05
3.72272e-05
3.70964e-05
3.70964e-05
3.70964e-05
3.70252e-05
3.70252e-05
3.70252e-05
4.29381e-05
4.29381e-05
4.29381e-05
4.27903e-05
4.27903e-05
4.27903e-05
4.29599e-05
4.29599e-05
4.29599e-05
4.28902e-05
4.28902e-05
4.28902e-05
4.31269e-05
4.31269e-05
4.31269e-05
4.26568e-05
4.26568e-05
4.26568e-05
4.21795e-05
4.21795e-05
4.21795e-05
4.24967e-05
4.24967e-05
4.24967e-05
4.24108e-05
4.24108e-05
4.24108e-05
4.22524e-05
4.22524e-05
4.22524e-05
4.19923e-05
4.19923e-05
4.19923e-05
4.17507e-05
4.17507e-05
4.17507e-05
4.18356e-05
4.18356e-05
4.18356e-05
4.18216e-05
4.18216e-05
4.18216e-05
4.12457e-05
4.12457e-05
4.12457e-05
4.13148e-05
4.13148e-05
4.13148e-05
4.19363e-05
4.19363e-05
4.19363e-05
4.2022e-05
4.2022e-05
4.2022e-05
4.287e-05
4.287e-05
4.287e-05
4.28581e-05
4.28581e-05
4.28581e-05
4.27831e-05
4.27831e-05
4.27831e-05
4.33489e-05
4.33489e-05
4.33489e-05
4.32605e-05
4.32605e-05
4.32605e-05
4.30964e-05
4.30964e-05
4.30964e-05
4.30208e-05
4.30208e-05
4.30208e-05
4.3193e-05
4.3193e-05
4.3193e-05
4.29533e-05
4.29533e-05
4.29533e-05
4.30277e-05
4.30277e-05
4.30277e-05
4.32834e-05
4.32834e-05
4.32834e-05
4.30705e-05
4.30705e-05
4.30705e-05
4.32349e-05
4.32349e-05
4.32349e-05
4.2363e-05
4.2363e-05
4.2363e-05
4.22896e-05
4.22896e-05
4.22896e-05
4.12103e-05
4.12103e-05
4.12103e-05
4.11283e-05
4.11283e-05
4.11283e-05
4.15648e-05
4.15648e-05
4.15648e-05
4.21311e-05
4.21311e-05
4.21311e-05
4.20459e-05
4.20459e-05
4.20459e-05
4.21545e-05
4.21545e-05
4.21545e-05
4.16486e-05
4.16486e-05
4.16486e-05
4.18043e-05
4.18043e-05
4.18043e-05
4.18888e-05
4.18888e-05
4.18888e-05
4.18167e-05
4.18167e-05
4.18167e-05
4.25354e-05
4.25354e-05
4.25354e-05
4.23872e-05
4.23872e-05
4.23872e-05
4.25472e-05
4.25472e-05
4.25472e-05
4.26217e-05
4.26217e-05
4.26217e-05
4.23017e-05
4.23017e-05
4.23017e-05
4.23754e-05
4.23754e-05
4.23754e-05
4.28814e-05
4.28814e-05
4.28814e-05
4.30441e-05
4.30441e-05
4.30441e-05
4.31313e-05
4.31313e-05
4.31313e-05
4.30551e-05
4.30551e-05
4.30551e-05
4.25586e-05
4.25586e-05
4.25586e-05
4.23985e-05
4.23985e-05
4.23985e-05
4.23243e-05
4.23243e-05
4.23243e-05
4.09475e-05
4.09475e-05
4.09475e-05
4.07968e-05
4.07968e-05
4.07968e-05
3.83041e-05
3.83041e-05
3.83041e-05
3.88553e-05
3.88553e-05
3.88553e-05
3.82378e-05
3.82378e-05
3.82378e-05
3.83076e-05
3.83076e-05
3.83076e-05
3.8923e-05
3.8923e-05
3.8923e-05
3.86814e-05
3.86814e-05
3.86814e-05
3.86154e-05
3.86154e-05
3.86154e-05
3.93146e-05
3.93146e-05
3.93146e-05
3.92407e-05
3.92407e-05
3.92407e-05
3.90931e-05
3.90931e-05
3.90931e-05
3.94567e-05
3.94567e-05
3.94567e-05
3.95312e-05
3.95312e-05
3.95312e-05
3.96746e-05
3.96746e-05
3.96746e-05
3.97434e-05
3.97434e-05
3.97434e-05
3.87666e-05
3.87666e-05
3.87666e-05
3.898e-05
3.898e-05
3.898e-05
3.90545e-05
3.90545e-05
3.90545e-05
3.91952e-05
3.91952e-05
3.91952e-05
3.92614e-05
3.92614e-05
3.92614e-05
3.99637e-05
3.99637e-05
3.99637e-05
3.9888e-05
3.9888e-05
3.9888e-05
3.94958e-05
3.94958e-05
3.94958e-05
3.96307e-05
3.96307e-05
3.96307e-05
3.93082e-05
3.93082e-05
3.93082e-05
3.9234e-05
3.9234e-05
3.9234e-05
3.99433e-05
3.99433e-05
3.99433e-05
3.98671e-05
3.98671e-05
3.98671e-05
3.93845e-05
3.93845e-05
3.93845e-05
3.92427e-05
3.92427e-05
3.92427e-05
3.93188e-05
3.93188e-05
3.93188e-05
4.04911e-05
4.04911e-05
4.04911e-05
3.49685e-05
3.49685e-05
3.49685e-05
3.50277e-05
3.50277e-05
3.50277e-05
3.50307e-05
3.50307e-05
3.50307e-05
3.58649e-05
3.58649e-05
3.58649e-05
3.56117e-05
3.56117e-05
3.56117e-05
3.574e-05
3.574e-05
3.574e-05
3.4938e-05
3.4938e-05
3.4938e-05
3.48285e-05
3.48285e-05
3.48285e-05
3.48564e-05
3.48564e-05
3.48564e-05
3.78883e-05
3.78883e-05
3.78883e-05
3.79609e-05
3.79609e-05
3.79609e-05
3.78989e-05
3.78989e-05
3.78989e-05
3.77649e-05
3.77649e-05
3.77649e-05
3.81064e-05
3.81064e-05
3.81064e-05
3.79713e-05
3.79713e-05
3.79713e-05
3.50208e-05
3.50208e-05
3.50208e-05
3.51425e-05
3.51425e-05
3.51425e-05
3.49582e-05
3.49582e-05
3.49582e-05
3.50169e-05
3.50169e-05
3.50169e-05
3.51343e-05
3.51343e-05
3.51343e-05
3.51931e-05
3.51931e-05
3.51931e-05
3.53154e-05
3.53154e-05
3.53154e-05
3.53107e-05
3.53107e-05
3.53107e-05
3.53745e-05
3.53745e-05
3.53745e-05
3.55618e-05
3.55618e-05
3.55618e-05
3.54977e-05
3.54977e-05
3.54977e-05
3.49349e-05
3.49349e-05
3.49349e-05
3.49459e-05
3.49459e-05
3.49459e-05
3.70282e-05
3.70282e-05
3.70282e-05
3.72899e-05
3.72899e-05
3.72899e-05
3.516e-05
3.516e-05
3.516e-05
3.52089e-05
3.52089e-05
3.52089e-05
3.53315e-05
3.53315e-05
3.53315e-05
3.51495e-05
3.51495e-05
3.51495e-05
4.17296e-05
4.17296e-05
4.17296e-05
4.20357e-05
4.20357e-05
4.20357e-05
4.25219e-05
4.25219e-05
4.25219e-05
4.25241e-05
4.25241e-05
4.25241e-05
4.24431e-05
4.24431e-05
4.24431e-05
4.2048e-05
4.2048e-05
4.2048e-05
4.22838e-05
4.22838e-05
4.22838e-05
4.22058e-05
4.22058e-05
4.22058e-05
4.24406e-05
4.24406e-05
4.24406e-05
4.2691e-05
4.2691e-05
4.2691e-05
4.2297e-05
4.2297e-05
4.2297e-05
4.21387e-05
4.21387e-05
4.21387e-05
4.33613e-05
4.33613e-05
4.33613e-05
4.29561e-05
4.29561e-05
4.29561e-05
4.31191e-05
4.31191e-05
4.31191e-05
4.31971e-05
4.31971e-05
4.31971e-05
4.26326e-05
4.26326e-05
4.26326e-05
4.29703e-05
4.29703e-05
4.29703e-05
4.31334e-05
4.31334e-05
4.31334e-05
4.03768e-05
4.03768e-05
4.03768e-05
4.04514e-05
4.04514e-05
4.04514e-05
4.03781e-05
4.03781e-05
4.03781e-05
4.08251e-05
4.08251e-05
4.08251e-05
4.06752e-05
4.06752e-05
4.06752e-05
4.08996e-05
4.08996e-05
4.08996e-05
4.08237e-05
4.08237e-05
4.08237e-05
4.05999e-05
4.05999e-05
4.05999e-05
4.06738e-05
4.06738e-05
4.06738e-05
3.9793e-05
3.9793e-05
3.9793e-05
3.9936e-05
3.9936e-05
3.9936e-05
3.98673e-05
3.98673e-05
3.98673e-05
3.97227e-05
3.97227e-05
3.97227e-05
3.97943e-05
3.97943e-05
3.97943e-05
3.59664e-05
3.59664e-05
3.59664e-05
3.69202e-05
3.69202e-05
3.69202e-05
3.66619e-05
3.66619e-05
3.66619e-05
3.72981e-05
3.72981e-05
3.72981e-05
3.74299e-05
3.74299e-05
3.74299e-05
3.73833e-05
3.73833e-05
3.73833e-05
3.77819e-05
3.77819e-05
3.77819e-05
3.79158e-05
3.79158e-05
3.79158e-05
3.69902e-05
3.69902e-05
3.69902e-05
3.68591e-05
3.68591e-05
3.68591e-05
3.67298e-05
3.67298e-05
3.67298e-05
3.68601e-05
3.68601e-05
3.68601e-05
3.69245e-05
3.69245e-05
3.69245e-05
3.68563e-05
3.68563e-05
3.68563e-05
3.67271e-05
3.67271e-05
3.67271e-05
3.65364e-05
3.65364e-05
3.65364e-05
3.66648e-05
3.66648e-05
3.66648e-05
3.67286e-05
3.67286e-05
3.67286e-05
3.66635e-05
3.66635e-05
3.66635e-05
3.60837e-05
3.60837e-05
3.60837e-05
4.08981e-05
4.08981e-05
4.08981e-05
4.10493e-05
4.10493e-05
4.10493e-05
3.95767e-05
3.95767e-05
3.95767e-05
3.95044e-05
3.95044e-05
3.95044e-05
3.97202e-05
3.97202e-05
3.97202e-05
3.97913e-05
3.97913e-05
3.97913e-05
3.92904e-05
3.92904e-05
3.92904e-05
3.81863e-05
3.81863e-05
3.81863e-05
3.81178e-05
3.81178e-05
3.81178e-05
3.80505e-05
3.80505e-05
3.80505e-05
3.80495e-05
3.80495e-05
3.80495e-05
3.81166e-05
3.81166e-05
3.81166e-05
3.88724e-05
3.88724e-05
3.88724e-05
3.87335e-05
3.87335e-05
3.87335e-05
3.82489e-05
3.82489e-05
3.82489e-05
3.9151e-05
3.9151e-05
3.9151e-05
3.8871e-05
3.8871e-05
3.8871e-05
3.90815e-05
3.90815e-05
3.90815e-05
3.89415e-05
3.89415e-05
3.89415e-05
3.67851e-05
3.67851e-05
3.67851e-05
3.69144e-05
3.69144e-05
3.69144e-05
3.75269e-05
3.75269e-05
3.75269e-05
3.70375e-05
3.70375e-05
3.70375e-05
3.71087e-05
3.71087e-05
3.71087e-05
3.7443e-05
3.7443e-05
3.7443e-05
3.73112e-05
3.73112e-05
3.73112e-05
3.75151e-05
3.75151e-05
3.75151e-05
3.74549e-05
3.74549e-05
3.74549e-05
3.74664e-05
3.74664e-05
3.74664e-05
3.73345e-05
3.73345e-05
3.73345e-05
3.66374e-05
3.66374e-05
3.66374e-05
3.65093e-05
3.65093e-05
3.65093e-05
3.89844e-05
3.89844e-05
3.89844e-05
3.89088e-05
3.89088e-05
3.89088e-05
3.89728e-05
3.89728e-05
3.89728e-05
3.9113e-05
3.9113e-05
3.9113e-05
3.91893e-05
3.91893e-05
3.91893e-05
3.91246e-05
3.91246e-05
3.91246e-05
3.90063e-05
3.90063e-05
3.90063e-05
3.91467e-05
3.91467e-05
3.91467e-05
3.91572e-05
3.91572e-05
3.91572e-05
3.92225e-05
3.92225e-05
3.92225e-05
3.87277e-05
3.87277e-05
3.87277e-05
3.85259e-05
3.85259e-05
3.85259e-05
3.85896e-05
3.85896e-05
3.85896e-05
3.93745e-05
3.93745e-05
3.93745e-05
3.94405e-05
3.94405e-05
3.94405e-05
3.94507e-05
3.94507e-05
3.94507e-05
4.02755e-05
4.02755e-05
4.02755e-05
4.04231e-05
4.04231e-05
4.04231e-05
3.95785e-05
3.95785e-05
3.95785e-05
3.93317e-05
3.93317e-05
3.93317e-05
3.92809e-05
3.92809e-05
3.92809e-05
3.93451e-05
3.93451e-05
3.93451e-05
3.93583e-05
3.93583e-05
3.93583e-05
3.95006e-05
3.95006e-05
3.95006e-05
3.99845e-05
3.99845e-05
3.99845e-05
4.01969e-05
4.01969e-05
4.01969e-05
4.01304e-05
4.01304e-05
4.01304e-05
4.0655e-05
4.0655e-05
4.0655e-05
4.10242e-05
4.10242e-05
4.10242e-05
4.0873e-05
4.0873e-05
4.0873e-05
4.08049e-05
4.08049e-05
4.08049e-05
4.08871e-05
4.08871e-05
4.08871e-05
4.13573e-05
4.13573e-05
4.13573e-05
4.25697e-05
4.25697e-05
4.25697e-05
4.27166e-05
4.27166e-05
4.27166e-05
4.25554e-05
4.25554e-05
4.25554e-05
4.24824e-05
4.24824e-05
4.24824e-05
4.24965e-05
4.24965e-05
4.24965e-05
4.251e-05
4.251e-05
4.251e-05
4.25836e-05
4.25836e-05
4.25836e-05
4.23367e-05
4.23367e-05
4.23367e-05
4.25407e-05
4.25407e-05
4.25407e-05
4.27752e-05
4.27752e-05
4.27752e-05
4.27018e-05
4.27018e-05
4.27018e-05
4.24532e-05
4.24532e-05
4.24532e-05
4.2078e-05
4.2078e-05
4.2078e-05
4.22362e-05
4.22362e-05
4.22362e-05
4.23227e-05
4.23227e-05
4.23227e-05
4.22503e-05
4.22503e-05
4.22503e-05
4.13293e-05
4.13293e-05
4.13293e-05
4.14832e-05
4.14832e-05
4.14832e-05
4.15815e-05
4.15815e-05
4.15815e-05
4.17366e-05
4.17366e-05
4.17366e-05
4.15676e-05
4.15676e-05
4.15676e-05
4.14972e-05
4.14972e-05
4.14972e-05
3.82713e-05
3.82713e-05
3.82713e-05
3.8545e-05
3.8545e-05
3.8545e-05
3.84822e-05
3.84822e-05
3.84822e-05
3.83453e-05
3.83453e-05
3.83453e-05
3.8533e-05
3.8533e-05
3.8533e-05
3.82594e-05
3.82594e-05
3.82594e-05
3.84704e-05
3.84704e-05
3.84704e-05
3.83336e-05
3.83336e-05
3.83336e-05
3.84582e-05
3.84582e-05
3.84582e-05
3.83214e-05
3.83214e-05
3.83214e-05
3.79272e-05
3.79272e-05
3.79272e-05
3.8062e-05
3.8062e-05
3.8062e-05
3.81237e-05
3.81237e-05
3.81237e-05
3.78542e-05
3.78542e-05