<VTKFile type="UnstructuredGrid" version="1.0">
<UnstructuredGrid>
<Piece NumberOfPoints="8859" NumberOfCells="2953">
<Points>
<DataArray type="Float64" NumberOfComponents="3" format="ascii">
2.75455 1.50245 5.09263
2.76986 1.48714 5.10458
2.75465 1.50235 5.11833
2.78515 1.47185 5.04167
2.78516 1.47184 5.01651
2.8005 1.4565 5.02898
2.76981 1.48719 5.05436
2.78515 1.47185 5.04167
2.78514 1.47186 5.06686
2.72412 1.53288 5.14488
2.73952 1.51748 5.1525
2.70875 1.54825 5.1525
2.72412 1.53288 5.14488
2.73943 1.51757 5.12957
2.73952 1.51748 5.1525
2.75488 1.50212 5.14479
2.77036 1.48664 5.1525
2.73952 1.51748 5.1525
2.75488 1.50212 5.14479
2.73943 1.51757 5.12957
2.75465 1.50235 5.11833
2.73952 1.51748 5.1525
2.73943 1.51757 5.12957
2.75488 1.50212 5.14479
2.75465 1.50235 5.11833
2.76986 1.48714 5.10458
2.76997 1.48703 5.12927
2.76997 1.48703 5.12927
2.75488 1.50212 5.14479
2.75465 1.50235 5.11833
2.77036 1.48664 5.1525
2.75488 1.50212 5.14479
2.76997 1.48703 5.12927
2.76986 1.48714 5.10458
2.75455 1.50245 5.09263
2.76982 1.48718 5.07952
2.76981 1.48719 5.05436
2.78514 1.47186 5.06686
2.76982 1.48718 5.07952
2.7852 1.4718 5.11762
2.76997 1.48703 5.12927
2.76986 1.48714 5.10458
2.8005 1.4565 5.10395
2.8005 1.4565 5.12855
2.7852 1.4718 5.11762
2.8005 1.4565 5.00387
2.8005 1.4565 5.02898
2.78516 1.47184 5.01651
2.78515 1.47185 5.04167
2.8005 1.4565 5.02898
2.8005 1.4565 5.05406
2.8005 1.4565 5.05406
2.78514 1.47186 5.06686
2.78515 1.47185 5.04167
2.8005 1.4565 4.47652
2.8005 1.4565 4.50165
2.78518 1.47182 4.48907
2.78517 1.47183 4.94107
2.8005 1.4565 4.95361
2.78517 1.47183 4.96621
2.8005 1.4565 4.92848
2.8005 1.4565 4.95361
2.78517 1.47183 4.94107
2.78519 1.47181 4.81544
2.8005 1.4565 4.82799
2.78519 1.47181 4.84055
2.32274 1.93426 4.26059
2.33845 1.91855 4.2525
2.33845 1.91855 4.27563
2.27541 1.98159 5.1525
2.24359 2.01341 5.1525
2.25954 1.99746 5.14432
2.78515 1.47185 5.09212
2.76982 1.48718 5.07952
2.78514 1.47186 5.06686
2.76986 1.48714 5.10458
2.76982 1.48718 5.07952
2.78515 1.47185 5.09212
2.78515 1.47185 5.09212
2.7852 1.4718 5.11762
2.76986 1.48714 5.10458
2.8005 1.4565 5.10395
2.7852 1.4718 5.11762
2.78515 1.47185 5.09212
2.78544 1.47156 5.14384
2.8005 1.4565 5.12855
2.8005 1.4565 5.1525
2.78544 1.47156 5.14384
2.7852 1.4718 5.11762
2.8005 1.4565 5.12855
2.8005 1.4565 5.1525
2.77036 1.48664 5.1525
2.78544 1.47156 5.14384
2.77036 1.48664 5.1525
2.76997 1.48703 5.12927
2.78544 1.47156 5.14384
2.76997 1.48703 5.12927
2.7852 1.4718 5.11762
2.78544 1.47156 5.14384
2.78517 1.47183 4.96621
2.8005 1.4565 4.95361
2.8005 1.4565 4.97874
2.78514 1.47186 5.06686
2.8005 1.4565 5.05406
2.8005 1.4565 5.07907
2.8005 1.4565 5.10395
2.78515 1.47185 5.09212
2.8005 1.4565 5.07907
2.8005 1.4565 5.07907
2.78515 1.47185 5.09212
2.78514 1.47186 5.06686
2.8005 1.4565 4.80289
2.8005 1.4565 4.82799
2.78519 1.47181 4.81544
2.78518 1.47182 4.48907
2.8005 1.4565 4.50165
2.78518 1.47182 4.5142
2.76985 1.48715 4.92853
2.75454 1.50246 4.91598
2.76986 1.48714 4.90338
2.78516 1.47184 4.99136
2.8005 1.4565 5.00387
2.78516 1.47184 5.01651
2.78516 1.47184 4.99136
2.8005 1.4565 4.97874
2.8005 1.4565 5.00387
2.78516 1.47184 4.99136
2.76984 1.48716 4.97884
2.78517 1.47183 4.96621
2.78517 1.47183 4.96621
2.8005 1.4565 4.97874
2.78516 1.47184 4.99136
2.76982 1.48718 5.02918
2.78515 1.47185 5.04167
2.76981 1.48719 5.05436
2.76982 1.48718 5.02918
2.78516 1.47184 5.01651
2.78515 1.47185 5.04167
2.75451 1.50249 4.99149
2.7392 1.5178 5.00415
2.73921 1.51779 4.97894
2.53996 1.71704 5.11838
2.52458 1.73242 5.1049
2.53996 1.71704 5.09275
2.49374 1.76326 4.9538
2.49375 1.76325 4.979
2.47832 1.77868 4.96639
2.8005 1.4565 4.2525
2.8005 1.4565 4.27645
2.78544 1.47156 4.26116
2.27543 1.98157 5.12933
2.27541 1.98159 5.1525
2.25954 1.99746 5.14432
2.33845 1.91855 5.05446
2.32276 1.93424 5.06714
2.32275 1.93425 5.04185
2.25954 1.99746 5.14432
2.24359 2.01341 5.1525
2.24374 2.01326 5.12923
2.76987 1.48713 4.577
2.75455 1.50245 4.56443
2.76987 1.48713 4.55188
2.8005 1.4565 4.72759
2.78519 1.47181 4.71505
2.8005 1.4565 4.7025
2.78519 1.47181 4.76524
2.8005 1.4565 4.75269
2.8005 1.4565 4.77778
2.76988 1.48712 4.67741
2.75456 1.50244 4.68995
2.75456 1.50244 4.66486
2.76988 1.48712 4.7025
2.75456 1.50244 4.68995
2.76988 1.48712 4.67741
2.78519 1.47181 4.71505
2.76988 1.48712 4.72759
2.76988 1.48712 4.7025
2.75455 1.50245 4.84057
2.76987 1.48713 4.85312
2.75455 1.50245 4.8657
2.72393 1.53307 4.81547
2.72392 1.53308 4.84059
2.70861 1.54839 4.82803
2.75456 1.50244 4.81545
2.73924 1.51776 4.8029
2.75456 1.50244 4.79035
2.75456 1.50244 4.79035
2.76987 1.48713 4.80289
2.75456 1.50244 4.81545
2.73924 1.51776 4.8029
2.73925 1.51775 4.7778
2.75456 1.50244 4.79035
2.75456 1.50244 4.79035
2.73925 1.51775 4.7778
2.75456 1.50244 4.76524
2.8005 1.4565 4.77778
2.8005 1.4565 4.80289
2.78519 1.47181 4.79034
2.78519 1.47181 4.79034
2.78519 1.47181 4.76524
2.8005 1.4565 4.77778
2.78519 1.47181 4.79034
2.8005 1.4565 4.80289
2.78519 1.47181 4.81544
2.78519 1.47181 4.81544
2.76987 1.48713 4.80289
2.78519 1.47181 4.79034
2.75454 1.50246 4.89083
2.73923 1.51777 4.87828
2.75455 1.50245 4.8657
2.75454 1.50246 4.89083
2.76986 1.48714 4.90338
2.75454 1.50246 4.91598
2.7086 1.5484 4.8783
2.72392 1.53308 4.86572
2.72392 1.53308 4.89086
2.72392 1.53308 4.89086
2.72392 1.53308 4.86572
2.73923 1.51777 4.87828
2.8005 1.4565 4.8531
2.78519 1.47181 4.84055
2.8005 1.4565 4.82799
2.75455 1.50245 4.8657
2.76987 1.48713 4.85312
2.76986 1.48714 4.87825
2.76986 1.48714 4.87825
2.75454 1.50246 4.89083
2.75455 1.50245 4.8657
2.76986 1.48714 4.90338
2.75454 1.50246 4.89083
2.76986 1.48714 4.87825
2.78517 1.47183 4.96621
2.76984 1.48716 4.97884
2.76985 1.48715 4.95368
2.76985 1.48715 4.95368
2.78517 1.47183 4.94107
2.78517 1.47183 4.96621
2.76985 1.48715 4.92853
2.78517 1.47183 4.94107
2.76985 1.48715 4.95368
2.73921 1.51779 4.97894
2.73921 1.51779 4.95375
2.75452 1.50248 4.9663
2.75452 1.50248 4.9663
2.75451 1.50249 4.99149
2.73921 1.51779 4.97894
2.76984 1.48716 4.97884
2.75451 1.50249 4.99149
2.75452 1.50248 4.9663
2.75452 1.50248 4.9663
2.76985 1.48715 4.95368
2.76984 1.48716 4.97884
2.7239 1.5331 4.96638
2.73921 1.51779 4.95375
2.73921 1.51779 4.97894
2.7239 1.5331 4.96638
2.70859 1.54841 4.97901
2.70859 1.54841 4.95381
2.76981 1.48719 5.05436
2.76982 1.48718 5.07952
2.75451 1.50249 5.06722
2.75451 1.50249 5.06722
2.76982 1.48718 5.07952
2.75455 1.50245 5.09263
2.7392 1.5178 5.00415
2.75451 1.50249 4.99149
2.75451 1.50249 5.01669
2.75451 1.50249 5.01669
2.7392 1.5178 5.02937
2.7392 1.5178 5.00415
2.67798 1.57902 4.85317
2.66266 1.59434 4.86575
2.66266 1.59434 4.84061
2.70859 1.54841 4.95381
2.70859 1.54841 4.92862
2.7239 1.5331 4.94119
2.7239 1.5331 4.94119
2.7239 1.5331 4.96638
2.70859 1.54841 4.95381
2.73921 1.51779 4.95375
2.7239 1.5331 4.96638
2.7239 1.5331 4.94119
2.73922 1.51778 4.92858
2.73921 1.51779 4.95375
2.7239 1.5331 4.94119
2.57068 1.68632 5.09276
2.57068 1.68632 5.11839
2.55533 1.70167 5.10491
2.55533 1.70167 5.10491
2.57068 1.68632 5.11839
2.55533 1.70167 5.1295
2.55533 1.70167 5.10491
2.55533 1.70167 5.1295
2.53996 1.71704 5.11838
2.53996 1.71704 5.11838
2.53996 1.71704 5.09275
2.55533 1.70167 5.10491
2.52458 1.73242 5.07984
2.53996 1.71704 5.09275
2.52458 1.73242 5.1049
2.50912 1.74788 4.71505
2.50912 1.74788 4.74015
2.49371 1.76329 4.7276
2.41633 1.84067 4.84056
2.40077 1.85623 4.828
2.41632 1.84068 4.81545
2.41635 1.84065 4.89083
2.40081 1.85619 4.90339
2.40079 1.85621 4.87825
2.33845 1.91855 5.05446
2.32275 1.93425 5.04185
2.33843 1.91857 5.02924
2.33845 1.91855 5.07966
2.32276 1.93424 5.06714
2.33845 1.91855 5.05446
2.40087 1.85613 5.00412
2.40088 1.85612 5.02934
2.38531 1.87169 5.01672
2.30693 1.95007 4.95358
2.32265 1.93435 4.94103
2.32267 1.93433 4.9662
2.30684 1.95016 4.85303
2.29108 1.96592 4.86556
2.29106 1.96594 4.84046
2.32274 1.93426 5.14441
2.33845 1.91855 5.1525
2.30701 1.94999 5.1525
2.33845 1.91855 5.12937
2.33845 1.91855 5.1525
2.32274 1.93426 5.14441
2.35411 1.90289 5.14447
2.33845 1.91855 5.1525
2.33845 1.91855 5.12937
2.30704 1.94996 5.07961
2.30703 1.94997 5.10469
2.29128 1.96572 5.09246
2.55533 1.70167 5.1525
2.52458 1.73242 5.1525
2.53996 1.71704 5.14472
2.53996 1.71704 5.11838
2.55533 1.70167 5.1295
2.53996 1.71704 5.14472
2.53996 1.71704 5.14472
2.55533 1.70167 5.1295
2.55533 1.70167 5.1525
2.52458 1.73242 5.12949
2.52458 1.73242 5.1049
2.53996 1.71704 5.11838
2.53996 1.71704 5.11838
2.53996 1.71704 5.14472
2.52458 1.73242 5.12949
2.52458 1.73242 5.12949
2.53996 1.71704 5.14472
2.52458 1.73242 5.1525
2.41642 1.84058 5.01676
2.40088 1.85612 5.02934
2.40087 1.85613 5.00412
2.47831 1.77869 4.9412
2.49374 1.76326 4.92862
2.49374 1.76326 4.9538
2.49374 1.76326 4.9538
2.47832 1.77868 4.96639
2.47831 1.77869 4.9412
2.47833 1.77867 4.9916
2.47832 1.77868 4.96639
2.49375 1.76325 4.979
2.47833 1.77867 4.9916
2.49375 1.76325 4.979
2.49376 1.76324 5.00421
2.49376 1.76324 5.00421
2.47834 1.77866 5.01682
2.47833 1.77867 4.9916
2.47833 1.77867 4.9916
2.47834 1.77866 5.01682
2.46289 1.79411 5.00419
2.49377 1.76323 5.02943
2.47834 1.77866 5.01682
2.49376 1.76324 5.00421
2.49377 1.76323 5.05464
2.47835 1.77865 5.06734
2.47834 1.77866 5.04206
2.47834 1.77866 5.04206
2.49377 1.76323 5.02943
2.49377 1.76323 5.05464
2.47834 1.77866 5.01682
2.49377 1.76323 5.02943
2.47834 1.77866 5.04206
2.7852 1.4718 4.28738
2.78544 1.47156 4.26116
2.8005 1.4565 4.27645
2.76997 1.48703 4.27573
2.78544 1.47156 4.26116
2.7852 1.4718 4.28738
2.64739 1.60961 4.27548
2.64738 1.60962 4.2525
2.66272 1.59428 4.26021
2.70875 1.54825 4.2525
2.6934 1.5636 4.26017
2.67805 1.57895 4.2525
2.67805 1.57895 4.2525
2.66272 1.59428 4.26021
2.64738 1.60962 4.2525
2.19638 2.06062 4.28897
2.1963 2.0607 4.26286
2.2122 2.0448 4.27645
2.2122 2.0448 4.27645
2.22771 2.02929 4.26101
2.22802 2.02898 4.28745
2.18073 2.07627 4.27782
2.1963 2.0607 4.26286
2.19638 2.06062 4.28897
2.18073 2.07627 4.27782
2.18123 2.07577 4.2525
2.1963 2.0607 4.26286
2.27543 1.98157 4.27567
2.27541 1.98159 4.2525
2.29123 1.96577 4.26063
2.30701 1.94999 4.2525
[...]
<PointData Scalars="View Factor" >
<DataArray type="Float64" Name="View Factor" NumberOfComponents="1" format="ascii">
0.00668207
0.00668207
0.00668207
0.00655627
0.00655627
0.00655627
0.0065977
0.0065977
0.0065977
0.00658352
0.00658352
0.00658352
0.00664128
0.00664128
0.00664128
0.00688228
0.00688228
0.00688228
0.00672651
0.00672651
0.00672651
0.00674003
0.00674003
0.00674003
0.00679694
0.00679694
0.00679694
0.00682333
0.00682333
0.00682333
0.0069372
0.0069372
0.0069372
0.00665975
0.00665975
0.00665975
0.00661812
0.00661812
0.00661812
0.00689195
0.00689195
0.00689195
0.00708224
0.00708224
0.00708224
0.00653553
0.00653553
0.00653553
0.0066674
0.0066674
0.0066674
0.00668902
0.00668902
0.00668902
0.00438312
0.00438312
0.00438312
0.00617717
0.00617717
0.00617717
0.00615846
0.00615846
0.00615846
0.00560373
0.00560373
0.00560373
0.00190762
0.00190762
0.00190762
0.00357072
0.00357072
0.00357072
0.00673208
0.00673208
0.00673208
0.00675332
0.00675332
0.00675332
0.00687075
0.00687075
0.00687075
0.00696519
0.00696519
0.00696519
0.00722753
0.00722753
0.00722753
0.00711083
0.00711083
0.00711083
0.00717716
0.00717716
0.00717716
0.00703375
0.00703375
0.00703375
0.00701491
0.00701491
0.00701491
0.00628112
0.00628112
0.00628112
0.00680243
0.00680243
0.00680243
0.00694068
0.00694068
0.00694068
0.00682502
0.00682502
0.00682502
0.00558788
0.00558788
0.00558788
0.00439344
0.00439344
0.00439344
0.00579304
0.00579304
0.00579304
0.00642675
0.00642675
0.00642675
0.00640678
0.00640678
0.00640678
0.00621436
0.00621436
0.00621436
0.00630053
0.00630053
0.00630053
0.00648652
0.00648652
0.00648652
0.00646664
0.00646664
0.00646664
0.00597201
0.00597201
0.00597201
0.00460298
0.00460298
0.00460298
0.00375574
0.00375574
0.00375574
0.00373435
0.00373435
0.00373435
0.00355219
0.00355219
0.00355219
0.00335239
0.00335239
0.00335239
0.00354804
0.00354804
0.00354804
0.00444314
0.00444314
0.00444314
0.00517809
0.00517809
0.00517809
0.00537815
0.00537815
0.00537815
0.00479614
0.00479614
0.00479614
0.00487565
0.00487565
0.00487565
0.00503806
0.00503806
0.00503806
0.00547907
0.00547907
0.00547907
0.00506923
0.00506923
0.00506923
0.00519741
0.00519741
0.00519741
0.00527228
0.00527228
0.00527228
0.00511097
0.00511097
0.00511097
0.00509912
0.00509912
0.00509912
0.00548177
0.00548177
0.00548177
0.00539285
0.00539285
0.00539285
0.00549703
0.00549703
0.00549703
0.0054221
0.0054221
0.0054221
0.00550676
0.00550676
0.00550676
0.00569612
0.00569612
0.00569612
0.00526881
0.00526881
0.00526881
0.00534811
0.00534811
0.00534811
0.00569655
0.00569655
0.00569655
0.00557162
0.00557162
0.00557162
0.0055862
0.0055862
0.0055862
0.0056809
0.0056809
0.0056809
0.00611056
0.00611056
0.00611056
0.00609271
0.00609271
0.00609271
0.00599117
0.00599117
0.00599117
0.00585498
0.00585498
0.00585498
0.00595617
0.00595617
0.00595617
0.0060422
0.0060422
0.0060422
0.00602532
0.00602532
0.00602532
0.00576988
0.00576988
0.00576988
0.00559971
0.00559971
0.00559971
0.00652612
0.00652612
0.00652612
0.00654664
0.00654664
0.00654664
0.00607562
0.00607562
0.00607562
0.00609222
0.00609222
0.00609222
0.00478009
0.00478009
0.00478009
0.00549056
0.00549056
0.00549056
0.00558684
0.00558684
0.00558684
0.00567102
0.00567102
0.00567102
0.0056572
0.0056572
0.0056572
0.00488255
0.00488255
0.00488255
0.00488339
0.00488339
0.00488339
0.00478913
0.00478913
0.00478913
0.00469597
0.00469597
0.00469597
0.00451023
0.00451023
0.00451023
0.00323774
0.00323774
0.00323774
0.00290084
0.00290084
0.00290084
0.00303465
0.00303465
0.00303465
0.00332434
0.00332434
0.00332434
0.00338902
0.00338902
0.00338902
0.0033264
0.0033264
0.0033264
0.00309973
0.00309973
0.00309973
0.00286813
0.00286813
0.00286813
0.00360309
0.00360309
0.00360309
0.00359072
0.00359072
0.00359072
0.00360093
0.00360093
0.00360093
0.00343272
0.00343272
0.00343272
0.00481779
0.00481779
0.00481779
0.00479261
0.00479261
0.00479261
0.00488443
0.00488443
0.00488443
0.00460122
0.00460122
0.00460122
0.00469762
0.00469762
0.00469762
0.00469265
0.00469265
0.00469265
0.00334038
0.00334038
0.00334038
0.00368356
0.00368356
0.00368356
0.00367873
0.00367873
0.00367873
0.00375101
0.00375101
0.00375101
0.00382972
0.00382972
0.00382972
0.00382513
0.00382513
0.00382513
0.00374061
0.00374061
0.00374061
0.00390565
0.00390565
0.00390565
0.00397899
0.00397899
0.00397899
0.00398337
0.00398337
0.00398337
0.00390112
0.00390112
0.00390112
0.00373962
0.00373962
0.00373962
0.00368875
0.00368875
0.00368875
0.00303557
0.00303557
0.00303557
0.00321696
0.00321696
0.00321696
0.00306886
0.00306886
0.00306886
0.00192476
0.00192476
0.00192476
0.00191848
0.00191848
0.00191848
0.00192845
0.00192845
0.00192845
0.00191471
0.00191471
0.00191471
0.00189935
0.00189935
0.00189935
0.00189528
0.00189528
0.00189528
0.00189045
0.00189045
0.00189045
0.00215273
0.00215273
0.00215273
0.002169
0.002169
0.002169
0.00357353
0.00357353
0.00357353
0.00346366
0.00346366
0.00346366
0.0034994
0.0034994
0.0034994
0.00283745
0.00283745
0.00283745
0.00286485
0.00286485
0.00286485
0.00320793
0.00320793
0.00320793
0.00431422
0.00431422
0.00431422
0.00498712
0.00498712
0.00498712
0.00461031
0.00461031
0.00461031
0.00462058
0.00462058
0.00462058
0.00452581
0.00452581
0.00452581
0.00453574
0.00453574
0.00453574
0.00447161
0.00447161
0.00447161
0.0043988
0.0043988
0.0043988
0.00438982
0.00438982
0.00438982
0.00445274
0.00445274
0.00445274
0.00254404
0.00254404
0.00254404
0.00253944
0.00253944
0.00253944
0.00248228
0.00248228
0.00248228
0.00431856
0.00431856
0.00431856
0.00446371
0.00446371
0.00446371
0.00461332
0.00461332
0.00461332
0.00446208
0.00446208
0.00446208
0.00491697
0.00491697
0.00491697
0.00429088
0.00429088
0.00429088
0.00442283
0.00442283
0.00442283
0.00434641
0.00434641
0.00434641
0.00427634
0.00427634
0.00427634
0.00428142
0.00428142
0.00428142
0.00472822
0.00472822
0.00472822
0.0050815
0.0050815
0.0050815
0.00509485
0.00509485
0.00509485
0.00502554
0.00502554
0.00502554
0.00494426
0.00494426
0.00494426
0.00493206
0.00493206
0.00493206
0.00500004
0.00500004
0.00500004
0.0037876
0.0037876
0.0037876
0.00378644
0.00378644
0.00378644
0.00412386
0.00412386
0.00412386
0.00419685
0.00419685
0.00419685
0.00420164
0.00420164
0.00420164
0.00413238
0.00413238
0.00413238
0.00371666
0.00371666
0.00371666
0.00364938
0.00364938
0.00364938
0.00365026
0.00365026
0.00365026
0.0037176
0.0037176
0.0037176
0.00405592
0.00405592
0.00405592
0.00405967
0.00405967
0.00405967
0.00554223
0.00554223
0.00554223
0.00546506
0.00546506
0.00546506
0.00537449
0.00537449
0.00537449
0.0055273
0.0055273
0.0055273
0.00543652
0.00543652
0.00543652
0.00536087
0.00536087
0.00536087
0.00514544
0.00514544
0.00514544
0.00529814
0.00529814
0.00529814
0.00520961
0.00520961
0.00520961
0.00513406
0.00513406
0.00513406
0.00473272
0.00473272
0.00473272
0.0047968
0.0047968
0.0047968
0.00472432
0.00472432
0.00472432
0.00531938
0.00531938
0.00531938
0.00515984
0.00515984
0.00515984
0.00523257
0.00523257
0.00523257
0.00517253
0.00517253
0.00517253
0.00525918
0.00525918
0.00525918
0.00533336
0.00533336
0.00533336
0.00541443
0.00541443
0.00541443
0.00533583
0.00533583
0.00533583
0.00524555
0.00524555
0.00524555
0.0054012
0.0054012
0.0054012
0.00523368
0.00523368
0.00523368
0.00531074
0.00531074
0.00531074
0.00516781
0.00516781
0.00516781
0.00507978
0.00507978
0.00507978
0.0050029
0.0050029
0.0050029
0.00517879
0.00517879
0.00517879
0.00552049
0.00552049
0.00552049
0.00544032
0.00544032
0.00544032
0.00561509
0.00561509
0.00561509
0.00562929
0.00562929
0.00562929
0.00528009
0.00528009
0.00528009
0.00563481
0.00563481
0.00563481
0.00571278
0.00571278
0.00571278
0.00580788
0.00580788
0.00580788
0.00565033
0.00565033
0.00565033
0.00603875
0.00603875
0.00603875
0.00587496
0.00587496
0.00587496
0.00605684
0.00605684
0.00605684
0.00597406
0.00597406
0.00597406
0.00592191
0.00592191
0.00592191
0.00582489
0.00582489
0.00582489
0.00574536
0.00574536
0.00574536
0.0057612
0.0057612
0.0057612
0.00585821
0.00585821
0.00585821
0.00593934
0.00593934
0.00593934
0.00574062
0.00574062
0.00574062
0.00590761
0.00590761
0.00590761
0.0058396
0.0058396
0.0058396
0.00592392
0.00592392
0.00592392
0.00572587
0.00572587
0.00572587
0.00580855
0.00580855
0.00580855
0.0058852
0.0058852
0.0058852
0.00578428
0.00578428
0.00578428
0.0056984
0.0056984
0.0056984
0.00639618
0.00639618
0.00639618
0.00621546
0.00621546
0.00621546
0.00628759
0.00628759
0.00628759
0.00619816
0.00619816
0.00619816
0.00641524
0.00641524
0.00641524
0.00632407
0.00632407
0.00632407
0.00660551
0.00660551
0.00660551
0.00658736
0.00658736
0.00658736
0.0065315
0.0065315
0.0065315
0.00650945
0.00650945
0.00650945
0.00639735
0.00639735
0.00639735
0.00634219
0.00634219
0.00634219
0.00637827
0.00637827
0.00637827
0.00645373
0.00645373
0.00645373
0.00647225
0.00647225
0.00647225
0.00616333
0.00616333
0.00616333
0.00633886
0.00633886
0.00633886
0.00635802
0.00635802
0.00635802
0.00626936
0.00626936
0.00626936
0.00623267
0.00623267
0.00623267
0.00614573
0.00614573
0.00614573
0.00416075
0.00416075
0.00416075
0.00408409
0.00408409
0.00408409
0.00438657
0.00438657
0.00438657
0.0042359
0.0042359
0.0042359
0.00486546
0.00486546
0.00486546
0.00510823
0.00510823
0.00510823
0.00498065
0.00498065
0.00498065
0.00498322
0.00498322
0.00498322
0.0032336
0.0032336
0.0032336
0.00330612
0.00330612
0.00330612
0.00365045
0.00365045
0.00365045
0.00371894
0.00371894
0.00371894
0.00286811
0.00286811
0.00286811
0.0030483
0.0030483
0.0030483
0.00292236
0.00292236
0.00292236
0.0027479
0.0027479
0.0027479
0.00276246
0.00276246
0.00276246
0.00274066
0.00274066
0.00274066
0.00328862
0.00328862
0.00328862
0.00341788
0.00341788
0.00341788
0.00341002
0.00341002
0.00341002
0.00343921
0.00343921
0.00343921
0.00333324
0.00333324
0.00333324
0.00330613
0.00330613
0.00330613
0.00335387
0.00335387
0.00335387
0.00331626
0.00331626
0.00331626
0.0031661
0.0031661
0.0031661
0.00317671
0.00317671
0.00317671
0.00314747
0.00314747
0.00314747
0.00313945
0.00313945
0.00313945
0.0031063
0.0031063
0.0031063
0.00305823
0.00305823
0.00305823
0.00330107
0.00330107
0.00330107
0.00328976
0.00328976
0.00328976
0.00306783
0.00306783
0.00306783
0.00304208
0.00304208
0.00304208
0.00299189
0.00299189
0.00299189
0.00284383
0.00284383
0.00284383
0.00363375
0.00363375
0.00363375
0.00367408
0.00367408
0.00367408
0.0033448
0.0033448
0.0033448
0.00337359
0.00337359
0.00337359
0.0045294
0.0045294
0.0045294
0.00459704
0.00459704
0.00459704
0.00339582
0.00339582
0.00339582
0.00338996
0.00338996
0.00338996
0.00369209
0.00369209
0.00369209
0.00394509
0.00394509
0.00394509
0.00366239
0.00366239
0.00366239
0.00366818
0.00366818
0.00366818
0.00389094
0.00389094
0.00389094
0.00371543
0.00371543
0.00371543
0.00366459
0.00366459
0.00366459
0.00363467
0.00363467
0.00363467
0.00343547
0.00343547
0.00343547
0.00343373
0.00343373
0.00343373
0.00336583
0.00336583
0.00336583
0.00190107
0.00190107
0.00190107
0.00191646
0.00191646
0.00191646
0.0018895
0.0018895
0.0018895
0.00189986
0.00189986
0.00189986
0.001914
0.001914
0.001914
0.00189905
0.00189905
0.00189905
0.00191361
0.00191361
0.00191361
0.00193052
0.00193052
0.00193052
0.00193665
0.00193665
0.00193665
0.00195747
0.00195747
0.00195747
0.00193974
0.00193974
0.00193974
0.00190805
0.00190805
0.00190805
0.00190485
0.00190485
0.00190485
0.00190085
0.00190085
0.00190085
0.00189289
0.00189289
0.00189289
0.0020843
0.0020843
0.0020843
0.00254422
0.00254422
0.00254422
0.00212173
0.00212173
0.00212173
0.00245636
0.00245636
0.00245636
0.00241394
0.00241394
0.00241394
0.00243244
0.00243244
0.00243244
0.00240457
0.00240457
0.00240457
0.00242772
0.00242772
0.00242772
0.00225313
0.00225313
0.00225313
0.00235944
0.00235944
0.00235944
0.00265628
0.00265628
0.00265628
0.00252311
0.00252311
0.00252311
0.00254492
0.00254492
0.00254492
0.00213896
0.00213896
0.00213896
0.00213791
0.00213791
0.00213791
0.00214276
0.00214276
0.00214276
0.00214551
0.00214551
0.00214551
0.0021654
0.0021654
0.0021654
0.00221231
0.00221231
0.00221231
0.00217787
0.00217787
0.00217787
0.00214152
0.00214152
0.00214152
0.00215716
0.00215716
0.00215716
0.00253169
0.00253169
0.00253169
0.00255899
0.00255899
0.00255899
0.00261005
0.00261005
0.00261005
0.00261527
0.00261527
0.00261527
0.00259636
0.00259636
0.00259636
0.00256803
0.00256803
0.00256803
0.00289795
0.00289795
0.00289795
0.00277864
0.00277864
0.00277864
0.00250935
0.00250935
0.00250935
0.00248899
0.00248899
0.00248899
0.00355432
0.00355432
0.00355432
0.00354587
0.00354587
0.00354587
0.00350613
0.00350613
0.00350613
0.00347686
0.00347686
0.00347686
0.00356653
0.00356653
0.00356653
0.00353216
0.00353216
0.00353216
0.00358184
0.00358184
0.00358184
0.00355591
0.00355591
0.00355591
0.00352693
0.00352693
0.00352693
0.00278063
0.00278063
0.00278063
0.00283114
0.00283114
0.00283114
0.00280281
0.00280281
0.00280281
0.00288991
0.00288991
0.00288991
0.00294142
0.00294142
0.00294142
0.00291368
0.00291368
0.00291368
0.00288777
0.00288777
0.00288777
0.002886
0.002886
0.002886
0.00293939
0.00293939
0.00293939
0.00291274
0.00291274
0.00291274
0.00293966
0.00293966
0.00293966
0.00318016
0.00318016
0.00318016
0.00312606
0.00312606
0.00312606
0.00308002
0.00308002
0.00308002
0.00305248
0.00305248
0.00305248
0.00320362
0.00320362
0.00320362
0.00354741
0.00354741
0.00354741
0.00356933
0.00356933
0.00356933
0.00354952
0.00354952
0.00354952
0.00345861
0.00345861
0.00345861
0.00348912
0.00348912
0.00348912
0.00351962
0.00351962
0.00351962
0.00351757
0.00351757
0.00351757
0.00348554
0.00348554
0.00348554
0.00345151
0.00345151
0.00345151
0.00338516
0.00338516
0.00338516
0.00333371
0.00333371
0.00333371
0.00328386
0.00328386
0.00328386
0.00328474
0.00328474
0.00328474
0.00313471
0.00313471
0.00313471
0.00318436
0.00318436
0.00318436
0.00323459
0.00323459
0.00323459
0.00304184
0.00304184
0.00304184
0.00369672
0.00369672
0.00369672
0.0036454
0.0036454
0.0036454
0.00349268
0.00349268
0.00349268
0.0035435
0.0035435
0.0035435
0.00469678
0.00469678
0.00469678
0.00470736
0.00470736
0.00470736
0.00478509
0.00478509
0.00478509
0.0048524
0.0048524
0.0048524
0.00480472
0.00480472
0.00480472
0.00467509
0.00467509
0.00467509
0.00455522
0.00455522
0.00455522
0.00442455
0.00442455
0.00442455
0.00441608
0.00441608
0.00441608
0.00448077
0.00448077
0.00448077
0.00313128
0.00313128
0.00313128
0.00313734
0.00313734
0.00313734
0.00286593
0.00286593
0.00286593
0.00280513
0.00280513
0.00280513
0.0027475
0.0027475
0.0027475
0.0026945
0.0026945
0.0026945
0.00280869
0.00280869
0.00280869
0.00269878
0.00269878
0.00269878
0.00275535
0.00275535
0.00275535
0.00285951
0.00285951
0.00285951
0.00274321
0.00274321
0.00274321
0.00273387
0.00273387
0.00273387
0.00214188
0.00214188
0.00214188
0.00263757
0.00263757
0.00263757
0.00219413
0.00219413
0.00219413
0.00338911
0.00338911
0.00338911
0.00314009
0.00314009
0.00314009
0.0030807
0.0030807
0.0030807
0.00309012
0.00309012
0.00309012
0.0031512
0.0031512
0.0031512
0.00314987
0.00314987
0.00314987
0.00258759
0.00258759
0.00258759
0.0029861
0.0029861
0.0029861
0.00288685
0.00288685
0.00288685
0.00283562
0.00283562
0.00283562
0.00278606
0.00278606
0.00278606
0.00273979
0.00273979
0.00273979
0.00286878
0.00286878
0.00286878
0.00298573
0.00298573
0.00298573
0.00287378
0.00287378
0.00287378
0.00437167
0.00437167
0.00437167
0.00430992
0.00430992
0.00430992
0.00345127
0.00345127
0.00345127
0.00357304
0.00357304
0.00357304
0.00351042
0.00351042
0.00351042
0.00345009
0.00345009
0.00345009
0.0038295
0.0038295
0.0038295
0.00377754
0.00377754
0.00377754
0.00411918
0.00411918
0.00411918
0.00447425
0.00447425
0.00447425
0.00454613
0.00454613
0.00454613
0.0046304
0.0046304
0.0046304
0.00450553
0.00450553
0.00450553
0.00449537
0.00449537
0.00449537
0.00455721
0.00455721
0.00455721
0.00471658
0.00471658
0.00471658
0.0047283
0.0047283
0.0047283
0.00466409
0.00466409
0.00466409
0.00458938
0.00458938
0.00458938
0.00457869
0.00457869
0.00457869
0.00464169
0.00464169
0.00464169
0.00529127
0.00529127
0.00529127
0.00521921
0.00521921
0.00521921
0.00513428
0.00513428
0.00513428
0.00527695
0.00527695
0.00527695
0.00512122
0.00512122
0.00512122
0.00519189
0.00519189
0.00519189
0.00452613
0.00452613
0.00452613
0.00445708
0.00445708
0.00445708
0.00453198
0.00453198
0.00453198
0.0044465
0.0044465
0.0044465
0.00484094
0.00484094
0.00484094
0.00468912
0.00468912
0.00468912
0.00477261
0.00477261
0.00477261
0.00484927
0.00484927
0.00484927
0.00460044
0.00460044
0.00460044
0.00468207
0.00468207
0.00468207
0.00475723
0.00475723
0.00475723
0.0047493
0.0047493
0.0047493
0.00463566
0.00463566
0.00463566
0.00449371
0.00449371
0.00449371
0.00464386
0.00464386
0.00464386
0.0045722
0.0045722
0.0045722
0.00478736
0.00478736
0.00478736
0.00470674
0.00470674
0.00470674
0.00426558
0.00426558
0.00426558
0.00434047
0.00434047
0.00434047
0.0043629
0.0043629
0.0043629
0.00444085
0.00444085
0.00444085
0.00442901
0.00442901
0.00442901
0.00435756
0.00435756
0.00435756
0.00435931
0.00435931
0.00435931
0.00436703
0.00436703
0.00436703
0.00446466
0.00446466
0.00446466
0.0046506
0.0046506
0.0046506
0.00464073
0.00464073
0.00464073
0.00449881
0.00449881
0.00449881
0.00456475
0.00456475
0.00456475
0.00437775
0.00437775
0.00437775
0.00437306
0.00437306
0.00437306
0.00429536
0.00429536
0.00429536
0.00422279
0.00422279
0.00422279
0.00422647
0.00422647
0.00422647
0.00430372
0.00430372
0.00430372
0.0043076
0.0043076
0.0043076
0.00423301
0.00423301
0.00423301
0.00421503
0.00421503
0.00421503
0.0042108
0.0042108
0.0042108
0.00413638
0.00413638
0.00413638
0.00406659
0.00406659
0.00406659
0.00385783
0.00385783
0.00385783
0.00392733
0.00392733
0.00392733
0.0039847
0.0039847
0.0039847
0.00384545
0.00384545
0.00384545
0.00385459
0.00385459
0.00385459
0.00399122
0.00399122
0.00399122
0.0039252
0.0039252
0.0039252
0.00399418
0.00399418
0.00399418
0.00364459
0.00364459
0.00364459
0.00319805
0.00319805
0.00319805
0.00319541
0.00319541
0.00319541
0.00358332
0.00358332
0.00358332
0.00358328
0.00358328
0.00358328
0.0048149
0.0048149
0.0048149
0.00482384
0.00482384
0.00482384
0.00498318
0.00498318
0.00498318
0.00490779
0.00490779
0.00490779
0.00495247
0.00495247
0.00495247
0.0048792
0.0048792
0.0048792
0.0050369
0.0050369
0.0050369
0.00488881
0.00488881
0.00488881
0.00504781
0.00504781
0.00504781
0.00497309
0.00497309
0.00497309
0.00530243
0.00530243
0.00530243
0.00545298
0.00545298
0.00545298
0.00537209
0.00537209
0.00537209
0.00554752
0.00554752
0.00554752
0.00538404
0.00538404
0.00538404
0.00556085
0.00556085
0.00556085
0.00547832
0.00547832
0.00547832
0.006444
0.006444
0.006444
0.00643386
0.00643386
0.00643386
0.00626759
0.00626759
0.00626759
0.00625009
0.00625009
0.00625009
0.00370544
0.00370544
0.00370544
0.00432588
0.00432588
0.00432588
0.00432338
0.00432338
0.00432338
0.00454846
0.00454846
0.00454846
0.00470278
0.00470278
0.00470278
0.00461957
0.00461957
0.00461957
0.00454317
0.00454317
0.00454317
0.00472768
0.00472768
0.00472768
0.00494367
0.00494367
0.00494367
0.00510037
0.00510037
0.00510037
0.00493496
0.00493496
0.00493496
0.00501251
0.00501251
0.00501251
0.00504033
0.00504033
0.00504033
0.00512989
0.00512989
0.00512989
0.00521059
0.00521059
0.00521059
0.00520009
0.00520009
0.00520009
0.00511035
0.00511035
0.00511035
0.00503123
0.00503123
0.00503123
0.00496055
0.00496055
0.00496055
0.00496867
0.00496867
0.00496867
0.00488821
0.00488821
0.00488821
0.00487325
0.00487325
0.00487325
0.00540729
0.00540729
0.00540729
0.00531339
0.00531339
0.00531339
0.00498446
0.00498446
0.00498446
0.00481439
0.00481439
0.00481439
0.00489551
0.00489551
0.00489551
0.00482058
0.00482058
0.00482058
0.00499204
0.00499204
0.00499204
0.00490927
0.00490927
0.00490927
0.00406303
0.00406303
0.00406303
0.00415229
0.00415229
0.00415229
0.00414459
0.00414459
0.00414459
0.00405884
0.00405884
0.00405884
0.00441849
0.00441849
0.00441849
0.00432969
0.00432969
0.00432969
0.00423571
0.00423571
0.00423571
0.00423918
0.00423918
0.00423918
0.00296843
0.00296843
0.00296843
0.00301224
0.00301224
0.00301224
0.00295592
0.00295592
0.00295592
0.00297782
0.00297782
0.00297782
0.00314858
0.00314858
0.00314858
0.00401069
0.00401069
0.00401069
0.00400983
0.00400983
0.00400983
0.00407788