<VTKFile type="UnstructuredGrid" version="1.0">
<UnstructuredGrid>
<Piece NumberOfPoints="8859" NumberOfCells="2953">
<Points>
<DataArray type="Float64" NumberOfComponents="3" format="ascii">
3.01 0.5 12.445
3.01 0.487476 12.4675
3.01 0.512524 12.4675
3.01 0.17352 11.5675
3.01 0.148445 11.5675
3.01 0.160827 11.5892
3.01 0.122979 11.6109
3.01 0.135644 11.5892
3.01 0.110383 11.5892
3.01 0.135644 11.5892
3.01 0.123433 11.5675
3.01 0.110383 11.5892
3.01 0.123433 11.5675
3.01 0.135644 11.5892
3.01 0.148445 11.5675
3.01 0.135644 11.5892
3.01 0.160827 11.5892
3.01 0.148445 11.5675
3.01 0.17352 11.5675
3.01 0.185985 11.5892
3.01 0.198629 11.5675
3.01 0.185985 11.5892
3.01 0.17352 11.5675
3.01 0.160827 11.5892
3.01 0.0732297 11.6107
3.01 0.0848754 11.5891
3.01 0.0586606 11.5888
3.01 0.05 12.4003
3.01 0.058509 12.3776
3.01 0.05 12.3551
3.01 0.324276 11.5675
3.01 0.336827 11.5892
3.01 0.349395 11.5675
3.01 0.148138 11.6109
3.01 0.160827 11.5892
3.01 0.135644 11.5892
3.01 0.122979 11.6109
3.01 0.148138 11.6109
3.01 0.135644 11.5892
3.01 0.160827 11.5892
3.01 0.173316 11.6109
3.01 0.185985 11.5892
3.01 0.185806 11.6325
3.01 0.173316 11.6109
3.01 0.160572 11.6326
3.01 0.173316 11.6109
3.01 0.160827 11.5892
3.01 0.148138 11.6109
3.01 0.160572 11.6326
3.01 0.173316 11.6109
3.01 0.148138 11.6109
3.01 0.211137 11.5892
3.01 0.198629 11.5675
3.01 0.185985 11.5892
3.01 0.0979162 11.6108
3.01 0.122979 11.6109
3.01 0.110383 11.5892
3.01 0.122979 11.6109
3.01 0.0979162 11.6108
3.01 0.109875 11.6325
3.01 0.0732297 11.6107
3.01 0.0979162 11.6108
3.01 0.0848754 11.5891
3.01 0.0979162 11.6108
3.01 0.110383 11.5892
3.01 0.0848754 11.5891
3.01 0.0975729 11.654
3.01 0.122678 11.6541
3.01 0.109875 11.6325
3.01 0.0841718 11.6323
3.01 0.0732297 11.6107
3.01 0.0577122 11.632
3.01 0.0729308 11.6539
3.01 0.0841718 11.6323
3.01 0.0577122 11.632
3.01 0.0732297 11.6107
3.01 0.0841718 11.6323
3.01 0.0979162 11.6108
3.01 0.0841718 11.6323
3.01 0.109875 11.6325
3.01 0.0979162 11.6108
3.01 0.0975729 11.654
3.01 0.0841718 11.6323
3.01 0.0729308 11.6539
3.01 0.0841718 11.6323
3.01 0.0975729 11.654
3.01 0.109875 11.6325
3.01 0.073948 11.5675
3.01 0.05 11.5675
3.01 0.0586606 11.5888
3.01 0.073948 11.5675
3.01 0.0586606 11.5888
3.01 0.0848754 11.5891
3.01 0.05 12.4433
3.01 0.0603641 12.422
3.01 0.05 12.4003
3.01 0.0603641 12.422
3.01 0.05 12.4433
3.01 0.0753197 12.444
3.01 0.0709395 12.4675
3.01 0.05 12.4433
3.01 0.05 12.4675
3.01 0.05 12.4433
3.01 0.0709395 12.4675
3.01 0.0753197 12.444
3.01 0.0579641 12.1546
3.01 0.05 12.1326
3.01 0.05 12.1767
3.01 0.0841948 12.0668
3.01 0.109814 12.0668
3.01 0.097638 12.0449
3.01 0.0841948 12.0668
3.01 0.0578646 12.0668
3.01 0.0730539 12.0887
3.01 0.0580261 12.1988
3.01 0.05 12.1767
3.01 0.05 12.2209
3.01 0.942292 11.7624
3.01 0.95 11.784
3.01 0.95 11.7407
3.01 0.95 11.6973
3.01 0.942332 11.719
3.01 0.95 11.7407
3.01 0.73872 11.9795
3.01 0.75132 11.9578
3.01 0.726137 11.9578
3.01 0.751305 12.0013
3.01 0.73872 11.9795
3.01 0.726124 12.0013
3.01 0.713546 11.9795
3.01 0.73872 11.9795
3.01 0.726137 11.9578
3.01 0.73872 11.9795
3.01 0.713546 11.9795
3.01 0.726124 12.0013
3.01 0.814318 12.0231
3.01 0.801709 12.0013
3.01 0.789096 12.0231
3.01 0.7765 12.0013
3.01 0.801709 12.0013
3.01 0.789115 11.9795
3.01 0.801709 12.0013
3.01 0.7765 12.0013
3.01 0.789096 12.0231
3.01 0.7765 12.0013
3.01 0.763892 12.0231
3.01 0.789096 12.0231
3.01 0.763892 12.0231
3.01 0.7765 12.0013
3.01 0.751305 12.0013
3.01 0.95 12.4675
3.01 0.95 12.4433
3.01 0.929061 12.4675
3.01 0.95 12.2654
3.01 0.941913 12.2432
3.01 0.926844 12.2654
3.01 0.941913 12.2432
3.01 0.95 12.2654
3.01 0.95 12.2209
3.01 0.926866 12.2209
3.01 0.941913 12.2432
3.01 0.95 12.2209
3.01 0.941974 12.1988
3.01 0.926866 12.2209
3.01 0.95 12.2209
3.01 0.95 12.1767
3.01 0.941974 12.1988
3.01 0.95 12.2209
3.01 0.941974 12.1988
3.01 0.95 12.1767
3.01 0.926895 12.1767
3.01 0.6127 12.4675
3.01 0.637734 12.4675
3.01 0.625238 12.445
3.01 0.662757 12.4675
3.01 0.650275 12.445
3.01 0.637734 12.4675
3.01 0.650275 12.445
3.01 0.625238 12.445
3.01 0.637734 12.4675
3.01 0.600415 12.0014
3.01 0.575304 12.0014
3.01 0.587856 12.0232
3.01 0.575304 12.0014
3.01 0.562749 12.0232
3.01 0.587856 12.0232
3.01 0.336827 11.5892
3.01 0.361946 11.5892
3.01 0.349395 11.5675
3.01 0.223755 11.5675
3.01 0.198629 11.5675
3.01 0.211137 11.5892
3.01 0.185985 11.5892
3.01 0.198492 11.6109
3.01 0.211137 11.5892
3.01 0.185806 11.6325
3.01 0.198492 11.6109
3.01 0.173316 11.6109
3.01 0.198492 11.6109
3.01 0.185985 11.5892
3.01 0.173316 11.6109
3.01 0.0576202 11.6755
3.01 0.05 11.6537
3.01 0.05 11.6973
3.01 0.05 11.6537
3.01 0.0576202 11.6755
3.01 0.0729308 11.6539
3.01 0.05 11.6537
3.01 0.0729308 11.6539
3.01 0.0577122 11.632
3.01 0.135283 11.6325
3.01 0.122979 11.6109
3.01 0.109875 11.6325
3.01 0.135283 11.6325
3.01 0.109875 11.6325
3.01 0.122678 11.6541
3.01 0.122979 11.6109
3.01 0.135283 11.6325
3.01 0.148138 11.6109
3.01 0.135283 11.6325
3.01 0.160572 11.6326
3.01 0.148138 11.6109
3.01 0.123433 11.5675
3.01 0.0985513 11.5675
3.01 0.110383 11.5892
3.01 0.110383 11.5892
3.01 0.0985513 11.5675
3.01 0.0848754 11.5891
3.01 0.0848754 11.5891
3.01 0.0985513 11.5675
3.01 0.073948 11.5675
3.01 0.0603641 12.422
3.01 0.0739464 12.3995
3.01 0.05 12.4003
3.01 0.0739464 12.3995
3.01 0.058509 12.3776
3.01 0.05 12.4003
3.01 0.058509 12.3776
3.01 0.0739464 12.3995
3.01 0.0849548 12.3771
3.01 0.058509 12.3776
3.01 0.0732725 12.3549
3.01 0.05 12.3551
3.01 0.0732725 12.3549
3.01 0.058509 12.3776
3.01 0.0849548 12.3771
3.01 0.5 12.445
3.01 0.47495 12.445
3.01 0.487476 12.4675
3.01 0.097663 12.0887
3.01 0.109814 12.0668
3.01 0.0841948 12.0668
3.01 0.0730539 12.0887
3.01 0.097663 12.0887
3.01 0.0841948 12.0668
3.01 0.0578646 12.0668
3.01 0.05 12.0887
3.01 0.0730539 12.0887
3.01 0.05 12.0887
3.01 0.0578646 12.0668
3.01 0.05 12.0449
3.01 0.05 12.2654
3.01 0.0580869 12.2432
3.01 0.05 12.2209
3.01 0.05 12.2209
3.01 0.073134 12.2209
3.01 0.0580261 12.1988
3.01 0.073134 12.2209
3.01 0.05 12.2209
3.01 0.0580869 12.2432
3.01 0.942268 11.8057
3.01 0.95 11.8274
3.01 0.95 11.784
3.01 0.942292 11.7624
3.01 0.927025 11.784
3.01 0.95 11.784
3.01 0.927025 11.784
3.01 0.915919 11.8057
3.01 0.942268 11.8057
3.01 0.95 11.784
3.01 0.927025 11.784
3.01 0.942268 11.8057
3.01 0.927013 11.8274
3.01 0.95 11.8274
3.01 0.942268 11.8057
3.01 0.915919 11.8057
3.01 0.927013 11.8274
3.01 0.942268 11.8057
3.01 0.801738 11.9143
3.01 0.826957 11.9142
3.01 0.814364 11.8925
3.01 0.852174 11.9142
3.01 0.839609 11.8925
3.01 0.826957 11.9142
3.01 0.839609 11.8925
3.01 0.814364 11.8925
3.01 0.826957 11.9142
3.01 0.776516 11.9577
3.01 0.763923 11.936
3.01 0.75132 11.9578
3.01 0.776516 11.9577
3.01 0.789115 11.9795
3.01 0.801725 11.9577
3.01 0.738704 12.0231
3.01 0.763892 12.0231
3.01 0.751305 12.0013
3.01 0.726124 12.0013
3.01 0.738704 12.0231
3.01 0.751305 12.0013
3.01 0.915617 12.2431
3.01 0.926866 12.2209
3.01 0.902228 12.2209
3.01 0.926866 12.2209
3.01 0.915617 12.2431
3.01 0.941913 12.2432
3.01 0.915617 12.2431
3.01 0.926844 12.2654
3.01 0.941913 12.2432
3.01 0.915617 12.2431
3.01 0.902193 12.2654
3.01 0.926844 12.2654
3.01 0.926866 12.2209
3.01 0.915668 12.1988
3.01 0.902228 12.2209
3.01 0.902267 12.1767
3.01 0.915668 12.1988
3.01 0.926895 12.1767
3.01 0.915668 12.1988
3.01 0.926866 12.2209
3.01 0.941974 12.1988
3.01 0.926895 12.1767
3.01 0.915668 12.1988
3.01 0.941974 12.1988
3.01 0.902267 12.1767
3.01 0.890059 12.1988
3.01 0.915668 12.1988
3.01 0.890059 12.1988
3.01 0.902228 12.2209
3.01 0.915668 12.1988
3.01 0.826927 12.0013
3.01 0.801709 12.0013
3.01 0.814318 12.0231
3.01 0.864816 12.0668
3.01 0.890186 12.0668
3.01 0.877308 12.0449
3.01 0.877308 12.0449
3.01 0.852122 12.0449
3.01 0.864816 12.0668
3.01 0.890186 12.0668
3.01 0.902362 12.0449
3.01 0.877308 12.0449
3.01 0.902362 12.0449
3.01 0.890186 12.0668
3.01 0.915805 12.0668
3.01 0.902362 12.0449
3.01 0.915805 12.0668
3.01 0.926964 12.0449
3.01 0.915835 12.0231
3.01 0.902362 12.0449
3.01 0.926964 12.0449
3.01 0.942171 12.0231
3.01 0.915835 12.0231
3.01 0.926964 12.0449
3.01 0.915835 12.0231
3.01 0.942171 12.0231
3.01 0.926978 12.0013
3.01 0.942171 12.0231
3.01 0.95 12.0013
3.01 0.926978 12.0013
3.01 0.87737 11.8708
3.01 0.902417 11.8708
3.01 0.890277 11.8491
3.01 0.852144 12.0013
3.01 0.864842 12.0231
3.01 0.877329 12.0013
3.01 0.877308 12.0449
3.01 0.864842 12.0231
3.01 0.852122 12.0449
3.01 0.902396 11.9577
3.01 0.890234 11.9795
3.01 0.915858 11.9795
3.01 0.926997 11.9142
3.01 0.95 11.9142
3.01 0.942237 11.8925
3.01 0.91589 11.8925
3.01 0.926997 11.9142
3.01 0.942237 11.8925
3.01 0.942199 11.9795
3.01 0.95 12.0013
3.01 0.95 11.9577
3.01 0.95 12.0013
3.01 0.942199 11.9795
3.01 0.926978 12.0013
3.01 0.942199 11.9795
3.01 0.915858 11.9795
3.01 0.926978 12.0013
3.01 0.95 11.9142
3.01 0.942221 11.936
3.01 0.95 11.9577
3.01 0.942221 11.936
3.01 0.95 11.9142
3.01 0.926997 11.9142
3.01 0.915876 11.936
3.01 0.942221 11.936
3.01 0.926997 11.9142
3.01 0.926989 11.9577
3.01 0.902396 11.9577
3.01 0.915858 11.9795
3.01 0.902396 11.9577
3.01 0.926989 11.9577
3.01 0.915876 11.936
3.01 0.926989 11.9577
3.01 0.915858 11.9795
3.01 0.942199 11.9795
3.01 0.95 11.9577
3.01 0.926989 11.9577
3.01 0.942199 11.9795
3.01 0.915876 11.936
3.01 0.926989 11.9577
3.01 0.942221 11.936
3.01 0.926989 11.9577
3.01 0.95 11.9577
3.01 0.942221 11.936
3.01 0.91353 12.4219
3.01 0.939636 12.422
3.01 0.926054 12.3995
3.01 0.926728 12.3549
3.01 0.941491 12.3776
3.01 0.95 12.3551
3.01 0.926728 12.3549
3.01 0.95 12.3551
3.01 0.941822 12.3325
3.01 0.95 12.4003
3.01 0.939636 12.422
3.01 0.95 12.4433
3.01 0.95 12.4003
3.01 0.941491 12.3776
3.01 0.926054 12.3995
3.01 0.939636 12.422
3.01 0.95 12.4003
3.01 0.926054 12.3995
3.01 0.941491 12.3776
3.01 0.95 12.4003
3.01 0.95 12.3551
3.01 0.941869 12.2877
3.01 0.95 12.2654
3.01 0.926844 12.2654
3.01 0.762942 12.4223
3.01 0.737933 12.4223
3.01 0.75028 12.4449
3.01 0.71291 12.4224
3.01 0.737933 12.4223
3.01 0.725533 12.3999
3.01 0.71291 12.4224
3.01 0.725313 12.4449
3.01 0.737933 12.4223
3.01 0.725313 12.4449
[...]
<PointData Scalars="View Factor" >
<DataArray type="Float64" Name="View Factor" NumberOfComponents="1" format="ascii">
0.00363209
0.00363209
0.00363209
0.00764756
0.00764756
0.00764756
0.00750609
0.00750609
0.00750609
0.00760426
0.00760426
0.00760426
0.00765202
0.00765202
0.00765202
0.00760019
0.00760019
0.00760019
0.00764235
0.00764235
0.00764235
0.00759542
0.00759542
0.00759542
0.00751349
0.00751349
0.00751349
0.00392619
0.00392619
0.00392619
0.00759525
0.00759525
0.00759525
0.00750206
0.00750206
0.00750206
0.0074557
0.0074557
0.0074557
0.00749739
0.00749739
0.00749739
0.00730619
0.00730619
0.00730619
0.00745139
0.00745139
0.00745139
0.00735577
0.00735577
0.00735577
0.0075899
0.0075899
0.0075899
0.00745946
0.00745946
0.00745946
0.00736384
0.00736384
0.00736384
0.00746297
0.00746297
0.00746297
0.00750966
0.00750966
0.00750966
0.00717729
0.00717729
0.00717729
0.00732234
0.00732234
0.00732234
0.00722901
0.00722901
0.00722901
0.00736744
0.00736744
0.00736744
0.00731851
0.00731851
0.00731851
0.00718086
0.00718086
0.00718086
0.00722525
0.00722525
0.00722525
0.00766185
0.00766185
0.00766185
0.00761129
0.00761129
0.00761129
0.00379533
0.00379533
0.00379533
0.00375315
0.00375315
0.00375315
0.00368821
0.00368821
0.00368821
0.00370998
0.00370998
0.00370998
0.00467856
0.00467856
0.00467856
0.00505118
0.00505118
0.00505118
0.00499282
0.00499282
0.00499282
0.00451624
0.00451624
0.00451624
0.00607379
0.00607379
0.00607379
0.00630225
0.00630225
0.00630225
0.00526006
0.00526006
0.00526006
0.00513639
0.00513639
0.00513639
0.00523551
0.00523551
0.00523551
0.00517356
0.00517356
0.00517356
0.00501253
0.00501253
0.00501253
0.00510925
0.00510925
0.00510925
0.00504914
0.00504914
0.00504914
0.00502617
0.00502617
0.00502617
0.00506269
0.00506269
0.00506269
0.00349685
0.00349685
0.00349685
0.00407413
0.00407413
0.00407413
0.00411715
0.00411715
0.00411715
0.00416849
0.00416849
0.00416849
0.00421657
0.00421657
0.00421657
0.00426123
0.00426123
0.00426123
0.00431461
0.00431461
0.00431461
0.00360142
0.00360142
0.00360142
0.00359451
0.00359451
0.00359451
0.00361836
0.00361836
0.00361836
0.00514601
0.00514601
0.00514601
0.00512059
0.00512059
0.00512059
0.00754105
0.00754105
0.00754105
0.00763639
0.00763639
0.00763639
0.00749199
0.00749199
0.00749199
0.00735085
0.00735085
0.00735085
0.00744641
0.00744641
0.00744641
0.00700272
0.00700272
0.00700272
0.00709237
0.00709237
0.00709237
0.00718417
0.00718417
0.00718417
0.00731481
0.00731481
0.00731481
0.00722152
0.00722152
0.00722152
0.00736005
0.00736005
0.00736005
0.00731077
0.00731077
0.00731077
0.00765575
0.00765575
0.00765575
0.00760777
0.00760777
0.00760777
0.00765888
0.00765888
0.00765888
0.00383772
0.00383772
0.00383772
0.00388156
0.00388156
0.00388156
0.00390429
0.00390429
0.00390429
0.00397205
0.00397205
0.00397205
0.00394925
0.00394925
0.00394925
0.00365544
0.00365544
0.00365544
0.00499136
0.00499136
0.00499136
0.00496252
0.00496252
0.00496252
0.00496372
0.00496372
0.00496372
0.00502342
0.00502342
0.00502342
0.00436019
0.00436019
0.00436019
0.00446334
0.00446334
0.00446334
0.00441133
0.00441133
0.00441133
0.00585559
0.00585559
0.00585559
0.00600634
0.00600634
0.00600634
0.00590667
0.00590667
0.00590667
0.00593352
0.00593352
0.00593352
0.00579109
0.00579109
0.00579109
0.0058353
0.0058353
0.0058353
0.00547257
0.00547257
0.00547257
0.00545646
0.00545646
0.00545646
0.00549744
0.00549744
0.00549744
0.00530918
0.00530918
0.00530918
0.00523202
0.00523202
0.00523202
0.0050394
0.0050394
0.0050394
0.00507583
0.00507583
0.00507583
0.00418076
0.00418076
0.00418076
0.00415036
0.00415036
0.00415036
0.00410309
0.00410309
0.00410309
0.00408603
0.00408603
0.00408603
0.00422904
0.00422904
0.00422904
0.00432746
0.00432746
0.00432746
0.0042467
0.0042467
0.0042467
0.00429581
0.00429581
0.00429581
0.00430885
0.00430885
0.00430885
0.00425954
0.00425954
0.00425954
0.00503519
0.00503519
0.00503519
0.00479737
0.00479737
0.00479737
0.00483273
0.00483273
0.00483273
0.00481832
0.00481832
0.00481832
0.00478281
0.00478281
0.00478281
0.0048036
0.0048036
0.0048036
0.00486012
0.00486012
0.00486012
0.00488054
0.00488054
0.00488054
0.0049381
0.0049381
0.0049381
0.00495995
0.00495995
0.00495995
0.00562174
0.00562174
0.00562174
0.00500608
0.00500608
0.00500608
0.00488973
0.00488973
0.00488973
0.00513218
0.00513218
0.00513218
0.0053882
0.0053882
0.0053882
0.0054286
0.0054286
0.0054286
0.00507295
0.00507295
0.00507295
0.00501858
0.00501858
0.00501858
0.00505561
0.00505561
0.00505561
0.00525615
0.00525615
0.00525615
0.00532439
0.00532439
0.00532439
0.00530072
0.00530072
0.00530072
0.00515466
0.00515466
0.00515466
0.00521607
0.00521607
0.00521607
0.0051156
0.0051156
0.0051156
0.00513833
0.00513833
0.00513833
0.00523814
0.00523814
0.00523814
0.00519948
0.00519948
0.00519948
0.00362298
0.00362298
0.00362298
0.00376181
0.00376181
0.00376181
0.00380474
0.00380474
0.00380474
0.00359474
0.00359474
0.00359474
0.00367798
0.00367798
0.00367798
0.00363757
0.00363757
0.00363757
0.00371575
0.00371575
0.00371575
0.00402783
0.00402783
0.00402783
0.00364594
0.00364594
0.00364594
0.00369558
0.00369558
0.00369558
0.00365397
0.00365397
0.00365397
0.0036294
0.0036294
0.0036294
0.00357235
0.00357235
0.00357235
0.00358863
0.00358863
0.00358863
0.00356449
0.00356449
0.00356449
0.00386602
0.00386602
0.00386602
0.00378045
0.00378045
0.00378045
0.00372061
0.00372061
0.00372061
0.00376311
0.00376311
0.00376311
0.0037361
0.0037361
0.0037361
0.00377883
0.00377883
0.00377883
0.00366642
0.00366642
0.00366642
0.00362518
0.00362518
0.00362518
0.00360807
0.00360807
0.00360807
0.00529123
0.00529123
0.00529123
0.00511023
0.00511023
0.00511023
0.00495093
0.00495093
0.00495093
0.00488336
0.00488336
0.00488336
0.00494146
0.00494146
0.00494146
0.00497563
0.00497563
0.00497563
0.00506006
0.00506006
0.00506006
0.005035
0.005035
0.005035
0.00489268
0.00489268
0.00489268
0.00485928
0.00485928
0.00485928
0.00455918
0.00455918
0.00455918
0.00489965
0.00489965
0.00489965
0.00493427
0.00493427
0.00493427
0.00495377
0.00495377
0.00495377
0.00483864
0.00483864
0.00483864
0.00761395
0.00761395
0.00761395
0.00762218
0.00762218
0.00762218
0.00756883
0.00756883
0.00756883
0.00747135
0.00747135
0.00747135
0.0073261
0.0073261
0.0073261
0.0054228
0.0054228
0.0054228
0.00529471
0.00529471
0.00529471
0.0053979
0.0053979
0.0053979
0.00533374
0.00533374
0.00533374
0.00534811
0.00534811
0.00534811
0.00532322
0.00532322
0.00532322
0.00741915
0.00741915
0.00741915
0.0075848
0.0075848
0.0075848
0.00742215
0.00742215
0.00742215
0.00624317
0.00624317
0.00624317
0.00628575
0.00628575
0.00628575
0.00727846
0.00727846
0.00727846
0.00756501
0.00756501
0.00756501
0.00746741
0.00746741
0.00746741
0.00737178
0.00737178
0.00737178
0.003882
0.003882
0.003882
0.00363745
0.00363745
0.00363745
0.00462351
0.00462351
0.00462351
0.00456942
0.00456942
0.00456942
0.00490391
0.00490391
0.00490391
0.00689032
0.00689032
0.00689032
0.00462094
0.00462094
0.00462094
0.00456689
0.00456689
0.00456689
0.00508046
0.00508046
0.00508046
0.00504924
0.00504924
0.00504924
0.00514325
0.00514325
0.00514325
0.00508217
0.00508217
0.00508217
0.00508341
0.00508341
0.00508341
0.00505266
0.00505266
0.00505266
0.00520675
0.00520675
0.00520675
0.00514451
0.00514451
0.00514451
0.00517484
0.00517484
0.00517484
0.00523722
0.00523722
0.00523722
0.00526928
0.00526928
0.00526928
0.00506548
0.00506548
0.00506548
0.00508772
0.00508772
0.00508772
0.00581034
0.00581034
0.00581034
0.00540739
0.00540739
0.00540739
0.00538285
0.00538285
0.00538285
0.00531893
0.00531893
0.00531893
0.00548097
0.00548097
0.00548097
0.00543991
0.00543991
0.00543991
0.00566469
0.00566469
0.00566469
0.00605264
0.00605264
0.00605264
0.00593456
0.00593456
0.00593456
0.00524625
0.00524625
0.00524625
0.00512303
0.00512303
0.00512303
0.00514662
0.00514662
0.00514662
0.00520811
0.00520811
0.00520811
0.00522202
0.00522202
0.00522202
0.0051603
0.0051603
0.0051603
0.0049802
0.0049802
0.0049802
0.00495721
0.00495721
0.00495721
0.00505223
0.00505223
0.00505223
0.00499282
0.00499282
0.00499282
0.004831
0.004831
0.004831
0.00479697
0.00479697
0.00479697
0.00499296
0.00499296
0.00499296
0.00472731
0.00472731
0.00472731
0.00434022
0.00434022
0.00434022
0.00440326
0.00440326
0.00440326
0.00439059
0.00439059
0.00439059
0.00442241
0.00442241
0.00442241
0.0037042
0.0037042
0.0037042
0.00368744
0.00368744
0.00368744
0.00371252
0.00371252
0.00371252
0.00375489
0.00375489
0.00375489
0.00394797
0.00394797
0.00394797
0.00378799
0.00378799
0.00378799
0.00374536
0.00374536
0.00374536
0.00398163
0.00398163
0.00398163
0.00394665
0.00394665
0.00394665
0.00399906
0.00399906
0.00399906
0.0052798
0.0052798
0.0052798
0.00499849
0.00499849
0.00499849
0.00502084
0.00502084
0.00502084
0.00498404
0.00498404
0.00498404
0.00492575
0.00492575
0.00492575
0.00475556
0.00475556
0.00475556
0.00481152
0.00481152
0.00481152
0.0049755
0.0049755
0.0049755
0.0050501
0.0050501
0.0050501
0.00503439
0.00503439
0.00503439
0.00507192
0.00507192
0.00507192
0.00484506
0.00484506
0.00484506
0.00489725
0.00489725
0.00489725
0.00525527
0.00525527
0.00525527
0.00537527
0.00537527
0.00537527
0.005335
0.005335
0.005335
0.00551223
0.00551223
0.00551223
0.00546403
0.00546403
0.00546403
0.00555451
0.00555451
0.00555451
0.00552995
0.00552995
0.00552995
0.00564639
0.00564639
0.00564639
0.00571496
0.00571496
0.00571496
0.00574038
0.00574038
0.00574038
0.00361172
0.00361172
0.00361172
0.0036617
0.0036617
0.0036617
0.00355924
0.00355924
0.00355924
0.00358317
0.00358317
0.00358317
0.00352062
0.00352062
0.00352062
0.00364871
0.00364871
0.00364871
0.00377333
0.00377333
0.00377333
0.00368965
0.00368965
0.00368965
0.00370433
0.00370433
0.00370433
0.00374602
0.00374602
0.00374602
0.00387491
0.00387491
0.00387491
0.0039365
0.0039365
0.0039365
0.00391923
0.00391923
0.00391923
0.00390898
0.00390898
0.00390898
0.00403957
0.00403957
0.00403957
0.00401033
0.00401033
0.00401033
0.00383174
0.00383174
0.00383174
0.00381612
0.00381612
0.00381612
0.00371119
0.00371119
0.00371119
0.0037035
0.0037035
0.0037035
0.00372848
0.00372848
0.00372848
0.00357997
0.00357997
0.00357997
0.00359642
0.00359642
0.00359642
0.00363727
0.00363727
0.00363727
0.00366178
0.00366178
0.00366178
0.00355547
0.00355547
0.00355547
0.0036206
0.0036206
0.0036206
0.00359587
0.00359587
0.00359587
0.0035397
0.0035397
0.0035397
0.00362131
0.00362131
0.00362131
0.00358063
0.00358063
0.00358063
0.00382372
0.00382372
0.00382372
0.00384978
0.00384978
0.00384978
0.00418095
0.00418095
0.00418095
0.00420053
0.00420053
0.00420053
0.00403944
0.00403944
0.00403944
0.00389398
0.00389398
0.00389398
0.00391197
0.00391197
0.00391197
0.00391049
0.00391049
0.00391049
0.004021
0.004021
0.004021
0.00397519
0.00397519
0.00397519
0.00395697
0.00395697
0.00395697
0.00398413
0.00398413
0.00398413
0.00378862
0.00378862
0.00378862
0.00384008
0.00384008
0.00384008
0.00379654
0.00379654
0.00379654
0.00377109
0.00377109
0.00377109
0.00385803
0.00385803
0.00385803
0.00383202
0.00383202
0.00383202
0.00371864
0.00371864
0.00371864
0.0036767
0.0036767
0.0036767
0.0036595
0.0036595
0.0036595
0.0036838
0.0036838
0.0036838
0.00380422
0.00380422
0.00380422
0.00384788
0.00384788
0.00384788
0.00387375
0.00387375
0.00387375
0.004314
0.004314
0.004314
0.00436446
0.00436446
0.00436446
0.00550442
0.00550442
0.00550442
0.00524556
0.00524556
0.00524556
0.00554035
0.00554035
0.00554035
0.0055093
0.0055093
0.0055093
0.00521177
0.00521177
0.00521177
0.00526368
0.00526368
0.00526368
0.00529931
0.00529931
0.00529931
0.00499223
0.00499223
0.00499223
0.00501829
0.00501829
0.00501829
0.00507052
0.00507052
0.00507052
0.00493332
0.00493332
0.00493332
0.00490765
0.00490765
0.00490765
0.00484988
0.00484988
0.00484988
0.00481787
0.00481787
0.00481787
0.00513535
0.00513535
0.00513535
0.00504987
0.00504987
0.00504987
0.0050251
0.0050251
0.0050251
0.00496588
0.00496588
0.00496588
0.0049316
0.0049316
0.0049316
0.00473663
0.00473663
0.00473663
0.0047613
0.0047613
0.0047613
0.00486832
0.00486832
0.00486832
0.00480228
0.00480228
0.00480228
0.00498478
0.00498478
0.00498478
0.00501057
0.00501057
0.00501057
0.00471526
0.00471526
0.00471526
0.0047392
0.0047392
0.0047392
0.0048531
0.0048531
0.0048531
0.00491069
0.00491069
0.00491069
0.00478224
0.00478224
0.00478224
0.00436824
0.00436824
0.00436824
0.00762966
0.00762966
0.00762966
0.0075766
0.0075766
0.0075766
0.00758363
0.00758363
0.00758363
0.0063877
0.0063877
0.0063877
0.00654179
0.00654179
0.00654179
0.00646762
0.00646762
0.00646762
0.00736518
0.00736518
0.00736518
0.00729789
0.00729789
0.00729789
0.00736305
0.00736305
0.00736305
0.00543776
0.00543776
0.00543776
0.00541252
0.00541252
0.00541252
0.00545227
0.00545227
0.00545227
0.00551819
0.00551819
0.00551819
0.00536205
0.00536205
0.00536205
0.00542669
0.00542669
0.00542669
0.00756031
0.00756031
0.00756031
0.007463
0.007463
0.007463
0.00760497
0.00760497
0.00760497
0.00755105
0.00755105
0.00755105
0.00744409
0.00744409
0.00744409
0.00739106
0.00739106
0.00739106
0.00729648
0.00729648
0.00729648
0.00728587
0.00728587
0.00728587
0.00724458
0.00724458
0.00724458
0.00711178
0.00711178
0.00711178
0.00715232
0.00715232
0.00715232
0.00754903
0.00754903
0.00754903
0.0073837
0.0073837
0.0073837
0.00616628
0.00616628
0.00616628
0.00601593
0.00601593
0.00601593
0.0073157
0.0073157
0.0073157
0.00742707
0.00742707
0.00742707
0.00733185
0.00733185
0.00733185
0.00747897
0.00747897
0.00747897
0.00417306
0.00417306
0.00417306
0.0040706
0.0040706
0.0040706
0.00394136
0.00394136
0.00394136
0.00394389
0.00394389
0.00394389
0.00396545
0.00396545
0.00396545
0.0040829
0.0040829
0.0040829
0.00401148
0.00401148
0.00401148
0.00403595
0.00403595
0.00403595
0.00396275
0.00396275
0.00396275
0.00390389
0.00390389
0.00390389
0.00401841
0.00401841
0.00401841
0.00406541
0.00406541
0.00406541
0.0036607
0.0036607
0.0036607
0.0037689
0.0037689
0.0037689
0.0037262
0.0037262
0.0037262
0.00370249
0.00370249
0.00370249
0.00385608
0.00385608
0.00385608
0.00377877
0.00377877
0.00377877
0.0037359
0.0037359
0.0037359
0.00464906
0.00464906
0.00464906
0.00462244
0.00462244
0.00462244
0.00465037
0.00465037
0.00465037
0.00448916
0.00448916
0.00448916
0.00454219
0.00454219
0.00454219
0.00446232
0.00446232
0.00446232
0.00448792
0.00448792
0.00448792
0.00456836
0.00456836
0.00456836
0.00454093
0.00454093
0.00454093
0.00487417
0.00487417
0.00487417
0.00481494
0.00481494
0.00481494
0.0048475
0.0048475
0.0048475
0.00490509
0.00490509
0.00490509
0.00487558
0.00487558
0.00487558
0.00691327
0.00691327
0.00691327
0.00628174
0.00628174
0.00628174
0.00644038
0.00644038
0.00644038
0.00602911
0.00602911
0.00602911
0.00595539
0.00595539
0.00595539
0.00602375
0.00602375
0.00602375
0.00580589
0.00580589
0.00580589
0.00573506
0.00573506
0.00573506
0.00625164
0.00625164
0.00625164
0.00632791
0.00632791
0.00632791
0.0064074
0.0064074
0.0064074
0.00632956
0.00632956
0.00632956
0.00628958
0.00628958
0.00628958
0.00632265
0.00632265
0.00632265
0.006402
0.006402
0.006402
0.00652783
0.00652783
0.00652783
0.00644651
0.00644651
0.00644651
0.00640503
0.00640503
0.00640503
0.00644376
0.00644376
0.00644376
0.00680358
0.00680358
0.00680358
0.0044609
0.0044609
0.0044609
0.00440895
0.00440895
0.00440895
0.00496087
0.00496087
0.00496087
0.00498946
0.00498946
0.00498946
0.00490229
0.00490229
0.00490229
0.00487233
0.00487233
0.00487233
0.00507829
0.00507829
0.00507829
0.00559747
0.00559747
0.00559747
0.00563065
0.00563065
0.00563065
0.0056656
0.0056656
0.0056656
0.00566416
0.00566416
0.00566416
0.00562893
0.00562893
0.00562893
0.00526798
0.00526798
0.00526798
0.00533167
0.00533167
0.00533167
0.00555611
0.00555611
0.00555611
0.00514151
0.00514151
0.00514151
0.00526619
0.00526619
0.00526619
0.0051733
0.0051733
0.0051733
0.00523566
0.00523566
0.00523566
0.00605271
0.00605271
0.00605271
0.00597898
0.00597898
0.00597898
0.00556391
0.00556391
0.00556391
0.00575919
0.00575919
0.00575919
0.00573357
0.00573357
0.00573357
0.00557204
0.00557204
0.00557204
0.00563956
0.00563956
0.00563956
0.00554716
0.00554716
0.00554716
0.00558914
0.00558914
0.00558914
0.00560578
0.00560578
0.00560578
0.00567386
0.00567386
0.00567386
0.00595341
0.00595341
0.00595341
0.00602657
0.00602657
0.00602657
0.0049445
0.0049445
0.0049445
0.00496718
0.00496718
0.00496718
0.00493139
0.00493139
0.00493139
0.00487372
0.00487372
0.00487372
0.00485161
0.00485161
0.00485161
0.00488661
0.00488661
0.00488661
0.00496952
0.00496952
0.00496952
0.00491122
0.00491122
0.00491122
0.00492294
0.00492294
0.00492294
0.00488822
0.00488822
0.00488822
0.00508856
0.00508856
0.00508856
0.0051864
0.0051864
0.0051864
0.00514933
0.00514933
0.00514933
0.00484224
0.00484224
0.00484224
0.0048083
0.0048083
0.0048083
0.00481926
0.00481926
0.00481926
0.00445046
0.00445046
0.00445046
0.00439912
0.00439912
0.00439912
0.00464587
0.00464587
0.00464587
0.00469283
0.00469283
0.00469283
0.00474164
0.00474164
0.00474164
0.00470709
0.00470709
0.00470709
0.00472104
0.00472104
0.00472104
0.00466631
0.00466631
0.00466631
0.00446065
0.00446065
0.00446065
0.00437763
0.00437763
0.00437763
0.00440939
0.00440939
0.00440939
0.0042414
0.0042414
0.0042414
0.00411536
0.00411536
0.00411536
0.0041628
0.0041628
0.0041628
0.00419294
0.00419294
0.00419294
0.00417485
0.00417485
0.00417485
0.004045
0.004045
0.004045
0.00373776
0.00373776
0.00373776
0.0036869
0.0036869
0.0036869
0.00372883
0.00372883
0.00372883
0.00375452
0.00375452
0.00375452
0.00376341
0.00376341
0.00376341
0.00377205
0.00377205
0.00377205
0.00374644
0.00374644
0.00374644
0.00380638
0.00380638
0.00380638
0.00371961
0.00371961
0.00371961
0.00365263
0.00365263
0.00365263
0.00367788
0.00367788
0.00367788
0.00373588
0.00373588
0.00373588
0.00385782
0.00385782
0.00385782
0.00381426
0.00381426
0.00381426
0.00379733
0.00379733
0.00379733
0.00382354
0.00382354
0.00382354
0.00402227
0.00402227
0.00402227
0.00397663
0.00397663
0.00397663
0.00397092
0.00397092
0.00397092
0.00392597
0.00392597
0.00392597
0.00395982
0.00395982
0.00395982
0.00398805
0.00398805
0.00398805
0.00521736
0.00521736
0.00521736
0.00509507
0.00509507
0.00509507
0.00513252
0.00513252
0.00513252
0.00519378
0.00519378
0.00519378
0.00508047
0.00508047
0.00508047
0.00520227
0.00520227
0.00520227
0.00511801
0.00511801
0.00511801
0.00517903
0.00517903
0.00517903
0.00510308
0.00510308
0.00510308
0.00516385
0.00516385
0.00516385
0.00536734
0.00536734
0.00536734
0.00530368
0.00530368
0.00530368
0.00526447
0.00526447
0.00526447
0.00539155
0.00539155
0.00539155
0.0053514
0.0053514
0.0053514
0.00528799
0.00528799
0.00528799
0.00484678
0.00484678
0.00484678
0.0049179
0.0049179
0.0049179
0.00486044
0.00486044
0.00486044
0.00482528
0.00482528
0.00482528
0.00493996
0.00493996
0.00493996
0.004904
0.004904
0.004904
0.00487508
0.00487508
0.00487508
0.00491113
0.00491113
0.00491113
0.00489608
0.00489608
0.00489608
0.00495389
0.00495389
0.00495389
0.00496918
0.00496918
0.00496918
0.00499095
0.00499095
0.00499095
0.00476776
0.00476776
0.00476776
0.00478878
0.00478878
0.00478878
0.00472861
0.00472861
0.00472861
0.00467847
0.00467847
0.00467847
0.0047125
0.0047125
0.0047125
0.00518678
0.00518678
0.00518678
0.00524872
0.00524872
0.00524872
0.00517088
0.00517088
0.00517088
0.00514824
0.00514824
0.00514824
0.00523256
0.00523256
0.00523256
0.00527186
0.00527186
0.00527186
0.00540562
0.00540562
0.00540562
0.00544659
0.00544659
0.00544659
0.00534153
0.00534153
0.00534153
0.00531813
0.00531813
0.00531813
0.00535858
0.00535858
0.00535858
0.00542295
0.00542295
0.00542295
0.00572146
0.00572146
0.00572146
0.00569574
0.00569574
0.00569574
0.00544732
0.00544732
0.00544732
0.00564696
0.00564696
0.00564696
0.00350507
0.00350507
0.00350507
0.00366855
0.00366855
0.00366855
0.00371006
0.00371006
0.00371006
0.00375757
0.00375757
0.00375757
0.0037156
0.0037156
0.0037156
0.0037682
0.0037682
0.0037682
0.00378429
0.00378429
0.00378429
0.003726
0.003726
0.003726
0.00370011
0.00370011
0.00370011
0.00384803
0.00384803
0.00384803
0.0037947
0.0037947
0.0037947
0.00383786
0.00383786
0.00383786
0.00386484
0.00386484
0.00386484
0.0037783
0.0037783
0.0037783
0.00380466
0.00380466
0.00380466
0.00384333
0.00384333
0.00384333
0.00388714
0.00388714
0.00388714