<VTKFile type="UnstructuredGrid" version="1.0">
<UnstructuredGrid>
<Piece NumberOfPoints="8859" NumberOfCells="2953">
<Points>
<DataArray type="Float64" NumberOfComponents="3" format="ascii">
3.01 0.5 6.175
3.01 0.487476 6.1975
3.01 0.512524 6.1975
3.01 0.17352 5.2975
3.01 0.148445 5.2975
3.01 0.160827 5.31922
3.01 0.122979 5.34089
3.01 0.135644 5.31922
3.01 0.110383 5.31921
3.01 0.135644 5.31922
3.01 0.123433 5.2975
3.01 0.110383 5.31921
3.01 0.123433 5.2975
3.01 0.135644 5.31922
3.01 0.148445 5.2975
3.01 0.135644 5.31922
3.01 0.160827 5.31922
3.01 0.148445 5.2975
3.01 0.17352 5.2975
3.01 0.185985 5.3192
3.01 0.198629 5.2975
3.01 0.185985 5.3192
3.01 0.17352 5.2975
3.01 0.160827 5.31922
3.01 0.0732297 5.34067
3.01 0.0848754 5.31914
3.01 0.0586606 5.31881
3.01 0.05 6.13027
3.01 0.058509 6.10756
3.01 0.05 6.0851
3.01 0.324276 5.2975
3.01 0.336827 5.31916
3.01 0.349395 5.2975
3.01 0.148138 5.3409
3.01 0.160827 5.31922
3.01 0.135644 5.31922
3.01 0.122979 5.34089
3.01 0.148138 5.3409
3.01 0.135644 5.31922
3.01 0.160827 5.31922
3.01 0.173316 5.34089
3.01 0.185985 5.3192
3.01 0.185806 5.36255
3.01 0.173316 5.34089
3.01 0.160572 5.36255
3.01 0.173316 5.34089
3.01 0.160827 5.31922
3.01 0.148138 5.3409
3.01 0.160572 5.36255
3.01 0.173316 5.34089
3.01 0.148138 5.3409
3.01 0.211137 5.31919
3.01 0.198629 5.2975
3.01 0.185985 5.3192
3.01 0.0979162 5.34084
3.01 0.122979 5.34089
3.01 0.110383 5.31921
3.01 0.122979 5.34089
3.01 0.0979162 5.34084
3.01 0.109875 5.36249
3.01 0.0732297 5.34067
3.01 0.0979162 5.34084
3.01 0.0848754 5.31914
3.01 0.0979162 5.34084
3.01 0.110383 5.31921
3.01 0.0848754 5.31914
3.01 0.0975729 5.38404
3.01 0.122678 5.38414
3.01 0.109875 5.36249
3.01 0.0841718 5.36235
3.01 0.0732297 5.34067
3.01 0.0577122 5.36202
3.01 0.0729308 5.38388
3.01 0.0841718 5.36235
3.01 0.0577122 5.36202
3.01 0.0732297 5.34067
3.01 0.0841718 5.36235
3.01 0.0979162 5.34084
3.01 0.0841718 5.36235
3.01 0.109875 5.36249
3.01 0.0979162 5.34084
3.01 0.0975729 5.38404
3.01 0.0841718 5.36235
3.01 0.0729308 5.38388
3.01 0.0841718 5.36235
3.01 0.0975729 5.38404
3.01 0.109875 5.36249
3.01 0.073948 5.2975
3.01 0.05 5.2975
3.01 0.0586606 5.31881
3.01 0.073948 5.2975
3.01 0.0586606 5.31881
3.01 0.0848754 5.31914
3.01 0.05 6.17329
3.01 0.0603641 6.15197
3.01 0.05 6.13027
3.01 0.0603641 6.15197
3.01 0.05 6.17329
3.01 0.0753197 6.17399
3.01 0.0709395 6.1975
3.01 0.05 6.17329
3.01 0.05 6.1975
3.01 0.05 6.17329
3.01 0.0709395 6.1975
3.01 0.0753197 6.17399
3.01 0.0579641 5.88463
3.01 0.05 5.86261
3.01 0.05 5.90669
3.01 0.0841948 5.79679
3.01 0.109814 5.7968
3.01 0.097638 5.77493
3.01 0.0841948 5.79679
3.01 0.0578646 5.7968
3.01 0.0730539 5.8187
3.01 0.0580261 5.9288
3.01 0.05 5.90669
3.01 0.05 5.95095
3.01 0.942292 5.49236
3.01 0.95 5.51404
3.01 0.95 5.47067
3.01 0.95 5.42726
3.01 0.942332 5.44897
3.01 0.95 5.47067
3.01 0.73872 5.70953
3.01 0.75132 5.68775
3.01 0.726137 5.68776
3.01 0.751305 5.73132
3.01 0.73872 5.70953
3.01 0.726124 5.73133
3.01 0.713546 5.70954
3.01 0.73872 5.70953
3.01 0.726137 5.68776
3.01 0.73872 5.70953
3.01 0.713546 5.70954
3.01 0.726124 5.73133
3.01 0.814318 5.75311
3.01 0.801709 5.7313
3.01 0.789096 5.75312
3.01 0.7765 5.73131
3.01 0.801709 5.7313
3.01 0.789115 5.70951
3.01 0.801709 5.7313
3.01 0.7765 5.73131
3.01 0.789096 5.75312
3.01 0.7765 5.73131
3.01 0.763892 5.75314
3.01 0.789096 5.75312
3.01 0.763892 5.75314
3.01 0.7765 5.73131
3.01 0.751305 5.73132
3.01 0.95 6.1975
3.01 0.95 6.17329
3.01 0.929061 6.1975
3.01 0.95 5.9954
3.01 0.941913 5.97315
3.01 0.926844 5.9954
3.01 0.941913 5.97315
3.01 0.95 5.9954
3.01 0.95 5.95095
3.01 0.926866 5.95094
3.01 0.941913 5.97315
3.01 0.95 5.95095
3.01 0.941974 5.9288
3.01 0.926866 5.95094
3.01 0.95 5.95095
3.01 0.95 5.90669
3.01 0.941974 5.9288
3.01 0.95 5.95095
3.01 0.941974 5.9288
3.01 0.95 5.90669
3.01 0.926895 5.90669
3.01 0.6127 6.1975
3.01 0.637734 6.1975
3.01 0.625238 6.17498
3.01 0.662757 6.1975
3.01 0.650275 6.17497
3.01 0.637734 6.1975
3.01 0.650275 6.17497
3.01 0.625238 6.17498
3.01 0.637734 6.1975
3.01 0.600415 5.73137
3.01 0.575304 5.73137
3.01 0.587856 5.7532
3.01 0.575304 5.73137
3.01 0.562749 5.7532
3.01 0.587856 5.7532
3.01 0.336827 5.31916
3.01 0.361946 5.31916
3.01 0.349395 5.2975
3.01 0.223755 5.2975
3.01 0.198629 5.2975
3.01 0.211137 5.31919
3.01 0.185985 5.3192
3.01 0.198492 5.34088
3.01 0.211137 5.31919
3.01 0.185806 5.36255
3.01 0.198492 5.34088
3.01 0.173316 5.34089
3.01 0.198492 5.34088
3.01 0.185985 5.3192
3.01 0.173316 5.34089
3.01 0.0576202 5.40553
3.01 0.05 5.38374
3.01 0.05 5.42726
3.01 0.05 5.38374
3.01 0.0576202 5.40553
3.01 0.0729308 5.38388
3.01 0.05 5.38374
3.01 0.0729308 5.38388
3.01 0.0577122 5.36202
3.01 0.135283 5.36254
3.01 0.122979 5.34089
3.01 0.109875 5.36249
3.01 0.135283 5.36254
3.01 0.109875 5.36249
3.01 0.122678 5.38414
3.01 0.122979 5.34089
3.01 0.135283 5.36254
3.01 0.148138 5.3409
3.01 0.135283 5.36254
3.01 0.160572 5.36255
3.01 0.148138 5.3409
3.01 0.123433 5.2975
3.01 0.0985513 5.2975
3.01 0.110383 5.31921
3.01 0.110383 5.31921
3.01 0.0985513 5.2975
3.01 0.0848754 5.31914
3.01 0.0848754 5.31914
3.01 0.0985513 5.2975
3.01 0.073948 5.2975
3.01 0.0603641 6.15197
3.01 0.0739464 6.12949
3.01 0.05 6.13027
3.01 0.0739464 6.12949
3.01 0.058509 6.10756
3.01 0.05 6.13027
3.01 0.058509 6.10756
3.01 0.0739464 6.12949
3.01 0.0849548 6.10711
3.01 0.058509 6.10756
3.01 0.0732725 6.08488
3.01 0.05 6.0851
3.01 0.0732725 6.08488
3.01 0.058509 6.10756
3.01 0.0849548 6.10711
3.01 0.5 6.175
3.01 0.47495 6.175
3.01 0.487476 6.1975
3.01 0.097663 5.8187
3.01 0.109814 5.7968
3.01 0.0841948 5.79679
3.01 0.0730539 5.8187
3.01 0.097663 5.8187
3.01 0.0841948 5.79679
3.01 0.0578646 5.7968
3.01 0.05 5.8187
3.01 0.0730539 5.8187
3.01 0.05 5.8187
3.01 0.0578646 5.7968
3.01 0.05 5.77492
3.01 0.05 5.9954
3.01 0.0580869 5.97315
3.01 0.05 5.95095
3.01 0.05 5.95095
3.01 0.073134 5.95094
3.01 0.0580261 5.9288
3.01 0.073134 5.95094
3.01 0.05 5.95095
3.01 0.0580869 5.97315
3.01 0.942268 5.53573
3.01 0.95 5.55741
3.01 0.95 5.51404
3.01 0.942292 5.49236
3.01 0.927025 5.51404
3.01 0.95 5.51404
3.01 0.927025 5.51404
3.01 0.915919 5.53572
3.01 0.942268 5.53573
3.01 0.95 5.51404
3.01 0.927025 5.51404
3.01 0.942268 5.53573
3.01 0.927013 5.55741
3.01 0.95 5.55741
3.01 0.942268 5.53573
3.01 0.915919 5.53572
3.01 0.927013 5.55741
3.01 0.942268 5.53573
3.01 0.801738 5.64425
3.01 0.826957 5.64425
3.01 0.814364 5.62253
3.01 0.852174 5.64424
3.01 0.839609 5.62252
3.01 0.826957 5.64425
3.01 0.839609 5.62252
3.01 0.814364 5.62253
3.01 0.826957 5.64425
3.01 0.776516 5.68775
3.01 0.763923 5.666
3.01 0.75132 5.68775
3.01 0.776516 5.68775
3.01 0.789115 5.70951
3.01 0.801725 5.68774
3.01 0.738704 5.75315
3.01 0.763892 5.75314
3.01 0.751305 5.73132
3.01 0.726124 5.73133
3.01 0.738704 5.75315
3.01 0.751305 5.73132
3.01 0.915617 5.97314
3.01 0.926866 5.95094
3.01 0.902228 5.95094
3.01 0.926866 5.95094
3.01 0.915617 5.97314
3.01 0.941913 5.97315
3.01 0.915617 5.97314
3.01 0.926844 5.9954
3.01 0.941913 5.97315
3.01 0.915617 5.97314
3.01 0.902193 5.99538
3.01 0.926844 5.9954
3.01 0.926866 5.95094
3.01 0.915668 5.92879
3.01 0.902228 5.95094
3.01 0.902267 5.90668
3.01 0.915668 5.92879
3.01 0.926895 5.90669
3.01 0.915668 5.92879
3.01 0.926866 5.95094
3.01 0.941974 5.9288
3.01 0.926895 5.90669
3.01 0.915668 5.92879
3.01 0.941974 5.9288
3.01 0.902267 5.90668
3.01 0.890059 5.92879
3.01 0.915668 5.92879
3.01 0.890059 5.92879
3.01 0.902228 5.95094
3.01 0.915668 5.92879
3.01 0.826927 5.73129
3.01 0.801709 5.7313
3.01 0.814318 5.75311
3.01 0.864816 5.7968
3.01 0.890186 5.7968
3.01 0.877308 5.77493
3.01 0.877308 5.77493
3.01 0.852122 5.77494
3.01 0.864816 5.7968
3.01 0.890186 5.7968
3.01 0.902362 5.77493
3.01 0.877308 5.77493
3.01 0.902362 5.77493
3.01 0.890186 5.7968
3.01 0.915805 5.79679
3.01 0.902362 5.77493
3.01 0.915805 5.79679
3.01 0.926964 5.77492
3.01 0.915835 5.75309
3.01 0.902362 5.77493
3.01 0.926964 5.77492
3.01 0.942171 5.75309
3.01 0.915835 5.75309
3.01 0.926964 5.77492
3.01 0.915835 5.75309
3.01 0.942171 5.75309
3.01 0.926978 5.73127
3.01 0.942171 5.75309
3.01 0.95 5.73127
3.01 0.926978 5.73127
3.01 0.87737 5.60081
3.01 0.902417 5.6008
3.01 0.890277 5.57911
3.01 0.852144 5.73128
3.01 0.864842 5.75309
3.01 0.877329 5.73128
3.01 0.877308 5.77493
3.01 0.864842 5.75309
3.01 0.852122 5.77494
3.01 0.902396 5.68772
3.01 0.890234 5.70949
3.01 0.915858 5.70948
3.01 0.926997 5.64423
3.01 0.95 5.64423
3.01 0.942237 5.62251
3.01 0.91589 5.62251
3.01 0.926997 5.64423
3.01 0.942237 5.62251
3.01 0.942199 5.70948
3.01 0.95 5.73127
3.01 0.95 5.68771
3.01 0.95 5.73127
3.01 0.942199 5.70948
3.01 0.926978 5.73127
3.01 0.942199 5.70948
3.01 0.915858 5.70948
3.01 0.926978 5.73127
3.01 0.95 5.64423
3.01 0.942221 5.66597
3.01 0.95 5.68771
3.01 0.942221 5.66597
3.01 0.95 5.64423
3.01 0.926997 5.64423
3.01 0.915876 5.66597
3.01 0.942221 5.66597
3.01 0.926997 5.64423
3.01 0.926989 5.68771
3.01 0.902396 5.68772
3.01 0.915858 5.70948
3.01 0.902396 5.68772
3.01 0.926989 5.68771
3.01 0.915876 5.66597
3.01 0.926989 5.68771
3.01 0.915858 5.70948
3.01 0.942199 5.70948
3.01 0.95 5.68771
3.01 0.926989 5.68771
3.01 0.942199 5.70948
3.01 0.915876 5.66597
3.01 0.926989 5.68771
3.01 0.942221 5.66597
3.01 0.926989 5.68771
3.01 0.95 5.68771
3.01 0.942221 5.66597
3.01 0.91353 6.15185
3.01 0.939636 6.15197
3.01 0.926054 6.12949
3.01 0.926728 6.08488
3.01 0.941491 6.10756
3.01 0.95 6.0851
3.01 0.926728 6.08488
3.01 0.95 6.0851
3.01 0.941822 6.06254
3.01 0.95 6.13027
3.01 0.939636 6.15197
3.01 0.95 6.17329
3.01 0.95 6.13027
3.01 0.941491 6.10756
3.01 0.926054 6.12949
3.01 0.939636 6.15197
3.01 0.95 6.13027
3.01 0.926054 6.12949
3.01 0.941491 6.10756
3.01 0.95 6.13027
3.01 0.95 6.0851
3.01 0.941869 6.01772
3.01 0.95 5.9954
3.01 0.926844 5.9954
3.01 0.762942 6.15228
3.01 0.737933 6.15234
3.01 0.75028 6.17489
3.01 0.71291 6.15239
3.01 0.737933 6.15234
3.01 0.725533 6.12985
3.01 0.71291 6.15239
3.01 0.725313 6.17492
3.01 0.737933 6.15234
3.01 0.725313 6.17492
3.01 0.75028 6.17489
3.01 0.737933 6.15234
3.01 0.737693 6.1975
[...]
<PointData Scalars="View Factor" >
<DataArray type="Float64" Name="View Factor" NumberOfComponents="1" format="ascii">
0.000327389
0.000327389
0.000327389
0.000230616
0.000230616
0.000230616
0.000232592
0.000232592
0.000232592
0.000231302
0.000231302
0.000231302
0.000230646
0.000230646
0.000230646
0.000231274
0.000231274
0.000231274
0.00023058
0.00023058
0.00023058
0.00023124
0.00023124
0.00023124
0.000232612
0.000232612
0.000232612
0.000317961
0.000317961
0.000317961
0.000230257
0.000230257
0.000230257
0.000232564
0.000232564
0.000232564
0.000233226
0.000233226
0.000233226
0.00023253
0.00023253
0.00023253
0.000235133
0.000235133
0.000235133
0.000233195
0.000233195
0.000233195
0.000234497
0.000234497
0.000234497
0.000231201
0.000231201
0.000231201
0.00023325
0.00023325
0.00023325
0.00023455
0.00023455
0.00023455
0.000233262
0.000233262
0.000233262
0.000232611
0.000232611
0.000232611
0.000237174
0.000237174
0.000237174
0.000235208
0.000235208
0.000235208
0.00023652
0.00023652
0.00023652
0.00023456
0.00023456
0.00023456
0.000235209
0.000235209
0.000235209
0.000237183
0.000237183
0.000237183
0.000236521
0.000236521
0.000236521
0.000230694
0.000230694
0.000230694
0.000231328
0.000231328
0.000231328
0.000323873
0.000323873
0.000323873
0.000325846
0.000325846
0.000325846
0.000329006
0.000329006
0.000329006
0.00032792
0.00032792
0.00032792
0.000290106
0.000290106
0.000290106
0.000279116
0.000279116
0.000279116
0.000280785
0.000280785
0.000280785
0.000295374
0.000295374
0.000295374
0.000244084
0.000244084
0.000244084
0.000240018
0.000240018
0.000240018
0.000266021
0.000266021
0.000266021
0.00026911
0.00026911
0.00026911
0.000266882
0.000266882
0.000266882
0.000268428
0.000268428
0.000268428
0.000270953
0.000270953
0.000270953
0.000268713
0.000268713
0.000268713
0.000270273
0.000270273
0.000270273
0.00027116
0.00027116
0.00027116
0.000270476
0.000270476
0.000270476
0.000322977
0.000322977
0.000322977
0.000297321
0.000297321
0.000297321
0.000295448
0.000295448
0.000295448
0.000293759
0.000293759
0.000293759
0.000292001
0.000292001
0.000292001
0.000290177
0.000290177
0.000290177
0.000288533
0.000288533
0.000288533
0.000326425
0.000326425
0.000326425
0.000326207
0.000326207
0.000326207
0.000325296
0.000325296
0.000325296
0.000271716
0.000271716
0.000271716
0.000272584
0.000272584
0.000272584
0.000230861
0.000230861
0.000230861
0.000230539
0.000230539
0.000230539
0.00023249
0.00023249
0.00023249
0.000234459
0.000234459
0.000234459
0.000233158
0.000233158
0.000233158
0.000239857
0.000239857
0.000239857
0.000238514
0.000238514
0.000238514
0.000237179
0.000237179
0.000237179
0.000235193
0.000235193
0.000235193
0.000236506
0.000236506
0.000236506
0.000234528
0.000234528
0.000234528
0.000235167
0.000235167
0.000235167
0.000230671
0.000230671
0.000230671
0.000231322
0.000231322
0.000231322
0.000230689
0.000230689
0.000230689
0.000321899
0.000321899
0.000321899
0.000319919
0.000319919
0.000319919
0.000318882
0.000318882
0.000318882
0.000315963
0.000315963
0.000315963
0.000316917
0.000316917
0.000316917
0.000326448
0.000326448
0.000326448
0.000280762
0.000280762
0.000280762
0.000281602
0.000281602
0.000281602
0.000281622
0.000281622
0.000281622
0.000279974
0.000279974
0.000279974
0.000300784
0.000300784
0.000300784
0.000297154
0.000297154
0.000297154
0.000298957
0.000298957
0.000298957
0.000248235
0.000248235
0.000248235
0.000245522
0.000245522
0.000245522
0.000247698
0.000247698
0.000247698
0.000246907
0.000246907
0.000246907
0.000249704
0.000249704
0.000249704
0.000249098
0.000249098
0.000249098
0.000259411
0.000259411
0.000259411
0.000259208
0.000259208
0.000259208
0.000258572
0.000258572
0.000258572
0.000264304
0.000264304
0.000264304
0.000265631
0.000265631
0.000265631
0.000271361
0.000271361
0.000271361
0.000270673
0.000270673
0.000270673
0.000294025
0.000294025
0.000294025
0.000294768
0.000294768
0.000294768
0.000296551
0.000296551
0.000296551
0.000297592
0.000297592
0.000297592
0.000292265
0.000292265
0.000292265
0.000288793
0.000288793
0.000288793
0.000291251
0.000291251
0.000291251
0.000289516
0.000289516
0.000289516
0.000289783
0.000289783
0.000289783
0.00029152
0.00029152
0.00029152
0.000270063
0.000270063
0.000270063
0.000275045
0.000275045
0.000275045
0.000274361
0.000274361
0.000274361
0.000274127
0.000274127
0.000274127
0.000274805
0.000274805
0.000274805
0.000273888
0.000273888
0.000273888
0.000272301
0.000272301
0.000272301
0.000271385
0.000271385
0.000271385
0.000269817
0.000269817
0.000269817
0.000268929
0.000268929
0.000268929
0.000254406
0.000254406
0.000254406
0.000269625
0.000269625
0.000269625
0.00027277
0.00027277
0.00027277
0.000265424
0.000265424
0.000265424
0.000258344
0.000258344
0.000258344
0.000257711
0.000257711
0.000257711
0.000265773
0.000265773
0.000265773
0.000267381
0.000267381
0.000267381
0.00026672
0.00026672
0.00026672
0.00026124
0.00026124
0.00026124
0.000259821
0.000259821
0.000259821
0.000260668
0.000260668
0.000260668
0.000264551
0.000264551
0.000264551
0.000263037
0.000263037
0.000263037
0.000265189
0.000265189
0.000265189
0.000264322
0.000264322
0.000264322
0.000262164
0.000262164
0.000262164
0.00026281
0.00026281
0.00026281
0.000317209
0.000317209
0.000317209
0.000310327
0.000310327
0.000310327
0.000308415
0.000308415
0.000308415
0.000317935
0.000317935
0.000317935
0.000314183
0.000314183
0.000314183
0.000316118
0.000316118
0.000316118
0.000312174
0.000312174
0.000312174
0.000299127
0.000299127
0.000299127
0.000321195
0.000321195
0.000321195
0.000319446
0.000319446
0.000319446
0.000321447
0.000321447
0.000321447
0.00032233
0.00032233
0.00032233
0.000325504
0.000325504
0.000325504
0.000324358
0.000324358
0.000324358
0.000325252
0.000325252
0.000325252
0.000313151
0.000313151
0.000313151
0.000315496
0.000315496
0.000315496
0.000318573
0.000318573
0.000318573
0.000316597
0.000316597
0.000316597
0.000319037
0.000319037
0.000319037
0.000317058
0.000317058
0.000317058
0.000323477
0.000323477
0.000323477
0.000325509
0.000325509
0.000325509
0.000326635
0.000326635
0.000326635
0.0002701
0.0002701
0.0002701
0.000272429
0.000272429
0.000272429
0.000277552
0.000277552
0.000277552
0.000279032
0.000279032
0.000279032
0.0002774
0.0002774
0.0002774
0.000276665
0.000276665
0.000276665
0.000274176
0.000274176
0.000274176
0.000275053
0.000275053
0.000275053
0.000279185
0.000279185
0.000279185
0.000279931
0.000279931
0.000279931
0.000289283
0.000289283
0.000289283
0.000276723
0.000276723
0.000276723
0.000276005
0.000276005
0.000276005
0.00027253
0.00027253
0.00027253
0.000275723
0.000275723
0.000275723
0.000230385
0.000230385
0.000230385
0.000230441
0.000230441
0.000230441
0.000231054
0.000231054
0.000231054
0.00023234
0.00023234
0.00023234
0.000229358
0.000229358
0.000229358
0.000261097
0.000261097
0.000261097
0.000264108
0.000264108
0.000264108
0.000261943
0.000261943
0.000261943
0.00026345
0.00026345
0.00026345
0.000263642
0.000263642
0.000263642
0.000264494
0.000264494
0.000264494
0.000232957
0.000232957
0.000232957
0.000230185
0.000230185
0.000230185
0.000229065
0.000229065
0.000229065
0.000251176
0.000251176
0.000251176
0.000250503
0.000250503
0.000250503
0.00023585
0.00023585
0.00023585
0.000231961
0.000231961
0.000231961
0.000233245
0.000233245
0.000233245
0.000234544
0.000234544
0.000234544
0.000319836
0.000319836
0.000319836
0.000327556
0.000327556
0.000327556
0.00029184
0.00029184
0.00029184
0.000293596
0.000293596
0.000293596
0.000283268
0.000283268
0.000283268
0.000241053
0.000241053
0.000241053
0.000291791
0.000291791
0.000291791
0.000293546
0.000293546
0.000293546
0.000278284
0.000278284
0.000278284
0.000279087
0.000279087
0.000279087
0.000276685
0.000276685
0.000276685
0.00027831
0.00027831
0.00027831
0.00027833
0.00027833
0.00027833
0.000279139
0.000279139
0.000279139
0.000275097
0.000275097
0.000275097
0.000276704
0.000276704
0.000276704
0.000275888
0.000275888
0.000275888
0.000274283
0.000274283
0.000274283
0.000273492
0.000273492
0.000273492
0.000268071
0.000268071
0.000268071
0.000267186
0.000267186
0.000267186
0.000249914
0.000249914
0.000249914
0.000260898
0.000260898
0.000260898
0.000261746
0.000261746
0.000261746
0.000263251
0.000263251
0.000263251
0.000258366
0.000258366
0.000258366
0.000258999
0.000258999
0.000258999
0.00025379
0.00025379
0.00025379
0.000244929
0.000244929
0.000244929
0.000251266
0.000251266
0.000251266
0.000265829
0.000265829
0.000265829
0.000268915
0.000268915
0.000268915
0.000268039
0.000268039
0.000268039
0.000266497
0.000266497
0.000266497
0.000266693
0.000266693
0.000266693
0.000268237
0.000268237
0.000268237
0.000272942
0.000272942
0.000272942
0.000273837
0.000273837
0.000273837
0.000271556
0.000271556
0.000271556
0.000273139
0.000273139
0.000273139
0.000278161
0.000278161
0.000278161
0.000278881
0.000278881
0.000278881
0.000274398
0.000274398
0.000274398
0.000276413
0.000276413
0.000276413
0.000289051
0.000289051
0.000289051
0.000287586
0.000287586
0.000287586
0.000287335
0.000287335
0.000287335
0.000286608
0.000286608
0.000286608
0.000318072
0.000318072
0.000318072
0.000319195
0.000319195
0.000319195
0.000318328
0.000318328
0.000318328
0.000316353
0.000316353
0.000316353
0.000307563
0.000307563
0.000307563
0.000312508
0.000312508
0.000312508
0.000314447
0.000314447
0.000314447
0.000303867
0.000303867
0.000303867
0.000305992
0.000305992
0.000305992
0.000302811
0.000302811
0.000302811
0.000263906
0.000263906
0.000263906
0.000270739
0.000270739
0.000270739
0.000269847
0.000269847
0.000269847
0.000270518
0.000270518
0.000270518
0.000272092
0.000272092
0.000272092
0.00027689
0.00027689
0.00027689
0.000275277
0.000275277
0.000275277
0.000269164
0.000269164
0.000269164
0.000267845
0.000267845
0.000267845
0.000267614
0.000267614
0.000267614
0.000266957
0.000266957
0.000266957
0.000272062
0.000272062
0.000272062
0.000270415
0.000270415
0.000270415
0.000262395
0.000262395
0.000262395
0.000260482
0.000260482
0.000260482
0.000261119
0.000261119
0.000261119
0.000256473
0.000256473
0.000256473
0.000258155
0.000258155
0.000258155
0.000255855
0.000255855
0.000255855
0.000256689
0.000256689
0.000256689
0.000253577
0.000253577
0.000253577
0.000252145
0.000252145
0.000252145
0.00025133
0.00025133
0.00025133
0.000320092
0.000320092
0.000320092
0.000318383
0.000318383
0.000318383
0.000319967
0.000319967
0.000319967
0.00031917
0.00031917
0.00031917
0.000322033
0.000322033
0.000322033
0.000316376
0.000316376
0.000316376
0.000310581
0.000310581
0.000310581
0.000314425
0.000314425
0.000314425
0.000313322
0.000313322
0.000313322
0.000311404
0.000311404
0.000311404
0.000308684
0.000308684
0.000308684
0.000305728
0.000305728
0.000305728
0.000306797
0.000306797
0.000306797
0.00030653
0.00030653
0.00030653
0.0002994
0.0002994
0.0002994
0.000300165
0.000300165
0.000300165
0.000307592
0.000307592
0.000307592
0.00030868
0.00030868
0.00030868
0.00031992
0.00031992
0.00031992
0.000319687
0.000319687
0.000319687
0.00031881
0.00031881
0.00031881
0.000325746
0.000325746
0.000325746
0.000324605
0.000324605
0.000324605
0.000322577
0.000322577
0.000322577
0.00032169
0.00032169
0.00032169
0.000323283
0.000323283
0.000323283
0.000320382
0.000320382
0.000320382
0.000321246
0.000321246
0.000321246
0.000324452
0.000324452
0.000324452
0.000322073
0.000322073
0.000322073
0.000324102
0.000324102
0.000324102
0.000313547
0.000313547
0.000313547
0.000312698
0.000312698
0.000312698
0.000299793
0.000299793
0.000299793
0.000298779
0.000298779
0.000298779
0.000303822
0.000303822
0.000303822
0.000310773
0.000310773
0.000310773
0.0003097
0.0003097
0.0003097
0.000311222
0.000311222
0.000311222
0.00030487
0.00030487
0.00030487
0.000306742
0.000306742
0.000306742
0.000307802
0.000307802
0.000307802
0.000306975
0.000306975
0.000306975
0.000315734
0.000315734
0.000315734
0.000314011
0.000314011
0.000314011
0.000315964
0.000315964
0.000315964
0.000316832
0.000316832
0.000316832
0.000312929
0.000312929
0.000312929
0.000313783
0.000313783
0.000313783
0.000320143
0.000320143
0.000320143
0.000322148
0.000322148
0.000322148
0.000323266
0.000323266
0.000323266
0.000322363
0.000322363
0.000322363
0.000316184
0.000316184
0.000316184
0.000314229
0.000314229
0.000314229
0.000313364
0.000313364
0.000313364
0.000296955
0.000296955
0.000296955
0.000295168
0.000295168
0.000295168
0.000266898
0.000266898
0.000266898
0.00027316
0.00027316
0.00027316
0.000266161
0.000266161
0.000266161
0.00026696
0.00026696
0.00026696
0.000273922
0.000273922
0.000273922
0.000270942
0.000270942
0.000270942
0.000270213
0.000270213
0.000270213
0.000278209
0.000278209
0.000278209
0.000277337
0.000277337
0.000277337
0.000275599
0.000275599
0.000275599
0.000279848
0.000279848
0.000279848
0.00028073
0.00028073
0.00028073
0.00028239
0.00028239
0.00028239
0.000283168
0.000283168
0.000283168
0.000271559
0.000271559
0.000271559
0.00027402
0.00027402
0.00027402
0.000274899
0.000274899
0.000274899
0.00027651
0.00027651
0.00027651
0.000277241
0.000277241
0.000277241
0.000285754
0.000285754
0.000285754
0.000284849
0.000284849
0.000284849
0.000280081
0.000280081
0.000280081
0.000281584
0.000281584
0.000281584
0.000278091
0.000278091
0.000278091
0.000277216
0.000277216
0.000277216
0.000285376
0.000285376
0.000285376
0.000284463
0.000284463
0.000284463
0.00027853
0.00027853
0.00027853
0.000276902
0.000276902
0.000276902
0.00027734
0.00027734
0.00027734
0.000291011
0.000291011
0.000291011
0.000230492
0.000230492
0.000230492
0.000231108
0.000231108
0.000231108
0.000231157
0.000231157
0.000231157
0.000238743
0.000238743
0.000238743
0.000236029
0.000236029
0.000236029
0.000237413
0.000237413
0.000237413
0.000229633
0.000229633
0.000229633
0.000228198
0.000228198
0.000228198
0.000228654
0.000228654
0.000228654
0.00026129
0.00026129
0.00026129
0.000262134
0.000262134
0.000262134
0.000261477
0.000261477
0.000261477
0.000259985
0.000259985
0.000259985
0.000263828
0.000263828
0.000263828
0.000262318
0.000262318
0.000262318
0.000230994
0.000230994
0.000230994
0.00023228
0.00023228
0.00023228
0.000230323
0.000230323
0.000230323
0.00023093
0.00023093
0.00023093
0.000232145
0.000232145
0.000232145
0.000232753
0.000232753
0.000232753
0.00023405
0.00023405
0.00023405
0.000233972
0.000233972
0.000233972
0.000234664
0.000234664
0.000234664
0.000236672
0.000236672
0.000236672
0.000235974
0.000235974
0.000235974
0.00022994
0.00022994
0.00022994
0.000229763
0.000229763
0.000229763
0.000252604
0.000252604
0.000252604
0.000255492
0.000255492
0.000255492
0.000232208
0.000232208
0.000232208
0.000233015
0.000233015
0.000233015
0.000234315
0.000234315
0.000234315
0.000232395
0.000232395
0.000232395
0.000306992
0.000306992
0.000306992
0.000310645
0.000310645
0.000310645
0.00031667
0.00031667
0.00031667
0.000316721
0.000316721
0.000316721
0.000315715
0.000315715
0.000315715
0.000310901
0.000310901
0.000310901
0.000313766
0.000313766
0.000313766
0.000312824
0.000312824
0.000312824
0.00031566
0.00031566
0.00031566
0.000318824
0.000318824
0.000318824
0.000314002
0.000314002
0.000314002
0.000312072
0.000312072
0.000312072
0.00032661
0.00032661
0.00032661
0.000321615
0.000321615
0.000321615
0.000323632
0.000323632
0.000323632
0.000324569
0.000324569
0.000324569
0.000317631
0.000317631
0.000317631
0.000321897
0.000321897
0.000321897
0.000323917
0.000323917
0.000323917
0.000290934
0.000290934
0.000290934
0.000291819
0.000291819
0.000291819
0.000290959
0.000290959
0.000290959
0.000296249
0.000296249
0.000296249
0.00029447
0.00029447
0.00029447
0.000297132
0.000297132
0.000297132
0.000296223
0.000296223
0.000296223
0.000293574
0.000293574
0.000293574
0.000294444
0.000294444
0.000294444
0.000284095
0.000284095
0.000284095
0.000285752
0.000285752
0.000285752
0.000284975
0.000284975
0.000284975
0.000283288
0.000283288
0.000283288
0.000284119
0.000284119
0.000284119
0.000241208
0.000241208
0.000241208
0.000251558
0.000251558
0.000251558
0.000248726
0.000248726
0.000248726
0.000255634
0.000255634
0.000255634
0.000257095
0.000257095
0.000257095
0.000256704
0.000256704
0.000256704
0.000261146
0.000261146
0.000261146
0.000262644
0.000262644
0.000262644
0.00025236
0.00025236
0.00025236
0.000250911
0.000250911
0.000250911
0.000249494
0.000249494
0.000249494
0.000250928
0.000250928
0.000250928
0.000251633
0.000251633
0.000251633
0.000250862
0.000250862
0.000250862
0.000249446
0.000249446
0.000249446
0.000247377
0.000247377
0.000247377
0.000248779
0.000248779
0.000248779
0.000249472
0.000249472
0.000249472
0.000248755
0.000248755
0.000248755
0.000242408
0.000242408
0.000242408
0.000297103
0.000297103
0.000297103
0.000298905
0.000298905
0.000298905
0.000281575
0.000281575
0.000281575
0.000280732
0.000280732
0.000280732
0.000283242
0.000283242
0.000283242
0.000284064
0.000284064
0.000284064
0.000278252
0.000278252
0.000278252
0.000265688
0.000265688
0.000265688
0.000264912
0.000264912
0.000264912
0.000264158
0.000264158
0.000264158
0.00026414
0.00026414
0.00026414
0.00026489
0.00026489
0.00026489
0.000273474
0.000273474
0.000273474
0.000271887
0.000271887
0.000271887
0.00026636
0.00026636
0.00026636
0.000276659
0.000276659
0.000276659
0.000273448
0.000273448
0.000273448
0.000275866
0.000275866
0.000275866
0.00027426
0.00027426
0.00027426
0.000249231
0.000249231
0.000249231
0.000250642
0.000250642
0.000250642
0.000257103
0.000257103
0.000257103
0.00025154
0.00025154
0.00025154
0.000252356
0.000252356
0.000252356
0.000256066
0.000256066
0.000256066
0.000254615
0.000254615
0.000254615
0.000256899
0.000256899
0.000256899
0.000256271
0.000256271
0.000256271
0.000256471
0.000256471
0.000256471
0.000255018
0.000255018
0.000255018
0.000247113
0.000247113
0.000247113
0.000245727
0.000245727
0.000245727
0.000273637
0.000273637
0.000273637
0.000272739
0.000272739
0.000272739
0.000273429
0.000273429
0.000273429
0.000275027
0.000275027
0.000275027
0.000275937
0.000275937
0.000275937
0.000275236
0.000275236
0.000275236
0.000274031
0.000274031
0.000274031
0.000275634
0.000275634
0.000275634
0.000275823
0.000275823
0.000275823
0.000276537
0.000276537
0.000276537
0.000270863
0.000270863
0.000270863
0.000268612
0.000268612
0.000268612
0.000269299
0.000269299
0.000269299
0.000278349
0.000278349
0.000278349
0.000279073
0.000279073
0.000279073
0.000279259
0.000279259
0.000279259
0.000288529
0.000288529
0.000288529
0.000290256
0.000290256
0.000290256
0.000280155
0.000280155
0.000280155
0.000277103
0.000277103
0.000277103
0.000276655
0.000276655
0.000276655
0.000277346
0.000277346
0.000277346
0.000277584
0.000277584
0.000277584
0.000279216
0.000279216
0.000279216
0.000284661
0.000284661
0.000284661
0.000287079
0.000287079
0.000287079
0.000286353
0.000286353
0.000286353
0.000292528
0.000292528
0.000292528
0.000296826
0.000296826
0.000296826
0.000295042
0.000295042
0.000295042
0.00029429
0.00029429
0.00029429
0.000295306
0.000295306
0.000295306
0.000300976
0.000300976
0.000300976
0.000315835
0.000315835
0.000315835
0.000317532
0.000317532
0.000317532
0.000315563
0.000315563
0.000315563
0.000314722
0.000314722
0.000314722
0.000314989
0.000314989
0.000314989
0.000315247
0.000315247
0.000315247
0.000316099
0.000316099
0.000316099
0.000313045
0.000313045
0.000313045
0.000315283
0.000315283
0.000315283
0.000318095
0.000318095
0.000318095
0.000317249
0.000317249
0.000317249
0.000314166
0.000314166
0.000314166
0.000309768
0.000309768
0.000309768
0.000311682
0.000311682
0.000311682
0.00031278
0.00031278
0.00031278
0.000311949
0.000311949
0.000311949
0.000300443
0.000300443
0.000300443
0.000302275
0.000302275
0.000302275
0.000303602
0.000303602
0.000303602
0.00030546
0.00030546
0.00030546
0.000303334
0.000303334
0.000303334
0.000302545
0.000302545
0.000302545
0.000265427
0.000265427
0.000265427
0.000268505
0.000268505
0.000268505
0.000267836
0.000267836
0.000267836
0.000266295
0.000266295
0.000266295
0.000268291
0.000268291
0.000268291
0.000265217
0.000265217
0.000265217
0.000267625
0.000267625
0.000267625
0.000266087
0.000266087
0.000266087
0.000267409
0.000267409
0.000267409
0.000265873
0.000265873
0.000265873
0.000261543
0.000261543
0.000261543
0.000263046
0.000263046
0.000263046
0.000263697
0.000263697
0.000263697
0.000260693
0.000260693