<VTKFile type="UnstructuredGrid" version="1.0">
<UnstructuredGrid>
<Piece NumberOfPoints="8859" NumberOfCells="2953">
<Points>
<DataArray type="Float64" NumberOfComponents="3" format="ascii">
2.04744 2.20956 6.13763
2.06275 2.19425 6.14958
2.04754 2.20946 6.16333
2.07804 2.17896 6.08667
2.07805 2.17895 6.06151
2.0934 2.1636 6.07398
2.06271 2.19429 6.09936
2.07804 2.17896 6.08667
2.07804 2.17896 6.11186
2.01701 2.23999 6.18988
2.03242 2.22458 6.1975
2.00164 2.25536 6.1975
2.01701 2.23999 6.18988
2.03232 2.22468 6.17457
2.03242 2.22458 6.1975
2.04777 2.20923 6.18979
2.06326 2.19374 6.1975
2.03242 2.22458 6.1975
2.04777 2.20923 6.18979
2.03232 2.22468 6.17457
2.04754 2.20946 6.16333
2.03242 2.22458 6.1975
2.03232 2.22468 6.17457
2.04777 2.20923 6.18979
2.04754 2.20946 6.16333
2.06275 2.19425 6.14958
2.06287 2.19413 6.17427
2.06287 2.19413 6.17427
2.04777 2.20923 6.18979
2.04754 2.20946 6.16333
2.06326 2.19374 6.1975
2.04777 2.20923 6.18979
2.06287 2.19413 6.17427
2.06275 2.19425 6.14958
2.04744 2.20956 6.13763
2.06271 2.19429 6.12452
2.06271 2.19429 6.09936
2.07804 2.17896 6.11186
2.06271 2.19429 6.12452
2.07809 2.17891 6.16262
2.06287 2.19413 6.17427
2.06275 2.19425 6.14958
2.0934 2.1636 6.14895
2.0934 2.1636 6.17355
2.07809 2.17891 6.16262
2.0934 2.1636 6.04887
2.0934 2.1636 6.07398
2.07805 2.17895 6.06151
2.07804 2.17896 6.08667
2.0934 2.1636 6.07398
2.0934 2.1636 6.09906
2.0934 2.1636 6.09906
2.07804 2.17896 6.11186
2.07804 2.17896 6.08667
2.0934 2.1636 5.52152
2.0934 2.1636 5.54665
2.07807 2.17893 5.53407
2.07807 2.17893 5.98607
2.0934 2.1636 5.99861
2.07806 2.17894 6.01121
2.0934 2.1636 5.97348
2.0934 2.1636 5.99861
2.07807 2.17893 5.98607
2.07808 2.17892 5.86044
2.0934 2.1636 5.87299
2.07808 2.17892 5.88555
1.61564 2.64136 5.30559
1.63134 2.62566 5.2975
1.63134 2.62566 5.32063
1.5683 2.6887 6.1975
1.53648 2.72052 6.1975
1.55243 2.70457 6.18932
2.07804 2.17896 6.13712
2.06271 2.19429 6.12452
2.07804 2.17896 6.11186
2.06275 2.19425 6.14958
2.06271 2.19429 6.12452
2.07804 2.17896 6.13712
2.07804 2.17896 6.13712
2.07809 2.17891 6.16262
2.06275 2.19425 6.14958
2.0934 2.1636 6.14895
2.07809 2.17891 6.16262
2.07804 2.17896 6.13712
2.07833 2.17867 6.18884
2.0934 2.1636 6.17355
2.0934 2.1636 6.1975
2.07833 2.17867 6.18884
2.07809 2.17891 6.16262
2.0934 2.1636 6.17355
2.0934 2.1636 6.1975
2.06326 2.19374 6.1975
2.07833 2.17867 6.18884
2.06326 2.19374 6.1975
2.06287 2.19413 6.17427
2.07833 2.17867 6.18884
2.06287 2.19413 6.17427
2.07809 2.17891 6.16262
2.07833 2.17867 6.18884
2.07806 2.17894 6.01121
2.0934 2.1636 5.99861
2.0934 2.1636 6.02375
2.07804 2.17896 6.11186
2.0934 2.1636 6.09906
2.0934 2.1636 6.12407
2.0934 2.1636 6.14895
2.07804 2.17896 6.13712
2.0934 2.1636 6.12407
2.0934 2.1636 6.12407
2.07804 2.17896 6.13712
2.07804 2.17896 6.11186
2.0934 2.1636 5.84789
2.0934 2.1636 5.87299
2.07808 2.17892 5.86044
2.07807 2.17893 5.53407
2.0934 2.1636 5.54665
2.07807 2.17893 5.5592
2.06275 2.19425 5.97353
2.04743 2.20957 5.96098
2.06275 2.19425 5.94838
2.07806 2.17894 6.03636
2.0934 2.1636 6.04887
2.07805 2.17895 6.06151
2.07806 2.17894 6.03636
2.0934 2.1636 6.02375
2.0934 2.1636 6.04887
2.07806 2.17894 6.03636
2.06273 2.19427 6.02384
2.07806 2.17894 6.01121
2.07806 2.17894 6.01121
2.0934 2.1636 6.02375
2.07806 2.17894 6.03636
2.06271 2.19429 6.07418
2.07804 2.17896 6.08667
2.06271 2.19429 6.09936
2.06271 2.19429 6.07418
2.07805 2.17895 6.06151
2.07804 2.17896 6.08667
2.04741 2.20959 6.03649
2.03209 2.22491 6.04915
2.0321 2.2249 6.02394
1.83285 2.42415 6.16338
1.81747 2.43953 6.1499
1.83285 2.42415 6.13775
1.78664 2.47036 5.9988
1.78664 2.47036 6.024
1.77121 2.48579 6.01139
2.0934 2.1636 5.2975
2.0934 2.1636 5.32145
2.07833 2.17867 5.30616
1.56833 2.68867 6.17433
1.5683 2.6887 6.1975
1.55243 2.70457 6.18932
1.63134 2.62566 6.09946
1.61565 2.64135 6.11214
1.61564 2.64136 6.08685
1.55243 2.70457 6.18932
1.53648 2.72052 6.1975
1.53664 2.72036 6.17423
2.06276 2.19424 5.622
2.04745 2.20955 5.60943
2.06276 2.19424 5.59688
2.0934 2.1636 5.77259
2.07808 2.17892 5.76005
2.0934 2.1636 5.7475
2.07808 2.17892 5.81024
2.0934 2.1636 5.79769
2.0934 2.1636 5.82278
2.06277 2.19423 5.72241
2.04745 2.20955 5.73495
2.04745 2.20955 5.70986
2.06277 2.19423 5.7475
2.04745 2.20955 5.73495
2.06277 2.19423 5.72241
2.07808 2.17892 5.76005
2.06277 2.19423 5.77259
2.06277 2.19423 5.7475
2.04745 2.20955 5.88557
2.06276 2.19424 5.89812
2.04744 2.20956 5.9107
2.01682 2.24018 5.86047
2.01682 2.24018 5.88559
2.0015 2.2555 5.87303
2.04745 2.20955 5.86045
2.03214 2.22486 5.8479
2.04745 2.20955 5.83535
2.04745 2.20955 5.83535
2.06277 2.19423 5.84789
2.04745 2.20955 5.86045
2.03214 2.22486 5.8479
2.03214 2.22486 5.8228
2.04745 2.20955 5.83535
2.04745 2.20955 5.83535
2.03214 2.22486 5.8228
2.04745 2.20955 5.81024
2.0934 2.1636 5.82278
2.0934 2.1636 5.84789
2.07808 2.17892 5.83534
2.07808 2.17892 5.83534
2.07808 2.17892 5.81024
2.0934 2.1636 5.82278
2.07808 2.17892 5.83534
2.0934 2.1636 5.84789
2.07808 2.17892 5.86044
2.07808 2.17892 5.86044
2.06277 2.19423 5.84789
2.07808 2.17892 5.83534
2.04744 2.20956 5.93583
2.03213 2.22487 5.92328
2.04744 2.20956 5.9107
2.04744 2.20956 5.93583
2.06275 2.19425 5.94838
2.04743 2.20957 5.96098
2.0015 2.2555 5.9233
2.01681 2.24019 5.91072
2.01681 2.24019 5.93586
2.01681 2.24019 5.93586
2.01681 2.24019 5.91072
2.03213 2.22487 5.92328
2.0934 2.1636 5.8981
2.07808 2.17892 5.88555
2.0934 2.1636 5.87299
2.04744 2.20956 5.9107
2.06276 2.19424 5.89812
2.06276 2.19424 5.92325
2.06276 2.19424 5.92325
2.04744 2.20956 5.93583
2.04744 2.20956 5.9107
2.06275 2.19425 5.94838
2.04744 2.20956 5.93583
2.06276 2.19424 5.92325
2.07806 2.17894 6.01121
2.06273 2.19427 6.02384
2.06274 2.19426 5.99868
2.06274 2.19426 5.99868
2.07807 2.17893 5.98607
2.07806 2.17894 6.01121
2.06275 2.19425 5.97353
2.07807 2.17893 5.98607
2.06274 2.19426 5.99868
2.0321 2.2249 6.02394
2.03211 2.22489 5.99875
2.04742 2.20958 6.0113
2.04742 2.20958 6.0113
2.04741 2.20959 6.03649
2.0321 2.2249 6.02394
2.06273 2.19427 6.02384
2.04741 2.20959 6.03649
2.04742 2.20958 6.0113
2.04742 2.20958 6.0113
2.06274 2.19426 5.99868
2.06273 2.19427 6.02384
2.01679 2.24021 6.01138
2.03211 2.22489 5.99875
2.0321 2.2249 6.02394
2.01679 2.24021 6.01138
2.00148 2.25552 6.02401
2.00148 2.25552 5.99881
2.06271 2.19429 6.09936
2.06271 2.19429 6.12452
2.04741 2.20959 6.11222
2.04741 2.20959 6.11222
2.06271 2.19429 6.12452
2.04744 2.20956 6.13763
2.03209 2.22491 6.04915
2.04741 2.20959 6.03649
2.0474 2.2096 6.06169
2.0474 2.2096 6.06169
2.03209 2.22491 6.07437
2.03209 2.22491 6.04915
1.97087 2.28613 5.89817
1.95555 2.30145 5.91075
1.95555 2.30145 5.88561
2.00148 2.25552 5.99881
2.00149 2.25551 5.97362
2.0168 2.2402 5.98619
2.0168 2.2402 5.98619
2.01679 2.24021 6.01138
2.00148 2.25552 5.99881
2.03211 2.22489 5.99875
2.01679 2.24021 6.01138
2.0168 2.2402 5.98619
2.03211 2.22489 5.97358
2.03211 2.22489 5.99875
2.0168 2.2402 5.98619
1.86358 2.39342 6.13776
1.86358 2.39342 6.16339
1.84822 2.40878 6.14991
1.84822 2.40878 6.14991
1.86358 2.39342 6.16339
1.84822 2.40878 6.1745
1.84822 2.40878 6.14991
1.84822 2.40878 6.1745
1.83285 2.42415 6.16338
1.83285 2.42415 6.16338
1.83285 2.42415 6.13775
1.84822 2.40878 6.14991
1.81747 2.43953 6.12485
1.83285 2.42415 6.13775
1.81747 2.43953 6.1499
1.80202 2.45498 5.76005
1.80202 2.45498 5.78515
1.7866 2.4704 5.7726
1.70922 2.54778 5.88556
1.69367 2.56333 5.873
1.70922 2.54778 5.86045
1.70924 2.54776 5.93583
1.6937 2.5633 5.94839
1.69369 2.56331 5.92325
1.63134 2.62566 6.09946
1.61564 2.64136 6.08685
1.63132 2.62568 6.07424
1.63135 2.62565 6.12466
1.61565 2.64135 6.11214
1.63134 2.62566 6.09946
1.69376 2.56324 6.04912
1.69378 2.56322 6.07434
1.6782 2.5788 6.06172
1.59983 2.65717 5.99858
1.61554 2.64146 5.98603
1.61557 2.64143 6.0112
1.59973 2.65727 5.89803
1.58397 2.67303 5.91056
1.58396 2.67304 5.88546
1.61564 2.64136 6.18941
1.63134 2.62566 6.1975
1.5999 2.6571 6.1975
1.63134 2.62566 6.17437
1.63134 2.62566 6.1975
1.61564 2.64136 6.18941
1.647 2.61 6.18947
1.63134 2.62566 6.1975
1.63134 2.62566 6.17437
1.59993 2.65707 6.12461
1.59992 2.65708 6.14969
1.58418 2.67282 6.13746
1.84822 2.40878 6.1975
1.81747 2.43953 6.1975
1.83285 2.42415 6.18972
1.83285 2.42415 6.16338
1.84822 2.40878 6.1745
1.83285 2.42415 6.18972
1.83285 2.42415 6.18972
1.84822 2.40878 6.1745
1.84822 2.40878 6.1975
1.81747 2.43953 6.17449
1.81747 2.43953 6.1499
1.83285 2.42415 6.16338
1.83285 2.42415 6.16338
1.83285 2.42415 6.18972
1.81747 2.43953 6.17449
1.81747 2.43953 6.17449
1.83285 2.42415 6.18972
1.81747 2.43953 6.1975
1.70931 2.54769 6.06176
1.69378 2.56322 6.07434
1.69376 2.56324 6.04912
1.7712 2.4858 5.9862
1.78663 2.47037 5.97362
1.78664 2.47036 5.9988
1.78664 2.47036 5.9988
1.77121 2.48579 6.01139
1.7712 2.4858 5.9862
1.77122 2.48578 6.0366
1.77121 2.48579 6.01139
1.78664 2.47036 6.024
1.77122 2.48578 6.0366
1.78664 2.47036 6.024
1.78665 2.47035 6.04921
1.78665 2.47035 6.04921
1.77123 2.48577 6.06182
1.77122 2.48578 6.0366
1.77122 2.48578 6.0366
1.77123 2.48577 6.06182
1.75578 2.50122 6.04919
1.78666 2.47034 6.07443
1.77123 2.48577 6.06182
1.78665 2.47035 6.04921
1.78666 2.47034 6.09964
1.77124 2.48576 6.11234
1.77124 2.48576 6.08706
1.77124 2.48576 6.08706
1.78666 2.47034 6.07443
1.78666 2.47034 6.09964
1.77123 2.48577 6.06182
1.78666 2.47034 6.07443
1.77124 2.48576 6.08706
2.07809 2.17891 5.33238
2.07833 2.17867 5.30616
2.0934 2.1636 5.32145
2.06287 2.19413 5.32073
2.07833 2.17867 5.30616
2.07809 2.17891 5.33238
1.94028 2.31672 5.32048
1.94028 2.31672 5.2975
1.95561 2.30139 5.30521
2.00164 2.25536 5.2975
1.98629 2.27071 5.30517
1.97095 2.28605 5.2975
1.97095 2.28605 5.2975
1.95561 2.30139 5.30521
1.94028 2.31672 5.2975
1.48928 2.76772 5.33397
1.48919 2.76781 5.30786
1.50509 2.75191 5.32145
1.50509 2.75191 5.32145
1.5206 2.7364 5.30601
1.52092 2.73608 5.33245
1.47362 2.78338 5.32282
1.48919 2.76781 5.30786
1.48928 2.76772 5.33397
1.47362 2.78338 5.32282
1.47412 2.78288 5.2975
1.48919 2.76781 5.30786
1.56833 2.68867 5.32067
1.5683 2.6887 5.2975
1.58412 2.67288 5.30563
[...]
<PointData Scalars="View Factor" >
<DataArray type="Float64" Name="View Factor" NumberOfComponents="1" format="ascii">
0.000110439
0.000110439
0.000110439
0.000112307
0.000112307
0.000112307
0.00011168
0.00011168
0.00011168
0.000109969
0.000109969
0.000109969
0.000109905
0.000109905
0.000109905
0.000108955
0.000108955
0.000108955
0.000109814
0.000109814
0.000109814
0.000109561
0.000109561
0.000109561
0.000109818
0.000109818
0.000109818
0.000109483
0.000109483
0.000109483
0.0001089
0.0001089
0.0001089
0.000110755
0.000110755
0.000110755
0.000111371
0.000111371
0.000111371
0.000109499
0.000109499
0.000109499
0.000108876
0.000108876
0.000108876
0.000112623
0.000112623
0.000112623
0.00011167
0.00011167
0.00011167
0.000111356
0.000111356
0.000111356
0.000135186
0.000135186
0.000135186
0.000115219
0.000115219
0.000115219
0.000115546
0.000115546
0.000115546
0.000120282
0.000120282
0.000120282
0.000267747
0.000267747
0.000267747
0.000214667
0.000214667
0.000214667
0.000110729
0.000110729
0.000110729
0.000110429
0.000110429
0.000110429
0.000109799
0.000109799
0.000109799
0.000109486
0.000109486
0.000109486
0.000107967
0.000107967
0.000107967
0.000108546
0.000108546
0.000108546
0.000107987
0.000107987
0.000107987
0.000108586
0.000108586
0.000108586
0.000108854
0.000108854
0.000108854
0.000114561
0.000114561
0.000114561
0.000110728
0.000110728
0.000110728
0.000109797
0.000109797
0.000109797
0.00011041
0.00011041
0.00011041
0.000120628
0.000120628
0.000120628
0.000134784
0.000134784
0.000134784
0.000117582
0.000117582
0.000117582
0.000113267
0.000113267
0.000113267
0.000113587
0.000113587
0.000113587
0.000114574
0.000114574
0.000114574
0.000114238
0.000114238
0.000114238
0.000112322
0.000112322
0.000112322
0.000112635
0.000112635
0.000112635
0.000115302
0.000115302
0.000115302
0.000147272
0.000147272
0.000147272
0.000166787
0.000166787
0.000166787
0.000146538
0.000146538
0.000146538
0.000212512
0.000212512
0.000212512
0.000203774
0.000203774
0.000203774
0.000217897
0.000217897
0.000217897
0.000132827
0.000132827
0.000132827
0.00012489
0.00012489
0.00012489
0.000122736
0.000122736
0.000122736
0.000127875
0.000127875
0.000127875
0.000127116
0.000127116
0.000127116
0.00012563
0.00012563
0.00012563
0.000120324
0.000120324
0.000120324
0.000122913
0.000122913
0.000122913
0.000122803
0.000122803
0.000122803
0.000122423
0.000122423
0.000122423
0.00012353
0.00012353
0.00012353
0.000123878
0.000123878
0.000123878
0.000121676
0.000121676
0.000121676
0.000122383
0.000122383
0.000122383
0.000121327
0.000121327
0.000121327
0.000121686
0.000121686
0.000121686
0.00011966
0.00011966
0.00011966
0.000118269
0.000118269
0.000118269
0.000120806
0.000120806
0.000120806
0.000120417
0.000120417
0.000120417
0.00011959
0.00011959
0.00011959
0.000119624
0.000119624
0.000119624
0.000119291
0.000119291
0.000119291
0.000118598
0.000118598
0.000118598
0.000115235
0.000115235
0.000115235
0.000115558
0.000115558
0.000115558
0.000116227
0.000116227
0.000116227
0.000116294
0.000116294
0.000116294
0.000115617
0.000115617
0.000115617
0.000115263
0.000115263
0.000115263
0.000115582
0.000115582
0.000115582
0.00011666
0.00011666
0.00011666
0.000117406
0.000117406
0.000117406
0.000111702
0.000111702
0.000111702
0.000111395
0.000111395
0.000111395
0.000114632
0.000114632
0.000114632
0.000114319
0.000114319
0.000114319
0.000123919
0.000123919
0.000123919
0.00011843
0.00011843
0.00011843
0.000117725
0.000117725
0.000117725
0.000117348
0.000117348
0.000117348
0.000117666
0.000117666
0.000117666
0.000139448
0.000139448
0.000139448
0.000140161
0.000140161
0.000140161
0.000142757
0.000142757
0.000142757
0.000144662
0.000144662
0.000144662
0.00014922
0.00014922
0.00014922
0.000176694
0.000176694
0.000176694
0.00019679
0.00019679
0.00019679
0.000193985
0.000193985
0.000193985
0.000203283
0.000203283
0.000203283
0.000201548
0.000201548
0.000201548
0.000188485
0.000188485
0.000188485
0.000213826
0.000213826
0.000213826
0.000227333
0.000227333
0.000227333
0.000198611
0.000198611
0.000198611
0.000196466
0.000196466
0.000196466
0.000193809
0.000193809
0.000193809
0.000207941
0.000207941
0.000207941
0.000143767
0.000143767
0.000143767
0.000143423
0.000143423
0.000143423
0.000141578
0.000141578
0.000141578
0.000147963
0.000147963
0.000147963
0.000146012
0.000146012
0.000146012
0.000146739
0.000146739
0.000146739
0.000185739
0.000185739
0.000185739
0.000168249
0.000168249
0.000168249
0.000168896
0.000168896
0.000168896
0.000167451
0.000167451
0.000167451
0.000165349
0.000165349
0.000165349
0.000166001
0.000166001
0.000166001
0.000168727
0.000168727
0.000168727
0.000163935
0.000163935
0.000163935
0.000163166
0.000163166
0.000163166
0.000162525
0.000162525
0.000162525
0.000164568
0.000164568
0.000164568
0.00014614
0.00014614
0.00014614
0.000146588
0.000146588
0.000146588
0.000157675
0.000157675
0.000157675
0.00015175
0.00015175
0.00015175
0.000154621
0.000154621
0.000154621
0.000312104
0.000312104
0.000312104
0.000304934
0.000304934
0.000304934
0.000315693
0.000315693
0.000315693
0.00031885
0.00031885
0.00031885
0.00028603
0.00028603
0.00028603
0.000272157
0.000272157
0.000272157
0.000283169
0.000283169
0.000283169
0.000299372
0.000299372
0.000299372
0.000296301
0.000296301
0.000296301
0.000201783
0.000201783
0.000201783
0.000208395
0.000208395
0.000208395
0.000206184
0.000206184
0.000206184
0.000232792
0.000232792
0.000232792
0.000230293
0.000230293
0.000230293
0.000215745
0.000215745
0.000215745
0.000135989
0.000135989
0.000135989
0.00012709
0.00012709
0.00012709
0.000130504
0.000130504
0.000130504
0.000130126
0.000130126
0.000130126
0.000131659
0.000131659
0.000131659
0.000131282
0.000131282
0.000131282
0.000131692
0.000131692
0.000131692
0.000132482
0.000132482
0.000132482
0.000132859
0.000132859
0.000132859
0.000132445
0.000132445
0.000132445
0.000192678
0.000192678
0.000192678
0.000193629
0.000193629
0.000193629
0.00019677
0.00019677
0.00019677
0.000133658
0.000133658
0.000133658
0.00013399
0.00013399
0.00013399
0.000127677
0.000127677
0.000127677
0.000133363
0.000133363
0.000133363
0.000123726
0.000123726
0.000123726
0.000134837
0.000134837
0.000134837
0.000128639
0.000128639
0.000128639
0.000129433
0.000129433
0.000129433
0.000132211
0.000132211
0.000132211
0.000133098
0.000133098
0.000133098
0.000128273
0.000128273
0.000128273
0.000125984
0.000125984
0.000125984
0.000125618
0.000125618
0.000125618
0.00012599
0.00012599
0.00012599
0.000126731
0.000126731
0.000126731
0.000127096
0.000127096
0.000127096
0.00012672
0.00012672
0.00012672
0.000152062
0.000152062
0.000152062
0.00015123
0.00015123
0.00015123
0.00013545
0.00013545
0.00013545
0.00013337
0.00013337
0.00013337
0.000134261
0.000134261
0.000134261
0.000137219
0.000137219
0.000137219
0.000152565
0.000152565
0.000152565
0.000154759
0.000154759
0.000154759
0.000156393
0.000156393
0.000156393
0.00015339
0.00015339
0.00015339
0.000138434
0.000138434
0.000138434
0.000139311
0.000139311
0.000139311
0.000120297
0.000120297
0.000120297
0.000120661
0.000120661
0.000120661
0.000121368
0.000121368
0.000121368
0.000120638
0.000120638
0.000120638
0.000121341
0.000121341
0.000121341
0.000121708
0.000121708
0.000121708
0.000122516
0.000122516
0.000122516
0.000121744
0.000121744
0.000121744
0.000122464
0.000122464
0.000122464
0.000122851
0.000122851
0.000122851
0.000125888
0.000125888
0.000125888
0.00012582
0.00012582
0.00012582
0.000126236
0.000126236
0.000126236
0.000122745
0.000122745
0.000122745
0.000123837
0.000123837
0.000123837
0.000123463
0.000123463
0.000123463
0.000123495
0.000123495
0.000123495
0.000122767
0.000122767
0.000122767
0.000122396
0.000122396
0.000122396
0.000120365
0.000120365
0.000120365
0.000120745
0.000120745
0.000120745
0.000121461
0.000121461
0.000121461
0.000120697
0.000120697
0.000120697
0.000121793
0.000121793
0.000121793
0.000121409
0.000121409
0.000121409
0.000121854
0.000121854
0.000121854
0.000122577
0.000122577
0.000122577
0.000122981
0.000122981
0.000122981
0.000121532
0.000121532
0.000121532
0.000119331
0.000119331
0.000119331
0.000119708
0.000119708
0.000119708
0.000118634
0.000118634
0.000118634
0.000118309
0.000118309
0.000118309
0.000120482
0.000120482
0.000120482
0.000119595
0.000119595
0.000119595
0.000119243
0.000119243
0.000119243
0.000118563
0.000118563
0.000118563
0.000119263
0.000119263
0.000119263
0.000116541
0.000116541
0.000116541
0.000117229
0.000117229
0.000117229
0.000116211
0.000116211
0.000116211
0.000116553
0.000116553
0.000116553
0.000117547
0.000117547
0.000117547
0.000118231
0.000118231
0.000118231
0.000118579
0.000118579
0.000118579
0.000118241
0.000118241
0.000118241
0.000117558
0.000117558
0.000117558
0.000117213
0.000117213
0.000117213
0.000117296
0.000117296
0.000117296
0.000116577
0.000116577
0.000116577
0.000116613
0.000116613
0.000116613
0.000116255
0.000116255
0.000116255
0.000117618
0.000117618
0.000117618
0.000117257
0.000117257
0.000117257
0.000115664
0.000115664
0.000115664
0.000116345
0.000116345
0.000116345
0.000116719
0.000116719
0.000116719
0.000112657
0.000112657
0.000112657
0.000113341
0.000113341
0.000113341
0.000113309
0.000113309
0.000113309
0.000113656
0.000113656
0.000113656
0.000112341
0.000112341
0.000112341
0.000112683
0.000112683
0.000112683
0.000110484
0.000110484
0.000110484
0.000110773
0.000110773
0.000110773
0.000110507
0.000110507
0.000110507
0.000110829
0.000110829
0.000110829
0.000111464
0.000111464
0.000111464
0.000112387
0.000112387
0.000112387
0.000111774
0.000111774
0.000111774
0.000111733
0.000111733
0.000111733
0.000111427
0.000111427
0.000111427
0.000114281
0.000114281
0.000114281
0.000113599
0.000113599
0.000113599
0.000113283
0.000113283
0.000113283
0.000113622
0.000113622
0.000113622
0.000114254
0.000114254
0.000114254
0.000114597
0.000114597
0.000114597
0.000144765
0.000144765
0.000144765
0.000146838
0.000146838
0.000146838
0.000136208
0.000136208
0.000136208
0.00014191
0.00014191
0.00014191
0.00012317
0.00012317
0.00012317
0.000136078
0.000136078
0.000136078
0.000139005
0.000139005
0.000139005
0.00013825
0.00013825
0.00013825
0.000177407
0.000177407
0.000177407
0.000173702
0.000173702
0.000173702
0.00015721
0.00015721
0.00015721
0.000155039
0.000155039
0.000155039
0.000199143
0.000199143
0.000199143
0.000203711
0.000203711
0.000203711
0.000197391
0.000197391
0.000197391
0.000215258
0.000215258
0.000215258
0.000218808
0.000218808
0.000218808
0.000218268
0.000218268
0.000218268
0.000205551
0.000205551
0.000205551
0.000202035
0.000202035
0.000202035
0.000204755
0.000204755
0.000204755
0.000205226
0.000205226
0.000205226
0.000200534
0.000200534
0.000200534
0.000200037
0.000200037
0.000200037
0.000195053
0.000195053
0.000195053
0.000197283
0.000197283
0.000197283
0.000200195
0.000200195
0.000200195
0.000197386
0.000197386
0.000197386
0.000205824
0.000205824
0.000205824
0.000208647
0.000208647
0.000208647
0.000210982
0.000210982
0.000210982
0.000200852
0.000200852
0.000200852
0.000193985
0.000193985
0.000193985
0.000196745
0.000196745
0.000196745
0.000216185
0.000216185
0.000216185
0.000215698
0.000215698
0.000215698
0.000214694
0.000214694
0.000214694
0.00022684
0.00022684
0.00022684
0.000190649
0.000190649
0.000190649
0.000182751
0.000182751
0.000182751
0.000206518
0.000206518
0.000206518
0.000207002
0.000207002
0.000207002
0.000151522
0.000151522
0.000151522
0.000149322
0.000149322
0.000149322
0.000176206
0.000176206
0.000176206
0.000176853
0.000176853
0.000176853
0.000166903
0.000166903
0.000166903
0.000166835
0.000166835
0.000166835
0.000170836
0.000170836
0.000170836
0.000170201
0.000170201
0.000170201
0.000165844
0.000165844
0.000165844
0.000171215
0.000171215
0.000171215
0.000147389
0.000147389
0.000147389
0.00014742
0.00014742
0.00014742
0.00014895
0.00014895
0.00014895
0.000149322
0.000149322
0.000149322
0.000150231
0.000150231
0.000150231
0.000300781
0.000300781
0.000300781
0.000301307
0.000301307
0.000301307
0.000294219
0.000294219
0.000294219
0.000297092
0.000297092
0.000297092
0.000293998
0.000293998
0.000293998
0.00028971
0.00028971
0.00028971
0.000290335
0.000290335
0.000290335
0.000287081
0.000287081
0.000287081
0.000305216
0.000305216
0.000305216
0.000309188
0.000309188
0.000309188
0.000308804
0.000308804
0.000308804
0.00031171
0.00031171
0.00031171
0.000308129
0.000308129
0.000308129
0.000316225
0.000316225
0.000316225
0.00030536
0.00030536
0.00030536
0.000270247
0.000270247
0.000270247
0.000254844
0.000254844
0.000254844
0.000264378
0.000264378
0.000264378
0.00028481
0.00028481
0.00028481
0.000287357
0.000287357
0.000287357
0.000284447
0.000284447
0.000284447
0.000280821
0.000280821
0.000280821
0.000281194
0.000281194
0.000281194
0.000297824
0.000297824
0.000297824
0.000280035
0.000280035
0.000280035
0.000272129
0.000272129
0.000272129
0.000260733
0.000260733
0.000260733
0.000257998
0.000257998
0.000257998
0.000282091
0.000282091
0.000282091
0.000278646
0.000278646
0.000278646
0.000288992
0.000288992
0.000288992
0.000292448
0.000292448
0.000292448
0.000292854
0.000292854
0.000292854
0.000266906
0.000266906
0.000266906
0.000303217
0.000303217
0.000303217
0.00030595
0.00030595
0.00030595
0.000302843
0.000302843
0.000302843
0.000215539
0.000215539
0.000215539
0.00021304
0.00021304
0.00021304
0.000227741
0.000227741
0.000227741
0.000208078
0.000208078
0.000208078
0.000207457
0.000207457
0.000207457
0.000209929
0.000209929
0.000209929
0.000191726
0.000191726
0.000191726
0.000196463
0.000196463
0.000196463
0.000238106
0.000238106
0.000238106
0.00023758
0.00023758
0.00023758
0.000198561
0.000198561
0.000198561
0.000201235
0.000201235
0.000201235
0.000203491
0.000203491
0.000203491
0.000202978
0.000202978
0.000202978
0.000204455
0.000204455
0.000204455
0.000206604
0.000206604
0.000206604
0.000206597
0.000206597
0.000206597
0.000209822
0.000209822
0.000209822
0.000209292
0.000209292
0.000209292
0.000267736
0.000267736
0.000267736
0.000265403
0.000265403
0.000265403
0.00026505
0.00026505
0.00026505
0.000230768
0.000230768
0.000230768
0.000231672
0.000231672
0.000231672
0.000234169
0.000234169
0.000234169
0.000233722
0.000233722
0.000233722
0.000239642
0.000239642
0.000239642
0.000237545
0.000237545
0.000237545
0.000237116
0.000237116
0.000237116
0.000240485
0.000240485
0.000240485
0.000215278
0.000215278
0.000215278
0.000214313
0.000214313
0.000214313
0.000228111
0.000228111
0.000228111
0.000227664
0.000227664
0.000227664
0.000218551
0.000218551
0.000218551
0.000220608
0.000220608
0.000220608
0.000222759
0.000222759
0.000222759
0.000226019
0.000226019
0.000226019
0.000211105
0.000211105
0.000211105
0.000211584
0.000211584
0.000211584
0.000214672
0.000214672
0.000214672
0.000217374
0.000217374
0.000217374
0.00021429
0.00021429
0.00021429
0.000216542
0.000216542
0.000216542
0.000149444
0.000149444
0.000149444
0.000150308
0.000150308
0.000150308
0.000150817
0.000150817
0.000150817
0.000150457
0.000150457
0.000150457
0.000152393
0.000152393
0.000152393
0.000151857
0.000151857
0.000151857
0.000150978
0.000150978
0.000150978
0.000171828
0.000171828
0.000171828
0.000146123
0.000146123
0.000146123
0.000146583
0.000146583
0.000146583
0.000147996
0.000147996
0.000147996
0.000147518
0.000147518
0.000147518
0.000129363
0.000129363
0.000129363
0.000128995
0.000128995
0.000128995
0.000128234
0.000128234
0.000128234
0.000127845
0.000127845
0.000127845
0.000129339
0.000129339
0.000129339
0.000130108
0.000130108
0.000130108
0.000130532
0.000130532
0.000130532
0.000131372
0.000131372
0.000131372
0.000131739
0.000131739
0.000131739
0.00013132
0.00013132
0.00013132
0.00017761
0.00017761
0.00017761
0.000176077
0.000176077
0.000176077
0.000184106
0.000184106
0.000184106
0.000188139
0.000188139
0.000188139
0.000191382
0.000191382
0.000191382
0.000193874
0.000193874
0.000193874
0.000187357
0.000187357
0.000187357
0.000193112
0.000193112
0.000193112
0.000189839
0.000189839
0.000189839
0.000185685
0.000185685
0.000185685
0.000192147
0.000192147
0.000192147
0.000193638
0.000193638
0.000193638
0.00022481
0.00022481
0.00022481
0.000197138
0.000197138
0.000197138
0.000221393
0.000221393
0.000221393
0.000157719
0.000157719
0.000157719
0.000175292
0.000175292
0.000175292
0.000177647
0.000177647
0.000177647
0.000174461
0.000174461
0.000174461
0.000170458
0.000170458
0.000170458
0.00017128
0.00017128
0.00017128
0.00019097
0.00019097
0.00019097
0.000161157
0.000161157
0.000161157
0.000170107
0.000170107
0.000170107
0.000172661
0.000172661
0.000172661
0.000176146
0.000176146
0.000176146
0.000178633
0.000178633
0.000178633
0.000183306
0.000183306
0.000183306
0.000175106
0.000175106
0.000175106
0.000181669
0.000181669
0.000181669
0.000133621
0.000133621
0.000133621
0.000134039
0.000134039
0.000134039
0.000156319
0.000156319
0.000156319
0.000150028
0.000150028
0.000150028
0.000152279
0.000152279
0.000152279
0.000155436
0.000155436
0.000155436
0.000140309
0.000140309
0.000140309
0.000146969
0.000146969
0.000146969
0.000134543
0.000134543
0.000134543
0.000133588
0.000133588
0.000133588
0.000132808
0.000132808
0.000132808
0.000131639
0.000131639
0.000131639
0.000132423
0.000132423
0.000132423
0.000132815
0.000132815
0.000132815
0.000132422
0.000132422
0.000132422
0.000130482
0.000130482
0.000130482
0.000130099
0.000130099
0.000130099
0.000130486
0.000130486
0.000130486
0.000131259
0.000131259
0.000131259
0.000131641
0.000131641
0.000131641
0.000131251
0.000131251
0.000131251
0.00012345
0.00012345
0.00012345
0.000123815
0.000123815
0.000123815
0.000124541
0.000124541
0.000124541
0.000123807
0.000123807
0.000123807
0.000124897
0.000124897
0.000124897
0.000124528
0.000124528
0.000124528
0.000128794
0.000128794
0.000128794
0.000132516
0.000132516
0.000132516
0.000129661
0.000129661
0.000129661
0.000130797
0.000130797
0.000130797
0.000124143
0.000124143
0.000124143
0.000124995
0.000124995
0.000124995
0.000124239
0.000124239
0.000124239
0.000123814
0.000123814
0.000123814
0.000126089
0.000126089
0.000126089
0.000125325
0.000125325
0.000125325
0.000124895
0.000124895
0.000124895
0.000125228
0.000125228
0.000125228
0.00012733
0.00012733
0.00012733
0.000128197
0.000128197
0.000128197
0.000126996
0.000126996
0.000126996
0.000127427
0.000127427
0.000127427
0.000126157
0.000126157
0.000126157
0.00012691
0.00012691
0.00012691
0.000130569
0.000130569
0.000130569
0.000129769
0.000129769
0.000129769
0.000131932
0.000131932
0.000131932
0.000129923
0.000129923
0.000129923
0.000128301
0.000128301
0.000128301
0.000131054
0.000131054
0.000131054
0.0001318
0.0001318
0.0001318
0.000131433
0.000131433
0.000131433
0.000129581
0.000129581
0.000129581
0.000129027
0.000129027
0.000129027
0.000129396
0.000129396
0.000129396
0.000130585
0.000130585
0.000130585
0.00013017
0.00013017
0.00013017
0.000134527
0.000134527
0.000134527
0.000133676
0.000133676
0.000133676
0.000135701
0.000135701
0.000135701
0.000138597
0.000138597
0.000138597
0.000139438
0.000139438
0.000139438
0.000137398
0.000137398
0.000137398
0.000138232
0.000138232
0.000138232
0.000141096
0.000141096
0.000141096
0.000136894
0.000136894
0.000136894
0.000136029
0.000136029
0.000136029
0.000138095
0.000138095
0.000138095
0.000141044
0.000141044
0.000141044
0.000149909
0.000149909
0.000149909
0.000146951
0.000146951
0.000146951
0.000140539
0.000140539
0.000140539
0.00014481
0.00014481
0.00014481
0.000148246
0.000148246
0.000148246
0.000142286
0.000142286
0.000142286
0.000146112
0.000146112
0.000146112
0.000143146
0.000143146
0.000143146
0.000151354
0.000151354
0.000151354
0.000173757
0.000173757
0.000173757
0.000174529
0.000174529
0.000174529
0.00015779
0.00015779
0.00015779
0.0001586
0.0001586
0.0001586
0.000125139
0.000125139
0.000125139
0.000124807
0.000124807
0.000124807
0.000123648
0.000123648
0.000123648
0.000124057
0.000124057
0.000124057
0.00012466
0.00012466
0.00012466
0.000125064
0.000125064
0.000125064
0.000123921
0.000123921
0.000123921
0.000124726
0.000124726
0.000124726
0.000123582
0.000123582
0.000123582
0.000123983
0.000123983
0.000123983
0.000119835
0.000119835
0.000119835
0.000119379
0.000119379
0.000119379
0.000119763
0.000119763
0.000119763
0.000118682
0.000118682
0.000118682
0.000119442
0.000119442
0.000119442