<VTKFile type="UnstructuredGrid" version="1.0">
<UnstructuredGrid>
<Piece NumberOfPoints="8859" NumberOfCells="2953">
<Points>
<DataArray type="Float64" NumberOfComponents="3" format="ascii">
0.5 3.01 9.31
0.512524 3.01 9.3325
0.487476 3.01 9.3325
0.17352 3.01 8.4325
0.160827 3.01 8.45422
0.148445 3.01 8.4325
0.122979 3.01 8.47589
0.110383 3.01 8.45421
0.135644 3.01 8.45422
0.135644 3.01 8.45422
0.110383 3.01 8.45421
0.123433 3.01 8.4325
0.123433 3.01 8.4325
0.148445 3.01 8.4325
0.135644 3.01 8.45422
0.135644 3.01 8.45422
0.148445 3.01 8.4325
0.160827 3.01 8.45422
0.17352 3.01 8.4325
0.198629 3.01 8.4325
0.185985 3.01 8.4542
0.185985 3.01 8.4542
0.160827 3.01 8.45422
0.17352 3.01 8.4325
0.0732297 3.01 8.47567
0.0586606 3.01 8.45381
0.0848754 3.01 8.45414
0.05 3.01 9.26528
0.05 3.01 9.2201
0.058509 3.01 9.24256
0.324276 3.01 8.4325
0.349395 3.01 8.4325
0.336827 3.01 8.45416
0.148138 3.01 8.4759
0.135644 3.01 8.45422
0.160827 3.01 8.45422
0.122979 3.01 8.47589
0.135644 3.01 8.45422
0.148138 3.01 8.4759
0.160827 3.01 8.45422
0.185985 3.01 8.4542
0.173316 3.01 8.47589
0.185806 3.01 8.49755
0.160572 3.01 8.49755
0.173316 3.01 8.47589
0.173316 3.01 8.47589
0.148138 3.01 8.4759
0.160827 3.01 8.45422
0.160572 3.01 8.49755
0.148138 3.01 8.4759
0.173316 3.01 8.47589
0.211137 3.01 8.45419
0.185985 3.01 8.4542
0.198629 3.01 8.4325
0.0979162 3.01 8.47584
0.110383 3.01 8.45421
0.122979 3.01 8.47589
0.122979 3.01 8.47589
0.109875 3.01 8.49749
0.0979162 3.01 8.47584
0.0732297 3.01 8.47567
0.0848754 3.01 8.45414
0.0979162 3.01 8.47584
0.0979162 3.01 8.47584
0.0848754 3.01 8.45414
0.110383 3.01 8.45421
0.0975729 3.01 8.51904
0.109875 3.01 8.49749
0.122678 3.01 8.51914
0.0841718 3.01 8.49735
0.0577122 3.01 8.49702
0.0732297 3.01 8.47567
0.0729308 3.01 8.51888
0.0577122 3.01 8.49702
0.0841718 3.01 8.49735
0.0732297 3.01 8.47567
0.0979162 3.01 8.47584
0.0841718 3.01 8.49735
0.0841718 3.01 8.49735
0.0979162 3.01 8.47584
0.109875 3.01 8.49749
0.0975729 3.01 8.51904
0.0729308 3.01 8.51888
0.0841718 3.01 8.49735
0.0841718 3.01 8.49735
0.109875 3.01 8.49749
0.0975729 3.01 8.51904
0.073948 3.01 8.4325
0.0586606 3.01 8.45381
0.05 3.01 8.4325
0.073948 3.01 8.4325
0.0848754 3.01 8.45414
0.0586606 3.01 8.45381
0.05 3.01 9.30829
0.05 3.01 9.26528
0.0603641 3.01 9.28697
0.0603641 3.01 9.28697
0.0753197 3.01 9.30899
0.05 3.01 9.30829
0.0709395 3.01 9.3325
0.05 3.01 9.3325
0.05 3.01 9.30829
0.05 3.01 9.30829
0.0753197 3.01 9.30899
0.0709395 3.01 9.3325
0.0579641 3.01 9.01963
0.05 3.01 9.04169
0.05 3.01 8.99761
0.0841948 3.01 8.9318
0.097638 3.01 8.90993
0.109814 3.01 8.9318
0.0841948 3.01 8.9318
0.0730539 3.01 8.9537
0.0578646 3.01 8.9318
0.0580261 3.01 9.0638
0.05 3.01 9.08595
0.05 3.01 9.04169
0.942292 3.01 8.62736
0.95 3.01 8.60567
0.95 3.01 8.64904
0.95 3.01 8.56226
0.95 3.01 8.60567
0.942332 3.01 8.58397
0.73872 3.01 8.84453
0.726137 3.01 8.82276
0.75132 3.01 8.82275
0.751305 3.01 8.86632
0.726124 3.01 8.86633
0.73872 3.01 8.84453
0.713546 3.01 8.84454
0.726137 3.01 8.82276
0.73872 3.01 8.84453
0.73872 3.01 8.84453
0.726124 3.01 8.86633
0.713546 3.01 8.84454
0.814318 3.01 8.88811
0.789096 3.01 8.88812
0.801709 3.01 8.8663
0.7765 3.01 8.86631
0.789115 3.01 8.84451
0.801709 3.01 8.8663
0.801709 3.01 8.8663
0.789096 3.01 8.88812
0.7765 3.01 8.86631
0.7765 3.01 8.86631
0.789096 3.01 8.88812
0.763892 3.01 8.88814
0.763892 3.01 8.88814
0.751305 3.01 8.86632
0.7765 3.01 8.86631
0.95 3.01 9.3325
0.929061 3.01 9.3325
0.95 3.01 9.30829
0.95 3.01 9.1304
0.926844 3.01 9.1304
0.941913 3.01 9.10815
0.941913 3.01 9.10815
0.95 3.01 9.08595
0.95 3.01 9.1304
0.926866 3.01 9.08594
0.95 3.01 9.08595
0.941913 3.01 9.10815
0.941974 3.01 9.0638
0.95 3.01 9.08595
0.926866 3.01 9.08594
0.95 3.01 9.04169
0.95 3.01 9.08595
0.941974 3.01 9.0638
0.941974 3.01 9.0638
0.926895 3.01 9.04169
0.95 3.01 9.04169
0.6127 3.01 9.3325
0.625238 3.01 9.30998
0.637734 3.01 9.3325
0.662757 3.01 9.3325
0.637734 3.01 9.3325
0.650275 3.01 9.30997
0.650275 3.01 9.30997
0.637734 3.01 9.3325
0.625238 3.01 9.30998
0.600415 3.01 8.86637
0.587856 3.01 8.8882
0.575304 3.01 8.86637
0.575304 3.01 8.86637
0.587856 3.01 8.8882
0.562749 3.01 8.8882
0.336827 3.01 8.45416
0.349395 3.01 8.4325
0.361946 3.01 8.45416
0.223755 3.01 8.4325
0.211137 3.01 8.45419
0.198629 3.01 8.4325
0.185985 3.01 8.4542
0.211137 3.01 8.45419
0.198492 3.01 8.47588
0.185806 3.01 8.49755
0.173316 3.01 8.47589
0.198492 3.01 8.47588
0.198492 3.01 8.47588
0.173316 3.01 8.47589
0.185985 3.01 8.4542
0.0576202 3.01 8.54053
0.05 3.01 8.56226
0.05 3.01 8.51874
0.05 3.01 8.51874
0.0729308 3.01 8.51888
0.0576202 3.01 8.54053
0.05 3.01 8.51874
0.0577122 3.01 8.49702
0.0729308 3.01 8.51888
0.135283 3.01 8.49754
0.109875 3.01 8.49749
0.122979 3.01 8.47589
0.135283 3.01 8.49754
0.122678 3.01 8.51914
0.109875 3.01 8.49749
0.122979 3.01 8.47589
0.148138 3.01 8.4759
0.135283 3.01 8.49754
0.135283 3.01 8.49754
0.148138 3.01 8.4759
0.160572 3.01 8.49755
0.123433 3.01 8.4325
0.110383 3.01 8.45421
0.0985513 3.01 8.4325
0.110383 3.01 8.45421
0.0848754 3.01 8.45414
0.0985513 3.01 8.4325
0.0848754 3.01 8.45414
0.073948 3.01 8.4325
0.0985513 3.01 8.4325
0.0603641 3.01 9.28697
0.05 3.01 9.26528
0.0739464 3.01 9.26449
0.0739464 3.01 9.26449
0.05 3.01 9.26528
0.058509 3.01 9.24256
0.058509 3.01 9.24256
0.0849548 3.01 9.24211
0.0739464 3.01 9.26449
0.058509 3.01 9.24256
0.05 3.01 9.2201
0.0732725 3.01 9.21988
0.0732725 3.01 9.21988
0.0849548 3.01 9.24211
0.058509 3.01 9.24256
0.5 3.01 9.31
0.487476 3.01 9.3325
0.47495 3.01 9.31
0.097663 3.01 8.9537
0.0841948 3.01 8.9318
0.109814 3.01 8.9318
0.0730539 3.01 8.9537
0.0841948 3.01 8.9318
0.097663 3.01 8.9537
0.0578646 3.01 8.9318
0.0730539 3.01 8.9537
0.05 3.01 8.9537
0.05 3.01 8.9537
0.05 3.01 8.90992
0.0578646 3.01 8.9318
0.05 3.01 9.1304
0.05 3.01 9.08595
0.0580869 3.01 9.10815
0.05 3.01 9.08595
0.0580261 3.01 9.0638
0.073134 3.01 9.08594
0.073134 3.01 9.08594
0.0580869 3.01 9.10815
0.05 3.01 9.08595
0.942268 3.01 8.67073
0.95 3.01 8.64904
0.95 3.01 8.69241
0.942292 3.01 8.62736
0.95 3.01 8.64904
0.927025 3.01 8.64904
0.927025 3.01 8.64904
0.942268 3.01 8.67073
0.915919 3.01 8.67072
0.95 3.01 8.64904
0.942268 3.01 8.67073
0.927025 3.01 8.64904
0.927013 3.01 8.69241
0.942268 3.01 8.67073
0.95 3.01 8.69241
0.915919 3.01 8.67072
0.942268 3.01 8.67073
0.927013 3.01 8.69241
0.801738 3.01 8.77925
0.814364 3.01 8.75753
0.826957 3.01 8.77925
0.852174 3.01 8.77924
0.826957 3.01 8.77925
0.839609 3.01 8.75752
0.839609 3.01 8.75752
0.826957 3.01 8.77925
0.814364 3.01 8.75753
0.776516 3.01 8.82275
0.75132 3.01 8.82275
0.763923 3.01 8.801
0.776516 3.01 8.82275
0.801725 3.01 8.82274
0.789115 3.01 8.84451
0.738704 3.01 8.88815
0.751305 3.01 8.86632
0.763892 3.01 8.88814
0.726124 3.01 8.86633
0.751305 3.01 8.86632
0.738704 3.01 8.88815
0.915617 3.01 9.10814
0.902228 3.01 9.08594
0.926866 3.01 9.08594
0.926866 3.01 9.08594
0.941913 3.01 9.10815
0.915617 3.01 9.10814
0.915617 3.01 9.10814
0.941913 3.01 9.10815
0.926844 3.01 9.1304
0.915617 3.01 9.10814
0.926844 3.01 9.1304
0.902193 3.01 9.13038
0.926866 3.01 9.08594
0.902228 3.01 9.08594
0.915668 3.01 9.06379
0.902267 3.01 9.04168
0.926895 3.01 9.04169
0.915668 3.01 9.06379
0.915668 3.01 9.06379
0.941974 3.01 9.0638
0.926866 3.01 9.08594
0.926895 3.01 9.04169
0.941974 3.01 9.0638
0.915668 3.01 9.06379
0.902267 3.01 9.04168
0.915668 3.01 9.06379
0.890059 3.01 9.06379
0.890059 3.01 9.06379
0.915668 3.01 9.06379
0.902228 3.01 9.08594
0.826927 3.01 8.86629
0.814318 3.01 8.88811
0.801709 3.01 8.8663
0.864816 3.01 8.9318
0.877308 3.01 8.90993
0.890186 3.01 8.9318
0.877308 3.01 8.90993
0.864816 3.01 8.9318
0.852122 3.01 8.90994
0.890186 3.01 8.9318
0.877308 3.01 8.90993
0.902362 3.01 8.90993
0.902362 3.01 8.90993
0.915805 3.01 8.9318
0.890186 3.01 8.9318
0.902362 3.01 8.90993
0.926964 3.01 8.90992
0.915805 3.01 8.9318
0.915835 3.01 8.88809
0.926964 3.01 8.90992
0.902362 3.01 8.90993
0.942171 3.01 8.88809
0.926964 3.01 8.90992
0.915835 3.01 8.88809
0.915835 3.01 8.88809
0.926978 3.01 8.86627
0.942171 3.01 8.88809
0.942171 3.01 8.88809
0.926978 3.01 8.86627
0.95 3.01 8.86627
0.87737 3.01 8.73581
0.890277 3.01 8.71411
0.902417 3.01 8.7358
0.852144 3.01 8.86628
0.877329 3.01 8.86628
0.864842 3.01 8.88809
0.877308 3.01 8.90993
0.852122 3.01 8.90994
0.864842 3.01 8.88809
0.902396 3.01 8.82272
0.915858 3.01 8.84448
0.890234 3.01 8.84449
0.926997 3.01 8.77923
0.942237 3.01 8.75751
0.95 3.01 8.77923
0.91589 3.01 8.75751
0.942237 3.01 8.75751
0.926997 3.01 8.77923
0.942199 3.01 8.84448
0.95 3.01 8.82271
0.95 3.01 8.86627
0.95 3.01 8.86627
0.926978 3.01 8.86627
0.942199 3.01 8.84448
0.942199 3.01 8.84448
0.926978 3.01 8.86627
0.915858 3.01 8.84448
0.95 3.01 8.77923
0.95 3.01 8.82271
0.942221 3.01 8.80097
0.942221 3.01 8.80097
0.926997 3.01 8.77923
0.95 3.01 8.77923
0.915876 3.01 8.80097
0.926997 3.01 8.77923
0.942221 3.01 8.80097
0.926989 3.01 8.82271
0.915858 3.01 8.84448
0.902396 3.01 8.82272
0.902396 3.01 8.82272
0.915876 3.01 8.80097
0.926989 3.01 8.82271
0.926989 3.01 8.82271
0.942199 3.01 8.84448
0.915858 3.01 8.84448
0.95 3.01 8.82271
0.942199 3.01 8.84448
0.926989 3.01 8.82271
0.915876 3.01 8.80097
0.942221 3.01 8.80097
0.926989 3.01 8.82271
0.926989 3.01 8.82271
0.942221 3.01 8.80097
0.95 3.01 8.82271
0.91353 3.01 9.28685
0.926054 3.01 9.26449
0.939636 3.01 9.28697
0.926728 3.01 9.21988
0.95 3.01 9.2201
0.941491 3.01 9.24256
0.926728 3.01 9.21988
0.941822 3.01 9.19754
0.95 3.01 9.2201
0.95 3.01 9.26528
0.95 3.01 9.30829
0.939636 3.01 9.28697
0.95 3.01 9.26528
0.926054 3.01 9.26449
0.941491 3.01 9.24256
0.939636 3.01 9.28697
0.926054 3.01 9.26449
0.95 3.01 9.26528
0.941491 3.01 9.24256
0.95 3.01 9.2201
0.95 3.01 9.26528
0.941869 3.01 9.15272
0.926844 3.01 9.1304
0.95 3.01 9.1304
0.762942 3.01 9.28728
0.75028 3.01 9.30989
0.737933 3.01 9.28734
0.71291 3.01 9.28739
0.725533 3.01 9.26485
0.737933 3.01 9.28734
0.71291 3.01 9.28739
0.737933 3.01 9.28734
0.725313 3.01 9.30992
0.725313 3.01 9.30992
0.737933 3.01 9.28734
0.75028 3.01 9.30989
0.737693 3.01 9.3325
0.712746 3.01 9.3325
[...]
<PointData Scalars="View Factor" >
<DataArray type="Float64" Name="View Factor" NumberOfComponents="1" format="ascii">
6.6767e-06
6.6767e-06
6.6767e-06
7.62904e-06
7.62904e-06
7.62904e-06
7.60409e-06
7.60409e-06
7.60409e-06
7.62086e-06
7.62086e-06
7.62086e-06
7.6292e-06
7.6292e-06
7.6292e-06
7.62071e-06
7.62071e-06
7.62071e-06
7.62885e-06
7.62885e-06
7.62885e-06
7.62054e-06
7.62054e-06
7.62054e-06
7.60458e-06
7.60458e-06
7.60458e-06
6.76293e-06
6.76293e-06
6.76293e-06
7.62713e-06
7.62713e-06
7.62713e-06
7.60393e-06
7.60393e-06
7.60393e-06
7.59565e-06
7.59565e-06
7.59565e-06
7.60377e-06
7.60377e-06
7.60377e-06
7.57039e-06
7.57039e-06
7.57039e-06
7.59549e-06
7.59549e-06
7.59549e-06
7.5788e-06
7.5788e-06
7.5788e-06
7.62034e-06
7.62034e-06
7.62034e-06
7.59581e-06
7.59581e-06
7.59581e-06
7.57915e-06
7.57915e-06
7.57915e-06
7.59603e-06
7.59603e-06
7.59603e-06
7.60426e-06
7.60426e-06
7.60426e-06
7.546e-06
7.546e-06
7.546e-06
7.5713e-06
7.5713e-06
7.5713e-06
7.55473e-06
7.55473e-06
7.55473e-06
7.57939e-06
7.57939e-06
7.57939e-06
7.57096e-06
7.57096e-06
7.57096e-06
7.54626e-06
7.54626e-06
7.54626e-06
7.5544e-06
7.5544e-06
7.5544e-06
7.62969e-06
7.62969e-06
7.62969e-06
7.62127e-06
7.62127e-06
7.62127e-06
6.71889e-06
6.71889e-06
6.71889e-06
6.70443e-06
6.70443e-06
6.70443e-06
6.68172e-06
6.68172e-06
6.68172e-06
6.68943e-06
6.68943e-06
6.68943e-06
6.99071e-06
6.99071e-06
6.99071e-06
7.09067e-06
7.09067e-06
7.09067e-06
7.07529e-06
7.07529e-06
7.07529e-06
6.94484e-06
6.94484e-06
6.94484e-06
7.39633e-06
7.39633e-06
7.39633e-06
7.44504e-06
7.44504e-06
7.44504e-06
7.18106e-06
7.18106e-06
7.18106e-06
7.14983e-06
7.14983e-06
7.14983e-06
7.1736e-06
7.1736e-06
7.1736e-06
7.15799e-06
7.15799e-06
7.15799e-06
7.1246e-06
7.1246e-06
7.1246e-06
7.14832e-06
7.14832e-06
7.14832e-06
7.13276e-06
7.13276e-06
7.13276e-06
7.12538e-06
7.12538e-06
7.12538e-06
7.13353e-06
7.13353e-06
7.13353e-06
6.66575e-06
6.66575e-06
6.66575e-06
6.8674e-06
6.8674e-06
6.8674e-06
6.88225e-06
6.88225e-06
6.88225e-06
6.89769e-06
6.89769e-06
6.89769e-06
6.91286e-06
6.91286e-06
6.91286e-06
6.92776e-06
6.92776e-06
6.92776e-06
6.94326e-06
6.94326e-06
6.94326e-06
6.67417e-06
6.67417e-06
6.67417e-06
6.6736e-06
6.6736e-06
6.6736e-06
6.68128e-06
6.68128e-06
6.68128e-06
7.13821e-06
7.13821e-06
7.13821e-06
7.13071e-06
7.13071e-06
7.13071e-06
7.61856e-06
7.61856e-06
7.61856e-06
7.62864e-06
7.62864e-06
7.62864e-06
7.60357e-06
7.60357e-06
7.60357e-06
7.57862e-06
7.57862e-06
7.57862e-06
7.59531e-06
7.59531e-06
7.59531e-06
7.51346e-06
7.51346e-06
7.51346e-06
7.52996e-06
7.52996e-06
7.52996e-06
7.54658e-06
7.54658e-06
7.54658e-06
7.57075e-06
7.57075e-06
7.57075e-06
7.55416e-06
7.55416e-06
7.55416e-06
7.57897e-06
7.57897e-06
7.57897e-06
7.57057e-06
7.57057e-06
7.57057e-06
7.62934e-06
7.62934e-06
7.62934e-06
7.62102e-06
7.62102e-06
7.62102e-06
7.62948e-06
7.62948e-06
7.62948e-06
6.73338e-06
6.73338e-06
6.73338e-06
6.74813e-06
6.74813e-06
6.74813e-06
6.75582e-06
6.75582e-06
6.75582e-06
6.77808e-06
6.77808e-06
6.77808e-06
6.77069e-06
6.77069e-06
6.77069e-06
6.68431e-06
6.68431e-06
6.68431e-06
7.0752e-06
7.0752e-06
7.0752e-06
7.06753e-06
7.06753e-06
7.06753e-06
7.06759e-06
7.06759e-06
7.06759e-06
7.08306e-06
7.08306e-06
7.08306e-06
6.89916e-06
6.89916e-06
6.89916e-06
6.92959e-06
6.92959e-06
6.92959e-06
6.91436e-06
6.91436e-06
6.91436e-06
7.34803e-06
7.34803e-06
7.34803e-06
7.38049e-06
7.38049e-06
7.38049e-06
7.3568e-06
7.3568e-06
7.3568e-06
7.36439e-06
7.36439e-06
7.36439e-06
7.33232e-06
7.33232e-06
7.33232e-06
7.34076e-06
7.34076e-06
7.34076e-06
7.24153e-06
7.24153e-06
7.24153e-06
7.24069e-06
7.24069e-06
7.24069e-06
7.249e-06
7.249e-06
7.249e-06
7.19596e-06
7.19596e-06
7.19596e-06
7.17953e-06
7.17953e-06
7.17953e-06
7.12613e-06
7.12613e-06
7.12613e-06
7.13427e-06
7.13427e-06
7.13427e-06
6.89856e-06
6.89856e-06
6.89856e-06
6.89052e-06
6.89052e-06
6.89052e-06
6.87537e-06
6.87537e-06
6.87537e-06
6.86828e-06
6.86828e-06
6.86828e-06
6.91374e-06
6.91374e-06
6.91374e-06
6.94414e-06
6.94414e-06
6.94414e-06
6.92086e-06
6.92086e-06
6.92086e-06
6.93607e-06
6.93607e-06
6.93607e-06
6.93696e-06
6.93696e-06
6.93696e-06
6.92176e-06
6.92176e-06
6.92176e-06
7.13196e-06
7.13196e-06
7.13196e-06
7.07568e-06
7.07568e-06
7.07568e-06
7.08383e-06
7.08383e-06
7.08383e-06
7.08297e-06
7.08297e-06
7.08297e-06
7.0748e-06
7.0748e-06
7.0748e-06
7.08208e-06
7.08208e-06
7.08208e-06
7.09753e-06
7.09753e-06
7.09753e-06
7.10479e-06
7.10479e-06
7.10479e-06
7.12028e-06
7.12028e-06
7.12028e-06
7.12762e-06
7.12762e-06
7.12762e-06
7.28639e-06
7.28639e-06
7.28639e-06
7.1303e-06
7.1303e-06
7.1303e-06
7.09929e-06
7.09929e-06
7.09929e-06
7.16788e-06
7.16788e-06
7.16788e-06
7.23708e-06
7.23708e-06
7.23708e-06
7.24539e-06
7.24539e-06
7.24539e-06
7.15843e-06
7.15843e-06
7.15843e-06
7.14316e-06
7.14316e-06
7.14316e-06
7.15136e-06
7.15136e-06
7.15136e-06
7.20534e-06
7.20534e-06
7.20534e-06
7.22134e-06
7.22134e-06
7.22134e-06
7.21391e-06
7.21391e-06
7.21391e-06
7.17524e-06
7.17524e-06
7.17524e-06
7.19088e-06
7.19088e-06
7.19088e-06
7.16695e-06
7.16695e-06
7.16695e-06
7.17433e-06
7.17433e-06
7.17433e-06
7.19822e-06
7.19822e-06
7.19822e-06
7.18996e-06
7.18996e-06
7.18996e-06
6.71068e-06
6.71068e-06
6.71068e-06
6.7619e-06
6.7619e-06
6.7619e-06
6.77692e-06
6.77692e-06
6.77692e-06
6.70266e-06
6.70266e-06
6.70266e-06
6.73207e-06
6.73207e-06
6.73207e-06
6.71739e-06
6.71739e-06
6.71739e-06
6.74652e-06
6.74652e-06
6.74652e-06
6.85228e-06
6.85228e-06
6.85228e-06
6.7008e-06
6.7008e-06
6.7008e-06
6.71629e-06
6.71629e-06
6.71629e-06
6.70142e-06
6.70142e-06
6.70142e-06
6.69368e-06
6.69368e-06
6.69368e-06
6.67176e-06
6.67176e-06
6.67176e-06
6.67884e-06
6.67884e-06
6.67884e-06
6.6711e-06
6.6711e-06
6.6711e-06
6.77003e-06
6.77003e-06
6.77003e-06
6.74611e-06
6.74611e-06
6.74611e-06
6.72404e-06
6.72404e-06
6.72404e-06
6.73895e-06
6.73895e-06
6.73895e-06
6.72523e-06
6.72523e-06
6.72523e-06
6.74013e-06
6.74013e-06
6.74013e-06
6.69664e-06
6.69664e-06
6.69664e-06
6.68184e-06
6.68184e-06
6.68184e-06
6.67472e-06
6.67472e-06
6.67472e-06
7.16446e-06
7.16446e-06
7.16446e-06
7.13013e-06
7.13013e-06
7.13013e-06
7.08473e-06
7.08473e-06
7.08473e-06
7.06872e-06
7.06872e-06
7.06872e-06
7.08418e-06
7.08418e-06
7.08418e-06
7.0922e-06
7.0922e-06
7.0922e-06
7.11517e-06
7.11517e-06
7.11517e-06
7.1077e-06
7.1077e-06
7.1077e-06
7.06927e-06
7.06927e-06
7.06927e-06
7.06128e-06
7.06128e-06
7.06128e-06
6.97703e-06
6.97703e-06
6.97703e-06
7.08174e-06
7.08174e-06
7.08174e-06
7.0898e-06
7.0898e-06
7.0898e-06
7.10909e-06
7.10909e-06
7.10909e-06
7.07815e-06
7.07815e-06
7.07815e-06
7.62782e-06
7.62782e-06
7.62782e-06
7.62812e-06
7.62812e-06
7.62812e-06
7.61958e-06
7.61958e-06
7.61958e-06
7.60283e-06
7.60283e-06
7.60283e-06
7.61045e-06
7.61045e-06
7.61045e-06
7.22659e-06
7.22659e-06
7.22659e-06
7.19518e-06
7.19518e-06
7.19518e-06
7.21912e-06
7.21912e-06
7.21912e-06
7.20341e-06
7.20341e-06
7.20341e-06
7.20418e-06
7.20418e-06
7.20418e-06
7.19672e-06
7.19672e-06
7.19672e-06
7.59432e-06
7.59432e-06
7.59432e-06
7.62675e-06
7.62675e-06
7.62675e-06
7.62068e-06
7.62068e-06
7.62068e-06
7.37253e-06
7.37253e-06
7.37253e-06
7.38075e-06
7.38075e-06
7.38075e-06
7.56335e-06
7.56335e-06
7.56335e-06
7.6132e-06
7.6132e-06
7.6132e-06
7.59651e-06
7.59651e-06
7.59651e-06
7.57987e-06
7.57987e-06
7.57987e-06
6.74851e-06
6.74851e-06
6.74851e-06
6.67714e-06
6.67714e-06
6.67714e-06
6.97539e-06
6.97539e-06
6.97539e-06
6.9601e-06
6.9601e-06
6.9601e-06
7.0521e-06
7.0521e-06
7.0521e-06
7.49574e-06
7.49574e-06
7.49574e-06
6.97523e-06
6.97523e-06
6.97523e-06
6.95995e-06
6.95995e-06
6.95995e-06
7.09836e-06
7.09836e-06
7.09836e-06
7.09055e-06
7.09055e-06
7.09055e-06
7.11396e-06
7.11396e-06
7.11396e-06
7.09846e-06
7.09846e-06
7.09846e-06
7.09853e-06
7.09853e-06
7.09853e-06
7.09075e-06
7.09075e-06
7.09075e-06
7.12958e-06
7.12958e-06
7.12958e-06
7.11403e-06
7.11403e-06
7.11403e-06
7.12177e-06
7.12177e-06
7.12177e-06
7.13732e-06
7.13732e-06
7.13732e-06
7.14514e-06
7.14514e-06
7.14514e-06
7.14584e-06
7.14584e-06
7.14584e-06
7.15319e-06
7.15319e-06
7.15319e-06
7.33327e-06
7.33327e-06
7.33327e-06
7.22578e-06
7.22578e-06
7.22578e-06
7.21832e-06
7.21832e-06
7.21832e-06
7.20262e-06
7.20262e-06
7.20262e-06
7.24815e-06
7.24815e-06
7.24815e-06
7.23982e-06
7.23982e-06
7.23982e-06
7.29478e-06
7.29478e-06
7.29478e-06
7.389e-06
7.389e-06
7.389e-06
7.33926e-06
7.33926e-06
7.33926e-06
7.1803e-06
7.1803e-06
7.1803e-06
7.14909e-06
7.14909e-06
7.14909e-06
7.1565e-06
7.1565e-06
7.1565e-06
7.1721e-06
7.1721e-06
7.1721e-06
7.17287e-06
7.17287e-06
7.17287e-06
7.15726e-06
7.15726e-06
7.15726e-06
7.11061e-06
7.11061e-06
7.11061e-06
7.10323e-06
7.10323e-06
7.10323e-06
7.12686e-06
7.12686e-06
7.12686e-06
7.11133e-06
7.11133e-06
7.11133e-06
7.06562e-06
7.06562e-06
7.06562e-06
7.05757e-06
7.05757e-06
7.05757e-06
7.10528e-06
7.10528e-06
7.10528e-06
7.05939e-06
7.05939e-06
7.05939e-06
6.94501e-06
6.94501e-06
6.94501e-06
6.96109e-06
6.96109e-06
6.96109e-06
6.96025e-06
6.96025e-06
6.96025e-06
6.96829e-06
6.96829e-06
6.96829e-06
6.72281e-06
6.72281e-06
6.72281e-06
6.71567e-06
6.71567e-06
6.71567e-06
6.72343e-06
6.72343e-06
6.72343e-06
6.73834e-06
6.73834e-06
6.73834e-06
6.80541e-06
6.80541e-06
6.80541e-06
6.75849e-06
6.75849e-06
6.75849e-06
6.74357e-06
6.74357e-06
6.74357e-06
6.82554e-06
6.82554e-06
6.82554e-06
6.81125e-06
6.81125e-06
6.81125e-06
6.83267e-06
6.83267e-06
6.83267e-06
7.19437e-06
7.19437e-06
7.19437e-06
7.12379e-06
7.12379e-06
7.12379e-06
7.13114e-06
7.13114e-06
7.13114e-06
7.12296e-06
7.12296e-06
7.12296e-06
7.10746e-06
7.10746e-06
7.10746e-06
7.06111e-06
7.06111e-06
7.06111e-06
7.07653e-06
7.07653e-06
7.07653e-06
7.12853e-06
7.12853e-06
7.12853e-06
7.14497e-06
7.14497e-06
7.14497e-06
7.14407e-06
7.14407e-06
7.14407e-06
7.15229e-06
7.15229e-06
7.15229e-06
7.09663e-06
7.09663e-06
7.09663e-06
7.11182e-06
7.11182e-06
7.11182e-06
7.19916e-06
7.19916e-06
7.19916e-06
7.22407e-06
7.22407e-06
7.22407e-06
7.21577e-06
7.21577e-06
7.21577e-06
7.26214e-06
7.26214e-06
7.26214e-06
7.24726e-06
7.24726e-06
7.24726e-06
7.27053e-06
7.27053e-06
7.27053e-06
7.26306e-06
7.26306e-06
7.26306e-06
7.29386e-06
7.29386e-06
7.29386e-06
7.30978e-06
7.30978e-06
7.30978e-06
7.31729e-06
7.31729e-06
7.31729e-06
6.69821e-06
6.69821e-06
6.69821e-06
6.71377e-06
6.71377e-06
6.71377e-06
6.68856e-06
6.68856e-06
6.68856e-06
6.69602e-06
6.69602e-06
6.69602e-06
6.67374e-06
6.67374e-06
6.67374e-06
6.71856e-06
6.71856e-06
6.71856e-06
6.76304e-06
6.76304e-06
6.76304e-06
6.73336e-06
6.73336e-06
6.73336e-06
6.74015e-06
6.74015e-06
6.74015e-06
6.75497e-06
6.75497e-06
6.75497e-06
6.78839e-06
6.78839e-06
6.78839e-06
6.81052e-06
6.81052e-06
6.81052e-06
6.80338e-06
6.80338e-06
6.80338e-06
6.80263e-06
6.80263e-06
6.80263e-06
6.85316e-06
6.85316e-06
6.85316e-06
6.84514e-06
6.84514e-06
6.84514e-06
6.7849e-06
6.7849e-06
6.7849e-06
6.77796e-06
6.77796e-06
6.77796e-06
6.71749e-06
6.71749e-06
6.71749e-06
6.7169e-06
6.7169e-06
6.7169e-06
6.72464e-06
6.72464e-06
6.72464e-06
6.67239e-06
6.67239e-06
6.67239e-06
6.67948e-06
6.67948e-06
6.67948e-06
6.6943e-06
6.6943e-06
6.6943e-06
6.70203e-06
6.70203e-06
6.70203e-06
6.67618e-06
6.67618e-06
6.67618e-06
6.69887e-06
6.69887e-06
6.69887e-06
6.6911e-06
6.6911e-06
6.6911e-06
6.66905e-06
6.66905e-06
6.66905e-06
6.69305e-06
6.69305e-06
6.69305e-06
6.67819e-06
6.67819e-06
6.67819e-06
6.76106e-06
6.76106e-06
6.76106e-06
6.76885e-06
6.76885e-06
6.76885e-06
6.87489e-06
6.87489e-06
6.87489e-06
6.88215e-06
6.88215e-06
6.88215e-06
6.83552e-06
6.83552e-06
6.83552e-06
6.78383e-06
6.78383e-06
6.78383e-06
6.79103e-06
6.79103e-06
6.79103e-06
6.78503e-06
6.78503e-06
6.78503e-06
6.82831e-06
6.82831e-06
6.82831e-06
6.81325e-06
6.81325e-06
6.81325e-06
6.80605e-06
6.80605e-06
6.80605e-06
6.81388e-06
6.81388e-06
6.81388e-06
6.74672e-06
6.74672e-06
6.74672e-06
6.76226e-06
6.76226e-06
6.76226e-06
6.74731e-06
6.74731e-06
6.74731e-06
6.73955e-06
6.73955e-06
6.73955e-06
6.76945e-06
6.76945e-06
6.76945e-06
6.76166e-06
6.76166e-06
6.76166e-06
6.71807e-06
6.71807e-06
6.71807e-06
6.70321e-06
6.70321e-06
6.70321e-06
6.69608e-06
6.69608e-06
6.69608e-06
6.70378e-06
6.70378e-06
6.70378e-06
6.74789e-06
6.74789e-06
6.74789e-06
6.76284e-06
6.76284e-06
6.76284e-06
6.77061e-06
6.77061e-06
6.77061e-06
6.90758e-06
6.90758e-06
6.90758e-06
6.9228e-06
6.9228e-06
6.9228e-06
7.20636e-06
7.20636e-06
7.20636e-06
7.14378e-06
7.14378e-06
7.14378e-06
7.21435e-06
7.21435e-06
7.21435e-06
7.20662e-06
7.20662e-06
7.20662e-06
7.13586e-06
7.13586e-06
7.13586e-06
7.15687e-06
7.15687e-06
7.15687e-06
7.1649e-06
7.1649e-06
7.1649e-06
7.08715e-06
7.08715e-06
7.08715e-06
7.09468e-06
7.09468e-06
7.09468e-06
7.10973e-06
7.10973e-06
7.10973e-06
7.07168e-06
7.07168e-06
7.07168e-06
7.06417e-06
7.06417e-06
7.06417e-06
7.04874e-06
7.04874e-06
7.04874e-06
7.04082e-06
7.04082e-06
7.04082e-06
7.13761e-06
7.13761e-06
7.13761e-06
7.11459e-06
7.11459e-06
7.11459e-06
7.10713e-06
7.10713e-06
7.10713e-06
7.09163e-06
7.09163e-06
7.09163e-06
7.0836e-06
7.0836e-06
7.0836e-06
7.01795e-06
7.01795e-06
7.01795e-06
7.02543e-06
7.02543e-06
7.02543e-06
7.06182e-06
7.06182e-06
7.06182e-06
7.04586e-06
7.04586e-06
7.04586e-06
7.08671e-06
7.08671e-06
7.08671e-06
7.09423e-06
7.09423e-06
7.09423e-06
7.01662e-06
7.01662e-06
7.01662e-06
7.02407e-06
7.02407e-06
7.02407e-06
7.06693e-06
7.06693e-06
7.06693e-06
7.08238e-06
7.08238e-06
7.08238e-06
7.06272e-06
7.06272e-06
7.06272e-06
6.94091e-06
6.94091e-06
6.94091e-06
7.62839e-06
7.62839e-06
7.62839e-06
7.61986e-06
7.61986e-06
7.61986e-06
7.62012e-06
7.62012e-06
7.62012e-06
7.46169e-06
7.46169e-06
7.46169e-06
7.49424e-06
7.49424e-06
7.49424e-06
7.47808e-06
7.47808e-06
7.47808e-06
7.61194e-06
7.61194e-06
7.61194e-06
7.61594e-06
7.61594e-06
7.61594e-06
7.61844e-06
7.61844e-06
7.61844e-06
7.22738e-06
7.22738e-06
7.22738e-06
7.21989e-06
7.21989e-06
7.21989e-06
7.22814e-06
7.22814e-06
7.22814e-06
7.2439e-06
7.2439e-06
7.2439e-06
7.20493e-06
7.20493e-06
7.20493e-06
7.22064e-06
7.22064e-06
7.22064e-06
7.61927e-06
7.61927e-06
7.61927e-06
7.60252e-06
7.60252e-06
7.60252e-06
7.62749e-06
7.62749e-06
7.62749e-06
7.61893e-06
7.61893e-06
7.61893e-06
7.60181e-06
7.60181e-06
7.60181e-06
7.59327e-06
7.59327e-06
7.59327e-06
7.57659e-06
7.57659e-06
7.57659e-06
7.57619e-06
7.57619e-06
7.57619e-06
7.56808e-06
7.56808e-06
7.56808e-06
7.54339e-06
7.54339e-06
7.54339e-06
7.55147e-06
7.55147e-06
7.55147e-06
7.62543e-06
7.62543e-06
7.62543e-06
7.61265e-06
7.61265e-06
7.61265e-06
7.35645e-06
7.35645e-06
7.35645e-06
7.32441e-06
7.32441e-06
7.32441e-06
7.5904e-06
7.5904e-06
7.5904e-06
7.59461e-06
7.59461e-06
7.59461e-06
7.57793e-06
7.57793e-06
7.57793e-06
7.6031e-06
7.6031e-06
7.6031e-06
6.84518e-06
6.84518e-06
6.84518e-06
6.81444e-06
6.81444e-06
6.81444e-06
6.77023e-06
6.77023e-06
6.77023e-06
6.77048e-06
6.77048e-06
6.77048e-06
6.77785e-06
6.77785e-06
6.77785e-06
6.81551e-06
6.81551e-06
6.81551e-06
6.79286e-06
6.79286e-06
6.79286e-06
6.80048e-06
6.80048e-06
6.80048e-06
6.77759e-06
6.77759e-06
6.77759e-06
6.75595e-06
6.75595e-06
6.75595e-06
6.79315e-06
6.79315e-06
6.79315e-06
6.80821e-06
6.80821e-06
6.80821e-06
6.68475e-06
6.68475e-06
6.68475e-06
6.72204e-06
6.72204e-06
6.72204e-06
6.70718e-06
6.70718e-06
6.70718e-06
6.69955e-06
6.69955e-06
6.69955e-06
6.75187e-06
6.75187e-06
6.75187e-06
6.72283e-06
6.72283e-06
6.72283e-06
6.70796e-06
6.70796e-06
6.70796e-06
6.98294e-06
6.98294e-06
6.98294e-06
6.97533e-06
6.97533e-06
6.97533e-06
6.98302e-06
6.98302e-06
6.98302e-06
6.93719e-06
6.93719e-06
6.93719e-06
6.95244e-06
6.95244e-06
6.95244e-06
6.92953e-06
6.92953e-06
6.92953e-06
6.93711e-06
6.93711e-06
6.93711e-06
6.96004e-06
6.96004e-06
6.96004e-06
6.95236e-06
6.95236e-06
6.95236e-06
7.04435e-06
7.04435e-06
7.04435e-06
7.02885e-06
7.02885e-06
7.02885e-06
7.03677e-06
7.03677e-06
7.03677e-06
7.05217e-06
7.05217e-06
7.05217e-06
7.04443e-06
7.04443e-06
7.04443e-06
7.49691e-06
7.49691e-06
7.49691e-06
7.37432e-06
7.37432e-06
7.37432e-06
7.40662e-06
7.40662e-06
7.40662e-06
7.32504e-06
7.32504e-06
7.32504e-06
7.30907e-06
7.30907e-06
7.30907e-06
7.31859e-06
7.31859e-06
7.31859e-06
7.27085e-06
7.27085e-06
7.27085e-06
7.255e-06
7.255e-06
7.255e-06
7.36668e-06
7.36668e-06
7.36668e-06
7.38271e-06
7.38271e-06
7.38271e-06
7.39888e-06
7.39888e-06
7.39888e-06
7.38279e-06
7.38279e-06
7.38279e-06
7.37469e-06
7.37469e-06
7.37469e-06
7.38246e-06
7.38246e-06
7.38246e-06
7.39861e-06
7.39861e-06
7.39861e-06
7.42314e-06
7.42314e-06
7.42314e-06
7.40692e-06
7.40692e-06
7.40692e-06
7.39876e-06
7.39876e-06
7.39876e-06
7.40678e-06
7.40678e-06
7.40678e-06
7.47935e-06
7.47935e-06
7.47935e-06
6.92944e-06
6.92944e-06
6.92944e-06
6.91422e-06
6.91422e-06
6.91422e-06
7.06743e-06
7.06743e-06
7.06743e-06
7.07509e-06
7.07509e-06
7.07509e-06
7.052e-06
7.052e-06
7.052e-06
7.04424e-06
7.04424e-06
7.04424e-06
7.09823e-06
7.09823e-06
7.09823e-06
7.22345e-06
7.22345e-06
7.22345e-06
7.23129e-06
7.23129e-06
7.23129e-06
7.2392e-06
7.2392e-06
7.2392e-06
7.23913e-06
7.23913e-06
7.23913e-06
7.2312e-06
7.2312e-06
7.2312e-06
7.14506e-06
7.14506e-06
7.14506e-06
7.16066e-06
7.16066e-06
7.16066e-06
7.21519e-06
7.21519e-06
7.21519e-06
7.11386e-06
7.11386e-06
7.11386e-06
7.14496e-06
7.14496e-06
7.14496e-06
7.12168e-06
7.12168e-06
7.12168e-06
7.13723e-06
7.13723e-06
7.13723e-06
7.36371e-06
7.36371e-06
7.36371e-06
7.34766e-06
7.34766e-06
7.34766e-06
7.26481e-06
7.26481e-06
7.26481e-06
7.31822e-06
7.31822e-06
7.31822e-06
7.3107e-06
7.3107e-06
7.3107e-06
7.27143e-06
7.27143e-06
7.27143e-06
7.28729e-06
7.28729e-06
7.28729e-06
7.26395e-06
7.26395e-06
7.26395e-06
7.2723e-06
7.2723e-06
7.2723e-06
7.27315e-06
7.27315e-06
7.27315e-06
7.28902e-06
7.28902e-06
7.28902e-06
7.36534e-06
7.36534e-06
7.36534e-06
7.38145e-06
7.38145e-06
7.38145e-06
7.10249e-06
7.10249e-06
7.10249e-06
7.10986e-06
7.10986e-06
7.10986e-06
7.10173e-06
7.10173e-06
7.10173e-06
7.08626e-06
7.08626e-06
7.08626e-06
7.07892e-06
7.07892e-06
7.07892e-06
7.08702e-06
7.08702e-06
7.08702e-06
7.10394e-06
7.10394e-06
7.10394e-06
7.08845e-06
7.08845e-06
7.08845e-06
7.08914e-06
7.08914e-06
7.08914e-06
7.08107e-06
7.08107e-06
7.08107e-06
7.13498e-06
7.13498e-06
7.13498e-06
7.1587e-06
7.1587e-06
7.1587e-06
7.15055e-06
7.15055e-06
7.15055e-06
7.06629e-06
7.06629e-06
7.06629e-06
7.05825e-06
7.05825e-06
7.05825e-06
7.0589e-06
7.0589e-06
7.0589e-06
6.96414e-06
6.96414e-06
6.96414e-06
6.94889e-06
6.94889e-06
6.94889e-06
7.03035e-06
7.03035e-06
7.03035e-06
7.05126e-06
7.05126e-06
7.05126e-06
7.06027e-06
7.06027e-06
7.06027e-06
7.05214e-06
7.05214e-06
7.05214e-06
7.053e-06
7.053e-06
7.053e-06
7.03762e-06
7.03762e-06
7.03762e-06
6.9827e-06
6.9827e-06
6.9827e-06
6.95938e-06
6.95938e-06
6.95938e-06
6.96743e-06
6.96743e-06
6.96743e-06
6.9146e-06
6.9146e-06
6.9146e-06
6.87627e-06
6.87627e-06
6.87627e-06
6.89141e-06
6.89141e-06
6.89141e-06
6.89943e-06
6.89943e-06
6.89943e-06
6.89227e-06
6.89227e-06
6.89227e-06
6.84774e-06
6.84774e-06
6.84774e-06
6.73709e-06
6.73709e-06
6.73709e-06
6.72154e-06
6.72154e-06
6.72154e-06
6.73645e-06
6.73645e-06
6.73645e-06
6.74423e-06
6.74423e-06
6.74423e-06
6.74487e-06
6.74487e-06
6.74487e-06
6.7455e-06
6.7455e-06
6.7455e-06
6.73772e-06
6.73772e-06
6.73772e-06
6.75981e-06
6.75981e-06
6.75981e-06
6.73577e-06
6.73577e-06
6.73577e-06
6.7131e-06
6.7131e-06
6.7131e-06
6.72088e-06
6.72088e-06
6.72088e-06
6.74286e-06
6.74286e-06
6.74286e-06
6.78126e-06
6.78126e-06
6.78126e-06
6.7663e-06
6.7663e-06
6.7663e-06
6.75916e-06
6.75916e-06
6.75916e-06
6.76696e-06
6.76696e-06
6.76696e-06
6.84604e-06
6.84604e-06
6.84604e-06
6.83097e-06
6.83097e-06
6.83097e-06
6.82475e-06
6.82475e-06
6.82475e-06
6.80973e-06
6.80973e-06
6.80973e-06
6.8239e-06
6.8239e-06
6.8239e-06
6.83185e-06
6.83185e-06
6.83185e-06
7.17872e-06
7.17872e-06
7.17872e-06
7.14752e-06
7.14752e-06
7.14752e-06
7.15571e-06
7.15571e-06
7.15571e-06
7.17131e-06
7.17131e-06
7.17131e-06
7.14669e-06
7.14669e-06
7.14669e-06
7.17789e-06
7.17789e-06
7.17789e-06
7.1549e-06
7.1549e-06
7.1549e-06
7.1705e-06
7.1705e-06
7.1705e-06
7.15406e-06
7.15406e-06
7.15406e-06
7.16966e-06
7.16966e-06
7.16966e-06
7.2175e-06
7.2175e-06
7.2175e-06
7.2018e-06
7.2018e-06
7.2018e-06
7.19354e-06
7.19354e-06
7.19354e-06
7.22494e-06