<VTKFile type="UnstructuredGrid" version="1.0">
<UnstructuredGrid>
<Piece NumberOfPoints="8859" NumberOfCells="2953">
<Points>
<DataArray type="Float64" NumberOfComponents="3" format="ascii">
3.01 0.5 15.58
3.01 0.487476 15.6025
3.01 0.512524 15.6025
3.01 0.17352 14.7025
3.01 0.148445 14.7025
3.01 0.160827 14.7242
3.01 0.122979 14.7459
3.01 0.135644 14.7242
3.01 0.110383 14.7242
3.01 0.135644 14.7242
3.01 0.123433 14.7025
3.01 0.110383 14.7242
3.01 0.123433 14.7025
3.01 0.135644 14.7242
3.01 0.148445 14.7025
3.01 0.135644 14.7242
3.01 0.160827 14.7242
3.01 0.148445 14.7025
3.01 0.17352 14.7025
3.01 0.185985 14.7242
3.01 0.198629 14.7025
3.01 0.185985 14.7242
3.01 0.17352 14.7025
3.01 0.160827 14.7242
3.01 0.0732297 14.7457
3.01 0.0848754 14.7241
3.01 0.0586606 14.7238
3.01 0.05 15.5353
3.01 0.058509 15.5126
3.01 0.05 15.4901
3.01 0.324276 14.7025
3.01 0.336827 14.7242
3.01 0.349395 14.7025
3.01 0.148138 14.7459
3.01 0.160827 14.7242
3.01 0.135644 14.7242
3.01 0.122979 14.7459
3.01 0.148138 14.7459
3.01 0.135644 14.7242
3.01 0.160827 14.7242
3.01 0.173316 14.7459
3.01 0.185985 14.7242
3.01 0.185806 14.7675
3.01 0.173316 14.7459
3.01 0.160572 14.7676
3.01 0.173316 14.7459
3.01 0.160827 14.7242
3.01 0.148138 14.7459
3.01 0.160572 14.7676
3.01 0.173316 14.7459
3.01 0.148138 14.7459
3.01 0.211137 14.7242
3.01 0.198629 14.7025
3.01 0.185985 14.7242
3.01 0.0979162 14.7458
3.01 0.122979 14.7459
3.01 0.110383 14.7242
3.01 0.122979 14.7459
3.01 0.0979162 14.7458
3.01 0.109875 14.7675
3.01 0.0732297 14.7457
3.01 0.0979162 14.7458
3.01 0.0848754 14.7241
3.01 0.0979162 14.7458
3.01 0.110383 14.7242
3.01 0.0848754 14.7241
3.01 0.0975729 14.789
3.01 0.122678 14.7891
3.01 0.109875 14.7675
3.01 0.0841718 14.7673
3.01 0.0732297 14.7457
3.01 0.0577122 14.767
3.01 0.0729308 14.7889
3.01 0.0841718 14.7673
3.01 0.0577122 14.767
3.01 0.0732297 14.7457
3.01 0.0841718 14.7673
3.01 0.0979162 14.7458
3.01 0.0841718 14.7673
3.01 0.109875 14.7675
3.01 0.0979162 14.7458
3.01 0.0975729 14.789
3.01 0.0841718 14.7673
3.01 0.0729308 14.7889
3.01 0.0841718 14.7673
3.01 0.0975729 14.789
3.01 0.109875 14.7675
3.01 0.073948 14.7025
3.01 0.05 14.7025
3.01 0.0586606 14.7238
3.01 0.073948 14.7025
3.01 0.0586606 14.7238
3.01 0.0848754 14.7241
3.01 0.05 15.5783
3.01 0.0603641 15.557
3.01 0.05 15.5353
3.01 0.0603641 15.557
3.01 0.05 15.5783
3.01 0.0753197 15.579
3.01 0.0709395 15.6025
3.01 0.05 15.5783
3.01 0.05 15.6025
3.01 0.05 15.5783
3.01 0.0709395 15.6025
3.01 0.0753197 15.579
3.01 0.0579641 15.2896
3.01 0.05 15.2676
3.01 0.05 15.3117
3.01 0.0841948 15.2018
3.01 0.109814 15.2018
3.01 0.097638 15.1799
3.01 0.0841948 15.2018
3.01 0.0578646 15.2018
3.01 0.0730539 15.2237
3.01 0.0580261 15.3338
3.01 0.05 15.3117
3.01 0.05 15.3559
3.01 0.942292 14.8974
3.01 0.95 14.919
3.01 0.95 14.8757
3.01 0.95 14.8323
3.01 0.942332 14.854
3.01 0.95 14.8757
3.01 0.73872 15.1145
3.01 0.75132 15.0928
3.01 0.726137 15.0928
3.01 0.751305 15.1363
3.01 0.73872 15.1145
3.01 0.726124 15.1363
3.01 0.713546 15.1145
3.01 0.73872 15.1145
3.01 0.726137 15.0928
3.01 0.73872 15.1145
3.01 0.713546 15.1145
3.01 0.726124 15.1363
3.01 0.814318 15.1581
3.01 0.801709 15.1363
3.01 0.789096 15.1581
3.01 0.7765 15.1363
3.01 0.801709 15.1363
3.01 0.789115 15.1145
3.01 0.801709 15.1363
3.01 0.7765 15.1363
3.01 0.789096 15.1581
3.01 0.7765 15.1363
3.01 0.763892 15.1581
3.01 0.789096 15.1581
3.01 0.763892 15.1581
3.01 0.7765 15.1363
3.01 0.751305 15.1363
3.01 0.95 15.6025
3.01 0.95 15.5783
3.01 0.929061 15.6025
3.01 0.95 15.4004
3.01 0.941913 15.3782
3.01 0.926844 15.4004
3.01 0.941913 15.3782
3.01 0.95 15.4004
3.01 0.95 15.3559
3.01 0.926866 15.3559
3.01 0.941913 15.3782
3.01 0.95 15.3559
3.01 0.941974 15.3338
3.01 0.926866 15.3559
3.01 0.95 15.3559
3.01 0.95 15.3117
3.01 0.941974 15.3338
3.01 0.95 15.3559
3.01 0.941974 15.3338
3.01 0.95 15.3117
3.01 0.926895 15.3117
3.01 0.6127 15.6025
3.01 0.637734 15.6025
3.01 0.625238 15.58
3.01 0.662757 15.6025
3.01 0.650275 15.58
3.01 0.637734 15.6025
3.01 0.650275 15.58
3.01 0.625238 15.58
3.01 0.637734 15.6025
3.01 0.600415 15.1364
3.01 0.575304 15.1364
3.01 0.587856 15.1582
3.01 0.575304 15.1364
3.01 0.562749 15.1582
3.01 0.587856 15.1582
3.01 0.336827 14.7242
3.01 0.361946 14.7242
3.01 0.349395 14.7025
3.01 0.223755 14.7025
3.01 0.198629 14.7025
3.01 0.211137 14.7242
3.01 0.185985 14.7242
3.01 0.198492 14.7459
3.01 0.211137 14.7242
3.01 0.185806 14.7675
3.01 0.198492 14.7459
3.01 0.173316 14.7459
3.01 0.198492 14.7459
3.01 0.185985 14.7242
3.01 0.173316 14.7459
3.01 0.0576202 14.8105
3.01 0.05 14.7887
3.01 0.05 14.8323
3.01 0.05 14.7887
3.01 0.0576202 14.8105
3.01 0.0729308 14.7889
3.01 0.05 14.7887
3.01 0.0729308 14.7889
3.01 0.0577122 14.767
3.01 0.135283 14.7675
3.01 0.122979 14.7459
3.01 0.109875 14.7675
3.01 0.135283 14.7675
3.01 0.109875 14.7675
3.01 0.122678 14.7891
3.01 0.122979 14.7459
3.01 0.135283 14.7675
3.01 0.148138 14.7459
3.01 0.135283 14.7675
3.01 0.160572 14.7676
3.01 0.148138 14.7459
3.01 0.123433 14.7025
3.01 0.0985513 14.7025
3.01 0.110383 14.7242
3.01 0.110383 14.7242
3.01 0.0985513 14.7025
3.01 0.0848754 14.7241
3.01 0.0848754 14.7241
3.01 0.0985513 14.7025
3.01 0.073948 14.7025
3.01 0.0603641 15.557
3.01 0.0739464 15.5345
3.01 0.05 15.5353
3.01 0.0739464 15.5345
3.01 0.058509 15.5126
3.01 0.05 15.5353
3.01 0.058509 15.5126
3.01 0.0739464 15.5345
3.01 0.0849548 15.5121
3.01 0.058509 15.5126
3.01 0.0732725 15.4899
3.01 0.05 15.4901
3.01 0.0732725 15.4899
3.01 0.058509 15.5126
3.01 0.0849548 15.5121
3.01 0.5 15.58
3.01 0.47495 15.58
3.01 0.487476 15.6025
3.01 0.097663 15.2237
3.01 0.109814 15.2018
3.01 0.0841948 15.2018
3.01 0.0730539 15.2237
3.01 0.097663 15.2237
3.01 0.0841948 15.2018
3.01 0.0578646 15.2018
3.01 0.05 15.2237
3.01 0.0730539 15.2237
3.01 0.05 15.2237
3.01 0.0578646 15.2018
3.01 0.05 15.1799
3.01 0.05 15.4004
3.01 0.0580869 15.3782
3.01 0.05 15.3559
3.01 0.05 15.3559
3.01 0.073134 15.3559
3.01 0.0580261 15.3338
3.01 0.073134 15.3559
3.01 0.05 15.3559
3.01 0.0580869 15.3782
3.01 0.942268 14.9407
3.01 0.95 14.9624
3.01 0.95 14.919
3.01 0.942292 14.8974
3.01 0.927025 14.919
3.01 0.95 14.919
3.01 0.927025 14.919
3.01 0.915919 14.9407
3.01 0.942268 14.9407
3.01 0.95 14.919
3.01 0.927025 14.919
3.01 0.942268 14.9407
3.01 0.927013 14.9624
3.01 0.95 14.9624
3.01 0.942268 14.9407
3.01 0.915919 14.9407
3.01 0.927013 14.9624
3.01 0.942268 14.9407
3.01 0.801738 15.0493
3.01 0.826957 15.0492
3.01 0.814364 15.0275
3.01 0.852174 15.0492
3.01 0.839609 15.0275
3.01 0.826957 15.0492
3.01 0.839609 15.0275
3.01 0.814364 15.0275
3.01 0.826957 15.0492
3.01 0.776516 15.0927
3.01 0.763923 15.071
3.01 0.75132 15.0928
3.01 0.776516 15.0927
3.01 0.789115 15.1145
3.01 0.801725 15.0927
3.01 0.738704 15.1581
3.01 0.763892 15.1581
3.01 0.751305 15.1363
3.01 0.726124 15.1363
3.01 0.738704 15.1581
3.01 0.751305 15.1363
3.01 0.915617 15.3781
3.01 0.926866 15.3559
3.01 0.902228 15.3559
3.01 0.926866 15.3559
3.01 0.915617 15.3781
3.01 0.941913 15.3782
3.01 0.915617 15.3781
3.01 0.926844 15.4004
3.01 0.941913 15.3782
3.01 0.915617 15.3781
3.01 0.902193 15.4004
3.01 0.926844 15.4004
3.01 0.926866 15.3559
3.01 0.915668 15.3338
3.01 0.902228 15.3559
3.01 0.902267 15.3117
3.01 0.915668 15.3338
3.01 0.926895 15.3117
3.01 0.915668 15.3338
3.01 0.926866 15.3559
3.01 0.941974 15.3338
3.01 0.926895 15.3117
3.01 0.915668 15.3338
3.01 0.941974 15.3338
3.01 0.902267 15.3117
3.01 0.890059 15.3338
3.01 0.915668 15.3338
3.01 0.890059 15.3338
3.01 0.902228 15.3559
3.01 0.915668 15.3338
3.01 0.826927 15.1363
3.01 0.801709 15.1363
3.01 0.814318 15.1581
3.01 0.864816 15.2018
3.01 0.890186 15.2018
3.01 0.877308 15.1799
3.01 0.877308 15.1799
3.01 0.852122 15.1799
3.01 0.864816 15.2018
3.01 0.890186 15.2018
3.01 0.902362 15.1799
3.01 0.877308 15.1799
3.01 0.902362 15.1799
3.01 0.890186 15.2018
3.01 0.915805 15.2018
3.01 0.902362 15.1799
3.01 0.915805 15.2018
3.01 0.926964 15.1799
3.01 0.915835 15.1581
3.01 0.902362 15.1799
3.01 0.926964 15.1799
3.01 0.942171 15.1581
3.01 0.915835 15.1581
3.01 0.926964 15.1799
3.01 0.915835 15.1581
3.01 0.942171 15.1581
3.01 0.926978 15.1363
3.01 0.942171 15.1581
3.01 0.95 15.1363
3.01 0.926978 15.1363
3.01 0.87737 15.0058
3.01 0.902417 15.0058
3.01 0.890277 14.9841
3.01 0.852144 15.1363
3.01 0.864842 15.1581
3.01 0.877329 15.1363
3.01 0.877308 15.1799
3.01 0.864842 15.1581
3.01 0.852122 15.1799
3.01 0.902396 15.0927
3.01 0.890234 15.1145
3.01 0.915858 15.1145
3.01 0.926997 15.0492
3.01 0.95 15.0492
3.01 0.942237 15.0275
3.01 0.91589 15.0275
3.01 0.926997 15.0492
3.01 0.942237 15.0275
3.01 0.942199 15.1145
3.01 0.95 15.1363
3.01 0.95 15.0927
3.01 0.95 15.1363
3.01 0.942199 15.1145
3.01 0.926978 15.1363
3.01 0.942199 15.1145
3.01 0.915858 15.1145
3.01 0.926978 15.1363
3.01 0.95 15.0492
3.01 0.942221 15.071
3.01 0.95 15.0927
3.01 0.942221 15.071
3.01 0.95 15.0492
3.01 0.926997 15.0492
3.01 0.915876 15.071
3.01 0.942221 15.071
3.01 0.926997 15.0492
3.01 0.926989 15.0927
3.01 0.902396 15.0927
3.01 0.915858 15.1145
3.01 0.902396 15.0927
3.01 0.926989 15.0927
3.01 0.915876 15.071
3.01 0.926989 15.0927
3.01 0.915858 15.1145
3.01 0.942199 15.1145
3.01 0.95 15.0927
3.01 0.926989 15.0927
3.01 0.942199 15.1145
3.01 0.915876 15.071
3.01 0.926989 15.0927
3.01 0.942221 15.071
3.01 0.926989 15.0927
3.01 0.95 15.0927
3.01 0.942221 15.071
3.01 0.91353 15.5569
3.01 0.939636 15.557
3.01 0.926054 15.5345
3.01 0.926728 15.4899
3.01 0.941491 15.5126
3.01 0.95 15.4901
3.01 0.926728 15.4899
3.01 0.95 15.4901
3.01 0.941822 15.4675
3.01 0.95 15.5353
3.01 0.939636 15.557
3.01 0.95 15.5783
3.01 0.95 15.5353
3.01 0.941491 15.5126
3.01 0.926054 15.5345
3.01 0.939636 15.557
3.01 0.95 15.5353
3.01 0.926054 15.5345
3.01 0.941491 15.5126
3.01 0.95 15.5353
3.01 0.95 15.4901
3.01 0.941869 15.4227
3.01 0.95 15.4004
3.01 0.926844 15.4004
3.01 0.762942 15.5573
3.01 0.737933 15.5573
3.01 0.75028 15.5799
3.01 0.71291 15.5574
3.01 0.737933 15.5573
3.01 0.725533 15.5349
3.01 0.71291 15.5574
3.01 0.725313 15.5799
3.01 0.737933 15.5573
3.01 0.725313 15.5799
3.01 0.75028 15.5799
[...]
<PointData Scalars="View Factor" >
<DataArray type="Float64" Name="View Factor" NumberOfComponents="1" format="ascii">
4.98643e-06
4.98643e-06
4.98643e-06
5.69815e-06
5.69815e-06
5.69815e-06
5.6795e-06
5.6795e-06
5.6795e-06
5.69203e-06
5.69203e-06
5.69203e-06
5.69827e-06
5.69827e-06
5.69827e-06
5.69192e-06
5.69192e-06
5.69192e-06
5.69801e-06
5.69801e-06
5.69801e-06
5.6918e-06
5.6918e-06
5.6918e-06
5.67986e-06
5.67986e-06
5.67986e-06
5.05087e-06
5.05087e-06
5.05087e-06
5.69672e-06
5.69672e-06
5.69672e-06
5.67938e-06
5.67938e-06
5.67938e-06
5.67319e-06
5.67319e-06
5.67319e-06
5.67926e-06
5.67926e-06
5.67926e-06
5.65432e-06
5.65432e-06
5.65432e-06
5.67307e-06
5.67307e-06
5.67307e-06
5.6606e-06
5.6606e-06
5.6606e-06
5.69165e-06
5.69165e-06
5.69165e-06
5.67331e-06
5.67331e-06
5.67331e-06
5.66086e-06
5.66086e-06
5.66086e-06
5.67348e-06
5.67348e-06
5.67348e-06
5.67963e-06
5.67963e-06
5.67963e-06
5.63608e-06
5.63608e-06
5.63608e-06
5.65499e-06
5.65499e-06
5.65499e-06
5.64261e-06
5.64261e-06
5.64261e-06
5.66104e-06
5.66104e-06
5.66104e-06
5.65474e-06
5.65474e-06
5.65474e-06
5.63628e-06
5.63628e-06
5.63628e-06
5.64236e-06
5.64236e-06
5.64236e-06
5.69863e-06
5.69863e-06
5.69863e-06
5.69234e-06
5.69234e-06
5.69234e-06
5.01796e-06
5.01796e-06
5.01796e-06
5.00715e-06
5.00715e-06
5.00715e-06
4.99018e-06
4.99018e-06
4.99018e-06
4.99594e-06
4.99594e-06
4.99594e-06
5.22109e-06
5.22109e-06
5.22109e-06
5.29579e-06
5.29579e-06
5.29579e-06
5.2843e-06
5.2843e-06
5.2843e-06
5.18681e-06
5.18681e-06
5.18681e-06
5.5242e-06
5.5242e-06
5.5242e-06
5.56061e-06
5.56061e-06
5.56061e-06
5.36333e-06
5.36333e-06
5.36333e-06
5.34e-06
5.34e-06
5.34e-06
5.35776e-06
5.35776e-06
5.35776e-06
5.34609e-06
5.34609e-06
5.34609e-06
5.32114e-06
5.32114e-06
5.32114e-06
5.33886e-06
5.33886e-06
5.33886e-06
5.32723e-06
5.32723e-06
5.32723e-06
5.32172e-06
5.32172e-06
5.32172e-06
5.32781e-06
5.32781e-06
5.32781e-06
4.97823e-06
4.97823e-06
4.97823e-06
5.12892e-06
5.12892e-06
5.12892e-06
5.14002e-06
5.14002e-06
5.14002e-06
5.15156e-06
5.15156e-06
5.15156e-06
5.1629e-06
5.1629e-06
5.1629e-06
5.17403e-06
5.17403e-06
5.17403e-06
5.18562e-06
5.18562e-06
5.18562e-06
4.98453e-06
4.98453e-06
4.98453e-06
4.9841e-06
4.9841e-06
4.9841e-06
4.98984e-06
4.98984e-06
4.98984e-06
5.33131e-06
5.33131e-06
5.33131e-06
5.32571e-06
5.32571e-06
5.32571e-06
5.69031e-06
5.69031e-06
5.69031e-06
5.69785e-06
5.69785e-06
5.69785e-06
5.67911e-06
5.67911e-06
5.67911e-06
5.66047e-06
5.66047e-06
5.66047e-06
5.67294e-06
5.67294e-06
5.67294e-06
5.61176e-06
5.61176e-06
5.61176e-06
5.6241e-06
5.6241e-06
5.6241e-06
5.63652e-06
5.63652e-06
5.63652e-06
5.65458e-06
5.65458e-06
5.65458e-06
5.64219e-06
5.64219e-06
5.64219e-06
5.66073e-06
5.66073e-06
5.66073e-06
5.65445e-06
5.65445e-06
5.65445e-06
5.69837e-06
5.69837e-06
5.69837e-06
5.69215e-06
5.69215e-06
5.69215e-06
5.69848e-06
5.69848e-06
5.69848e-06
5.02879e-06
5.02879e-06
5.02879e-06
5.03981e-06
5.03981e-06
5.03981e-06
5.04555e-06
5.04555e-06
5.04555e-06
5.06219e-06
5.06219e-06
5.06219e-06
5.05667e-06
5.05667e-06
5.05667e-06
4.99212e-06
4.99212e-06
4.99212e-06
5.28423e-06
5.28423e-06
5.28423e-06
5.2785e-06
5.2785e-06
5.2785e-06
5.27855e-06
5.27855e-06
5.27855e-06
5.2901e-06
5.2901e-06
5.2901e-06
5.15267e-06
5.15267e-06
5.15267e-06
5.17542e-06
5.17542e-06
5.17542e-06
5.16404e-06
5.16404e-06
5.16404e-06
5.48811e-06
5.48811e-06
5.48811e-06
5.51237e-06
5.51237e-06
5.51237e-06
5.49466e-06
5.49466e-06
5.49466e-06
5.50034e-06
5.50034e-06
5.50034e-06
5.47637e-06
5.47637e-06
5.47637e-06
5.48268e-06
5.48268e-06
5.48268e-06
5.40853e-06
5.40853e-06
5.40853e-06
5.4079e-06
5.4079e-06
5.4079e-06
5.41411e-06
5.41411e-06
5.41411e-06
5.37447e-06
5.37447e-06
5.37447e-06
5.36219e-06
5.36219e-06
5.36219e-06
5.32228e-06
5.32228e-06
5.32228e-06
5.32836e-06
5.32836e-06
5.32836e-06
5.15221e-06
5.15221e-06
5.15221e-06
5.1462e-06
5.1462e-06
5.1462e-06
5.13488e-06
5.13488e-06
5.13488e-06
5.12958e-06
5.12958e-06
5.12958e-06
5.16355e-06
5.16355e-06
5.16355e-06
5.18628e-06
5.18628e-06
5.18628e-06
5.16888e-06
5.16888e-06
5.16888e-06
5.18024e-06
5.18024e-06
5.18024e-06
5.18091e-06
5.18091e-06
5.18091e-06
5.16955e-06
5.16955e-06
5.16955e-06
5.32664e-06
5.32664e-06
5.32664e-06
5.28458e-06
5.28458e-06
5.28458e-06
5.29067e-06
5.29067e-06
5.29067e-06
5.29002e-06
5.29002e-06
5.29002e-06
5.28392e-06
5.28392e-06
5.28392e-06
5.28936e-06
5.28936e-06
5.28936e-06
5.30091e-06
5.30091e-06
5.30091e-06
5.30633e-06
5.30633e-06
5.30633e-06
5.31791e-06
5.31791e-06
5.31791e-06
5.32339e-06
5.32339e-06
5.32339e-06
5.44205e-06
5.44205e-06
5.44205e-06
5.32539e-06
5.32539e-06
5.32539e-06
5.30222e-06
5.30222e-06
5.30222e-06
5.35348e-06
5.35348e-06
5.35348e-06
5.40519e-06
5.40519e-06
5.40519e-06
5.41141e-06
5.41141e-06
5.41141e-06
5.34642e-06
5.34642e-06
5.34642e-06
5.335e-06
5.335e-06
5.335e-06
5.34113e-06
5.34113e-06
5.34113e-06
5.38147e-06
5.38147e-06
5.38147e-06
5.39343e-06
5.39343e-06
5.39343e-06
5.38788e-06
5.38788e-06
5.38788e-06
5.35898e-06
5.35898e-06
5.35898e-06
5.37067e-06
5.37067e-06
5.37067e-06
5.35278e-06
5.35278e-06
5.35278e-06
5.3583e-06
5.3583e-06
5.3583e-06
5.37615e-06
5.37615e-06
5.37615e-06
5.36998e-06
5.36998e-06
5.36998e-06
5.0118e-06
5.0118e-06
5.0118e-06
5.05008e-06
5.05008e-06
5.05008e-06
5.06131e-06
5.06131e-06
5.06131e-06
5.00582e-06
5.00582e-06
5.00582e-06
5.02779e-06
5.02779e-06
5.02779e-06
5.01682e-06
5.01682e-06
5.01682e-06
5.03859e-06
5.03859e-06
5.03859e-06
5.11763e-06
5.11763e-06
5.11763e-06
5.00443e-06
5.00443e-06
5.00443e-06
5.01601e-06
5.01601e-06
5.01601e-06
5.00489e-06
5.00489e-06
5.00489e-06
4.99911e-06
4.99911e-06
4.99911e-06
4.98273e-06
4.98273e-06
4.98273e-06
4.98802e-06
4.98802e-06
4.98802e-06
4.98224e-06
4.98224e-06
4.98224e-06
5.05617e-06
5.05617e-06
5.05617e-06
5.03829e-06
5.03829e-06
5.03829e-06
5.0218e-06
5.0218e-06
5.0218e-06
5.03294e-06
5.03294e-06
5.03294e-06
5.02269e-06
5.02269e-06
5.02269e-06
5.03383e-06
5.03383e-06
5.03383e-06
5.00132e-06
5.00132e-06
5.00132e-06
4.99026e-06
4.99026e-06
4.99026e-06
4.98494e-06
4.98494e-06
4.98494e-06
5.35093e-06
5.35093e-06
5.35093e-06
5.32528e-06
5.32528e-06
5.32528e-06
5.29135e-06
5.29135e-06
5.29135e-06
5.27938e-06
5.27938e-06
5.27938e-06
5.29094e-06
5.29094e-06
5.29094e-06
5.29693e-06
5.29693e-06
5.29693e-06
5.3141e-06
5.3141e-06
5.3141e-06
5.30851e-06
5.30851e-06
5.30851e-06
5.2798e-06
5.2798e-06
5.2798e-06
5.27382e-06
5.27382e-06
5.27382e-06
5.21086e-06
5.21086e-06
5.21086e-06
5.28911e-06
5.28911e-06
5.28911e-06
5.29513e-06
5.29513e-06
5.29513e-06
5.30954e-06
5.30954e-06
5.30954e-06
5.28642e-06
5.28642e-06
5.28642e-06
5.69723e-06
5.69723e-06
5.69723e-06
5.69746e-06
5.69746e-06
5.69746e-06
5.69108e-06
5.69108e-06
5.69108e-06
5.67855e-06
5.67855e-06
5.67855e-06
5.68424e-06
5.68424e-06
5.68424e-06
5.39736e-06
5.39736e-06
5.39736e-06
5.37389e-06
5.37389e-06
5.37389e-06
5.39178e-06
5.39178e-06
5.39178e-06
5.38004e-06
5.38004e-06
5.38004e-06
5.38062e-06
5.38062e-06
5.38062e-06
5.37504e-06
5.37504e-06
5.37504e-06
5.6722e-06
5.6722e-06
5.6722e-06
5.69643e-06
5.69643e-06
5.69643e-06
5.69189e-06
5.69189e-06
5.69189e-06
5.50644e-06
5.50644e-06
5.50644e-06
5.51258e-06
5.51258e-06
5.51258e-06
5.64905e-06
5.64905e-06
5.64905e-06
5.68631e-06
5.68631e-06
5.68631e-06
5.67384e-06
5.67384e-06
5.67384e-06
5.6614e-06
5.6614e-06
5.6614e-06
5.04009e-06
5.04009e-06
5.04009e-06
4.98676e-06
4.98676e-06
4.98676e-06
5.20964e-06
5.20964e-06
5.20964e-06
5.19822e-06
5.19822e-06
5.19822e-06
5.26697e-06
5.26697e-06
5.26697e-06
5.59852e-06
5.59852e-06
5.59852e-06
5.20952e-06
5.20952e-06
5.20952e-06
5.1981e-06
5.1981e-06
5.1981e-06
5.30154e-06
5.30154e-06
5.30154e-06
5.29571e-06
5.29571e-06
5.29571e-06
5.3132e-06
5.3132e-06
5.3132e-06
5.30161e-06
5.30161e-06
5.30161e-06
5.30167e-06
5.30167e-06
5.30167e-06
5.29586e-06
5.29586e-06
5.29586e-06
5.32487e-06
5.32487e-06
5.32487e-06
5.31325e-06
5.31325e-06
5.31325e-06
5.31903e-06
5.31903e-06
5.31903e-06
5.33066e-06
5.33066e-06
5.33066e-06
5.3365e-06
5.3365e-06
5.3365e-06
5.33701e-06
5.33701e-06
5.33701e-06
5.3425e-06
5.3425e-06
5.3425e-06
5.47708e-06
5.47708e-06
5.47708e-06
5.39675e-06
5.39675e-06
5.39675e-06
5.39118e-06
5.39118e-06
5.39118e-06
5.37944e-06
5.37944e-06
5.37944e-06
5.41347e-06
5.41347e-06
5.41347e-06
5.40724e-06
5.40724e-06
5.40724e-06
5.44832e-06
5.44832e-06
5.44832e-06
5.51873e-06
5.51873e-06
5.51873e-06
5.48157e-06
5.48157e-06
5.48157e-06
5.36277e-06
5.36277e-06
5.36277e-06
5.33944e-06
5.33944e-06
5.33944e-06
5.34498e-06
5.34498e-06
5.34498e-06
5.35664e-06
5.35664e-06
5.35664e-06
5.35721e-06
5.35721e-06
5.35721e-06
5.34554e-06
5.34554e-06
5.34554e-06
5.31068e-06
5.31068e-06
5.31068e-06
5.30517e-06
5.30517e-06
5.30517e-06
5.32283e-06
5.32283e-06
5.32283e-06
5.31123e-06
5.31123e-06
5.31123e-06
5.27707e-06
5.27707e-06
5.27707e-06
5.27105e-06
5.27105e-06
5.27105e-06
5.30671e-06
5.30671e-06
5.30671e-06
5.2724e-06
5.2724e-06
5.2724e-06
5.18692e-06
5.18692e-06
5.18692e-06
5.19894e-06
5.19894e-06
5.19894e-06
5.19831e-06
5.19831e-06
5.19831e-06
5.20432e-06
5.20432e-06
5.20432e-06
5.02088e-06
5.02088e-06
5.02088e-06
5.01555e-06
5.01555e-06
5.01555e-06
5.02134e-06
5.02134e-06
5.02134e-06
5.03248e-06
5.03248e-06
5.03248e-06
5.08261e-06
5.08261e-06
5.08261e-06
5.04754e-06
5.04754e-06
5.04754e-06
5.03639e-06
5.03639e-06
5.03639e-06
5.09765e-06
5.09765e-06
5.09765e-06
5.08697e-06
5.08697e-06
5.08697e-06
5.10298e-06
5.10298e-06
5.10298e-06
5.37328e-06
5.37328e-06
5.37328e-06
5.32053e-06
5.32053e-06
5.32053e-06
5.32603e-06
5.32603e-06
5.32603e-06
5.31991e-06
5.31991e-06
5.31991e-06
5.30832e-06
5.30832e-06
5.30832e-06
5.27369e-06
5.27369e-06
5.27369e-06
5.28522e-06
5.28522e-06
5.28522e-06
5.32407e-06
5.32407e-06
5.32407e-06
5.33636e-06
5.33636e-06
5.33636e-06
5.33568e-06
5.33568e-06
5.33568e-06
5.34183e-06
5.34183e-06
5.34183e-06
5.30023e-06
5.30023e-06
5.30023e-06
5.31158e-06
5.31158e-06
5.31158e-06
5.37686e-06
5.37686e-06
5.37686e-06
5.39547e-06
5.39547e-06
5.39547e-06
5.38927e-06
5.38927e-06
5.38927e-06
5.42393e-06
5.42393e-06
5.42393e-06
5.4128e-06
5.4128e-06
5.4128e-06
5.43019e-06
5.43019e-06
5.43019e-06
5.42461e-06
5.42461e-06
5.42461e-06
5.44763e-06
5.44763e-06
5.44763e-06
5.45952e-06
5.45952e-06
5.45952e-06
5.46514e-06
5.46514e-06
5.46514e-06
5.00249e-06
5.00249e-06
5.00249e-06
5.01412e-06
5.01412e-06
5.01412e-06
4.99528e-06
4.99528e-06
4.99528e-06
5.00085e-06
5.00085e-06
5.00085e-06
4.9842e-06
4.9842e-06
4.9842e-06
5.0177e-06
5.0177e-06
5.0177e-06
5.05093e-06
5.05093e-06
5.05093e-06
5.02876e-06
5.02876e-06
5.02876e-06
5.03383e-06
5.03383e-06
5.03383e-06
5.0449e-06
5.0449e-06
5.0449e-06
5.06988e-06
5.06988e-06
5.06988e-06
5.08642e-06
5.08642e-06
5.08642e-06
5.08109e-06
5.08109e-06
5.08109e-06
5.08052e-06
5.08052e-06
5.08052e-06
5.11828e-06
5.11828e-06
5.11828e-06
5.11229e-06
5.11229e-06
5.11229e-06
5.06727e-06
5.06727e-06
5.06727e-06
5.06208e-06
5.06208e-06
5.06208e-06
5.01691e-06
5.01691e-06
5.01691e-06
5.01646e-06
5.01646e-06
5.01646e-06
5.02225e-06
5.02225e-06
5.02225e-06
4.9832e-06
4.9832e-06
4.9832e-06
4.9885e-06
4.9885e-06
4.9885e-06
4.99958e-06
4.99958e-06
4.99958e-06
5.00535e-06
5.00535e-06
5.00535e-06
4.98603e-06
4.98603e-06
4.98603e-06
5.00299e-06
5.00299e-06
5.00299e-06
4.99718e-06
4.99718e-06
4.99718e-06
4.9807e-06
4.9807e-06
4.9807e-06
4.99864e-06
4.99864e-06
4.99864e-06
4.98753e-06
4.98753e-06
4.98753e-06
5.04946e-06
5.04946e-06
5.04946e-06
5.05528e-06
5.05528e-06
5.05528e-06
5.13453e-06
5.13453e-06
5.13453e-06
5.13996e-06
5.13996e-06
5.13996e-06
5.1051e-06
5.1051e-06
5.1051e-06
5.06648e-06
5.06648e-06
5.06648e-06
5.07186e-06
5.07186e-06
5.07186e-06
5.06737e-06
5.06737e-06
5.06737e-06
5.09971e-06
5.09971e-06
5.09971e-06
5.08846e-06
5.08846e-06
5.08846e-06
5.08308e-06
5.08308e-06
5.08308e-06
5.08893e-06
5.08893e-06
5.08893e-06
5.03874e-06
5.03874e-06
5.03874e-06
5.05036e-06
5.05036e-06
5.05036e-06
5.03919e-06
5.03919e-06
5.03919e-06
5.03339e-06
5.03339e-06
5.03339e-06
5.05573e-06
5.05573e-06
5.05573e-06
5.04991e-06
5.04991e-06
5.04991e-06
5.01734e-06
5.01734e-06
5.01734e-06
5.00624e-06
5.00624e-06
5.00624e-06
5.00091e-06
5.00091e-06
5.00091e-06
5.00666e-06
5.00666e-06
5.00666e-06
5.03962e-06
5.03962e-06
5.03962e-06
5.05079e-06
5.05079e-06
5.05079e-06
5.0566e-06
5.0566e-06
5.0566e-06
5.15896e-06
5.15896e-06
5.15896e-06
5.17033e-06
5.17033e-06
5.17033e-06
5.38225e-06
5.38225e-06
5.38225e-06
5.33549e-06
5.33549e-06
5.33549e-06
5.38822e-06
5.38822e-06
5.38822e-06
5.38245e-06
5.38245e-06
5.38245e-06
5.32956e-06
5.32956e-06
5.32956e-06
5.34527e-06
5.34527e-06
5.34527e-06
5.35127e-06
5.35127e-06
5.35127e-06
5.29316e-06
5.29316e-06
5.29316e-06
5.29878e-06
5.29878e-06
5.29878e-06
5.31004e-06
5.31004e-06
5.31004e-06
5.2816e-06
5.2816e-06
5.2816e-06
5.27598e-06
5.27598e-06
5.27598e-06
5.26445e-06
5.26445e-06
5.26445e-06
5.25854e-06
5.25854e-06
5.25854e-06
5.33087e-06
5.33087e-06
5.33087e-06
5.31367e-06
5.31367e-06
5.31367e-06
5.30809e-06
5.30809e-06
5.30809e-06
5.29651e-06
5.29651e-06
5.29651e-06
5.29051e-06
5.29051e-06
5.29051e-06
5.24145e-06
5.24145e-06
5.24145e-06
5.24703e-06
5.24703e-06
5.24703e-06
5.27423e-06
5.27423e-06
5.27423e-06
5.2623e-06
5.2623e-06
5.2623e-06
5.29283e-06
5.29283e-06
5.29283e-06
5.29845e-06
5.29845e-06
5.29845e-06
5.24045e-06
5.24045e-06
5.24045e-06
5.24601e-06
5.24601e-06
5.24601e-06
5.27805e-06
5.27805e-06
5.27805e-06
5.28959e-06
5.28959e-06
5.28959e-06
5.27489e-06
5.27489e-06
5.27489e-06
5.18387e-06
5.18387e-06
5.18387e-06
5.69766e-06
5.69766e-06
5.69766e-06
5.69129e-06
5.69129e-06
5.69129e-06
5.69148e-06
5.69148e-06
5.69148e-06
5.57305e-06
5.57305e-06
5.57305e-06
5.59738e-06
5.59738e-06
5.59738e-06
5.5853e-06
5.5853e-06
5.5853e-06
5.68536e-06
5.68536e-06
5.68536e-06
5.68834e-06
5.68834e-06
5.68834e-06
5.69021e-06
5.69021e-06
5.69021e-06
5.39795e-06
5.39795e-06
5.39795e-06
5.39236e-06
5.39236e-06
5.39236e-06
5.39852e-06
5.39852e-06
5.39852e-06
5.4103e-06
5.4103e-06
5.4103e-06
5.38117e-06
5.38117e-06
5.38117e-06
5.39292e-06
5.39292e-06
5.39292e-06
5.69084e-06
5.69084e-06
5.69084e-06
5.67832e-06
5.67832e-06
5.67832e-06
5.69699e-06
5.69699e-06
5.69699e-06
5.69059e-06
5.69059e-06
5.69059e-06
5.6778e-06
5.6778e-06
5.6778e-06
5.67141e-06
5.67141e-06
5.67141e-06
5.65895e-06
5.65895e-06
5.65895e-06
5.65864e-06
5.65864e-06
5.65864e-06
5.65258e-06
5.65258e-06
5.65258e-06
5.63413e-06
5.63413e-06
5.63413e-06
5.64017e-06
5.64017e-06
5.64017e-06
5.69544e-06
5.69544e-06
5.69544e-06
5.68589e-06
5.68589e-06
5.68589e-06
5.49442e-06
5.49442e-06
5.49442e-06
5.47047e-06
5.47047e-06
5.47047e-06
5.66926e-06
5.66926e-06
5.66926e-06
5.67241e-06
5.67241e-06
5.67241e-06
5.65995e-06
5.65995e-06
5.65995e-06
5.67876e-06
5.67876e-06
5.67876e-06
5.11233e-06
5.11233e-06
5.11233e-06
5.08936e-06
5.08936e-06
5.08936e-06
5.05633e-06
5.05633e-06
5.05633e-06
5.05651e-06
5.05651e-06
5.05651e-06
5.06202e-06
5.06202e-06
5.06202e-06
5.09016e-06
5.09016e-06
5.09016e-06
5.07323e-06
5.07323e-06
5.07323e-06
5.07893e-06
5.07893e-06
5.07893e-06
5.06183e-06
5.06183e-06
5.06183e-06
5.04566e-06
5.04566e-06
5.04566e-06
5.07346e-06
5.07346e-06
5.07346e-06
5.08471e-06
5.08471e-06
5.08471e-06
4.99244e-06
4.99244e-06
4.99244e-06
5.02031e-06
5.02031e-06
5.02031e-06
5.0092e-06
5.0092e-06
5.0092e-06
5.0035e-06
5.0035e-06
5.0035e-06
5.0426e-06
5.0426e-06
5.0426e-06
5.0209e-06
5.0209e-06
5.0209e-06
5.00979e-06
5.00979e-06
5.00979e-06
5.21528e-06
5.21528e-06
5.21528e-06
5.2096e-06
5.2096e-06
5.2096e-06
5.21534e-06
5.21534e-06
5.21534e-06
5.18109e-06
5.18109e-06
5.18109e-06
5.19249e-06
5.19249e-06
5.19249e-06
5.17537e-06
5.17537e-06
5.17537e-06
5.18103e-06
5.18103e-06
5.18103e-06
5.19817e-06
5.19817e-06
5.19817e-06
5.19243e-06
5.19243e-06
5.19243e-06
5.26118e-06
5.26118e-06
5.26118e-06
5.24959e-06
5.24959e-06
5.24959e-06
5.25551e-06
5.25551e-06
5.25551e-06
5.26702e-06
5.26702e-06
5.26702e-06
5.26124e-06
5.26124e-06
5.26124e-06
5.59939e-06
5.59939e-06
5.59939e-06
5.50778e-06
5.50778e-06
5.50778e-06
5.53192e-06
5.53192e-06
5.53192e-06
5.47094e-06
5.47094e-06
5.47094e-06
5.45901e-06
5.45901e-06
5.45901e-06
5.46613e-06
5.46613e-06
5.46613e-06
5.43045e-06
5.43045e-06
5.43045e-06
5.4186e-06
5.4186e-06
5.4186e-06
5.50207e-06
5.50207e-06
5.50207e-06
5.51405e-06
5.51405e-06
5.51405e-06
5.52613e-06
5.52613e-06
5.52613e-06
5.5141e-06
5.5141e-06
5.5141e-06
5.50806e-06
5.50806e-06
5.50806e-06
5.51386e-06
5.51386e-06
5.51386e-06
5.52593e-06
5.52593e-06
5.52593e-06
5.54427e-06
5.54427e-06
5.54427e-06
5.53214e-06
5.53214e-06
5.53214e-06
5.52604e-06
5.52604e-06
5.52604e-06
5.53204e-06
5.53204e-06
5.53204e-06
5.58627e-06
5.58627e-06
5.58627e-06
5.1753e-06
5.1753e-06
5.1753e-06
5.16393e-06
5.16393e-06
5.16393e-06
5.27842e-06
5.27842e-06
5.27842e-06
5.28415e-06
5.28415e-06
5.28415e-06
5.26689e-06
5.26689e-06
5.26689e-06
5.26109e-06
5.26109e-06
5.26109e-06
5.30144e-06
5.30144e-06
5.30144e-06
5.39503e-06
5.39503e-06
5.39503e-06
5.40088e-06
5.40088e-06
5.40088e-06
5.4068e-06
5.4068e-06
5.4068e-06
5.40674e-06
5.40674e-06
5.40674e-06
5.40081e-06
5.40081e-06
5.40081e-06
5.33644e-06
5.33644e-06
5.33644e-06
5.3481e-06
5.3481e-06
5.3481e-06
5.38885e-06
5.38885e-06
5.38885e-06
5.31313e-06
5.31313e-06
5.31313e-06
5.33637e-06
5.33637e-06
5.33637e-06
5.31897e-06
5.31897e-06
5.31897e-06
5.33059e-06
5.33059e-06
5.33059e-06
5.49983e-06
5.49983e-06
5.49983e-06
5.48784e-06
5.48784e-06
5.48784e-06
5.42592e-06
5.42592e-06
5.42592e-06
5.46584e-06
5.46584e-06
5.46584e-06
5.46022e-06
5.46022e-06
5.46022e-06
5.43087e-06
5.43087e-06
5.43087e-06
5.44272e-06
5.44272e-06
5.44272e-06
5.42528e-06
5.42528e-06
5.42528e-06
5.43152e-06
5.43152e-06
5.43152e-06
5.43216e-06
5.43216e-06
5.43216e-06
5.44401e-06
5.44401e-06
5.44401e-06
5.50105e-06
5.50105e-06
5.50105e-06
5.51309e-06
5.51309e-06
5.51309e-06
5.30462e-06
5.30462e-06
5.30462e-06
5.31012e-06
5.31012e-06
5.31012e-06
5.30405e-06
5.30405e-06
5.30405e-06
5.29249e-06
5.29249e-06
5.29249e-06
5.287e-06
5.287e-06
5.287e-06
5.29305e-06
5.29305e-06
5.29305e-06
5.3057e-06
5.3057e-06
5.3057e-06
5.29413e-06
5.29413e-06
5.29413e-06
5.29464e-06
5.29464e-06
5.29464e-06
5.28861e-06
5.28861e-06
5.28861e-06
5.3289e-06
5.3289e-06
5.3289e-06
5.34663e-06
5.34663e-06
5.34663e-06
5.34054e-06
5.34054e-06
5.34054e-06
5.27757e-06
5.27757e-06
5.27757e-06
5.27155e-06
5.27155e-06
5.27155e-06
5.27204e-06
5.27204e-06
5.27204e-06
5.20122e-06
5.20122e-06
5.20122e-06
5.18982e-06
5.18982e-06
5.18982e-06
5.2507e-06
5.2507e-06
5.2507e-06
5.26632e-06
5.26632e-06
5.26632e-06
5.27306e-06
5.27306e-06
5.27306e-06
5.26698e-06
5.26698e-06
5.26698e-06
5.26762e-06
5.26762e-06
5.26762e-06
5.25613e-06
5.25613e-06
5.25613e-06
5.21509e-06
5.21509e-06
5.21509e-06
5.19766e-06
5.19766e-06
5.19766e-06
5.20368e-06
5.20368e-06
5.20368e-06
5.1642e-06
5.1642e-06
5.1642e-06
5.13555e-06
5.13555e-06
5.13555e-06
5.14687e-06
5.14687e-06
5.14687e-06
5.15286e-06
5.15286e-06
5.15286e-06
5.14751e-06
5.14751e-06
5.14751e-06
5.11423e-06
5.11423e-06
5.11423e-06
5.03155e-06
5.03155e-06
5.03155e-06
5.01993e-06
5.01993e-06
5.01993e-06
5.03107e-06
5.03107e-06
5.03107e-06
5.03688e-06
5.03688e-06
5.03688e-06
5.03736e-06
5.03736e-06
5.03736e-06
5.03783e-06
5.03783e-06
5.03783e-06
5.03202e-06
5.03202e-06
5.03202e-06
5.04853e-06
5.04853e-06
5.04853e-06
5.03056e-06
5.03056e-06
5.03056e-06
5.01362e-06
5.01362e-06
5.01362e-06
5.01943e-06
5.01943e-06
5.01943e-06
5.03586e-06
5.03586e-06
5.03586e-06
5.06455e-06
5.06455e-06
5.06455e-06
5.05338e-06
5.05338e-06
5.05338e-06
5.04804e-06
5.04804e-06
5.04804e-06
5.05387e-06
5.05387e-06
5.05387e-06
5.11297e-06
5.11297e-06
5.11297e-06
5.1017e-06
5.1017e-06
5.1017e-06
5.09705e-06
5.09705e-06
5.09705e-06
5.08583e-06
5.08583e-06
5.08583e-06
5.09642e-06
5.09642e-06
5.09642e-06
5.10236e-06
5.10236e-06
5.10236e-06
5.36158e-06
5.36158e-06
5.36158e-06
5.33827e-06
5.33827e-06
5.33827e-06
5.34439e-06
5.34439e-06
5.34439e-06
5.35605e-06
5.35605e-06
5.35605e-06
5.33765e-06
5.33765e-06
5.33765e-06
5.36096e-06
5.36096e-06
5.36096e-06
5.34378e-06
5.34378e-06
5.34378e-06
5.35544e-06
5.35544e-06
5.35544e-06
5.34315e-06
5.34315e-06
5.34315e-06
5.35481e-06
5.35481e-06
5.35481e-06
5.39056e-06
5.39056e-06
5.39056e-06
5.37883e-06
5.37883e-06
5.37883e-06
5.37266e-06
5.37266e-06
5.37266e-06