<VTKFile type="UnstructuredGrid" version="1.0">
<UnstructuredGrid>
<Piece NumberOfPoints="8859" NumberOfCells="2953">
<Points>
<DataArray type="Float64" NumberOfComponents="3" format="ascii">
3.01 0.5 16.625
3.01 0.487476 16.6475
3.01 0.512524 16.6475
3.01 0.17352 15.7475
3.01 0.148445 15.7475
3.01 0.160827 15.7692
3.01 0.122979 15.7909
3.01 0.135644 15.7692
3.01 0.110383 15.7692
3.01 0.135644 15.7692
3.01 0.123433 15.7475
3.01 0.110383 15.7692
3.01 0.123433 15.7475
3.01 0.135644 15.7692
3.01 0.148445 15.7475
3.01 0.135644 15.7692
3.01 0.160827 15.7692
3.01 0.148445 15.7475
3.01 0.17352 15.7475
3.01 0.185985 15.7692
3.01 0.198629 15.7475
3.01 0.185985 15.7692
3.01 0.17352 15.7475
3.01 0.160827 15.7692
3.01 0.0732297 15.7907
3.01 0.0848754 15.7691
3.01 0.0586606 15.7688
3.01 0.05 16.5803
3.01 0.058509 16.5576
3.01 0.05 16.5351
3.01 0.324276 15.7475
3.01 0.336827 15.7692
3.01 0.349395 15.7475
3.01 0.148138 15.7909
3.01 0.160827 15.7692
3.01 0.135644 15.7692
3.01 0.122979 15.7909
3.01 0.148138 15.7909
3.01 0.135644 15.7692
3.01 0.160827 15.7692
3.01 0.173316 15.7909
3.01 0.185985 15.7692
3.01 0.185806 15.8125
3.01 0.173316 15.7909
3.01 0.160572 15.8126
3.01 0.173316 15.7909
3.01 0.160827 15.7692
3.01 0.148138 15.7909
3.01 0.160572 15.8126
3.01 0.173316 15.7909
3.01 0.148138 15.7909
3.01 0.211137 15.7692
3.01 0.198629 15.7475
3.01 0.185985 15.7692
3.01 0.0979162 15.7908
3.01 0.122979 15.7909
3.01 0.110383 15.7692
3.01 0.122979 15.7909
3.01 0.0979162 15.7908
3.01 0.109875 15.8125
3.01 0.0732297 15.7907
3.01 0.0979162 15.7908
3.01 0.0848754 15.7691
3.01 0.0979162 15.7908
3.01 0.110383 15.7692
3.01 0.0848754 15.7691
3.01 0.0975729 15.834
3.01 0.122678 15.8341
3.01 0.109875 15.8125
3.01 0.0841718 15.8123
3.01 0.0732297 15.7907
3.01 0.0577122 15.812
3.01 0.0729308 15.8339
3.01 0.0841718 15.8123
3.01 0.0577122 15.812
3.01 0.0732297 15.7907
3.01 0.0841718 15.8123
3.01 0.0979162 15.7908
3.01 0.0841718 15.8123
3.01 0.109875 15.8125
3.01 0.0979162 15.7908
3.01 0.0975729 15.834
3.01 0.0841718 15.8123
3.01 0.0729308 15.8339
3.01 0.0841718 15.8123
3.01 0.0975729 15.834
3.01 0.109875 15.8125
3.01 0.073948 15.7475
3.01 0.05 15.7475
3.01 0.0586606 15.7688
3.01 0.073948 15.7475
3.01 0.0586606 15.7688
3.01 0.0848754 15.7691
3.01 0.05 16.6233
3.01 0.0603641 16.602
3.01 0.05 16.5803
3.01 0.0603641 16.602
3.01 0.05 16.6233
3.01 0.0753197 16.624
3.01 0.0709395 16.6475
3.01 0.05 16.6233
3.01 0.05 16.6475
3.01 0.05 16.6233
3.01 0.0709395 16.6475
3.01 0.0753197 16.624
3.01 0.0579641 16.3346
3.01 0.05 16.3126
3.01 0.05 16.3567
3.01 0.0841948 16.2468
3.01 0.109814 16.2468
3.01 0.097638 16.2249
3.01 0.0841948 16.2468
3.01 0.0578646 16.2468
3.01 0.0730539 16.2687
3.01 0.0580261 16.3788
3.01 0.05 16.3567
3.01 0.05 16.4009
3.01 0.942292 15.9424
3.01 0.95 15.964
3.01 0.95 15.9207
3.01 0.95 15.8773
3.01 0.942332 15.899
3.01 0.95 15.9207
3.01 0.73872 16.1595
3.01 0.75132 16.1378
3.01 0.726137 16.1378
3.01 0.751305 16.1813
3.01 0.73872 16.1595
3.01 0.726124 16.1813
3.01 0.713546 16.1595
3.01 0.73872 16.1595
3.01 0.726137 16.1378
3.01 0.73872 16.1595
3.01 0.713546 16.1595
3.01 0.726124 16.1813
3.01 0.814318 16.2031
3.01 0.801709 16.1813
3.01 0.789096 16.2031
3.01 0.7765 16.1813
3.01 0.801709 16.1813
3.01 0.789115 16.1595
3.01 0.801709 16.1813
3.01 0.7765 16.1813
3.01 0.789096 16.2031
3.01 0.7765 16.1813
3.01 0.763892 16.2031
3.01 0.789096 16.2031
3.01 0.763892 16.2031
3.01 0.7765 16.1813
3.01 0.751305 16.1813
3.01 0.95 16.6475
3.01 0.95 16.6233
3.01 0.929061 16.6475
3.01 0.95 16.4454
3.01 0.941913 16.4232
3.01 0.926844 16.4454
3.01 0.941913 16.4232
3.01 0.95 16.4454
3.01 0.95 16.4009
3.01 0.926866 16.4009
3.01 0.941913 16.4232
3.01 0.95 16.4009
3.01 0.941974 16.3788
3.01 0.926866 16.4009
3.01 0.95 16.4009
3.01 0.95 16.3567
3.01 0.941974 16.3788
3.01 0.95 16.4009
3.01 0.941974 16.3788
3.01 0.95 16.3567
3.01 0.926895 16.3567
3.01 0.6127 16.6475
3.01 0.637734 16.6475
3.01 0.625238 16.625
3.01 0.662757 16.6475
3.01 0.650275 16.625
3.01 0.637734 16.6475
3.01 0.650275 16.625
3.01 0.625238 16.625
3.01 0.637734 16.6475
3.01 0.600415 16.1814
3.01 0.575304 16.1814
3.01 0.587856 16.2032
3.01 0.575304 16.1814
3.01 0.562749 16.2032
3.01 0.587856 16.2032
3.01 0.336827 15.7692
3.01 0.361946 15.7692
3.01 0.349395 15.7475
3.01 0.223755 15.7475
3.01 0.198629 15.7475
3.01 0.211137 15.7692
3.01 0.185985 15.7692
3.01 0.198492 15.7909
3.01 0.211137 15.7692
3.01 0.185806 15.8125
3.01 0.198492 15.7909
3.01 0.173316 15.7909
3.01 0.198492 15.7909
3.01 0.185985 15.7692
3.01 0.173316 15.7909
3.01 0.0576202 15.8555
3.01 0.05 15.8337
3.01 0.05 15.8773
3.01 0.05 15.8337
3.01 0.0576202 15.8555
3.01 0.0729308 15.8339
3.01 0.05 15.8337
3.01 0.0729308 15.8339
3.01 0.0577122 15.812
3.01 0.135283 15.8125
3.01 0.122979 15.7909
3.01 0.109875 15.8125
3.01 0.135283 15.8125
3.01 0.109875 15.8125
3.01 0.122678 15.8341
3.01 0.122979 15.7909
3.01 0.135283 15.8125
3.01 0.148138 15.7909
3.01 0.135283 15.8125
3.01 0.160572 15.8126
3.01 0.148138 15.7909
3.01 0.123433 15.7475
3.01 0.0985513 15.7475
3.01 0.110383 15.7692
3.01 0.110383 15.7692
3.01 0.0985513 15.7475
3.01 0.0848754 15.7691
3.01 0.0848754 15.7691
3.01 0.0985513 15.7475
3.01 0.073948 15.7475
3.01 0.0603641 16.602
3.01 0.0739464 16.5795
3.01 0.05 16.5803
3.01 0.0739464 16.5795
3.01 0.058509 16.5576
3.01 0.05 16.5803
3.01 0.058509 16.5576
3.01 0.0739464 16.5795
3.01 0.0849548 16.5571
3.01 0.058509 16.5576
3.01 0.0732725 16.5349
3.01 0.05 16.5351
3.01 0.0732725 16.5349
3.01 0.058509 16.5576
3.01 0.0849548 16.5571
3.01 0.5 16.625
3.01 0.47495 16.625
3.01 0.487476 16.6475
3.01 0.097663 16.2687
3.01 0.109814 16.2468
3.01 0.0841948 16.2468
3.01 0.0730539 16.2687
3.01 0.097663 16.2687
3.01 0.0841948 16.2468
3.01 0.0578646 16.2468
3.01 0.05 16.2687
3.01 0.0730539 16.2687
3.01 0.05 16.2687
3.01 0.0578646 16.2468
3.01 0.05 16.2249
3.01 0.05 16.4454
3.01 0.0580869 16.4232
3.01 0.05 16.4009
3.01 0.05 16.4009
3.01 0.073134 16.4009
3.01 0.0580261 16.3788
3.01 0.073134 16.4009
3.01 0.05 16.4009
3.01 0.0580869 16.4232
3.01 0.942268 15.9857
3.01 0.95 16.0074
3.01 0.95 15.964
3.01 0.942292 15.9424
3.01 0.927025 15.964
3.01 0.95 15.964
3.01 0.927025 15.964
3.01 0.915919 15.9857
3.01 0.942268 15.9857
3.01 0.95 15.964
3.01 0.927025 15.964
3.01 0.942268 15.9857
3.01 0.927013 16.0074
3.01 0.95 16.0074
3.01 0.942268 15.9857
3.01 0.915919 15.9857
3.01 0.927013 16.0074
3.01 0.942268 15.9857
3.01 0.801738 16.0943
3.01 0.826957 16.0942
3.01 0.814364 16.0725
3.01 0.852174 16.0942
3.01 0.839609 16.0725
3.01 0.826957 16.0942
3.01 0.839609 16.0725
3.01 0.814364 16.0725
3.01 0.826957 16.0942
3.01 0.776516 16.1377
3.01 0.763923 16.116
3.01 0.75132 16.1378
3.01 0.776516 16.1377
3.01 0.789115 16.1595
3.01 0.801725 16.1377
3.01 0.738704 16.2031
3.01 0.763892 16.2031
3.01 0.751305 16.1813
3.01 0.726124 16.1813
3.01 0.738704 16.2031
3.01 0.751305 16.1813
3.01 0.915617 16.4231
3.01 0.926866 16.4009
3.01 0.902228 16.4009
3.01 0.926866 16.4009
3.01 0.915617 16.4231
3.01 0.941913 16.4232
3.01 0.915617 16.4231
3.01 0.926844 16.4454
3.01 0.941913 16.4232
3.01 0.915617 16.4231
3.01 0.902193 16.4454
3.01 0.926844 16.4454
3.01 0.926866 16.4009
3.01 0.915668 16.3788
3.01 0.902228 16.4009
3.01 0.902267 16.3567
3.01 0.915668 16.3788
3.01 0.926895 16.3567
3.01 0.915668 16.3788
3.01 0.926866 16.4009
3.01 0.941974 16.3788
3.01 0.926895 16.3567
3.01 0.915668 16.3788
3.01 0.941974 16.3788
3.01 0.902267 16.3567
3.01 0.890059 16.3788
3.01 0.915668 16.3788
3.01 0.890059 16.3788
3.01 0.902228 16.4009
3.01 0.915668 16.3788
3.01 0.826927 16.1813
3.01 0.801709 16.1813
3.01 0.814318 16.2031
3.01 0.864816 16.2468
3.01 0.890186 16.2468
3.01 0.877308 16.2249
3.01 0.877308 16.2249
3.01 0.852122 16.2249
3.01 0.864816 16.2468
3.01 0.890186 16.2468
3.01 0.902362 16.2249
3.01 0.877308 16.2249
3.01 0.902362 16.2249
3.01 0.890186 16.2468
3.01 0.915805 16.2468
3.01 0.902362 16.2249
3.01 0.915805 16.2468
3.01 0.926964 16.2249
3.01 0.915835 16.2031
3.01 0.902362 16.2249
3.01 0.926964 16.2249
3.01 0.942171 16.2031
3.01 0.915835 16.2031
3.01 0.926964 16.2249
3.01 0.915835 16.2031
3.01 0.942171 16.2031
3.01 0.926978 16.1813
3.01 0.942171 16.2031
3.01 0.95 16.1813
3.01 0.926978 16.1813
3.01 0.87737 16.0508
3.01 0.902417 16.0508
3.01 0.890277 16.0291
3.01 0.852144 16.1813
3.01 0.864842 16.2031
3.01 0.877329 16.1813
3.01 0.877308 16.2249
3.01 0.864842 16.2031
3.01 0.852122 16.2249
3.01 0.902396 16.1377
3.01 0.890234 16.1595
3.01 0.915858 16.1595
3.01 0.926997 16.0942
3.01 0.95 16.0942
3.01 0.942237 16.0725
3.01 0.91589 16.0725
3.01 0.926997 16.0942
3.01 0.942237 16.0725
3.01 0.942199 16.1595
3.01 0.95 16.1813
3.01 0.95 16.1377
3.01 0.95 16.1813
3.01 0.942199 16.1595
3.01 0.926978 16.1813
3.01 0.942199 16.1595
3.01 0.915858 16.1595
3.01 0.926978 16.1813
3.01 0.95 16.0942
3.01 0.942221 16.116
3.01 0.95 16.1377
3.01 0.942221 16.116
3.01 0.95 16.0942
3.01 0.926997 16.0942
3.01 0.915876 16.116
3.01 0.942221 16.116
3.01 0.926997 16.0942
3.01 0.926989 16.1377
3.01 0.902396 16.1377
3.01 0.915858 16.1595
3.01 0.902396 16.1377
3.01 0.926989 16.1377
3.01 0.915876 16.116
3.01 0.926989 16.1377
3.01 0.915858 16.1595
3.01 0.942199 16.1595
3.01 0.95 16.1377
3.01 0.926989 16.1377
3.01 0.942199 16.1595
3.01 0.915876 16.116
3.01 0.926989 16.1377
3.01 0.942221 16.116
3.01 0.926989 16.1377
3.01 0.95 16.1377
3.01 0.942221 16.116
3.01 0.91353 16.6019
3.01 0.939636 16.602
3.01 0.926054 16.5795
3.01 0.926728 16.5349
3.01 0.941491 16.5576
3.01 0.95 16.5351
3.01 0.926728 16.5349
3.01 0.95 16.5351
3.01 0.941822 16.5125
3.01 0.95 16.5803
3.01 0.939636 16.602
3.01 0.95 16.6233
3.01 0.95 16.5803
3.01 0.941491 16.5576
3.01 0.926054 16.5795
3.01 0.939636 16.602
3.01 0.95 16.5803
3.01 0.926054 16.5795
3.01 0.941491 16.5576
3.01 0.95 16.5803
3.01 0.95 16.5351
3.01 0.941869 16.4677
3.01 0.95 16.4454
3.01 0.926844 16.4454
3.01 0.762942 16.6023
3.01 0.737933 16.6023
3.01 0.75028 16.6249
3.01 0.71291 16.6024
3.01 0.737933 16.6023
3.01 0.725533 16.5799
3.01 0.71291 16.6024
3.01 0.725313 16.6249
3.01 0.737933 16.6023
3.01 0.725313 16.6249
[...]
<PointData Scalars="View Factor" >
<DataArray type="Float64" Name="View Factor" NumberOfComponents="1" format="ascii">
0.000955938
0.000955938
0.000955938
0.00161301
0.00161301
0.00161301
0.0015922
0.0015922
0.0015922
0.00160653
0.00160653
0.00160653
0.00161353
0.00161353
0.00161353
0.00160605
0.00160605
0.00160605
0.00161241
0.00161241
0.00161241
0.0016055
0.0016055
0.0016055
0.00159311
0.00159311
0.00159311
0.00100877
0.00100877
0.00100877
0.00160696
0.00160696
0.00160696
0.00159173
0.00159173
0.00159173
0.00158488
0.00158488
0.00158488
0.00159119
0.00159119
0.00159119
0.00156307
0.00156307
0.00156307
0.00158437
0.00158437
0.00158437
0.00157031
0.00157031
0.00157031
0.00160486
0.00160486
0.00160486
0.00158532
0.00158532
0.00158532
0.00157127
0.00157127
0.00157127
0.00158575
0.00158575
0.00158575
0.00159263
0.00159263
0.00159263
0.00154365
0.00154365
0.00154365
0.00156503
0.00156503
0.00156503
0.00155122
0.00155122
0.00155122
0.00157171
0.00157171
0.00157171
0.00156453
0.00156453
0.00156453
0.0015441
0.0015441
0.0015441
0.00155073
0.00155073
0.00155073
0.0016147
0.0016147
0.0016147
0.00160738
0.00160738
0.00160738
0.000984475
0.000984475
0.000984475
0.000976592
0.000976592
0.000976592
0.000964373
0.000964373
0.000964373
0.000968485
0.000968485
0.000968485
0.00114342
0.00114342
0.00114342
0.00120734
0.00120734
0.00120734
0.0011974
0.0011974
0.0011974
0.00111505
0.00111505
0.00111505
0.00138783
0.00138783
0.00138783
0.00142419
0.00142419
0.00142419
0.00124935
0.00124935
0.00124935
0.00122849
0.00122849
0.00122849
0.00124498
0.00124498
0.00124498
0.00123454
0.00123454
0.00123454
0.00120866
0.00120866
0.00120866
0.00122489
0.00122489
0.00122489
0.00121466
0.00121466
0.00121466
0.00121048
0.00121048
0.00121048
0.00121647
0.00121647
0.00121647
0.00093559
0.00093559
0.00093559
0.00104483
0.00104483
0.00104483
0.00105291
0.00105291
0.00105291
0.00106218
0.00106218
0.00106218
0.00107097
0.00107097
0.00107097
0.00107925
0.00107925
0.00107925
0.00108878
0.00108878
0.00108878
0.000951339
0.000951339
0.000951339
0.000950302
0.000950302
0.000950302
0.000954716
0.000954716
0.000954716
0.00122755
0.00122755
0.00122755
0.00122308
0.00122308
0.00122308
0.00159919
0.00159919
0.00159919
0.00161172
0.00161172
0.00161172
0.00159056
0.00159056
0.00159056
0.00156974
0.00156974
0.00156974
0.00158379
0.00158379
0.00158379
0.00151741
0.00151741
0.00151741
0.00153085
0.00153085
0.00153085
0.00154453
0.00154453
0.00154453
0.00156408
0.00156408
0.00156408
0.00155027
0.00155027
0.00155027
0.00157082
0.00157082
0.00157082
0.0015636
0.0015636
0.0015636
0.00161396
0.00161396
0.00161396
0.00160694
0.00160694
0.00160694
0.00161433
0.00161433
0.00161433
0.000992387
0.000992387
0.000992387
0.00100053
0.00100053
0.00100053
0.00100475
0.00100475
0.00100475
0.00101723
0.00101723
0.00101723
0.00101305
0.00101305
0.00101305
0.000960264
0.000960264
0.000960264
0.00119721
0.00119721
0.00119721
0.00119228
0.00119228
0.00119228
0.00119244
0.00119244
0.00119244
0.00120256
0.00120256
0.00120256
0.00108744
0.00108744
0.00108744
0.00110574
0.00110574
0.00110574
0.00109654
0.00109654
0.00109654
0.00135263
0.00135263
0.00135263
0.00137677
0.00137677
0.00137677
0.00136037
0.00136037
0.00136037
0.00136503
0.00136503
0.00136503
0.00134192
0.00134192
0.00134192
0.0013488
0.0013488
0.0013488
0.00128639
0.00128639
0.00128639
0.0012843
0.0012843
0.0012843
0.0012908
0.0012908
0.0012908
0.00125809
0.00125809
0.00125809
0.00124565
0.00124565
0.00124565
0.00121225
0.00121225
0.00121225
0.00121822
0.00121822
0.00121822
0.00106394
0.00106394
0.00106394
0.00105863
0.00105863
0.00105863
0.00104995
0.00104995
0.00104995
0.00104655
0.00104655
0.00104655
0.00107274
0.00107274
0.00107274
0.00109059
0.00109059
0.00109059
0.00107622
0.00107622
0.00107622
0.00108514
0.00108514
0.00108514
0.00108698
0.00108698
0.00108698
0.00107805
0.00107805
0.00107805
0.00121279
0.00121279
0.00121279
0.00117312
0.00117312
0.00117312
0.00117899
0.00117899
0.00117899
0.00117703
0.00117703
0.00117703
0.00117113
0.00117113
0.00117113
0.00117503
0.00117503
0.00117503
0.00118485
0.00118485
0.00118485
0.0011887
0.0011887
0.0011887
0.00119865
0.00119865
0.00119865
0.00120269
0.00120269
0.00120269
0.00131285
0.00131285
0.00131285
0.00120889
0.00120889
0.00120889
0.00118886
0.00118886
0.00118886
0.00123129
0.00123129
0.00123129
0.00127539
0.00127539
0.00127539
0.00128185
0.00128185
0.00128185
0.00122227
0.00122227
0.00122227
0.00121277
0.00121277
0.00121277
0.00121884
0.00121884
0.00121884
0.0012534
0.0012534
0.0012534
0.00126469
0.00126469
0.00126469
0.00126042
0.00126042
0.00126042
0.0012354
0.0012354
0.0012354
0.00124581
0.00124581
0.00124581
0.00122908
0.00122908
0.00122908
0.00123323
0.00123323
0.00123323
0.00124987
0.00124987
0.00124987
0.00124362
0.00124362
0.00124362
0.000959681
0.000959681
0.000959681
0.000986401
0.000986401
0.000986401
0.00099453
0.00099453
0.00099453
0.000954593
0.000954593
0.000954593
0.000970436
0.000970436
0.000970436
0.000962688
0.000962688
0.000962688
0.000977784
0.000977784
0.000977784
0.00103627
0.00103627
0.00103627
0.000961385
0.000961385
0.000961385
0.000970498
0.000970498
0.000970498
0.000962582
0.000962582
0.000962582
0.000958058
0.000958058
0.000958058
0.000946966
0.000946966
0.000946966
0.000950254
0.000950254
0.000950254
0.000945782
0.000945782
0.000945782
0.00100177
0.00100177
0.00100177
0.00098655
0.00098655
0.00098655
0.000975079
0.000975079
0.000975079
0.000983111
0.000983111
0.000983111
0.000977371
0.000977371
0.000977371
0.000985429
0.000985429
0.000985429
0.000963587
0.000963587
0.000963587
0.000955738
0.000955738
0.000955738
0.000952337
0.000952337
0.000952337
0.00125007
0.00125007
0.00125007
0.0012217
0.0012217
0.0012217
0.00119389
0.00119389
0.00119389
0.00118265
0.00118265
0.00118265
0.00119261
0.00119261
0.00119261
0.00119828
0.00119828
0.00119828
0.00121282
0.00121282
0.00121282
0.00120839
0.00120839
0.00120839
0.00118391
0.00118391
0.00118391
0.00117833
0.00117833
0.00117833
0.00112594
0.00112594
0.00112594
0.00118698
0.00118698
0.00118698
0.00119272
0.00119272
0.00119272
0.00119858
0.00119858
0.00119858
0.00117873
0.00117873
0.00117873
0.00160912
0.00160912
0.00160912
0.00161008
0.00161008
0.00161008
0.00160242
0.00160242
0.00160242
0.00158816
0.00158816
0.00158816
0.00157409
0.00157409
0.00157409
0.00127757
0.00127757
0.00127757
0.00125619
0.00125619
0.00125619
0.00127316
0.00127316
0.00127316
0.00126246
0.00126246
0.00126246
0.00126434
0.00126434
0.00126434
0.00125993
0.00125993
0.00125993
0.00158062
0.00158062
0.00158062
0.00160574
0.00160574
0.00160574
0.00158681
0.00158681
0.00158681
0.00140253
0.00140253
0.00140253
0.00140908
0.00140908
0.00140908
0.0015585
0.0015585
0.0015585
0.00160059
0.00160059
0.00160059
0.00158634
0.00158634
0.00158634
0.00157229
0.00157229
0.00157229
0.00100064
0.00100064
0.00100064
0.000956739
0.000956739
0.000956739
0.00113385
0.00113385
0.00113385
0.00112439
0.00112439
0.00112439
0.00118229
0.00118229
0.00118229
0.00150117
0.00150117
0.00150117
0.0011335
0.0011335
0.0011335
0.00112405
0.00112405
0.00112405
0.00121232
0.00121232
0.00121232
0.00120708
0.00120708
0.00120708
0.00122283
0.00122283
0.00122283
0.00121255
0.00121255
0.00121255
0.00121271
0.00121271
0.00121271
0.00120754
0.00120754
0.00120754
0.00123341
0.00123341
0.00123341
0.00122299
0.00122299
0.00122299
0.0012281
0.0012281
0.0012281
0.00123853
0.00123853
0.00123853
0.00124386
0.00124386
0.00124386
0.00121905
0.00121905
0.00121905
0.00122313
0.00122313
0.00122313
0.00134437
0.00134437
0.00134437
0.00127556
0.00127556
0.00127556
0.00127119
0.00127119
0.00127119
0.00126051
0.00126051
0.00126051
0.00128866
0.00128866
0.00128866
0.00128214
0.00128214
0.00128214
0.00131959
0.00131959
0.00131959
0.00138388
0.00138388
0.00138388
0.00136012
0.00136012
0.00136012
0.00124753
0.00124753
0.00124753
0.00122672
0.00122672
0.00122672
0.00123097
0.00123097
0.00123097
0.00124136
0.00124136
0.00124136
0.0012432
0.0012432
0.0012432
0.00123278
0.00123278
0.00123278
0.00120214
0.00120214
0.00120214
0.00119796
0.00119796
0.00119796
0.00121397
0.00121397
0.00121397
0.00120383
0.00120383
0.00120383
0.00117556
0.00117556
0.00117556
0.00116988
0.00116988
0.00116988
0.00120276
0.00120276
0.00120276
0.00116144
0.00116144
0.00116144
0.0010924
0.0010924
0.0010924
0.00110324
0.00110324
0.00110324
0.00110146
0.00110146
0.00110146
0.00110692
0.00110692
0.00110692
0.000972651
0.000972651
0.000972651
0.000969291
0.000969291
0.000969291
0.000973881
0.000973881
0.000973881
0.0009819
0.0009819
0.0009819
0.00101824
0.00101824
0.00101824
0.000989448
0.000989448
0.000989448
0.000981388
0.000981388
0.000981388
0.00102589
0.00102589
0.00102589
0.00101897
0.00101897
0.00101897
0.00102934
0.00102934
0.00102934
0.00125422
0.00125422
0.00125422
0.00120677
0.00120677
0.00120677
0.00121087
0.00121087
0.00121087
0.00120484
0.00120484
0.00120484
0.00119481
0.00119481
0.00119481
0.0011653
0.0011653
0.0011653
0.00117504
0.00117504
0.00117504
0.00120478
0.00120478
0.00120478
0.00121699
0.00121699
0.00121699
0.00121489
0.00121489
0.00121489
0.00122102
0.00122102
0.00122102
0.00118281
0.00118281
0.00118281
0.00119204
0.00119204
0.00119204
0.00125214
0.00125214
0.00125214
0.00127137
0.00127137
0.00127137
0.00126493
0.00126493
0.00126493
0.0012951
0.0012951
0.0012951
0.00128646
0.00128646
0.00128646
0.00130177
0.00130177
0.00130177
0.00129739
0.00129739
0.00129739
0.00131724
0.00131724
0.00131724
0.00132848
0.00132848
0.00132848
0.00133297
0.00133297
0.00133297
0.000956287
0.000956287
0.000956287
0.000965474
0.000965474
0.000965474
0.0009476
0.0009476
0.0009476
0.000952013
0.000952013
0.000952013
0.000940065
0.000940065
0.000940065
0.000964399
0.000964399
0.000964399
0.000988143
0.000988143
0.000988143
0.000972233
0.000972233
0.000972233
0.000975262
0.000975262
0.000975262
0.000983197
0.000983197
0.000983197
0.00100579
0.00100579
0.00100579
0.0010175
0.0010175
0.0010175
0.00101407
0.00101407
0.00101407
0.00101258
0.00101258
0.00101258
0.00103797
0.00103797
0.00103797
0.00103281
0.00103281
0.00103281
0.000999416
0.000999416
0.000999416
0.000996234
0.000996234
0.000996234
0.000972814
0.000972814
0.000972814
0.000971673
0.000971673
0.000971673
0.000976243
0.000976243
0.000976243
0.000948115
0.000948115
0.000948115
0.000951423
0.000951423
0.000951423
0.000959235
0.000959235
0.000959235
0.000963746
0.000963746
0.000963746
0.00094527
0.00094527
0.00094527
0.00095761
0.00095761
0.00095761
0.00095305
0.00095305
0.00095305
0.000942042
0.000942042
0.000942042
0.00095685
0.00095685
0.00095685
0.000949052
0.000949052
0.000949052
0.000994686
0.000994686
0.000994686
0.000999399
0.000999399
0.000999399
0.00106014
0.00106014
0.00106014
0.00106388
0.00106388
0.00106388
0.00103516
0.00103516
0.00103516
0.00100766
0.00100766
0.00100766
0.00101118
0.00101118
0.00101118
0.00101006
0.00101006
0.00101006
0.00103158
0.00103158
0.00103158
0.00102311
0.00102311
0.00102311
0.00101955
0.00101955
0.00101955
0.0010244
0.0010244
0.0010244
0.000987752
0.000987752
0.000987752
0.000997082
0.000997082
0.000997082
0.000988917
0.000988917
0.000988917
0.000984288
0.000984288
0.000984288
0.0010006
0.0010006
0.0010006
0.000995902
0.000995902
0.000995902
0.000973919
0.000973919
0.000973919
0.00096597
0.00096597
0.00096597
0.000962555
0.000962555
0.000962555
0.000967027
0.000967027
0.000967027
0.000990046
0.000990046
0.000990046
0.000998225
0.000998225
0.000998225
0.0010029
0.0010029
0.0010029
0.00108283
0.00108283
0.00108283
0.00109187
0.00109187
0.00109187
0.00128356
0.00128356
0.00128356
0.00124073
0.00124073
0.00124073
0.00128936
0.00128936
0.00128936
0.0012842
0.0012842
0.0012842
0.00123517
0.00123517
0.00123517
0.00124533
0.00124533
0.00124533
0.00125113
0.00125113
0.00125113
0.00119943
0.00119943
0.00119943
0.001204
0.001204
0.001204
0.00121313
0.00121313
0.00121313
0.00118939
0.00118939
0.00118939
0.00118487
0.00118487
0.00118487
0.00117496
0.00117496
0.00117496
0.00116958
0.00116958
0.00116958
0.00122614
0.00122614
0.00122614
0.00121146
0.00121146
0.00121146
0.00120707
0.00120707
0.00120707
0.00119697
0.00119697
0.00119697
0.00119128
0.00119128
0.00119128
0.00115541
0.00115541
0.00115541
0.00115981
0.00115981
0.00115981
0.00117956
0.00117956
0.00117956
0.0011685
0.0011685
0.0011685
0.00119843
0.00119843
0.00119843
0.00120296
0.00120296
0.00120296
0.00115249
0.00115249
0.00115249
0.00115679
0.00115679
0.00115679
0.00117856
0.00117856
0.00117856
0.00118847
0.00118847
0.00118847
0.00116894
0.00116894
0.00116894
0.00109535
0.00109535
0.00109535
0.00161094
0.00161094
0.00161094
0.00160332
0.00160332
0.00160332
0.00160414
0.00160414
0.00160414
0.00143743
0.00143743
0.00143743
0.0014618
0.0014618
0.0014618
0.00144997
0.00144997
0.00144997
0.00157867
0.00157867
0.00157867
0.00157225
0.00157225
0.00157225
0.00157989
0.00157989
0.00157989
0.00127952
0.00127952
0.00127952
0.00127507
0.00127507
0.00127507
0.00128141
0.00128141
0.00128141
0.00129231
0.00129231
0.00129231
0.00126617
0.00126617
0.00126617
0.00127692
0.00127692
0.00127692
0.00160143
0.00160143
0.00160143
0.00158719
0.00158719
0.00158719
0.00160808
0.00160808
0.00160808
0.00160036
0.00160036
0.00160036
0.00158498
0.00158498
0.00158498
0.00157733
0.00157733
0.00157733
0.00156336
0.00156336
0.00156336
0.00156212
0.00156212
0.00156212
0.00155583
0.00155583
0.00155583
0.00153588
0.00153588
0.00153588
0.0015421
0.0015421
0.0015421
0.00160159
0.00160159
0.00160159
0.00158084
0.00158084
0.00158084
0.00139045
0.00139045
0.00139045
0.00136666
0.00136666
0.00136666
0.0015685
0.0015685
0.0015685
0.00158154
0.00158154
0.00158154
0.00156751
0.00156751
0.00156751
0.00158905
0.00158905
0.00158905
0.00105435
0.00105435
0.00105435
0.00103599
0.00103599
0.00103599
0.00101192
0.00101192
0.00101192
0.0010123
0.0010123
0.0010123
0.00101632
0.00101632
0.00101632
0.00103778
0.00103778
0.00103778
0.00102477
0.00102477
0.00102477
0.00102921
0.00102921
0.00102921
0.00101592
0.00101592
0.00101592
0.00100472
0.00100472
0.00100472
0.00102574
0.00102574
0.00102574
0.00103432
0.00103432
0.00103432
0.00096105
0.00096105
0.00096105
0.000981361
0.000981361
0.000981361
0.000973328
0.000973328
0.000973328
0.000968959
0.000968959
0.000968959
0.000997663
0.000997663
0.000997663
0.00098282
0.00098282
0.00098282
0.000974768
0.000974768
0.000974768
0.00113837
0.00113837
0.00113837
0.0011337
0.0011337
0.0011337
0.00113855
0.00113855
0.00113855
0.00111031
0.00111031
0.00111031
0.00111964
0.00111964
0.00111964
0.0011056
0.0011056
0.0011056
0.00111014
0.00111014
0.00111014
0.00112425
0.00112425
0.00112425
0.00111946
0.00111946
0.00111946
0.00117723
0.00117723
0.00117723
0.00116713
0.00116713
0.00116713
0.00117258
0.00117258
0.00117258
0.00118245
0.00118245
0.00118245
0.00117742
0.00117742
0.00117742
0.00150397
0.00150397
0.00150397
0.00140732
0.00140732
0.00140732
0.001432
0.001432
0.001432
0.00136832
0.00136832
0.00136832
0.00135659
0.00135659
0.00135659
0.00136642
0.00136642
0.00136642
0.00133163
0.00133163
0.00133163
0.00132023
0.00132023
0.00132023
0.00140233
0.00140233
0.00140233
0.00141431
0.00141431
0.00141431
0.00142666
0.00142666
0.00142666
0.00141451
0.00141451
0.00141451
0.0014083
0.0014083
0.0014083
0.00141365
0.00141365
0.00141365
0.001426
0.001426
0.001426
0.00144531
0.00144531
0.00144531
0.00143276
0.00143276
0.00143276
0.00142637
0.00142637
0.00142637
0.00143242
0.00143242
0.00143242
0.00148803
0.00148803
0.00148803
0.0011054
0.0011054
0.0011054
0.0010962
0.0010962
0.0010962
0.00119206
0.00119206
0.00119206
0.00119695
0.00119695
0.00119695
0.00118207
0.00118207
0.00118207
0.00117698
0.00117698
0.00117698
0.00121203
0.00121203
0.00121203
0.0012979
0.0012979
0.0012979
0.00130333
0.00130333
0.00130333
0.00130898
0.00130898
0.00130898
0.0013088
0.0013088
0.0013088
0.00130311
0.00130311
0.00130311
0.00124369
0.00124369
0.00124369
0.00125427
0.00125427
0.00125427
0.0012914
0.0012914
0.0012914
0.0012226
0.0012226
0.0012226
0.00124345
0.00124345
0.00124345
0.0012279
0.0012279
0.0012279
0.00123833
0.00123833
0.00123833
0.00137877
0.00137877
0.00137877
0.00136698
0.00136698
0.00136698
0.00130179
0.00130179
0.00130179
0.00133537
0.00133537
0.00133537
0.00133086
0.00133086
0.00133086
0.00130403
0.00130403
0.00130403
0.00131515
0.00131515
0.00131515
0.00129962
0.00129962
0.00129962
0.00130624
0.00130624
0.00130624
0.00130839
0.00130839
0.00130839
0.00131955
0.00131955
0.00131955
0.00136755
0.00136755
0.00136755
0.00137932
0.00137932
0.00137932
0.00119625
0.00119625
0.00119625
0.00120039
0.00120039
0.00120039
0.00119449
0.00119449
0.00119449
0.00118455
0.00118455
0.00118455
0.00118048
0.00118048
0.00118048
0.00118629
0.00118629
0.00118629
0.00119962
0.00119962
0.00119962
0.00118961
0.00118961
0.00118961
0.00119119
0.00119119
0.00119119
0.00118544
0.00118544
0.00118544
0.00121992
0.00121992
0.00121992
0.00123624
0.00123624
0.00123624
0.00123021
0.00123021
0.00123021
0.00117708
0.00117708
0.00117708
0.00117142
0.00117142
0.00117142
0.00117291
0.00117291
0.00117291
0.00110984
0.00110984
0.00110984
0.00110067
0.00110067
0.00110067
0.00114608
0.00114608
0.00114608
0.00115566
0.00115566
0.00115566
0.0011634
0.0011634
0.0011634
0.00115761
0.00115761
0.00115761
0.00115953
0.00115953
0.00115953
0.00114993
0.00114993
0.00114993
0.00111427
0.00111427
0.00111427
0.00109964
0.00109964
0.00109964
0.00110509
0.00110509
0.00110509
0.0010745
0.0010745
0.0010745
0.00105171
0.00105171
0.00105171
0.00106041
0.00106041
0.00106041
0.00106568
0.00106568
0.00106568
0.00106214
0.00106214
0.00106214
0.00103784
0.00103784
0.00103784
0.000979376
0.000979376
0.000979376
0.000970091
0.000970091
0.000970091
0.000978059
0.000978059
0.000978059
0.000982737
0.000982737
0.000982737
0.000984044
0.000984044
0.000984044
0.000985314
0.000985314
0.000985314
0.000980655
0.000980655
0.000980655
0.000992147
0.000992147
0.000992147
0.000976699
0.000976699
0.000976699
0.000964127
0.000964127
0.000964127
0.000968754
0.000968754
0.000968754
0.000979987
0.000979987
0.000979987
0.00100238
0.00100238
0.00100238
0.000994203
0.000994203
0.000994203
0.00099082
0.00099082
0.00099082
0.000995562
0.000995562
0.000995562
0.00103454
0.00103454
0.00103454
0.00102607
0.00102607
0.00102607
0.00102433
0.00102433
0.00102433
0.00101596
0.00101596
0.00101596
0.00102271
0.00102271
0.00102271
0.00102774
0.00102774
0.00102774
0.00124371
0.00124371
0.00124371
0.001223
0.001223
0.001223
0.0012291
0.0012291
0.0012291
0.00123947
0.00123947
0.00123947
0.00122105
0.00122105
0.00122105
0.00124172
0.00124172
0.00124172
0.00122717
0.00122717
0.00122717
0.00123751
0.00123751
0.00123751
0.00122518
0.00122518
0.00122518
0.0012355
0.0012355
0.0012355
0.00126917
0.00126917
0.00126917
0.00125851
0.00125851
0.00125851
0.0012522
0.0012522
0.0012522
0.00127349
0.00127349
0.00127349
0.00126708
0.00126708
0.00126708
0.00125645
0.00125645
0.00125645
0.0011809
0.0011809
0.0011809
0.00119267
0.00119267
0.00119267
0.00118275
0.00118275
0.00118275
0.00117691
0.00117691
0.00117691
0.00119673
0.00119673
0.00119673
0.00119079
0.00119079
0.00119079
0.00118688
0.00118688
0.00118688
0.00119284
0.00119284
0.00119284
0.0011908
0.0011908
0.0011908
0.00120078
0.00120078
0.00120078
0.00120284
0.00120284
0.00120284
0.00120686
0.00120686
0.00120686
0.00116908
0.00116908
0.00116908
0.00117301
0.00117301
0.00117301
0.00116267
0.00116267
0.00116267
0.00115368
0.00115368
0.00115368
0.00115941
0.00115941
0.00115941
0.00123967
0.00123967
0.00123967
0.00125013
0.00125013
0.00125013
0.00123756
0.00123756
0.00123756
0.00123343
0.00123343
0.00123343
0.00124799
0.00124799
0.00124799
0.00125432
0.00125432
0.00125432
0.00127767
0.00127767
0.00127767
0.00128419
0.00128419
0.00128419
0.00126694
0.00126694
0.00126694
0.00126271
0.00126271
0.00126271
0.00126918
0.00126918
0.00126918
0.00127993
0.00127993
0.00127993
0.00133054
0.00133054
0.00133054
0.00132602
0.00132602
0.00132602
0.00128547
0.00128547
0.00128547
0.00131853
0.00131853
0.00131853
0.000936814
0.000936814
0.000936814
0.000967368
0.000967368
0.000967368
0.000975283
0.000975283
0.000975283
0.000984942
0.000984942
0.000984942
0.000976968
0.000976968
0.000976968
0.000986527
0.000986527
0.000986527