<VTKFile type="UnstructuredGrid" version="1.0">
<UnstructuredGrid>
<Piece NumberOfPoints="8859" NumberOfCells="2953">
<Points>
<DataArray type="Float64" NumberOfComponents="3" format="ascii">
2.04744 2.20956 18.6776
2.06275 2.19425 18.6896
2.04754 2.20946 18.7033
2.07804 2.17896 18.6267
2.07805 2.17895 18.6015
2.0934 2.1636 18.614
2.06271 2.19429 18.6394
2.07804 2.17896 18.6267
2.07804 2.17896 18.6519
2.01701 2.23999 18.7299
2.03242 2.22458 18.7375
2.00164 2.25536 18.7375
2.01701 2.23999 18.7299
2.03232 2.22468 18.7146
2.03242 2.22458 18.7375
2.04777 2.20923 18.7298
2.06326 2.19374 18.7375
2.03242 2.22458 18.7375
2.04777 2.20923 18.7298
2.03232 2.22468 18.7146
2.04754 2.20946 18.7033
2.03242 2.22458 18.7375
2.03232 2.22468 18.7146
2.04777 2.20923 18.7298
2.04754 2.20946 18.7033
2.06275 2.19425 18.6896
2.06287 2.19413 18.7143
2.06287 2.19413 18.7143
2.04777 2.20923 18.7298
2.04754 2.20946 18.7033
2.06326 2.19374 18.7375
2.04777 2.20923 18.7298
2.06287 2.19413 18.7143
2.06275 2.19425 18.6896
2.04744 2.20956 18.6776
2.06271 2.19429 18.6645
2.06271 2.19429 18.6394
2.07804 2.17896 18.6519
2.06271 2.19429 18.6645
2.07809 2.17891 18.7026
2.06287 2.19413 18.7143
2.06275 2.19425 18.6896
2.0934 2.1636 18.6889
2.0934 2.1636 18.7136
2.07809 2.17891 18.7026
2.0934 2.1636 18.5889
2.0934 2.1636 18.614
2.07805 2.17895 18.6015
2.07804 2.17896 18.6267
2.0934 2.1636 18.614
2.0934 2.1636 18.6391
2.0934 2.1636 18.6391
2.07804 2.17896 18.6519
2.07804 2.17896 18.6267
2.0934 2.1636 18.0615
2.0934 2.1636 18.0867
2.07807 2.17893 18.0741
2.07807 2.17893 18.5261
2.0934 2.1636 18.5386
2.07806 2.17894 18.5512
2.0934 2.1636 18.5135
2.0934 2.1636 18.5386
2.07807 2.17893 18.5261
2.07808 2.17892 18.4004
2.0934 2.1636 18.413
2.07808 2.17892 18.4256
1.61564 2.64136 17.8456
1.63134 2.62566 17.8375
1.63134 2.62566 17.8606
1.5683 2.6887 18.7375
1.53648 2.72052 18.7375
1.55243 2.70457 18.7293
2.07804 2.17896 18.6771
2.06271 2.19429 18.6645
2.07804 2.17896 18.6519
2.06275 2.19425 18.6896
2.06271 2.19429 18.6645
2.07804 2.17896 18.6771
2.07804 2.17896 18.6771
2.07809 2.17891 18.7026
2.06275 2.19425 18.6896
2.0934 2.1636 18.6889
2.07809 2.17891 18.7026
2.07804 2.17896 18.6771
2.07833 2.17867 18.7288
2.0934 2.1636 18.7136
2.0934 2.1636 18.7375
2.07833 2.17867 18.7288
2.07809 2.17891 18.7026
2.0934 2.1636 18.7136
2.0934 2.1636 18.7375
2.06326 2.19374 18.7375
2.07833 2.17867 18.7288
2.06326 2.19374 18.7375
2.06287 2.19413 18.7143
2.07833 2.17867 18.7288
2.06287 2.19413 18.7143
2.07809 2.17891 18.7026
2.07833 2.17867 18.7288
2.07806 2.17894 18.5512
2.0934 2.1636 18.5386
2.0934 2.1636 18.5637
2.07804 2.17896 18.6519
2.0934 2.1636 18.6391
2.0934 2.1636 18.6641
2.0934 2.1636 18.6889
2.07804 2.17896 18.6771
2.0934 2.1636 18.6641
2.0934 2.1636 18.6641
2.07804 2.17896 18.6771
2.07804 2.17896 18.6519
2.0934 2.1636 18.3879
2.0934 2.1636 18.413
2.07808 2.17892 18.4004
2.07807 2.17893 18.0741
2.0934 2.1636 18.0867
2.07807 2.17893 18.0992
2.06275 2.19425 18.5135
2.04743 2.20957 18.501
2.06275 2.19425 18.4884
2.07806 2.17894 18.5764
2.0934 2.1636 18.5889
2.07805 2.17895 18.6015
2.07806 2.17894 18.5764
2.0934 2.1636 18.5637
2.0934 2.1636 18.5889
2.07806 2.17894 18.5764
2.06273 2.19427 18.5638
2.07806 2.17894 18.5512
2.07806 2.17894 18.5512
2.0934 2.1636 18.5637
2.07806 2.17894 18.5764
2.06271 2.19429 18.6142
2.07804 2.17896 18.6267
2.06271 2.19429 18.6394
2.06271 2.19429 18.6142
2.07805 2.17895 18.6015
2.07804 2.17896 18.6267
2.04741 2.20959 18.5765
2.03209 2.22491 18.5891
2.0321 2.2249 18.5639
1.83285 2.42415 18.7034
1.81747 2.43953 18.6899
1.83285 2.42415 18.6777
1.78664 2.47036 18.5388
1.78664 2.47036 18.564
1.77121 2.48579 18.5514
2.0934 2.1636 17.8375
2.0934 2.1636 17.8614
2.07833 2.17867 17.8462
1.56833 2.68867 18.7143
1.5683 2.6887 18.7375
1.55243 2.70457 18.7293
1.63134 2.62566 18.6395
1.61565 2.64135 18.6521
1.61564 2.64136 18.6269
1.55243 2.70457 18.7293
1.53648 2.72052 18.7375
1.53664 2.72036 18.7142
2.06276 2.19424 18.162
2.04745 2.20955 18.1494
2.06276 2.19424 18.1369
2.0934 2.1636 18.3126
2.07808 2.17892 18.3
2.0934 2.1636 18.2875
2.07808 2.17892 18.3502
2.0934 2.1636 18.3377
2.0934 2.1636 18.3628
2.06277 2.19423 18.2624
2.04745 2.20955 18.275
2.04745 2.20955 18.2499
2.06277 2.19423 18.2875
2.04745 2.20955 18.275
2.06277 2.19423 18.2624
2.07808 2.17892 18.3
2.06277 2.19423 18.3126
2.06277 2.19423 18.2875
2.04745 2.20955 18.4256
2.06276 2.19424 18.4381
2.04744 2.20956 18.4507
2.01682 2.24018 18.4005
2.01682 2.24018 18.4256
2.0015 2.2555 18.413
2.04745 2.20955 18.4005
2.03214 2.22486 18.3879
2.04745 2.20955 18.3753
2.04745 2.20955 18.3753
2.06277 2.19423 18.3879
2.04745 2.20955 18.4005
2.03214 2.22486 18.3879
2.03214 2.22486 18.3628
2.04745 2.20955 18.3753
2.04745 2.20955 18.3753
2.03214 2.22486 18.3628
2.04745 2.20955 18.3502
2.0934 2.1636 18.3628
2.0934 2.1636 18.3879
2.07808 2.17892 18.3753
2.07808 2.17892 18.3753
2.07808 2.17892 18.3502
2.0934 2.1636 18.3628
2.07808 2.17892 18.3753
2.0934 2.1636 18.3879
2.07808 2.17892 18.4004
2.07808 2.17892 18.4004
2.06277 2.19423 18.3879
2.07808 2.17892 18.3753
2.04744 2.20956 18.4758
2.03213 2.22487 18.4633
2.04744 2.20956 18.4507
2.04744 2.20956 18.4758
2.06275 2.19425 18.4884
2.04743 2.20957 18.501
2.0015 2.2555 18.4633
2.01681 2.24019 18.4507
2.01681 2.24019 18.4759
2.01681 2.24019 18.4759
2.01681 2.24019 18.4507
2.03213 2.22487 18.4633
2.0934 2.1636 18.4381
2.07808 2.17892 18.4256
2.0934 2.1636 18.413
2.04744 2.20956 18.4507
2.06276 2.19424 18.4381
2.06276 2.19424 18.4632
2.06276 2.19424 18.4632
2.04744 2.20956 18.4758
2.04744 2.20956 18.4507
2.06275 2.19425 18.4884
2.04744 2.20956 18.4758
2.06276 2.19424 18.4632
2.07806 2.17894 18.5512
2.06273 2.19427 18.5638
2.06274 2.19426 18.5387
2.06274 2.19426 18.5387
2.07807 2.17893 18.5261
2.07806 2.17894 18.5512
2.06275 2.19425 18.5135
2.07807 2.17893 18.5261
2.06274 2.19426 18.5387
2.0321 2.2249 18.5639
2.03211 2.22489 18.5388
2.04742 2.20958 18.5513
2.04742 2.20958 18.5513
2.04741 2.20959 18.5765
2.0321 2.2249 18.5639
2.06273 2.19427 18.5638
2.04741 2.20959 18.5765
2.04742 2.20958 18.5513
2.04742 2.20958 18.5513
2.06274 2.19426 18.5387
2.06273 2.19427 18.5638
2.01679 2.24021 18.5514
2.03211 2.22489 18.5388
2.0321 2.2249 18.5639
2.01679 2.24021 18.5514
2.00148 2.25552 18.564
2.00148 2.25552 18.5388
2.06271 2.19429 18.6394
2.06271 2.19429 18.6645
2.04741 2.20959 18.6522
2.04741 2.20959 18.6522
2.06271 2.19429 18.6645
2.04744 2.20956 18.6776
2.03209 2.22491 18.5891
2.04741 2.20959 18.5765
2.0474 2.2096 18.6017
2.0474 2.2096 18.6017
2.03209 2.22491 18.6144
2.03209 2.22491 18.5891
1.97087 2.28613 18.4382
1.95555 2.30145 18.4507
1.95555 2.30145 18.4256
2.00148 2.25552 18.5388
2.00149 2.25551 18.5136
2.0168 2.2402 18.5262
2.0168 2.2402 18.5262
2.01679 2.24021 18.5514
2.00148 2.25552 18.5388
2.03211 2.22489 18.5388
2.01679 2.24021 18.5514
2.0168 2.2402 18.5262
2.03211 2.22489 18.5136
2.03211 2.22489 18.5388
2.0168 2.2402 18.5262
1.86358 2.39342 18.6778
1.86358 2.39342 18.7034
1.84822 2.40878 18.6899
1.84822 2.40878 18.6899
1.86358 2.39342 18.7034
1.84822 2.40878 18.7145
1.84822 2.40878 18.6899
1.84822 2.40878 18.7145
1.83285 2.42415 18.7034
1.83285 2.42415 18.7034
1.83285 2.42415 18.6777
1.84822 2.40878 18.6899
1.81747 2.43953 18.6648
1.83285 2.42415 18.6777
1.81747 2.43953 18.6899
1.80202 2.45498 18.3
1.80202 2.45498 18.3251
1.7866 2.4704 18.3126
1.70922 2.54778 18.4256
1.69367 2.56333 18.413
1.70922 2.54778 18.4004
1.70924 2.54776 18.4758
1.6937 2.5633 18.4884
1.69369 2.56331 18.4632
1.63134 2.62566 18.6395
1.61564 2.64136 18.6269
1.63132 2.62568 18.6142
1.63135 2.62565 18.6647
1.61565 2.64135 18.6521
1.63134 2.62566 18.6395
1.69376 2.56324 18.5891
1.69378 2.56322 18.6143
1.6782 2.5788 18.6017
1.59983 2.65717 18.5386
1.61554 2.64146 18.526
1.61557 2.64143 18.5512
1.59973 2.65727 18.438
1.58397 2.67303 18.4506
1.58396 2.67304 18.4255
1.61564 2.64136 18.7294
1.63134 2.62566 18.7375
1.5999 2.6571 18.7375
1.63134 2.62566 18.7144
1.63134 2.62566 18.7375
1.61564 2.64136 18.7294
1.647 2.61 18.7295
1.63134 2.62566 18.7375
1.63134 2.62566 18.7144
1.59993 2.65707 18.6646
1.59992 2.65708 18.6897
1.58418 2.67282 18.6775
1.84822 2.40878 18.7375
1.81747 2.43953 18.7375
1.83285 2.42415 18.7297
1.83285 2.42415 18.7034
1.84822 2.40878 18.7145
1.83285 2.42415 18.7297
1.83285 2.42415 18.7297
1.84822 2.40878 18.7145
1.84822 2.40878 18.7375
1.81747 2.43953 18.7145
1.81747 2.43953 18.6899
1.83285 2.42415 18.7034
1.83285 2.42415 18.7034
1.83285 2.42415 18.7297
1.81747 2.43953 18.7145
1.81747 2.43953 18.7145
1.83285 2.42415 18.7297
1.81747 2.43953 18.7375
1.70931 2.54769 18.6018
1.69378 2.56322 18.6143
1.69376 2.56324 18.5891
1.7712 2.4858 18.5262
1.78663 2.47037 18.5136
1.78664 2.47036 18.5388
1.78664 2.47036 18.5388
1.77121 2.48579 18.5514
1.7712 2.4858 18.5262
1.77122 2.48578 18.5766
1.77121 2.48579 18.5514
1.78664 2.47036 18.564
1.77122 2.48578 18.5766
1.78664 2.47036 18.564
1.78665 2.47035 18.5892
1.78665 2.47035 18.5892
1.77123 2.48577 18.6018
1.77122 2.48578 18.5766
1.77122 2.48578 18.5766
1.77123 2.48577 18.6018
1.75578 2.50122 18.5892
1.78666 2.47034 18.6144
1.77123 2.48577 18.6018
1.78665 2.47035 18.5892
1.78666 2.47034 18.6396
1.77124 2.48576 18.6523
1.77124 2.48576 18.6271
1.77124 2.48576 18.6271
1.78666 2.47034 18.6144
1.78666 2.47034 18.6396
1.77123 2.48577 18.6018
1.78666 2.47034 18.6144
1.77124 2.48576 18.6271
2.07809 2.17891 17.8724
2.07833 2.17867 17.8462
2.0934 2.1636 17.8614
2.06287 2.19413 17.8607
2.07833 2.17867 17.8462
2.07809 2.17891 17.8724
1.94028 2.31672 17.8605
1.94028 2.31672 17.8375
1.95561 2.30139 17.8452
2.00164 2.25536 17.8375
1.98629 2.27071 17.8452
1.97095 2.28605 17.8375
1.97095 2.28605 17.8375
1.95561 2.30139 17.8452
1.94028 2.31672 17.8375
1.48928 2.76772 17.874
1.48919 2.76781 17.8479
1.50509 2.75191 17.8614
1.50509 2.75191 17.8614
1.5206 2.7364 17.846
1.52092 2.73608 17.8725
1.47362 2.78338 17.8628
1.48919 2.76781 17.8479
1.48928 2.76772 17.874
1.47362 2.78338 17.8628
1.47412 2.78288 17.8375
1.48919 2.76781 17.8479
1.56833 2.68867 17.8607
[...]
<PointData Scalars="View Factor" >
<DataArray type="Float64" Name="View Factor" NumberOfComponents="1" format="ascii">
8.69084e-06
8.69084e-06
8.69084e-06
8.74122e-06
8.74122e-06
8.74122e-06
8.72458e-06
8.72458e-06
8.72458e-06
8.70103e-06
8.70103e-06
8.70103e-06
8.68983e-06
8.68983e-06
8.68983e-06
8.63287e-06
8.63287e-06
8.63287e-06
8.67271e-06
8.67271e-06
8.67271e-06
8.66631e-06
8.66631e-06
8.66631e-06
8.65992e-06
8.65992e-06
8.65992e-06
8.64962e-06
8.64962e-06
8.64962e-06
8.62065e-06
8.62065e-06
8.62065e-06
8.69963e-06
8.69963e-06
8.69963e-06
8.71631e-06
8.71631e-06
8.71631e-06
8.63716e-06
8.63716e-06
8.63716e-06
8.59195e-06
8.59195e-06
8.59195e-06
8.74956e-06
8.74956e-06
8.74956e-06
8.70976e-06
8.70976e-06
8.70976e-06
8.70144e-06
8.70144e-06
8.70144e-06
9.64048e-06
9.64048e-06
9.64048e-06
8.86194e-06
8.86194e-06
8.86194e-06
8.87044e-06
8.87044e-06
8.87044e-06
9.06771e-06
9.06771e-06
9.06771e-06
1.80022e-05
1.80022e-05
1.80022e-05
1.67092e-05
1.67092e-05
1.67092e-05
8.68405e-06
8.68405e-06
8.68405e-06
8.6766e-06
8.6766e-06
8.6766e-06
8.64581e-06
8.64581e-06
8.64581e-06
8.6231e-06
8.6231e-06
8.6231e-06
8.55315e-06
8.55315e-06
8.55315e-06
8.58255e-06
8.58255e-06
8.58255e-06
8.56325e-06
8.56325e-06
8.56325e-06
8.59811e-06
8.59811e-06
8.59811e-06
8.60503e-06
8.60503e-06
8.60503e-06
8.82991e-06
8.82991e-06
8.82991e-06
8.67022e-06
8.67022e-06
8.67022e-06
8.63097e-06
8.63097e-06
8.63097e-06
8.66112e-06
8.66112e-06
8.66112e-06
9.0765e-06
9.0765e-06
9.0765e-06
9.63082e-06
9.63082e-06
9.63082e-06
8.98296e-06
8.98296e-06
8.98296e-06
8.78123e-06
8.78123e-06
8.78123e-06
8.78962e-06
8.78962e-06
8.78962e-06
8.84503e-06
8.84503e-06
8.84503e-06
8.82147e-06
8.82147e-06
8.82147e-06
8.7562e-06
8.7562e-06
8.7562e-06
8.76452e-06
8.76452e-06
8.76452e-06
8.90806e-06
8.90806e-06
8.90806e-06
1.14766e-05
1.14766e-05
1.14766e-05
1.26923e-05
1.26923e-05
1.26923e-05
1.0056e-05
1.0056e-05
1.0056e-05
1.65243e-05
1.65243e-05
1.65243e-05
1.56487e-05
1.56487e-05
1.56487e-05
1.69339e-05
1.69339e-05
1.69339e-05
9.58317e-06
9.58317e-06
9.58317e-06
9.2455e-06
9.2455e-06
9.2455e-06
9.16053e-06
9.16053e-06
9.16053e-06
9.39841e-06
9.39841e-06
9.39841e-06
9.36325e-06
9.36325e-06
9.36325e-06
9.29504e-06
9.29504e-06
9.29504e-06
9.09894e-06
9.09894e-06
9.09894e-06
9.2405e-06
9.2405e-06
9.2405e-06
9.20788e-06
9.20788e-06
9.20788e-06
9.18308e-06
9.18308e-06
9.18308e-06
9.24161e-06
9.24161e-06
9.24161e-06
9.2512e-06
9.2512e-06
9.2512e-06
9.1184e-06
9.1184e-06
9.1184e-06
9.15162e-06
9.15162e-06
9.15162e-06
9.10955e-06
9.10955e-06
9.10955e-06
9.13391e-06
9.13391e-06
9.13391e-06
9.08166e-06
9.08166e-06
9.08166e-06
9.01571e-06
9.01571e-06
9.01571e-06
9.15584e-06
9.15584e-06
9.15584e-06
9.13097e-06
9.13097e-06
9.13097e-06
9.03483e-06
9.03483e-06
9.03483e-06
9.06585e-06
9.06585e-06
9.06585e-06
9.05721e-06
9.05721e-06
9.05721e-06
9.0243e-06
9.0243e-06
9.0243e-06
8.87715e-06
8.87715e-06
8.87715e-06
8.88562e-06
8.88562e-06
8.88562e-06
8.91792e-06
8.91792e-06
8.91792e-06
8.949e-06
8.949e-06
8.949e-06
8.91648e-06
8.91648e-06
8.91648e-06
8.89253e-06
8.89253e-06
8.89253e-06
8.90097e-06
8.90097e-06
8.90097e-06
8.97322e-06
8.97322e-06
8.97322e-06
9.02133e-06
9.02133e-06
9.02133e-06
8.73955e-06
8.73955e-06
8.73955e-06
8.7318e-06
8.7318e-06
8.7318e-06
8.87571e-06
8.87571e-06
8.87571e-06
8.86733e-06
8.86733e-06
8.86733e-06
9.32521e-06
9.32521e-06
9.32521e-06
9.0644e-06
9.0644e-06
9.0644e-06
9.03052e-06
9.03052e-06
9.03052e-06
9.00602e-06
9.00602e-06
9.00602e-06
9.01449e-06
9.01449e-06
9.01449e-06
1.08791e-05
1.08791e-05
1.08791e-05
1.09533e-05
1.09533e-05
1.09533e-05
1.1152e-05
1.1152e-05
1.1152e-05
1.12774e-05
1.12774e-05
1.12774e-05
1.16023e-05
1.16023e-05
1.16023e-05
1.29401e-05
1.29401e-05
1.29401e-05
1.46045e-05
1.46045e-05
1.46045e-05
1.45429e-05
1.45429e-05
1.45429e-05
1.55817e-05
1.55817e-05
1.55817e-05
1.55121e-05
1.55121e-05
1.55121e-05
1.4416e-05
1.4416e-05
1.4416e-05
1.6152e-05
1.6152e-05
1.6152e-05
1.68834e-05
1.68834e-05
1.68834e-05
1.54835e-05
1.54835e-05
1.54835e-05
1.53018e-05
1.53018e-05
1.53018e-05
1.50992e-05
1.50992e-05
1.50992e-05
1.60539e-05
1.60539e-05
1.60539e-05
1.12831e-05
1.12831e-05
1.12831e-05
1.12262e-05
1.12262e-05
1.12262e-05
1.11032e-05
1.11032e-05
1.11032e-05
1.15506e-05
1.15506e-05
1.15506e-05
1.14246e-05
1.14246e-05
1.14246e-05
1.14997e-05
1.14997e-05
1.14997e-05
1.42106e-05
1.42106e-05
1.42106e-05
1.27526e-05
1.27526e-05
1.27526e-05
1.28245e-05
1.28245e-05
1.28245e-05
1.27671e-05
1.27671e-05
1.27671e-05
1.26338e-05
1.26338e-05
1.26338e-05
1.27072e-05
1.27072e-05
1.27072e-05
1.29114e-05
1.29114e-05
1.29114e-05
1.25768e-05
1.25768e-05
1.25768e-05
1.25913e-05
1.25913e-05
1.25913e-05
1.25186e-05
1.25186e-05
1.25186e-05
1.26478e-05
1.26478e-05
1.26478e-05
1.00474e-05
1.00474e-05
1.00474e-05
1.00747e-05
1.00747e-05
1.00747e-05
1.07381e-05
1.07381e-05
1.07381e-05
1.03481e-05
1.03481e-05
1.03481e-05
1.05211e-05
1.05211e-05
1.05211e-05
2.09544e-05
2.09544e-05
2.09544e-05
2.04801e-05
2.04801e-05
2.04801e-05
2.11914e-05
2.11914e-05
2.11914e-05
2.13536e-05
2.13536e-05
2.13536e-05
1.92003e-05
1.92003e-05
1.92003e-05
1.82675e-05
1.82675e-05
1.82675e-05
1.89886e-05
1.89886e-05
1.89886e-05
2.06763e-05
2.06763e-05
2.06763e-05
2.05105e-05
2.05105e-05
2.05105e-05
1.57063e-05
1.57063e-05
1.57063e-05
1.61198e-05
1.61198e-05
1.61198e-05
1.59825e-05
1.59825e-05
1.59825e-05
1.72458e-05
1.72458e-05
1.72458e-05
1.70983e-05
1.70983e-05
1.70983e-05
1.64213e-05
1.64213e-05
1.64213e-05
9.67598e-06
9.67598e-06
9.67598e-06
9.33145e-06
9.33145e-06
9.33145e-06
9.49441e-06
9.49441e-06
9.49441e-06
9.48436e-06
9.48436e-06
9.48436e-06
9.53866e-06
9.53866e-06
9.53866e-06
9.52933e-06
9.52933e-06
9.52933e-06
9.5551e-06
9.5551e-06
9.5551e-06
9.59033e-06
9.59033e-06
9.59033e-06
9.59968e-06
9.59968e-06
9.59968e-06
9.57377e-06
9.57377e-06
9.57377e-06
1.30615e-05
1.30615e-05
1.30615e-05
1.31488e-05
1.31488e-05
1.31488e-05
1.33165e-05
1.33165e-05
1.33165e-05
9.63511e-06
9.63511e-06
9.63511e-06
9.59552e-06
9.59552e-06
9.59552e-06
9.56445e-06
9.56445e-06
9.56445e-06
9.98187e-06
9.98187e-06
9.98187e-06
9.29117e-06
9.29117e-06
9.29117e-06
9.99131e-06
9.99131e-06
9.99131e-06
9.50726e-06
9.50726e-06
9.50726e-06
9.5433e-06
9.5433e-06
9.5433e-06
9.74351e-06
9.74351e-06
9.74351e-06
9.82693e-06
9.82693e-06
9.82693e-06
9.42382e-06
9.42382e-06
9.42382e-06
9.28835e-06
9.28835e-06
9.28835e-06
9.27925e-06
9.27925e-06
9.27925e-06
9.30408e-06
9.30408e-06
9.30408e-06
9.33813e-06
9.33813e-06
9.33813e-06
9.34724e-06
9.34724e-06
9.34724e-06
9.32229e-06
9.32229e-06
9.32229e-06
1.11519e-05
1.11519e-05
1.11519e-05
1.10699e-05
1.10699e-05
1.10699e-05
9.9183e-06
9.9183e-06
9.9183e-06
9.78826e-06
9.78826e-06
9.78826e-06
9.87164e-06
9.87164e-06
9.87164e-06
1.00846e-05
1.00846e-05
1.00846e-05
1.11213e-05
1.11213e-05
1.11213e-05
1.12558e-05
1.12558e-05
1.12558e-05
1.14164e-05
1.14164e-05
1.14164e-05
1.12018e-05
1.12018e-05
1.12018e-05
1.01323e-05
1.01323e-05
1.01323e-05
1.02151e-05
1.02151e-05
1.02151e-05
9.08322e-06
9.08322e-06
9.08322e-06
9.10763e-06
9.10763e-06
9.10763e-06
9.1409e-06
9.1409e-06
9.1409e-06
9.09196e-06
9.09196e-06
9.09196e-06
9.12512e-06
9.12512e-06
9.12512e-06
9.14964e-06
9.14964e-06
9.14964e-06
9.21538e-06
9.21538e-06
9.21538e-06
9.16558e-06
9.16558e-06
9.16558e-06
9.19913e-06
9.19913e-06
9.19913e-06
9.22409e-06
9.22409e-06
9.22409e-06
9.37643e-06
9.37643e-06
9.37643e-06
9.36119e-06
9.36119e-06
9.36119e-06
9.38678e-06
9.38678e-06
9.38678e-06
9.1761e-06
9.1761e-06
9.1761e-06
9.23439e-06
9.23439e-06
9.23439e-06
9.2096e-06
9.2096e-06
9.2096e-06
9.22631e-06
9.22631e-06
9.22631e-06
9.19189e-06
9.19189e-06
9.19189e-06
9.16724e-06
9.16724e-06
9.16724e-06
9.11486e-06
9.11486e-06
9.11486e-06
9.13958e-06
9.13958e-06
9.13958e-06
9.17306e-06
9.17306e-06
9.17306e-06
9.12351e-06
9.12351e-06
9.12351e-06
9.18172e-06
9.18172e-06
9.18172e-06
9.15688e-06
9.15688e-06
9.15688e-06
9.1981e-06
9.1981e-06
9.1981e-06
9.23106e-06
9.23106e-06
9.23106e-06
9.2563e-06
9.2563e-06
9.2563e-06
9.19025e-06
9.19025e-06
9.19025e-06
9.07306e-06
9.07306e-06
9.07306e-06
9.09766e-06
9.09766e-06
9.09766e-06
9.04004e-06
9.04004e-06
9.04004e-06
9.03149e-06
9.03149e-06
9.03149e-06
9.14728e-06
9.14728e-06
9.14728e-06
9.04945e-06
9.04945e-06
9.04945e-06
9.02534e-06
9.02534e-06
9.02534e-06
8.99342e-06
8.99342e-06
8.99342e-06
9.04154e-06
9.04154e-06
9.04154e-06
8.9112e-06
8.9112e-06
8.9112e-06
8.95891e-06
8.95891e-06
8.95891e-06
8.90264e-06
8.90264e-06
8.90264e-06
8.92644e-06
8.92644e-06
8.92644e-06
8.95219e-06
8.95219e-06
8.95219e-06
8.98551e-06
8.98551e-06
8.98551e-06
9.00951e-06
9.00951e-06
9.00951e-06
9.00012e-06
9.00012e-06
9.00012e-06
8.96748e-06
8.96748e-06
8.96748e-06
8.94357e-06
8.94357e-06
8.94357e-06
8.99014e-06
8.99014e-06
8.99014e-06
8.94186e-06
8.94186e-06
8.94186e-06
8.95745e-06
8.95745e-06
8.95745e-06
8.93337e-06
8.93337e-06
8.93337e-06
8.99864e-06
8.99864e-06
8.99864e-06
8.97443e-06
8.97443e-06
8.97443e-06
8.93215e-06
8.93215e-06
8.93215e-06
8.96479e-06
8.96479e-06
8.96479e-06
8.9892e-06
8.9892e-06
8.9892e-06
8.77959e-06
8.77959e-06
8.77959e-06
8.82604e-06
8.82604e-06
8.82604e-06
8.81146e-06
8.81146e-06
8.81146e-06
8.83513e-06
8.83513e-06
8.83513e-06
8.77045e-06
8.77045e-06
8.77045e-06
8.79397e-06
8.79397e-06
8.79397e-06
8.70624e-06
8.70624e-06
8.70624e-06
8.71404e-06
8.71404e-06
8.71404e-06
8.72043e-06
8.72043e-06
8.72043e-06
8.72971e-06
8.72971e-06
8.72971e-06
8.76106e-06
8.76106e-06
8.76106e-06
8.78715e-06
8.78715e-06
8.78715e-06
8.76974e-06
8.76974e-06
8.76974e-06
8.75513e-06
8.75513e-06
8.75513e-06
8.74619e-06
8.74619e-06
8.74619e-06
8.85189e-06
8.85189e-06
8.85189e-06
8.80466e-06
8.80466e-06
8.80466e-06
8.7963e-06
8.7963e-06
8.7963e-06
8.81984e-06
8.81984e-06
8.81984e-06
8.83661e-06
8.83661e-06
8.83661e-06
8.8603e-06
8.8603e-06
8.8603e-06
1.08169e-05
1.08169e-05
1.08169e-05
1.09476e-05
1.09476e-05
1.09476e-05
1.01904e-05
1.01904e-05
1.01904e-05
1.0608e-05
1.0608e-05
1.0608e-05
9.29091e-06
9.29091e-06
9.29091e-06
1.06923e-05
1.06923e-05
1.06923e-05
1.09055e-05
1.09055e-05
1.09055e-05
1.0829e-05
1.0829e-05
1.0829e-05
1.30166e-05
1.30166e-05
1.30166e-05
1.2726e-05
1.2726e-05
1.2726e-05
1.14979e-05
1.14979e-05
1.14979e-05
1.13655e-05
1.13655e-05
1.13655e-05
1.47474e-05
1.47474e-05
1.47474e-05
1.53149e-05
1.53149e-05
1.53149e-05
1.46768e-05
1.46768e-05
1.46768e-05
1.58186e-05
1.58186e-05
1.58186e-05
1.6105e-05
1.6105e-05
1.6105e-05
1.60348e-05
1.60348e-05
1.60348e-05
1.57218e-05
1.57218e-05
1.57218e-05
1.55788e-05
1.55788e-05
1.55788e-05
1.5784e-05
1.5784e-05
1.5784e-05
1.58487e-05
1.58487e-05
1.58487e-05
1.53756e-05
1.53756e-05
1.53756e-05
1.53098e-05
1.53098e-05
1.53098e-05
1.49647e-05
1.49647e-05
1.49647e-05
1.51036e-05
1.51036e-05
1.51036e-05
1.51737e-05
1.51737e-05
1.51737e-05
1.49655e-05
1.49655e-05
1.49655e-05
1.55905e-05
1.55905e-05
1.55905e-05
1.57996e-05
1.57996e-05
1.57996e-05
1.59419e-05
1.59419e-05
1.59419e-05
1.51047e-05
1.51047e-05
1.51047e-05
1.4827e-05
1.4827e-05
1.4827e-05
1.50334e-05
1.50334e-05
1.50334e-05
1.62942e-05
1.62942e-05
1.62942e-05
1.62271e-05
1.62271e-05
1.62271e-05
1.60904e-05
1.60904e-05
1.60904e-05
1.68142e-05
1.68142e-05
1.68142e-05
1.48747e-05
1.48747e-05
1.48747e-05
1.42718e-05
1.42718e-05
1.42718e-05
1.58549e-05
1.58549e-05
1.58549e-05
1.59221e-05
1.59221e-05
1.59221e-05
1.18808e-05
1.18808e-05
1.18808e-05
1.16979e-05
1.16979e-05
1.16979e-05
1.32127e-05
1.32127e-05
1.32127e-05
1.32854e-05
1.32854e-05
1.32854e-05
1.26033e-05
1.26033e-05
1.26033e-05
1.3017e-05
1.3017e-05
1.3017e-05
1.30446e-05
1.30446e-05
1.30446e-05
1.29722e-05
1.29722e-05
1.29722e-05
1.27935e-05
1.27935e-05
1.27935e-05
1.3199e-05
1.3199e-05
1.3199e-05
1.00976e-05
1.00976e-05
1.00976e-05
1.01099e-05
1.01099e-05
1.01099e-05
1.02132e-05
1.02132e-05
1.02132e-05
1.02219e-05
1.02219e-05
1.02219e-05
1.02651e-05
1.02651e-05
1.02651e-05
2.01669e-05
2.01669e-05
2.01669e-05
2.02415e-05
2.02415e-05
2.02415e-05
1.97094e-05
1.97094e-05
1.97094e-05
1.99251e-05
1.99251e-05
1.99251e-05
1.97616e-05
1.97616e-05
1.97616e-05
1.94413e-05
1.94413e-05
1.94413e-05
1.95212e-05
1.95212e-05
1.95212e-05
1.93495e-05
1.93495e-05
1.93495e-05
2.05452e-05
2.05452e-05
2.05452e-05
2.0852e-05
2.0852e-05
2.0852e-05
2.07828e-05
2.07828e-05
2.07828e-05
2.08847e-05
2.08847e-05
2.08847e-05
2.06482e-05
2.06482e-05
2.06482e-05
2.1151e-05
2.1151e-05
2.1151e-05
2.04386e-05
2.04386e-05
2.04386e-05
1.8589e-05
1.8589e-05
1.8589e-05
1.83979e-05
1.83979e-05
1.83979e-05
1.82713e-05
1.82713e-05
1.82713e-05
2.03065e-05
2.03065e-05
2.03065e-05
2.04013e-05
2.04013e-05
2.04013e-05
2.02396e-05
2.02396e-05
2.02396e-05
1.99469e-05
1.99469e-05
1.99469e-05
2.0013e-05
2.0013e-05
2.0013e-05
2.07852e-05
2.07852e-05
2.07852e-05
1.9811e-05
1.9811e-05
1.9811e-05
1.97763e-05
1.97763e-05
1.97763e-05
1.87762e-05
1.87762e-05
1.87762e-05
1.86205e-05
1.86205e-05
1.86205e-05
1.95071e-05
1.95071e-05
1.95071e-05
1.92741e-05
1.92741e-05
1.92741e-05
1.99739e-05
1.99739e-05
1.99739e-05
2.02077e-05
2.02077e-05
2.02077e-05
2.02768e-05
2.02768e-05
2.02768e-05
1.86328e-05
1.86328e-05
1.86328e-05
2.09798e-05
2.09798e-05
2.09798e-05
2.10776e-05
2.10776e-05
2.10776e-05
2.09111e-05
2.09111e-05
2.09111e-05
1.55265e-05
1.55265e-05
1.55265e-05
1.5382e-05
1.5382e-05
1.5382e-05
1.65489e-05
1.65489e-05
1.65489e-05
1.50917e-05
1.50917e-05
1.50917e-05
1.50181e-05
1.50181e-05
1.50181e-05
1.51626e-05
1.51626e-05
1.51626e-05
1.40155e-05
1.40155e-05
1.40155e-05
1.42966e-05
1.42966e-05
1.42966e-05
1.71473e-05
1.71473e-05
1.71473e-05
1.7076e-05
1.7076e-05
1.7076e-05
1.54344e-05
1.54344e-05
1.54344e-05
1.56379e-05
1.56379e-05
1.56379e-05
1.57781e-05
1.57781e-05
1.57781e-05
1.5709e-05
1.5709e-05
1.5709e-05
1.59099e-05
1.59099e-05
1.59099e-05
1.60464e-05
1.60464e-05
1.60464e-05
1.60922e-05
1.60922e-05
1.60922e-05
1.63195e-05
1.63195e-05
1.63195e-05
1.62509e-05
1.62509e-05
1.62509e-05
1.96585e-05
1.96585e-05
1.96585e-05
1.9568e-05
1.9568e-05
1.9568e-05
1.9504e-05
1.9504e-05
1.9504e-05
1.71668e-05
1.71668e-05
1.71668e-05
1.72991e-05
1.72991e-05
1.72991e-05
1.74481e-05
1.74481e-05
1.74481e-05
1.73817e-05
1.73817e-05
1.73817e-05
1.78123e-05
1.78123e-05
1.78123e-05
1.77284e-05
1.77284e-05
1.77284e-05
1.76628e-05
1.76628e-05
1.76628e-05
1.7943e-05
1.7943e-05
1.7943e-05
1.63548e-05
1.63548e-05
1.63548e-05
1.62195e-05
1.62195e-05
1.62195e-05
1.72067e-05
1.72067e-05
1.72067e-05
1.714e-05
1.714e-05
1.714e-05
1.66302e-05
1.66302e-05
1.66302e-05
1.714e-05
1.714e-05
1.714e-05
1.73252e-05
1.73252e-05
1.73252e-05
1.75517e-05
1.75517e-05
1.75517e-05
1.6325e-05
1.6325e-05
1.6325e-05
1.63922e-05
1.63922e-05
1.63922e-05
1.66588e-05
1.66588e-05
1.66588e-05
1.6864e-05
1.6864e-05
1.6864e-05
1.65974e-05
1.65974e-05
1.65974e-05
1.67368e-05
1.67368e-05
1.67368e-05
1.02412e-05
1.02412e-05
1.02412e-05
1.02772e-05
1.02772e-05
1.02772e-05
1.03055e-05
1.03055e-05
1.03055e-05
1.02977e-05
1.02977e-05
1.02977e-05
1.03905e-05
1.03905e-05
1.03905e-05
1.03616e-05
1.03616e-05
1.03616e-05
1.03262e-05
1.03262e-05
1.03262e-05
1.20475e-05
1.20475e-05
1.20475e-05
1.00637e-05
1.00637e-05
1.00637e-05
1.00912e-05
1.00912e-05
1.00912e-05
1.01739e-05
1.01739e-05
1.01739e-05
1.01462e-05
1.01462e-05
1.01462e-05
9.45046e-06
9.45046e-06
9.45046e-06
9.44127e-06
9.44127e-06
9.44127e-06
9.40674e-06
9.40674e-06
9.40674e-06
9.38147e-06
9.38147e-06
9.38147e-06
9.41842e-06
9.41842e-06
9.41842e-06
9.46892e-06
9.46892e-06
9.46892e-06
9.50998e-06
9.50998e-06
9.50998e-06
9.56257e-06
9.56257e-06
9.56257e-06
9.57178e-06
9.57178e-06
9.57178e-06
9.54584e-06
9.54584e-06
9.54584e-06
1.28266e-05
1.28266e-05
1.28266e-05
1.26674e-05
1.26674e-05
1.26674e-05
1.29667e-05
1.29667e-05
1.29667e-05
1.3271e-05
1.3271e-05
1.3271e-05
1.34944e-05
1.34944e-05
1.34944e-05
1.36381e-05
1.36381e-05
1.36381e-05
1.31903e-05
1.31903e-05
1.31903e-05
1.35584e-05
1.35584e-05
1.35584e-05
1.33339e-05
1.33339e-05
1.33339e-05
1.31287e-05
1.31287e-05
1.31287e-05
1.35749e-05
1.35749e-05
1.35749e-05
1.37332e-05
1.37332e-05
1.37332e-05
1.55008e-05
1.55008e-05
1.55008e-05
1.38622e-05
1.38622e-05
1.38622e-05
1.52709e-05
1.52709e-05
1.52709e-05
1.12156e-05
1.12156e-05
1.12156e-05
1.25865e-05
1.25865e-05
1.25865e-05
1.27266e-05
1.27266e-05
1.27266e-05
1.24028e-05
1.24028e-05
1.24028e-05
1.21006e-05
1.21006e-05
1.21006e-05
1.21818e-05
1.21818e-05
1.21818e-05
1.30022e-05
1.30022e-05
1.30022e-05
1.097e-05
1.097e-05
1.097e-05
1.16129e-05
1.16129e-05
1.16129e-05
1.17568e-05
1.17568e-05
1.17568e-05
1.19885e-05
1.19885e-05
1.19885e-05
1.21313e-05
1.21313e-05
1.21313e-05
1.28857e-05
1.28857e-05
1.28857e-05
1.2272e-05
1.2272e-05
1.2272e-05
1.27208e-05
1.27208e-05
1.27208e-05
9.61849e-06
9.61849e-06
9.61849e-06
9.64453e-06
9.64453e-06
9.64453e-06
1.11633e-05
1.11633e-05
1.11633e-05
1.07234e-05
1.07234e-05
1.07234e-05
1.0859e-05
1.0859e-05
1.0859e-05
1.10792e-05
1.10792e-05
1.10792e-05
1.0104e-05
1.0104e-05
1.0104e-05
1.06579e-05
1.06579e-05
1.06579e-05
9.83335e-06
9.83335e-06
9.83335e-06
9.58514e-06
9.58514e-06
9.58514e-06
9.55087e-06
9.55087e-06
9.55087e-06
9.50643e-06
9.50643e-06
9.50643e-06
9.55744e-06
9.55744e-06
9.55744e-06
9.5677e-06
9.5677e-06
9.5677e-06
9.54215e-06
9.54215e-06
9.54215e-06
9.46229e-06
9.46229e-06
9.46229e-06
9.45292e-06
9.45292e-06
9.45292e-06
9.47824e-06
9.47824e-06
9.47824e-06
9.51305e-06
9.51305e-06
9.51305e-06
9.52243e-06
9.52243e-06
9.52243e-06
9.49699e-06
9.49699e-06
9.49699e-06
9.19392e-06
9.19392e-06
9.19392e-06
9.21852e-06
9.21852e-06
9.21852e-06
9.2522e-06
9.2522e-06
9.2522e-06
9.20289e-06
9.20289e-06
9.20289e-06
9.26118e-06
9.26118e-06
9.26118e-06
9.23647e-06
9.23647e-06
9.23647e-06
9.60905e-06
9.60905e-06
9.60905e-06
9.90038e-06
9.90038e-06
9.90038e-06
9.69138e-06
9.69138e-06
9.69138e-06
9.7366e-06
9.7366e-06
9.7366e-06
9.31672e-06
9.31672e-06
9.31672e-06
9.36788e-06
9.36788e-06
9.36788e-06
9.33341e-06
9.33341e-06
9.33341e-06
9.3077e-06
9.3077e-06
9.3077e-06
9.41156e-06
9.41156e-06
9.41156e-06
9.37691e-06
9.37691e-06
9.37691e-06
9.35107e-06
9.35107e-06
9.35107e-06
9.36015e-06
9.36015e-06
9.36015e-06
9.42865e-06
9.42865e-06
9.42865e-06
9.48107e-06
9.48107e-06
9.48107e-06
9.42097e-06
9.42097e-06
9.42097e-06
9.44699e-06
9.44699e-06
9.44699e-06
9.36925e-06
9.36925e-06
9.36925e-06
9.40292e-06
9.40292e-06
9.40292e-06
9.5872e-06
9.5872e-06
9.5872e-06
9.55138e-06
9.55138e-06
9.55138e-06
9.78037e-06
9.78037e-06
9.78037e-06
9.65391e-06
9.65391e-06
9.65391e-06
9.49845e-06
9.49845e-06
9.49845e-06
9.69772e-06
9.69772e-06
9.69772e-06
9.58867e-06
9.58867e-06
9.58867e-06
9.57873e-06
9.57873e-06
9.57873e-06
9.51712e-06
9.51712e-06
9.51712e-06
9.45682e-06
9.45682e-06
9.45682e-06
9.46674e-06
9.46674e-06
9.46674e-06
9.52742e-06
9.52742e-06
9.52742e-06
9.50158e-06
9.50158e-06
9.50158e-06
1.0028e-05
1.0028e-05
1.0028e-05
9.94657e-06
9.94657e-06
9.94657e-06
1.00739e-05
1.00739e-05
1.00739e-05
1.02845e-05
1.02845e-05
1.02845e-05
1.03658e-05
1.03658e-05
1.03658e-05
1.02376e-05
1.02376e-05
1.02376e-05
1.03186e-05
1.03186e-05
1.03186e-05
1.05278e-05
1.05278e-05
1.05278e-05
1.0121e-05
1.0121e-05
1.0121e-05
1.00389e-05
1.00389e-05
1.00389e-05
1.01679e-05
1.01679e-05
1.01679e-05
1.03805e-05
1.03805e-05
1.03805e-05
1.10187e-05
1.10187e-05
1.10187e-05
1.08059e-05
1.08059e-05
1.08059e-05
1.02626e-05
1.02626e-05
1.02626e-05
1.05258e-05
1.05258e-05
1.05258e-05
1.0856e-05
1.0856e-05
1.0856e-05
1.04287e-05
1.04287e-05
1.04287e-05
1.07243e-05
1.07243e-05
1.07243e-05
1.05111e-05
1.05111e-05
1.05111e-05
1.09258e-05
1.09258e-05
1.09258e-05
1.25296e-05
1.25296e-05
1.25296e-05
1.26092e-05
1.26092e-05
1.26092e-05
1.14714e-05
1.14714e-05
1.14714e-05
1.15514e-05
1.15514e-05
1.15514e-05
9.34283e-06
9.34283e-06
9.34283e-06
9.33449e-06
9.33449e-06
9.33449e-06
9.27444e-06
9.27444e-06
9.27444e-06
9.29984e-06
9.29984e-06
9.29984e-06
9.3007e-06
9.3007e-06
9.3007e-06
9.32607e-06
9.32607e-06
9.32607e-06
9.26669e-06
9.26669e-06
9.26669e-06
9.31729e-06
9.31729e-06
9.31729e-06
9.25792e-06
9.25792e-06
9.25792e-06
9.28316e-06
9.28316e-06
9.28316e-06
9.12946e-06
9.12946e-06
9.12946e-06
9.08835e-06
9.08835e-06
9.08835e-06
9.11306e-06
9.11306e-06
9.11306e-06
9.056e-06
9.056e-06
9.056e-06
9.10454e-06
9.10454e-06
9.10454e-06
9.04825e-06
9.04825e-06
9.04825e-06