<VTKFile type="UnstructuredGrid" version="1.0">
<UnstructuredGrid>
<Piece NumberOfPoints="8859" NumberOfCells="2953">
<Points>
<DataArray type="Float64" NumberOfComponents="3" format="ascii">
2.04744 2.20956 0.912625
2.06275 2.19425 0.924584
2.04754 2.20946 0.938328
2.07804 2.17896 0.861673
2.07805 2.17895 0.836515
2.0934 2.1636 0.84898
2.06271 2.19429 0.874362
2.07804 2.17896 0.861673
2.07804 2.17896 0.886856
2.01701 2.23999 0.96488
2.03242 2.22458 0.9725
2.00164 2.25536 0.9725
2.01701 2.23999 0.96488
2.03232 2.22468 0.949569
2.03242 2.22458 0.9725
2.04777 2.20923 0.964788
2.06326 2.19374 0.9725
2.03242 2.22458 0.9725
2.04777 2.20923 0.964788
2.03232 2.22468 0.949569
2.04754 2.20946 0.938328
2.03242 2.22458 0.9725
2.03232 2.22468 0.949569
2.04777 2.20923 0.964788
2.04754 2.20946 0.938328
2.06275 2.19425 0.924584
2.06287 2.19413 0.94927
2.06287 2.19413 0.94927
2.04777 2.20923 0.964788
2.04754 2.20946 0.938328
2.06326 2.19374 0.9725
2.04777 2.20923 0.964788
2.06287 2.19413 0.94927
2.06275 2.19425 0.924584
2.04744 2.20956 0.912625
2.06271 2.19429 0.899521
2.06271 2.19429 0.874362
2.07804 2.17896 0.886856
2.06271 2.19429 0.899521
2.07809 2.17891 0.937625
2.06287 2.19413 0.94927
2.06275 2.19425 0.924584
2.0934 2.1636 0.923949
2.0934 2.1636 0.948552
2.07809 2.17891 0.937625
2.0934 2.1636 0.823871
2.0934 2.1636 0.84898
2.07805 2.17895 0.836515
2.07804 2.17896 0.861673
2.0934 2.1636 0.84898
2.0934 2.1636 0.874055
2.0934 2.1636 0.874055
2.07804 2.17896 0.886856
2.07804 2.17896 0.861673
2.0934 2.1636 0.29652
2.0934 2.1636 0.321651
2.07807 2.17893 0.309069
2.07807 2.17893 0.76107
2.0934 2.1636 0.773613
2.07806 2.17894 0.786215
2.0934 2.1636 0.74848
2.0934 2.1636 0.773613
2.07807 2.17893 0.76107
2.07808 2.17892 0.635442
2.0934 2.1636 0.647992
2.07808 2.17892 0.660554
1.61564 2.64136 0.0805869
1.63134 2.62566 0.0725
1.63134 2.62566 0.095634
1.5683 2.6887 0.9725
1.53648 2.72052 0.9725
1.55243 2.70457 0.964321
2.07804 2.17896 0.912117
2.06271 2.19429 0.899521
2.07804 2.17896 0.886856
2.06275 2.19425 0.924584
2.06271 2.19429 0.899521
2.07804 2.17896 0.912117
2.07804 2.17896 0.912117
2.07809 2.17891 0.937625
2.06275 2.19425 0.924584
2.0934 2.1636 0.923949
2.07809 2.17891 0.937625
2.07804 2.17896 0.912117
2.07833 2.17867 0.963839
2.0934 2.1636 0.948552
2.0934 2.1636 0.9725
2.07833 2.17867 0.963839
2.07809 2.17891 0.937625
2.0934 2.1636 0.948552
2.0934 2.1636 0.9725
2.06326 2.19374 0.9725
2.07833 2.17867 0.963839
2.06326 2.19374 0.9725
2.06287 2.19413 0.94927
2.07833 2.17867 0.963839
2.06287 2.19413 0.94927
2.07809 2.17891 0.937625
2.07833 2.17867 0.963839
2.07806 2.17894 0.786215
2.0934 2.1636 0.773613
2.0934 2.1636 0.798745
2.07804 2.17896 0.886856
2.0934 2.1636 0.874055
2.0934 2.1636 0.899067
2.0934 2.1636 0.923949
2.07804 2.17896 0.912117
2.0934 2.1636 0.899067
2.0934 2.1636 0.899067
2.07804 2.17896 0.912117
2.07804 2.17896 0.886856
2.0934 2.1636 0.622885
2.0934 2.1636 0.647992
2.07808 2.17892 0.635442
2.07807 2.17893 0.309069
2.0934 2.1636 0.321651
2.07807 2.17893 0.334202
2.06275 2.19425 0.748526
2.04743 2.20957 0.735977
2.06275 2.19425 0.723383
2.07806 2.17894 0.811363
2.0934 2.1636 0.823871
2.07805 2.17895 0.836515
2.07806 2.17894 0.811363
2.0934 2.1636 0.798745
2.0934 2.1636 0.823871
2.07806 2.17894 0.811363
2.06273 2.19427 0.798839
2.07806 2.17894 0.786215
2.07806 2.17894 0.786215
2.0934 2.1636 0.798745
2.07806 2.17894 0.811363
2.06271 2.19429 0.849184
2.07804 2.17896 0.861673
2.06271 2.19429 0.874362
2.06271 2.19429 0.849184
2.07805 2.17895 0.836515
2.07804 2.17896 0.861673
2.04741 2.20959 0.81149
2.03209 2.22491 0.824146
2.0321 2.2249 0.798941
1.83285 2.42415 0.938376
1.81747 2.43953 0.924896
1.83285 2.42415 0.91275
1.78664 2.47036 0.773805
1.78664 2.47036 0.799
1.77121 2.48579 0.786392
2.0934 2.1636 0.0725
2.0934 2.1636 0.096448
2.07833 2.17867 0.0811606
1.56833 2.68867 0.949328
1.5683 2.6887 0.9725
1.55243 2.70457 0.964321
1.63134 2.62566 0.874462
1.61565 2.64135 0.88714
1.61564 2.64136 0.861854
1.55243 2.70457 0.964321
1.53648 2.72052 0.9725
1.53664 2.72036 0.949228
2.06276 2.19424 0.396996
2.04745 2.20955 0.384429
2.06276 2.19424 0.371878
2.0934 2.1636 0.547592
2.07808 2.17892 0.535047
2.0934 2.1636 0.5225
2.07808 2.17892 0.585237
2.0934 2.1636 0.572686
2.0934 2.1636 0.597784
2.06277 2.19423 0.497406
2.04745 2.20955 0.509952
2.04745 2.20955 0.484856
2.06277 2.19423 0.5225
2.04745 2.20955 0.509952
2.06277 2.19423 0.497406
2.07808 2.17892 0.535047
2.06277 2.19423 0.547594
2.06277 2.19423 0.5225
2.04745 2.20955 0.660571
2.06276 2.19424 0.673122
2.04744 2.20956 0.685697
2.01682 2.24018 0.635467
2.01682 2.24018 0.660589
2.0015 2.2555 0.648033
2.04745 2.20955 0.635455
2.03214 2.22486 0.622905
2.04745 2.20955 0.610346
2.04745 2.20955 0.610346
2.06277 2.19423 0.622894
2.04745 2.20955 0.635455
2.03214 2.22486 0.622905
2.03214 2.22486 0.597797
2.04745 2.20955 0.610346
2.04745 2.20955 0.610346
2.03214 2.22486 0.597797
2.04745 2.20955 0.585242
2.0934 2.1636 0.597784
2.0934 2.1636 0.622885
2.07808 2.17892 0.610337
2.07808 2.17892 0.610337
2.07808 2.17892 0.585237
2.0934 2.1636 0.597784
2.07808 2.17892 0.610337
2.0934 2.1636 0.622885
2.07808 2.17892 0.635442
2.07808 2.17892 0.635442
2.06277 2.19423 0.622894
2.07808 2.17892 0.610337
2.04744 2.20956 0.710831
2.03213 2.22487 0.698277
2.04744 2.20956 0.685697
2.04744 2.20956 0.710831
2.06275 2.19425 0.723383
2.04743 2.20957 0.735977
2.0015 2.2555 0.698302
2.01681 2.24019 0.68572
2.01681 2.24019 0.710864
2.01681 2.24019 0.710864
2.01681 2.24019 0.68572
2.03213 2.22487 0.698277
2.0934 2.1636 0.673105
2.07808 2.17892 0.660554
2.0934 2.1636 0.647992
2.04744 2.20956 0.685697
2.06276 2.19424 0.673122
2.06276 2.19424 0.698248
2.06276 2.19424 0.698248
2.04744 2.20956 0.710831
2.04744 2.20956 0.685697
2.06275 2.19425 0.723383
2.04744 2.20956 0.710831
2.06276 2.19424 0.698248
2.07806 2.17894 0.786215
2.06273 2.19427 0.798839
2.06274 2.19426 0.773678
2.06274 2.19426 0.773678
2.07807 2.17893 0.76107
2.07806 2.17894 0.786215
2.06275 2.19425 0.748526
2.07807 2.17893 0.76107
2.06274 2.19426 0.773678
2.0321 2.2249 0.798941
2.03211 2.22489 0.773753
2.04742 2.20958 0.786304
2.04742 2.20958 0.786304
2.04741 2.20959 0.81149
2.0321 2.2249 0.798941
2.06273 2.19427 0.798839
2.04741 2.20959 0.81149
2.04742 2.20958 0.786304
2.04742 2.20958 0.786304
2.06274 2.19426 0.773678
2.06273 2.19427 0.798839
2.01679 2.24021 0.786381
2.03211 2.22489 0.773753
2.0321 2.2249 0.798941
2.01679 2.24021 0.786381
2.00148 2.25552 0.799009
2.00148 2.25552 0.773807
2.06271 2.19429 0.874362
2.06271 2.19429 0.899521
2.04741 2.20959 0.887217
2.04741 2.20959 0.887217
2.06271 2.19429 0.899521
2.04744 2.20956 0.912625
2.03209 2.22491 0.824146
2.04741 2.20959 0.81149
2.0474 2.2096 0.836694
2.0474 2.2096 0.836694
2.03209 2.22491 0.849368
2.03209 2.22491 0.824146
1.97087 2.28613 0.673174
1.95555 2.30145 0.685749
1.95555 2.30145 0.660611
2.00148 2.25552 0.773807
2.00149 2.25551 0.748623
2.0168 2.2402 0.761192
2.0168 2.2402 0.761192
2.01679 2.24021 0.786381
2.00148 2.25552 0.773807
2.03211 2.22489 0.773753
2.01679 2.24021 0.786381
2.0168 2.2402 0.761192
2.03211 2.22489 0.748581
2.03211 2.22489 0.773753
2.0168 2.2402 0.761192
1.86358 2.39342 0.912763
1.86358 2.39342 0.93839
1.84822 2.40878 0.924907
1.84822 2.40878 0.924907
1.86358 2.39342 0.93839
1.84822 2.40878 0.949497
1.84822 2.40878 0.924907
1.84822 2.40878 0.949497
1.83285 2.42415 0.938376
1.83285 2.42415 0.938376
1.83285 2.42415 0.91275
1.84822 2.40878 0.924907
1.81747 2.43953 0.899845
1.83285 2.42415 0.91275
1.81747 2.43953 0.924896
1.80202 2.45498 0.53505
1.80202 2.45498 0.56015
1.7866 2.4704 0.547599
1.70922 2.54778 0.660564
1.69367 2.56333 0.647996
1.70922 2.54778 0.635447
1.70924 2.54776 0.710832
1.6937 2.5633 0.723393
1.69369 2.56331 0.698249
1.63134 2.62566 0.874462
1.61564 2.64136 0.861854
1.63132 2.62568 0.849241
1.63135 2.62565 0.899657
1.61565 2.64135 0.88714
1.63134 2.62566 0.874462
1.69376 2.56324 0.824121
1.69378 2.56322 0.849338
1.6782 2.5788 0.836717
1.59983 2.65717 0.773576
1.61554 2.64146 0.761025
1.61557 2.64143 0.786199
1.59973 2.65727 0.67303
1.58397 2.67303 0.685563
1.58396 2.67304 0.660458
1.61564 2.64136 0.964413
1.63134 2.62566 0.9725
1.5999 2.6571 0.9725
1.63134 2.62566 0.949366
1.63134 2.62566 0.9725
1.61564 2.64136 0.964413
1.647 2.61 0.964474
1.63134 2.62566 0.9725
1.63134 2.62566 0.949366
1.59993 2.65707 0.89961
1.59992 2.65708 0.924693
1.58418 2.67282 0.912459
1.84822 2.40878 0.9725
1.81747 2.43953 0.9725
1.83285 2.42415 0.964721
1.83285 2.42415 0.938376
1.84822 2.40878 0.949497
1.83285 2.42415 0.964721
1.83285 2.42415 0.964721
1.84822 2.40878 0.949497
1.84822 2.40878 0.9725
1.81747 2.43953 0.949489
1.81747 2.43953 0.924896
1.83285 2.42415 0.938376
1.83285 2.42415 0.938376
1.83285 2.42415 0.964721
1.81747 2.43953 0.949489
1.81747 2.43953 0.949489
1.83285 2.42415 0.964721
1.81747 2.43953 0.9725
1.70931 2.54769 0.836759
1.69378 2.56322 0.849338
1.69376 2.56324 0.824121
1.7712 2.4858 0.761204
1.78663 2.47037 0.748624
1.78664 2.47036 0.773805
1.78664 2.47036 0.773805
1.77121 2.48579 0.786392
1.7712 2.4858 0.761204
1.77122 2.48578 0.811596
1.77121 2.48579 0.786392
1.78664 2.47036 0.799
1.77122 2.48578 0.811596
1.78664 2.47036 0.799
1.78665 2.47035 0.824208
1.78665 2.47035 0.824208
1.77123 2.48577 0.836818
1.77122 2.48578 0.811596
1.77122 2.48578 0.811596
1.77123 2.48577 0.836818
1.75578 2.50122 0.824187
1.78666 2.47034 0.849427
1.77123 2.48577 0.836818
1.78665 2.47035 0.824208
1.78666 2.47034 0.874644
1.77124 2.48576 0.887342
1.77124 2.48576 0.862061
1.77124 2.48576 0.862061
1.78666 2.47034 0.849427
1.78666 2.47034 0.874644
1.77123 2.48577 0.836818
1.78666 2.47034 0.849427
1.77124 2.48576 0.862061
2.07809 2.17891 0.107375
2.07833 2.17867 0.0811606
2.0934 2.1636 0.096448
2.06287 2.19413 0.0957297
2.07833 2.17867 0.0811606
2.07809 2.17891 0.107375
1.94028 2.31672 0.0954754
1.94028 2.31672 0.0725
1.95561 2.30139 0.0802084
2.00164 2.25536 0.0725
1.98629 2.27071 0.0801683
1.97095 2.28605 0.0725
1.97095 2.28605 0.0725
1.95561 2.30139 0.0802084
[...]
<PointData Scalars="View Factor" >
<DataArray type="Float64" Name="View Factor" NumberOfComponents="1" format="ascii">
0.00362175
0.00362175
0.00362175
0.00337162
0.00337162
0.00337162
0.00345144
0.00345144
0.00345144
0.00382149
0.00382149
0.00382149
0.00377674
0.00377674
0.00377674
0.00375671
0.00375671
0.00375671
0.00371269
0.00371269
0.00371269
0.00375534
0.00375534
0.00375534
0.00364627
0.00364627
0.00364627
0.00369298
0.00369298
0.00369298
0.00371553
0.00371553
0.00371553
0.00357737
0.00357737
0.00357737
0.00349252
0.00349252
0.00349252
0.00362791
0.00362791
0.00362791
0.00359421
0.00359421
0.00359421
0.00333291
0.00333291
0.00333291
0.00339611
0.00339611
0.00339611
0.00343579
0.00343579
0.00343579
0.00228764
0.00228764
0.00228764
0.00318782
0.00318782
0.00318782
0.00315174
0.00315174
0.00315174
0.00290835
0.00290835
0.00290835
0.00382341
0.00382341
0.00382341
0.00812373
0.00812373
0.00812373
0.0035177
0.0035177
0.0035177
0.00355955
0.00355955
0.00355955
0.0035855
0.0035855
0.0035855
0.00356885
0.00356885
0.00356885
0.00366295
0.00366295
0.00366295
0.00363846
0.00363846
0.00363846
0.0037013
0.0037013
0.0037013
0.00369652
0.00369652
0.00369652
0.00365551
0.00365551
0.00365551
0.00321075
0.00321075
0.00321075
0.00346073
0.00346073
0.00346073
0.00352678
0.00352678
0.00352678
0.00350157
0.00350157
0.00350157
0.00287616
0.00287616
0.00287616
0.00231198
0.00231198
0.00231198
0.00313618
0.00313618
0.00313618
0.00330893
0.00330893
0.00330893
0.00327114
0.00327114
0.00327114
0.00326213
0.00326213
0.00326213
0.00324767
0.00324767
0.00324767
0.00342698
0.00342698
0.00342698
0.00338684
0.00338684
0.00338684
0.00335088
0.00335088
0.00335088
0.00509356
0.00509356
0.00509356
0.00498158
0.00498158
0.00498158
0.00196598
0.00196598
0.00196598
0.0079636
0.0079636
0.0079636
0.00687038
0.00687038
0.00687038
0.00818376
0.00818376
0.00818376
0.00244041
0.00244041
0.00244041
0.00267705
0.00267705
0.00267705
0.00277439
0.00277439
0.00277439
0.00264726
0.00264726
0.00264726
0.00266457
0.00266457
0.00266457
0.00269995
0.00269995
0.00269995
0.00300266
0.00300266
0.00300266
0.00301209
0.00301209
0.00301209
0.00290986
0.00290986
0.00290986
0.00289536
0.00289536
0.00289536
0.00289106
0.00289106
0.00289106
0.00285763
0.00285763
0.00285763
0.0028247
0.0028247
0.0028247
0.00280518
0.00280518
0.00280518
0.00285618
0.00285618
0.00285618
0.00286852
0.00286852
0.00286852
0.0030737
0.0030737
0.0030737
0.003115
0.003115
0.003115
0.00312485
0.00312485
0.00312485
0.00310704
0.00310704
0.00310704
0.00292879
0.00292879
0.00292879
0.00302288
0.00302288
0.00302288
0.00305818
0.00305818
0.00305818
0.00307888
0.00307888
0.00307888
0.00323932
0.00323932
0.00323932
0.00320193
0.00320193
0.00320193
0.00317964
0.00317964
0.00317964
0.00328857
0.00328857
0.00328857
0.0033107
0.0033107
0.0033107
0.00329366
0.00329366
0.00329366
0.00325489
0.00325489
0.00325489
0.00330667
0.00330667
0.00330667
0.00334543
0.00334543
0.00334543
0.00350982
0.00350982
0.00350982
0.00355266
0.00355266
0.00355266
0.00337355
0.00337355
0.00337355
0.0034147
0.0034147
0.0034147
0.00316598
0.00316598
0.00316598
0.00328312
0.00328312
0.00328312
0.00330422
0.00330422
0.00330422
0.0032851
0.0032851
0.0032851
0.0032454
0.0032454
0.0032454
0.0047954
0.0047954
0.0047954
0.00489148
0.00489148
0.00489148
0.0049917
0.0049917
0.0049917
0.00499386
0.00499386
0.00499386
0.00509237
0.00509237
0.00509237
0.00405481
0.00405481
0.00405481
0.00510484
0.00510484
0.00510484
0.0053954
0.0053954
0.0053954
0.00675284
0.00675284
0.00675284
0.00688725
0.00688725
0.00688725
0.00603739
0.00603739
0.00603739
0.00644749
0.00644749
0.00644749
0.00614586
0.00614586
0.00614586
0.00746234
0.00746234
0.00746234
0.00730783
0.00730783
0.00730783
0.00719943
0.00719943
0.00719943
0.00733882
0.00733882
0.00733882
0.00522314
0.00522314
0.00522314
0.00509438
0.00509438
0.00509438
0.00508887
0.00508887
0.00508887
0.00519301
0.00519301
0.00519301
0.0051962
0.0051962
0.0051962
0.00529437
0.00529437
0.00529437
0.00594084
0.00594084
0.00594084
0.00488682
0.00488682
0.00488682
0.00497887
0.00497887
0.00497887
0.00507538
0.00507538
0.00507538
0.0050785
0.0050785
0.0050785
0.00517453
0.00517453
0.00517453
0.00526817
0.00526817
0.00526817
0.00517774
0.00517774
0.00517774
0.00538015
0.00538015
0.00538015
0.00527961
0.00527961
0.00527961
0.00527619
0.00527619
0.00527619
0.00198498
0.00198498
0.00198498
0.00199267
0.00199267
0.00199267
0.002166
0.002166
0.002166
0.00205105
0.00205105
0.00205105
0.0021042
0.0021042
0.0021042
0.00456697
0.00456697
0.00456697
0.00445017
0.00445017
0.00445017
0.004625
0.004625
0.004625
0.00461356
0.00461356
0.00461356
0.00410345
0.00410345
0.00410345
0.0038588
0.0038588
0.0038588
0.00402587
0.00402587
0.00402587
0.00521764
0.00521764
0.00521764
0.00523139
0.00523139
0.00523139
0.00752567
0.00752567
0.00752567
0.00746659
0.00746659
0.00746659
0.00748614
0.00748614
0.00748614
0.00621701
0.00621701
0.00621701
0.00623271
0.00623271
0.00623271
0.00689755
0.00689755
0.00689755
0.00227261
0.00227261
0.00227261
0.00258391
0.00258391
0.00258391
0.0025272
0.0025272
0.0025272
0.00255553
0.00255553
0.00255553
0.00248334
0.00248334
0.00248334
0.00251102
0.00251102
0.00251102
0.0025232
0.0025232
0.0025232
0.00250744
0.00250744
0.00250744
0.00247943
0.00247943
0.00247943
0.00246751
0.00246751
0.00246751
0.00268491
0.00268491
0.00268491
0.00273225
0.00273225
0.00273225
0.00272339
0.00272339
0.00272339
0.002464
0.002464
0.002464
0.00232733
0.00232733
0.00232733
0.00318127
0.00318127
0.00318127
0.00333576
0.00333576
0.00333576
0.0030483
0.0030483
0.0030483
0.00314905
0.00314905
0.00314905
0.00290576
0.00290576
0.00290576
0.002889
0.002889
0.002889
0.00295683
0.00295683
0.00295683
0.0030198
0.0030198
0.0030198
0.00266025
0.00266025
0.00266025
0.00262997
0.00262997
0.00262997
0.00265881
0.00265881
0.00265881
0.00267013
0.00267013
0.00267013
0.00265239
0.00265239
0.00265239
0.00262322
0.00262322
0.00262322
0.00261212
0.00261212
0.00261212
0.00339481
0.00339481
0.00339481
0.00332841
0.00332841
0.00332841
0.0029125
0.0029125
0.0029125
0.00290387
0.00290387
0.00290387
0.00296561
0.00296561
0.00296561
0.00303654
0.00303654
0.00303654
0.00326868
0.00326868
0.00326868
0.00327403
0.00327403
0.00327403
0.00340494
0.00340494
0.00340494
0.00333388
0.00333388
0.00333388
0.00298211
0.00298211
0.00298211
0.0030444
0.0030444
0.0030444
0.00295428
0.00295428
0.00295428
0.00296816
0.00296816
0.00296816
0.0029484
0.0029484
0.0029484
0.00292096
0.00292096
0.00292096
0.0029011
0.0029011
0.0029011
0.00291467
0.00291467
0.00291467
0.00299507
0.00299507
0.00299507
0.00296322
0.00296322
0.00296322
0.00294399
0.00294399
0.00294399
0.00295974
0.00295974
0.00295974
0.00293906
0.00293906
0.00293906
0.00288648
0.00288648
0.00288648
0.00290357
0.00290357
0.00290357
0.00281725
0.00281725
0.00281725
0.00281128
0.00281128
0.00281128
0.00279828
0.00279828
0.00279828
0.00284346
0.00284346
0.00284346
0.00286239
0.00286239
0.00286239
0.00284911
0.00284911
0.00284911
0.00305355
0.00305355
0.00305355
0.00307003
0.00307003
0.00307003
0.00305041
0.00305041
0.00305041
0.00301782
0.00301782
0.00301782
0.00301425
0.00301425
0.00301425
0.00299814
0.00299814
0.00299814
0.00306783
0.00306783
0.00306783
0.00304875
0.00304875
0.00304875
0.00306705
0.00306705
0.00306705
0.0031052
0.0031052
0.0031052
0.00311026
0.00311026
0.00311026
0.00312712
0.00312712
0.00312712
0.00313088
0.00313088
0.00313088
0.00316831
0.00316831
0.00316831
0.00316318
0.00316318
0.00316318
0.00297466
0.00297466
0.00297466
0.00296178
0.00296178
0.00296178
0.00298263
0.00298263
0.00298263
0.00300868
0.00300868
0.00300868
0.00309407
0.00309407
0.00309407
0.00312133
0.00312133
0.00312133
0.00312932
0.00312932
0.00312932
0.00314311
0.00314311
0.00314311
0.00303771
0.00303771
0.00303771
0.00301625
0.00301625
0.00301625
0.00302942
0.00302942
0.00302942
0.00306436
0.00306436
0.00306436
0.00308564
0.00308564
0.00308564
0.00307216
0.00307216
0.00307216
0.00322773
0.00322773
0.00322773
0.00319484
0.00319484
0.00319484
0.00324934
0.00324934
0.00324934
0.0032327
0.0032327
0.0032327
0.00318941
0.00318941
0.00318941
0.00317316
0.00317316
0.00317316
0.00336942
0.00336942
0.00336942
0.00334733
0.00334733
0.00334733
0.00336692
0.00336692
0.00336692
0.00344379
0.00344379
0.00344379
0.00348015
0.00348015
0.00348015
0.00342002
0.00342002
0.00342002
0.00343793
0.00343793
0.00343793
0.00348561
0.00348561
0.00348561
0.00350399
0.00350399
0.00350399
0.00368528
0.00368528
0.00368528
0.00364106
0.00364106
0.00364106
0.00375495
0.00375495
0.00375495
0.00370617
0.00370617
0.00370617
0.00368236
0.00368236
0.00368236
0.00354695
0.00354695
0.00354695
0.00363592
0.00363592
0.00363592
0.0035715
0.0035715
0.0035715
0.00361551
0.00361551
0.00361551
0.00335608
0.00335608
0.00335608
0.00332376
0.00332376
0.00332376
0.00336296
0.00336296
0.00336296
0.00337933
0.00337933
0.00337933
0.00330041
0.00330041
0.00330041
0.00331637
0.00331637
0.00331637
0.00364815
0.00364815
0.00364815
0.0036534
0.0036534
0.0036534
0.00341343
0.00341343
0.00341343
0.00356964
0.00356964
0.00356964
0.00318471
0.00318471
0.00318471
0.00491429
0.00491429
0.00491429
0.00498666
0.00498666
0.00498666
0.0048919
0.0048919
0.0048919
0.00413014
0.00413014
0.00413014
0.00397996
0.00397996
0.00397996
0.00347185
0.00347185
0.00347185
0.00346722
0.00346722
0.00346722
0.00509814
0.00509814
0.00509814
0.00585729
0.00585729
0.00585729
0.00519505
0.00519505
0.00519505
0.00531948
0.00531948
0.00531948
0.00549225
0.00549225
0.00549225
0.0054005
0.0054005
0.0054005
0.00673629
0.00673629
0.00673629
0.00700781
0.00700781
0.00700781
0.00711113
0.00711113
0.00711113
0.00723416
0.00723416
0.00723416
0.00665296
0.00665296
0.00665296
0.00653841
0.00653841
0.00653841
0.00645372
0.00645372
0.00645372
0.00643983
0.00643983
0.00643983
0.00608709
0.00608709
0.00608709
0.00599364
0.00599364
0.00599364
0.0062747
0.0062747
0.0062747
0.00636876
0.00636876
0.00636876
0.00635408
0.00635408
0.00635408
0.00576745
0.00576745
0.00576745
0.00623125
0.00623125
0.00623125
0.00632853
0.00632853
0.00632853
0.00643197
0.00643197
0.00643197
0.00632445
0.00632445
0.00632445
0.00611452
0.00611452
0.00611452
0.00604504
0.00604504
0.00604504
0.00713505
0.00713505
0.00713505
0.00680974
0.00680974
0.00680974
0.00697158
0.00697158
0.00697158
0.00709186
0.00709186
0.00709186
0.00553446
0.00553446
0.00553446
0.0053976
0.0053976
0.0053976
0.00478724
0.00478724
0.00478724
0.00487578
0.00487578
0.00487578
0.00470763
0.00470763
0.00470763
0.00602205
0.00602205
0.00602205
0.00526375
0.00526375
0.00526375
0.00516716
0.00516716
0.00516716
0.00547763
0.00547763
0.00547763
0.0056734
0.0056734
0.0056734
0.00196324
0.00196324
0.00196324
0.00198143
0.00198143
0.00198143
0.00203818
0.00203818
0.00203818
0.00201771
0.00201771
0.00201771
0.00201772
0.00201772
0.00201772
0.00433009
0.00433009
0.00433009
0.00439281
0.00439281
0.00439281
0.00419449
0.00419449
0.00419449
0.00427304
0.00427304
0.00427304
0.00427804
0.00427804
0.00427804
0.00415991
0.00415991
0.00415991
0.00422105
0.00422105
0.00422105
0.00423087
0.00423087
0.00423087
0.0045196
0.0045196
0.0045196
0.0046478
0.0046478
0.0046478
0.00457858
0.00457858
0.00457858
0.00450182
0.00450182
0.00450182
0.00444393
0.00444393
0.00444393
0.00453215
0.00453215
0.00453215
0.00436411
0.00436411
0.00436411
0.00448474
0.00448474
0.00448474
0.00578898
0.00578898
0.00578898
0.00450179
0.00450179
0.00450179
0.00608234
0.00608234
0.00608234
0.00597236
0.00597236
0.00597236
0.00599055
0.00599055
0.00599055
0.00582744
0.00582744
0.00582744
0.00591743
0.00591743
0.00591743
0.00555644
0.00555644
0.00555644
0.00565138
0.00565138
0.00565138
0.00656914
0.00656914
0.00656914
0.00585048
0.00585048
0.00585048
0.00586614
0.00586614
0.00586614
0.00489405
0.00489405
0.00489405
0.00482975
0.00482975
0.00482975
0.00502309
0.00502309
0.00502309
0.00508781
0.00508781
0.00508781
0.00516598
0.00516598
0.00516598
0.00487265
0.00487265
0.00487265
0.00536231
0.00536231
0.00536231
0.00526864
0.00526864
0.00526864
0.00528266
0.00528266
0.00528266
0.00463045
0.00463045
0.00463045
0.004636
0.004636
0.004636
0.00527181
0.00527181
0.00527181
0.00464679
0.00464679
0.00464679
0.00456731
0.00456731
0.00456731
0.00456244
0.00456244
0.00456244
0.00443232
0.00443232
0.00443232
0.00442641
0.00442641
0.00442641
0.00523095
0.00523095
0.00523095
0.00514609
0.00514609
0.00514609
0.00729546
0.00729546
0.00729546
0.00740327
0.00740327
0.00740327
0.00737921
0.00737921
0.00737921
0.00725511
0.00725511
0.00725511
0.00763481
0.00763481
0.00763481
0.00761942
0.00761942
0.00761942
0.00779214
0.00779214
0.00779214
0.00785376
0.00785376
0.00785376
0.00772789
0.00772789
0.00772789
0.00692622
0.00692622
0.00692622
0.00705818
0.00705818
0.00705818
0.00694934
0.00694934
0.00694934
0.00633598
0.00633598
0.00633598
0.00654761
0.00654761
0.00654761
0.00652974
0.00652974
0.00652974
0.00642386
0.00642386
0.00642386
0.0065999
0.0065999
0.0065999
0.006727
0.006727
0.006727
0.00661861
0.00661861
0.00661861
0.00681682
0.00681682
0.00681682
0.0067823
0.0067823
0.0067823
0.00655738
0.00655738
0.00655738
0.00691661
0.00691661
0.00691661
0.00680367
0.00680367
0.00680367
0.00699513
0.00699513
0.00699513
0.00829344
0.00829344
0.00829344
0.00845674
0.00845674
0.00845674
0.00851188
0.00851188
0.00851188
0.00757264
0.00757264
0.00757264
0.00770056
0.00770056
0.00770056
0.00794538
0.00794538
0.00794538
0.00805407
0.00805407
0.00805407
0.00780787
0.00780787
0.00780787
0.00778478
0.00778478
0.00778478
0.00204876
0.00204876
0.00204876
0.00203878
0.00203878
0.00203878
0.00204994
0.00204994
0.00204994
0.00207125
0.00207125
0.00207125
0.00208587
0.00208587
0.00208587
0.00207349
0.00207349
0.00207349
0.00208312
0.00208312
0.00208312
0.00290508
0.00290508
0.00290508
0.0020143
0.0020143
0.0020143
0.00202273
0.00202273
0.00202273
0.00205117
0.00205117
0.00205117
0.0020412
0.0020412
0.0020412
0.00257201
0.00257201
0.00257201
0.0026009
0.0026009
0.0026009
0.00261779
0.00261779
0.00261779
0.00260586
0.00260586
0.00260586
0.00249471
0.00249471
0.00249471
0.00251577
0.00251577
0.00251577
0.00256797
0.00256797
0.00256797
0.00259461
0.00259461
0.00259461
0.00256502
0.00256502
0.00256502
0.00255182
0.00255182
0.00255182
0.00369928
0.00369928
0.00369928
0.00356477
0.00356477
0.00356477
0.00326097
0.00326097
0.00326097
0.00338441
0.00338441
0.00338441
0.00344765
0.00344765
0.00344765
0.00344866
0.00344866
0.00344866
0.00332334
0.00332334
0.00332334
0.00338716
0.00338716
0.00338716
0.00332508
0.00332508
0.00332508
0.00338269
0.00338269
0.00338269
0.0035103
0.0035103
0.0035103
0.00363864
0.00363864
0.00363864
0.00362745
0.00362745
0.00362745
0.00351158
0.00351158
0.00351158
0.00356798
0.00356798
0.00356798
0.00287399
0.00287399
0.00287399
0.00349914
0.00349914
0.00349914
0.00350137
0.00350137
0.00350137
0.00324976
0.00324976
0.00324976
0.00312576
0.00312576
0.00312576
0.00318563
0.00318563
0.00318563
0.00273
0.00273
0.00273
0.00221721
0.00221721
0.00221721
0.00241134
0.00241134
0.00241134
0.00241602
0.00241602
0.00241602
0.00246833
0.00246833
0.00246833
0.00247548
0.00247548
0.00247548
0.00320146
0.00320146
0.00320146
0.00296495
0.00296495
0.00296495
0.00308526
0.00308526
0.00308526
0.00242491
0.00242491
0.00242491
0.00243658
0.00243658
0.00243658
0.00292522
0.00292522
0.00292522
0.00279827
0.00279827
0.00279827
0.00280503
0.00280503
0.00280503
0.00286793
0.00286793
0.00286793
0.00271167
0.00271167
0.00271167
0.00301178
0.00301178
0.00301178
0.00285209
0.00285209
0.00285209
0.00235223
0.00235223
0.00235223
0.00236786
0.00236786
0.00236786
0.00240925
0.00240925
0.00240925
0.00242946
0.00242946
0.00242946
0.00240318
0.00240318
0.00240318
0.00239319
0.00239319
0.00239319
0.00245153
0.00245153
0.00245153
0.00247799
0.00247799
0.00247799
0.00248842
0.00248842
0.00248842
0.00247215
0.00247215
0.00247215
0.00244537
0.00244537
0.00244537
0.00243516
0.00243516
0.00243516
0.0027553
0.0027553
0.0027553
0.00276712
0.00276712
0.00276712
0.00274857
0.00274857
0.00274857
0.00272518
0.00272518
0.00272518
0.00271809
0.00271809
0.00271809
0.00270652
0.00270652
0.00270652
0.0031232
0.0031232
0.0031232
0.00326673
0.00326673
0.00326673
0.0031902
0.0031902
0.0031902
0.00313208
0.00313208
0.00313208
0.00306749
0.00306749
0.00306749
0.00310804
0.00310804
0.00310804
0.00312634
0.00312634
0.00312634
0.00310584
0.00310584
0.00310584
0.00305137
0.00305137
0.00305137
0.00306925
0.00306925
0.00306925
0.00304922
0.00304922
0.00304922
0.00301174
0.00301174
0.00301174
0.00285167
0.00285167
0.00285167
0.00288707
0.00288707
0.00288707
0.00288614
0.00288614
0.00288614
0.00290408
0.00290408
0.00290408
0.00285238
0.00285238
0.00285238
0.00283496
0.00283496
0.00283496
0.00283733
0.00283733
0.00283733
0.00285369
0.00285369
0.00285369
0.00307539
0.00307539
0.00307539
0.00306645
0.00306645
0.00306645
0.00294194
0.00294194
0.00294194
0.00301107
0.00301107
0.00301107
0.00260884
0.00260884
0.00260884
0.0026395
0.0026395
0.0026395
0.002751
0.002751
0.002751
0.00264354
0.00264354
0.00264354
0.0026136
0.0026136
0.0026136
0.00261065
0.00261065
0.00261065
0.00259715
0.00259715
0.00259715
0.00327479
0.00327479
0.00327479
0.00320715
0.00320715
0.00320715
0.00321523
0.00321523
0.00321523
0.00328999
0.00328999
0.00328999
0.00335817
0.00335817
0.00335817
0.00335098
0.00335098
0.00335098
0.0034206
0.0034206
0.0034206
0.00349796
0.00349796
0.00349796
0.00315697
0.00315697
0.00315697
0.00309208
0.00309208
0.00309208
0.00310005
0.00310005
0.00310005
0.00317203
0.00317203
0.00317203
0.00338946
0.00338946
0.00338946
0.00331674
0.00331674
0.00331674
0.00298997
0.00298997
0.00298997
0.00300478
0.00300478
0.00300478
0.00325704
0.00325704
0.00325704
0.00311503
0.00311503
0.00311503
0.00325079
0.00325079
0.00325079
0.00317912
0.00317912
0.00317912
0.00302486
0.00302486
0.00302486
0.0035625
0.0035625
0.0035625
0.00362954
0.00362954
0.00362954
0.00334376
0.00334376
0.00334376
0.00340947
0.00340947
0.00340947
0.00295685
0.00295685
0.00295685
0.002993
0.002993
0.002993
0.00299339
0.00299339
0.00299339
0.00301129
0.00301129
0.00301129
0.00288814
0.00288814
0.00288814
0.0029044
0.0029044
0.0029044
0.00290646
0.00290646
0.00290646
0.00293935
0.00293935
0.00293935
0.002941
0.002941
0.002941
0.00295763
0.00295763
0.00295763
0.00324217
0.00324217
0.00324217
0.00316507
0.00316507
0.00316507
0.0031833
0.0031833
0.0031833
0.00318558
0.00318558
0.00318558
0.00322253
0.00322253
0.00322253
0.00322428
0.00322428
0.00322428
0.00324295
0.00324295
0.00324295
0.00382233
0.00382233
0.00382233
0.00377751
0.00377751
0.00377751
0.00361192
0.00361192
0.00361192
0.00356688
0.00356688
0.00356688
0.00436634
0.00436634
0.00436634
0.00386375
0.00386375
0.00386375
0.00378679
0.00378679
0.00378679
0.00339814
0.00339814
0.00339814
0.00324064
0.00324064
0.00324064
0.00324966
0.00324966
0.00324966
0.00332768
0.00332768
0.00332768
0.00352747
0.00352747
0.00352747
0.00316373
0.00316373
0.00316373
0.00312394
0.00312394
0.00312394
0.00312454
0.00312454
0.00312454
0.0031049
0.0031049
0.0031049
0.00322303
0.00322303
0.00322303
0.00324263
0.00324263
0.00324263
0.00322206
0.00322206
0.00322206
0.00318237
0.00318237
0.00318237
0.00316278
0.00316278
0.00316278
0.00318287
0.00318287
0.00318287
0.00324449
0.00324449
0.00324449
0.00328604
0.00328604
0.00328604
0.00336371
0.00336371
0.00336371
0.00322529
0.00322529
0.00322529
0.00330322
0.00330322
0.00330322
0.00328271
0.00328271
0.00328271
0.0034275
0.0034275
0.0034275
0.00351928
0.00351928
0.00351928
0.00343662
0.00343662
0.00343662
0.00359446
0.00359446
0.00359446
0.00350198
0.00350198
0.00350198
0.00358628
0.00358628
0.00358628
0.00538392
0.00538392
0.00538392
0.00528588
0.00528588
0.00528588
0.0054907
0.0054907
0.0054907
0.00548696
0.00548696
0.00548696
0.00519153
0.00519153
0.00519153
0.00519036
0.00519036
0.00519036
0.00539064
0.00539064
0.00539064
0.00528895
0.00528895
0.00528895
0.00511717
0.00511717
0.00511717
0.00530113
0.00530113
0.00530113
0.00520175
0.00520175
0.00520175
0.00529399
0.00529399
0.00529399
0.00444176
0.00444176
0.00444176
0.00380594
0.00380594
0.00380594
0.00373156
0.00373156
0.00373156
0.00344033
0.00344033
0.00344033
0.00351588