<VTKFile type="UnstructuredGrid" version="1.0">
<UnstructuredGrid>
<Piece NumberOfPoints="8859" NumberOfCells="2953">
<Points>
<DataArray type="Float64" NumberOfComponents="3" format="ascii">
2.75455 1.50245 11.3626
2.76986 1.48714 11.3746
2.75465 1.50235 11.3883
2.78515 1.47185 11.3117
2.78516 1.47184 11.2865
2.8005 1.4565 11.299
2.76981 1.48719 11.3244
2.78515 1.47185 11.3117
2.78514 1.47186 11.3369
2.72412 1.53288 11.4149
2.73952 1.51748 11.4225
2.70875 1.54825 11.4225
2.72412 1.53288 11.4149
2.73943 1.51757 11.3996
2.73952 1.51748 11.4225
2.75488 1.50212 11.4148
2.77036 1.48664 11.4225
2.73952 1.51748 11.4225
2.75488 1.50212 11.4148
2.73943 1.51757 11.3996
2.75465 1.50235 11.3883
2.73952 1.51748 11.4225
2.73943 1.51757 11.3996
2.75488 1.50212 11.4148
2.75465 1.50235 11.3883
2.76986 1.48714 11.3746
2.76997 1.48703 11.3993
2.76997 1.48703 11.3993
2.75488 1.50212 11.4148
2.75465 1.50235 11.3883
2.77036 1.48664 11.4225
2.75488 1.50212 11.4148
2.76997 1.48703 11.3993
2.76986 1.48714 11.3746
2.75455 1.50245 11.3626
2.76982 1.48718 11.3495
2.76981 1.48719 11.3244
2.78514 1.47186 11.3369
2.76982 1.48718 11.3495
2.7852 1.4718 11.3876
2.76997 1.48703 11.3993
2.76986 1.48714 11.3746
2.8005 1.4565 11.3739
2.8005 1.4565 11.3986
2.7852 1.4718 11.3876
2.8005 1.4565 11.2739
2.8005 1.4565 11.299
2.78516 1.47184 11.2865
2.78515 1.47185 11.3117
2.8005 1.4565 11.299
2.8005 1.4565 11.3241
2.8005 1.4565 11.3241
2.78514 1.47186 11.3369
2.78515 1.47185 11.3117
2.8005 1.4565 10.7465
2.8005 1.4565 10.7717
2.78518 1.47182 10.7591
2.78517 1.47183 11.2111
2.8005 1.4565 11.2236
2.78517 1.47183 11.2362
2.8005 1.4565 11.1985
2.8005 1.4565 11.2236
2.78517 1.47183 11.2111
2.78519 1.47181 11.0854
2.8005 1.4565 11.098
2.78519 1.47181 11.1106
2.32274 1.93426 10.5306
2.33845 1.91855 10.5225
2.33845 1.91855 10.5456
2.27541 1.98159 11.4225
2.24359 2.01341 11.4225
2.25954 1.99746 11.4143
2.78515 1.47185 11.3621
2.76982 1.48718 11.3495
2.78514 1.47186 11.3369
2.76986 1.48714 11.3746
2.76982 1.48718 11.3495
2.78515 1.47185 11.3621
2.78515 1.47185 11.3621
2.7852 1.4718 11.3876
2.76986 1.48714 11.3746
2.8005 1.4565 11.3739
2.7852 1.4718 11.3876
2.78515 1.47185 11.3621
2.78544 1.47156 11.4138
2.8005 1.4565 11.3986
2.8005 1.4565 11.4225
2.78544 1.47156 11.4138
2.7852 1.4718 11.3876
2.8005 1.4565 11.3986
2.8005 1.4565 11.4225
2.77036 1.48664 11.4225
2.78544 1.47156 11.4138
2.77036 1.48664 11.4225
2.76997 1.48703 11.3993
2.78544 1.47156 11.4138
2.76997 1.48703 11.3993
2.7852 1.4718 11.3876
2.78544 1.47156 11.4138
2.78517 1.47183 11.2362
2.8005 1.4565 11.2236
2.8005 1.4565 11.2487
2.78514 1.47186 11.3369
2.8005 1.4565 11.3241
2.8005 1.4565 11.3491
2.8005 1.4565 11.3739
2.78515 1.47185 11.3621
2.8005 1.4565 11.3491
2.8005 1.4565 11.3491
2.78515 1.47185 11.3621
2.78514 1.47186 11.3369
2.8005 1.4565 11.0729
2.8005 1.4565 11.098
2.78519 1.47181 11.0854
2.78518 1.47182 10.7591
2.8005 1.4565 10.7717
2.78518 1.47182 10.7842
2.76985 1.48715 11.1985
2.75454 1.50246 11.186
2.76986 1.48714 11.1734
2.78516 1.47184 11.2614
2.8005 1.4565 11.2739
2.78516 1.47184 11.2865
2.78516 1.47184 11.2614
2.8005 1.4565 11.2487
2.8005 1.4565 11.2739
2.78516 1.47184 11.2614
2.76984 1.48716 11.2488
2.78517 1.47183 11.2362
2.78517 1.47183 11.2362
2.8005 1.4565 11.2487
2.78516 1.47184 11.2614
2.76982 1.48718 11.2992
2.78515 1.47185 11.3117
2.76981 1.48719 11.3244
2.76982 1.48718 11.2992
2.78516 1.47184 11.2865
2.78515 1.47185 11.3117
2.75451 1.50249 11.2615
2.7392 1.5178 11.2741
2.73921 1.51779 11.2489
2.53996 1.71704 11.3884
2.52458 1.73242 11.3749
2.53996 1.71704 11.3628
2.49374 1.76326 11.2238
2.49375 1.76325 11.249
2.47832 1.77868 11.2364
2.8005 1.4565 10.5225
2.8005 1.4565 10.5464
2.78544 1.47156 10.5312
2.27543 1.98157 11.3993
2.27541 1.98159 11.4225
2.25954 1.99746 11.4143
2.33845 1.91855 11.3245
2.32276 1.93424 11.3371
2.32275 1.93425 11.3119
2.25954 1.99746 11.4143
2.24359 2.01341 11.4225
2.24374 2.01326 11.3992
2.76987 1.48713 10.847
2.75455 1.50245 10.8344
2.76987 1.48713 10.8219
2.8005 1.4565 10.9976
2.78519 1.47181 10.985
2.8005 1.4565 10.9725
2.78519 1.47181 11.0352
2.8005 1.4565 11.0227
2.8005 1.4565 11.0478
2.76988 1.48712 10.9474
2.75456 1.50244 10.96
2.75456 1.50244 10.9349
2.76988 1.48712 10.9725
2.75456 1.50244 10.96
2.76988 1.48712 10.9474
2.78519 1.47181 10.985
2.76988 1.48712 10.9976
2.76988 1.48712 10.9725
2.75455 1.50245 11.1106
2.76987 1.48713 11.1231
2.75455 1.50245 11.1357
2.72393 1.53307 11.0855
2.72392 1.53308 11.1106
2.70861 1.54839 11.098
2.75456 1.50244 11.0855
2.73924 1.51776 11.0729
2.75456 1.50244 11.0603
2.75456 1.50244 11.0603
2.76987 1.48713 11.0729
2.75456 1.50244 11.0855
2.73924 1.51776 11.0729
2.73925 1.51775 11.0478
2.75456 1.50244 11.0603
2.75456 1.50244 11.0603
2.73925 1.51775 11.0478
2.75456 1.50244 11.0352
2.8005 1.4565 11.0478
2.8005 1.4565 11.0729
2.78519 1.47181 11.0603
2.78519 1.47181 11.0603
2.78519 1.47181 11.0352
2.8005 1.4565 11.0478
2.78519 1.47181 11.0603
2.8005 1.4565 11.0729
2.78519 1.47181 11.0854
2.78519 1.47181 11.0854
2.76987 1.48713 11.0729
2.78519 1.47181 11.0603
2.75454 1.50246 11.1608
2.73923 1.51777 11.1483
2.75455 1.50245 11.1357
2.75454 1.50246 11.1608
2.76986 1.48714 11.1734
2.75454 1.50246 11.186
2.7086 1.5484 11.1483
2.72392 1.53308 11.1357
2.72392 1.53308 11.1609
2.72392 1.53308 11.1609
2.72392 1.53308 11.1357
2.73923 1.51777 11.1483
2.8005 1.4565 11.1231
2.78519 1.47181 11.1106
2.8005 1.4565 11.098
2.75455 1.50245 11.1357
2.76987 1.48713 11.1231
2.76986 1.48714 11.1482
2.76986 1.48714 11.1482
2.75454 1.50246 11.1608
2.75455 1.50245 11.1357
2.76986 1.48714 11.1734
2.75454 1.50246 11.1608
2.76986 1.48714 11.1482
2.78517 1.47183 11.2362
2.76984 1.48716 11.2488
2.76985 1.48715 11.2237
2.76985 1.48715 11.2237
2.78517 1.47183 11.2111
2.78517 1.47183 11.2362
2.76985 1.48715 11.1985
2.78517 1.47183 11.2111
2.76985 1.48715 11.2237
2.73921 1.51779 11.2489
2.73921 1.51779 11.2238
2.75452 1.50248 11.2363
2.75452 1.50248 11.2363
2.75451 1.50249 11.2615
2.73921 1.51779 11.2489
2.76984 1.48716 11.2488
2.75451 1.50249 11.2615
2.75452 1.50248 11.2363
2.75452 1.50248 11.2363
2.76985 1.48715 11.2237
2.76984 1.48716 11.2488
2.7239 1.5331 11.2364
2.73921 1.51779 11.2238
2.73921 1.51779 11.2489
2.7239 1.5331 11.2364
2.70859 1.54841 11.249
2.70859 1.54841 11.2238
2.76981 1.48719 11.3244
2.76982 1.48718 11.3495
2.75451 1.50249 11.3372
2.75451 1.50249 11.3372
2.76982 1.48718 11.3495
2.75455 1.50245 11.3626
2.7392 1.5178 11.2741
2.75451 1.50249 11.2615
2.75451 1.50249 11.2867
2.75451 1.50249 11.2867
2.7392 1.5178 11.2994
2.7392 1.5178 11.2741
2.67798 1.57902 11.1232
2.66266 1.59434 11.1357
2.66266 1.59434 11.1106
2.70859 1.54841 11.2238
2.70859 1.54841 11.1986
2.7239 1.5331 11.2112
2.7239 1.5331 11.2112
2.7239 1.5331 11.2364
2.70859 1.54841 11.2238
2.73921 1.51779 11.2238
2.7239 1.5331 11.2364
2.7239 1.5331 11.2112
2.73922 1.51778 11.1986
2.73921 1.51779 11.2238
2.7239 1.5331 11.2112
2.57068 1.68632 11.3628
2.57068 1.68632 11.3884
2.55533 1.70167 11.3749
2.55533 1.70167 11.3749
2.57068 1.68632 11.3884
2.55533 1.70167 11.3995
2.55533 1.70167 11.3749
2.55533 1.70167 11.3995
2.53996 1.71704 11.3884
2.53996 1.71704 11.3884
2.53996 1.71704 11.3628
2.55533 1.70167 11.3749
2.52458 1.73242 11.3498
2.53996 1.71704 11.3628
2.52458 1.73242 11.3749
2.50912 1.74788 10.985
2.50912 1.74788 11.0101
2.49371 1.76329 10.9976
2.41633 1.84067 11.1106
2.40077 1.85623 11.098
2.41632 1.84068 11.0854
2.41635 1.84065 11.1608
2.40081 1.85619 11.1734
2.40079 1.85621 11.1482
2.33845 1.91855 11.3245
2.32275 1.93425 11.3119
2.33843 1.91857 11.2992
2.33845 1.91855 11.3497
2.32276 1.93424 11.3371
2.33845 1.91855 11.3245
2.40087 1.85613 11.2741
2.40088 1.85612 11.2993
2.38531 1.87169 11.2867
2.30693 1.95007 11.2236
2.32265 1.93435 11.211
2.32267 1.93433 11.2362
2.30684 1.95016 11.123
2.29108 1.96592 11.1356
2.29106 1.96594 11.1105
2.32274 1.93426 11.4144
2.33845 1.91855 11.4225
2.30701 1.94999 11.4225
2.33845 1.91855 11.3994
2.33845 1.91855 11.4225
2.32274 1.93426 11.4144
2.35411 1.90289 11.4145
2.33845 1.91855 11.4225
2.33845 1.91855 11.3994
2.30704 1.94996 11.3496
2.30703 1.94997 11.3747
2.29128 1.96572 11.3625
2.55533 1.70167 11.4225
2.52458 1.73242 11.4225
2.53996 1.71704 11.4147
2.53996 1.71704 11.3884
2.55533 1.70167 11.3995
2.53996 1.71704 11.4147
2.53996 1.71704 11.4147
2.55533 1.70167 11.3995
2.55533 1.70167 11.4225
2.52458 1.73242 11.3995
2.52458 1.73242 11.3749
2.53996 1.71704 11.3884
2.53996 1.71704 11.3884
2.53996 1.71704 11.4147
2.52458 1.73242 11.3995
2.52458 1.73242 11.3995
2.53996 1.71704 11.4147
2.52458 1.73242 11.4225
2.41642 1.84058 11.2868
2.40088 1.85612 11.2993
2.40087 1.85613 11.2741
2.47831 1.77869 11.2112
2.49374 1.76326 11.1986
2.49374 1.76326 11.2238
2.49374 1.76326 11.2238
2.47832 1.77868 11.2364
2.47831 1.77869 11.2112
2.47833 1.77867 11.2616
2.47832 1.77868 11.2364
2.49375 1.76325 11.249
2.47833 1.77867 11.2616
2.49375 1.76325 11.249
2.49376 1.76324 11.2742
2.49376 1.76324 11.2742
2.47834 1.77866 11.2868
2.47833 1.77867 11.2616
2.47833 1.77867 11.2616
2.47834 1.77866 11.2868
2.46289 1.79411 11.2742
2.49377 1.76323 11.2994
2.47834 1.77866 11.2868
2.49376 1.76324 11.2742
2.49377 1.76323 11.3246
2.47835 1.77865 11.3373
2.47834 1.77866 11.3121
2.47834 1.77866 11.3121
2.49377 1.76323 11.2994
2.49377 1.76323 11.3246
2.47834 1.77866 11.2868
2.49377 1.76323 11.2994
2.47834 1.77866 11.3121
2.7852 1.4718 10.5574
2.78544 1.47156 10.5312
2.8005 1.4565 10.5464
2.76997 1.48703 10.5457
2.78544 1.47156 10.5312
2.7852 1.4718 10.5574
2.64739 1.60961 10.5455
2.64738 1.60962 10.5225
2.66272 1.59428 10.5302
2.70875 1.54825 10.5225
2.6934 1.5636 10.5302
2.67805 1.57895 10.5225
2.67805 1.57895 10.5225
2.66272 1.59428 10.5302
2.64738 1.60962 10.5225
2.19638 2.06062 10.559
2.1963 2.0607 10.5329
2.2122 2.0448 10.5464
2.2122 2.0448 10.5464
2.22771 2.02929 10.531
2.22802 2.02898 10.5575
2.18073 2.07627 10.5478
2.1963 2.0607 10.5329
2.19638 2.06062 10.559
2.18073 2.07627 10.5478
2.18123 2.07577 10.5225
2.1963 2.0607 10.5329
2.27543 1.98157 10.5457
[...]
<PointData Scalars="View Factor" >
<DataArray type="Float64" Name="View Factor" NumberOfComponents="1" format="ascii">
0.000260487
0.000260487
0.000260487
0.000278639
0.000278639
0.000278639
0.000272482
0.000272482
0.000272482
0.000244404
0.000244404
0.000244404
0.000248502
0.000248502
0.000248502
0.000254583
0.000254583
0.000254583
0.000254639
0.000254639
0.000254639
0.000251904
0.000251904
0.000251904
0.000261014
0.000261014
0.000261014
0.00025804
0.00025804
0.00025804
0.00025868
0.00025868
0.00025868
0.000263457
0.000263457
0.000263457
0.000269458
0.000269458
0.000269458
0.000264447
0.000264447
0.000264447
0.000271323
0.000271323
0.000271323
0.000281751
0.000281751
0.000281751
0.000279091
0.000279091
0.000279091
0.000276002
0.000276002
0.000276002
0.00034564
0.00034564
0.00034564
0.000286722
0.000286722
0.000286722
0.00028993
0.00028993
0.00028993
0.000300833
0.000300833
0.000300833
0.000206705
0.000206705
0.000206705
0.000148996
0.000148996
0.000148996
0.000269923
0.000269923
0.000269923
0.000266923
0.000266923
0.000266923
0.000267379
0.000267379
0.000267379
0.000270838
0.000270838
0.000270838
0.000268831
0.000268831
0.000268831
0.000268307
0.000268307
0.000268307
0.000264689
0.000264689
0.000264689
0.000262089
0.000262089
0.000262089
0.000264891
0.000264891
0.000264891
0.000287171
0.000287171
0.000287171
0.000276464
0.000276464
0.000276464
0.000273873
0.000273873
0.000273873
0.000273414
0.000273414
0.000273414
0.000304218
0.000304218
0.000304218
0.000341736
0.000341736
0.000341736
0.000281617
0.000281617
0.000281617
0.000281308
0.000281308
0.000281308
0.000284444
0.000284444
0.000284444
0.000280377
0.000280377
0.000280377
0.00028399
0.00028399
0.00028399
0.000272014
0.000272014
0.000272014
0.000275089
0.000275089
0.000275089
0.000266482
0.000266482
0.000266482
0.000185192
0.000185192
0.000185192
0.000178918
0.000178918
0.000178918
0.000378476
0.000378476
0.000378476
0.000149127
0.000149127
0.000149127
0.00015259
0.00015259
0.00015259
0.000149726
0.000149726
0.000149726
0.000322761
0.000322761
0.000322761
0.00031627
0.00031627
0.00031627
0.000310172
0.000310172
0.000310172
0.000306748
0.000306748
0.000306748
0.000307262
0.000307262
0.000307262
0.000308284
0.000308284
0.000308284
0.000286591
0.000286591
0.000286591
0.0002741
0.0002741
0.0002741
0.000288323
0.000288323
0.000288323
0.000292182
0.000292182
0.000292182
0.000287778
0.000287778
0.000287778
0.00029113
0.00029113
0.00029113
0.000307178
0.000307178
0.000307178
0.000306727
0.000306727
0.000306727
0.000303763
0.000303763
0.000303763
0.000299902
0.000299902
0.000299902
0.000280103
0.000280103
0.000280103
0.000281122
0.000281122
0.000281122
0.000268856
0.000268856
0.000268856
0.000272599
0.000272599
0.000272599
0.000301293
0.000301293
0.000301293
0.000287103
0.000287103
0.000287103
0.00028385
0.00028385
0.00028385
0.000284353
0.000284353
0.000284353
0.000279905
0.000279905
0.000279905
0.000283076
0.000283076
0.000283076
0.000282609
0.000282609
0.000282609
0.000269029
0.000269029
0.000269029
0.000269549
0.000269549
0.000269549
0.000273156
0.000273156
0.000273156
0.000276278
0.000276278
0.000276278
0.000265408
0.000265408
0.000265408
0.000258183
0.000258183
0.000258183
0.000265962
0.000265962
0.000265962
0.00026295
0.00026295
0.00026295
0.000266993
0.000266993
0.000266993
0.000263947
0.000263947
0.000263947
0.000252583
0.000252583
0.000252583
0.00026066
0.00026066
0.00026066
0.000261238
0.000261238
0.000261238
0.000264874
0.000264874
0.000264874
0.000267973
0.000267973
0.000267973
0.000195429
0.000195429
0.000195429
0.000192832
0.000192832
0.000192832
0.000189436
0.000189436
0.000189436
0.000188601
0.000188601
0.000188601
0.000184375
0.000184375
0.000184375
0.000201872
0.000201872
0.000201872
0.000164606
0.000164606
0.000164606
0.000160793
0.000160793
0.000160793
0.000153194
0.000153194
0.000153194
0.000151768
0.000151768
0.000151768
0.000153501
0.000153501
0.000153501
0.000158668
0.000158668
0.000158668
0.000165307
0.000165307
0.000165307
0.00014742
0.00014742
0.00014742
0.000147617
0.000147617
0.000147617
0.000147404
0.000147404
0.000147404
0.000151068
0.000151068
0.000151068
0.000183835
0.000183835
0.000183835
0.000186813
0.000186813
0.000186813
0.00018771
0.00018771
0.00018771
0.000182647
0.000182647
0.000182647
0.000183436
0.000183436
0.000183436
0.000180985
0.000180985
0.000180985
0.000153353
0.000153353
0.000153353
0.00018062
0.00018062
0.00018062
0.000177967
0.000177967
0.000177967
0.000176288
0.000176288
0.000176288
0.000177234
0.000177234
0.000177234
0.000174623
0.000174623
0.000174623
0.000171081
0.000171081
0.000171081
0.000175558
0.000175558
0.000175558
0.00017135
0.00017135
0.00017135
0.000173911
0.000173911
0.000173911
0.000172976
0.000172976
0.000172976
0.000374302
0.000374302
0.000374302
0.000369581
0.000369581
0.000369581
0.000311526
0.000311526
0.000311526
0.000331702
0.000331702
0.000331702
0.000317273
0.000317273
0.000317273
0.00021023
0.00021023
0.00021023
0.000209399
0.000209399
0.000209399
0.00021068
0.00021068
0.00021068
0.000211938
0.000211938
0.000211938
0.000208214
0.000208214
0.000208214
0.00020761
0.00020761
0.00020761
0.000208504
0.000208504
0.000208504
0.000197863
0.000197863
0.000197863
0.00019667
0.00019667
0.00019667
0.000148078
0.000148078
0.000148078
0.000150484
0.000150484
0.000150484
0.000149677
0.000149677
0.000149677
0.00016652
0.00016652
0.00016652
0.000165591
0.000165591
0.000165591
0.00015622
0.00015622
0.00015622
0.000345171
0.000345171
0.000345171
0.000322517
0.000322517
0.000322517
0.000316445
0.000316445
0.000316445
0.000312824
0.000312824
0.000312824
0.00031958
0.00031958
0.00031958
0.000315919
0.000315919
0.000315919
0.000311743
0.000311743
0.000311743
0.00031118
0.00031118
0.00031118
0.000314842
0.000314842
0.000314842
0.000319059
0.000319059
0.000319059
0.000263868
0.000263868
0.000263868
0.0002603
0.0002603
0.0002603
0.0002599
0.0002599
0.0002599
0.00031427
0.00031427
0.00031427
0.000342211
0.000342211
0.000342211
0.000251225
0.000251225
0.000251225
0.000243607
0.000243607
0.000243607
0.000266469
0.000266469
0.000266469
0.000251516
0.000251516
0.000251516
0.000265791
0.000265791
0.000265791
0.000265093
0.000265093
0.000265093
0.000261132
0.000261132
0.000261132
0.000257896
0.000257896
0.000257896
0.000302694
0.000302694
0.000302694
0.000319375
0.000319375
0.000319375
0.000315809
0.000315809
0.000315809
0.000311793
0.000311793
0.000311793
0.000311296
0.000311296
0.000311296
0.000314857
0.000314857
0.000314857
0.000318913
0.000318913
0.000318913
0.00023656
0.00023656
0.00023656
0.000239714
0.000239714
0.000239714
0.000262963
0.000262963
0.000262963
0.00026369
0.00026369
0.00026369
0.000260425
0.000260425
0.000260425
0.000256445
0.000256445
0.000256445
0.000242059
0.000242059
0.000242059
0.000241207
0.000241207
0.000241207
0.000234872
0.000234872
0.000234872
0.000238882
0.000238882
0.000238882
0.000258944
0.000258944
0.000258944
0.000255692
0.000255692
0.000255692
0.000293677
0.000293677
0.000293677
0.000289872
0.000289872
0.000289872
0.000289364
0.000289364
0.000289364
0.000297009
0.000297009
0.000297009
0.000296533
0.000296533
0.000296533
0.000292692
0.000292692
0.000292692
0.000277917
0.000277917
0.000277917
0.000285544
0.000285544
0.000285544
0.000285019
0.000285019
0.000285019
0.000281181
0.000281181
0.000281181
0.000271673
0.000271673
0.000271673
0.000278845
0.000278845
0.000278845
0.000274935
0.000274935
0.000274935
0.000302828
0.000302828
0.000302828
0.000298426
0.000298426
0.000298426
0.000302343
0.000302343
0.000302343
0.000295026
0.000295026
0.000295026
0.000295539
0.000295539
0.000295539
0.000299418
0.000299418
0.000299418
0.00027956
0.00027956
0.00027956
0.000275796
0.000275796
0.000275796
0.000275243
0.000275243
0.000275243
0.000282808
0.000282808
0.000282808
0.000278479
0.000278479
0.000278479
0.00028228
0.00028228
0.00028228
0.000271463
0.000271463
0.000271463
0.000270876
0.000270876
0.000270876
0.000267079
0.000267079
0.000267079
0.000268273
0.000268273
0.000268273
0.000276888
0.000276888
0.000276888
0.00027316
0.00027316
0.00027316
0.00027741
0.00027741
0.00027741
0.000274235
0.000274235
0.000274235
0.000265716
0.000265716
0.000265716
0.000294175
0.000294175
0.000294175
0.000297962
0.000297962
0.000297962
0.000298403
0.000298403
0.000298403
0.00029087
0.00029087
0.00029087
0.000292721
0.000292721
0.000292721
0.000285313
0.000285313
0.000285313
0.000289481
0.000289481
0.000289481
0.0002858
0.0002858
0.0002858
0.000295545
0.000295545
0.000295545
0.000295081
0.000295081
0.000295081
0.000291331
0.000291331
0.000291331
0.000288086
0.000288086
0.000288086
0.000288562
0.000288562
0.000288562
0.000292277
0.000292277
0.000292277
0.000271629
0.000271629
0.000271629
0.000278947
0.000278947
0.000278947
0.000272146
0.000272146
0.000272146
0.000275787
0.000275787
0.000275787
0.000274772
0.000274772
0.000274772
0.000278449
0.000278449
0.000278449
0.000262895
0.000262895
0.000262895
0.000262342
0.000262342
0.000262342
0.000258741
0.000258741
0.000258741
0.000268485
0.000268485
0.000268485
0.000261452
0.000261452
0.000261452
0.000268005
0.000268005
0.000268005
0.000264466
0.000264466
0.000264466
0.000265468
0.000265468
0.000265468
0.000261962
0.000261962
0.000261962
0.000254176
0.000254176
0.000254176
0.000257051
0.000257051
0.000257051
0.000247829
0.000247829
0.000247829
0.00025076
0.00025076
0.00025076
0.000250182
0.000250182
0.000250182
0.000258974
0.000258974
0.000258974
0.000253098
0.000253098
0.000253098
0.000259479
0.000259479
0.000259479
0.000256545
0.000256545
0.000256545
0.000270566
0.000270566
0.000270566
0.000277727
0.000277727
0.000277727
0.00027462
0.00027462
0.00027462
0.000271058
0.000271058
0.000271058
0.000277256
0.000277256
0.000277256
0.000273662
0.000273662
0.000273662
0.000228396
0.000228396
0.000228396
0.000227594
0.000227594
0.000227594
0.000239801
0.000239801
0.000239801
0.000232196
0.000232196
0.000232196
0.000253248
0.000253248
0.000253248
0.0001939
0.0001939
0.0001939
0.000191075
0.000191075
0.000191075
0.000193571
0.000193571
0.000193571
0.000198928
0.000198928
0.000198928
0.000205816
0.000205816
0.000205816
0.000231732
0.000231732
0.000231732
0.000232589
0.000232589
0.000232589
0.000165464
0.000165464
0.000165464
0.000159938
0.000159938
0.000159938
0.000163883
0.000163883
0.000163883
0.000168626
0.000168626
0.000168626
0.000168142
0.000168142
0.000168142
0.000168833
0.000168833
0.000168833
0.000154024
0.000154024
0.000154024
0.000151162
0.000151162
0.000151162
0.000151395
0.000151395
0.000151395
0.000150819
0.000150819
0.000150819
0.000152977
0.000152977
0.000152977
0.000153585
0.000153585
0.000153585
0.000152575
0.000152575
0.000152575
0.000153385
0.000153385
0.000153385
0.000156944
0.000156944
0.000156944
0.00015676
0.00015676
0.00015676
0.000157349
0.000157349
0.000157349
0.000157569
0.000157569
0.000157569
0.000158428
0.000158428
0.000158428
0.000159753
0.000159753
0.000159753
0.000153832
0.000153832
0.000153832
0.000154015
0.000154015
0.000154015
0.000159542
0.000159542
0.000159542
0.00016017
0.00016017
0.00016017
0.000161445
0.000161445
0.000161445
0.000165953
0.000165953
0.000165953
0.000146799
0.000146799
0.000146799
0.000146257
0.000146257
0.000146257
0.000152824
0.000152824
0.000152824
0.000152231
0.000152231
0.000152231
0.000173758
0.000173758
0.000173758
0.000177623
0.000177623
0.000177623
0.000179404
0.000179404
0.000179404
0.000176693
0.000176693
0.000176693
0.000186014
0.000186014
0.000186014
0.000156445
0.000156445
0.000156445
0.000170117
0.000170117
0.000170117
0.000172711
0.000172711
0.000172711
0.000167877
0.000167877
0.000167877
0.000160939
0.000160939
0.000160939
0.000374991
0.000374991
0.000374991
0.00036902
0.00036902
0.00036902
0.000345867
0.000345867
0.000345867
0.000349862
0.000349862
0.000349862
0.000346152
0.000346152
0.000346152
0.000209741
0.000209741
0.000209741
0.000208982
0.000208982
0.000208982
0.000209593
0.000209593
0.000209593
0.000209335
0.000209335
0.000209335
0.000208185
0.000208185
0.000208185
0.000208571
0.000208571
0.000208571
0.000207804
0.000207804
0.000207804
0.000206528
0.000206528
0.000206528
0.000208507
0.000208507
0.000208507
0.000208122
0.000208122
0.000208122
0.000208927
0.000208927
0.000208927
0.000211013
0.000211013
0.000211013
0.000210603
0.000210603
0.000210603
0.000212157
0.000212157
0.000212157
0.000210825
0.000210825
0.000210825
0.000196993
0.000196993
0.000196993
0.000177299
0.000177299
0.000177299
0.000194741
0.000194741
0.000194741
0.000184721
0.000184721
0.000184721
0.000186503
0.000186503
0.000186503
0.000185374
0.000185374
0.000185374
0.000185581
0.000185581
0.000185581
0.000184915
0.000184915
0.000184915
0.000193842
0.000193842
0.000193842
0.000186942
0.000186942
0.000186942
0.00017673
0.00017673
0.00017673
0.000178698
0.000178698
0.000178698
0.00017766
0.00017766
0.00017766
0.000195701
0.000195701
0.000195701
0.000195317
0.000195317
0.000195317
0.000196517
0.000196517
0.000196517
0.000196949
0.000196949
0.000196949
0.000196213
0.000196213
0.000196213
0.000190816
0.000190816
0.000190816
0.000197634
0.000197634
0.000197634
0.000199559
0.000199559
0.000199559
0.000198346
0.000198346
0.000198346
0.000176376
0.000176376
0.000176376
0.000175445
0.000175445
0.000175445
0.000173263
0.000173263
0.000173263
0.000173606
0.000173606
0.000173606
0.000174379
0.000174379
0.000174379
0.000175298
0.000175298
0.000175298
0.000182148
0.000182148
0.000182148
0.00017994
0.00017994
0.00017994
0.000177133
0.000177133
0.000177133
0.000177851
0.000177851
0.000177851
0.000148355
0.000148355
0.000148355
0.000148584
0.000148584
0.000148584
0.00014943
0.00014943
0.00014943
0.000149991
0.000149991
0.000149991
0.000148324
0.000148324
0.000148324
0.000149075
0.000149075
0.000149075
0.000148166
0.000148166
0.000148166
0.000148846
0.000148846
0.000148846
0.000149339
0.000149339
0.000149339
0.000172815
0.000172815
0.000172815
0.000171193
0.000171193
0.000171193
0.000171783
0.000171783
0.000171783
0.000164957
0.000164957
0.000164957
0.000163702
0.000163702
0.000163702
0.000164631
0.000164631
0.000164631
0.00016526
0.00016526
0.00016526
0.000165902
0.000165902
0.000165902
0.000164347
0.000164347
0.000164347
0.000164953
0.000164953
0.000164953
0.000164688
0.000164688
0.000164688
0.000156822
0.000156822
0.000156822
0.000158047
0.000158047
0.000158047
0.000160055
0.000160055
0.000160055
0.000160647
0.000160647
0.000160647
0.000156494
0.000156494
0.000156494
0.000150047
0.000150047
0.000150047
0.000149949
0.000149949
0.000149949
0.000150719
0.000150719
0.000150719
0.00015075
0.00015075
0.00015075
0.000150206
0.000150206
0.000150206
0.000149902
0.000149902
0.000149902
0.000150201
0.000150201
0.000150201
0.000150489
0.000150489
0.000150489
0.000151324
0.000151324
0.000151324
0.000341092
0.000341092
0.000341092
0.00034027
0.00034027
0.00034027
0.00033547
0.00033547
0.00033547
0.000331538
0.000331538
0.000331538
0.000321089
0.000321089
0.000321089
0.000325877
0.000325877
0.000325877
0.000326769
0.000326769
0.000326769
0.000255721
0.000255721
0.000255721
0.00036522
0.00036522
0.00036522
0.000360521
0.000360521
0.000360521
0.000346359
0.000346359
0.000346359
0.000351087
0.000351087
0.000351087
0.000313342
0.000313342
0.000313342
0.000309768
0.000309768
0.000309768
0.000310296
0.000310296
0.000310296
0.000314371
0.000314371
0.000314371
0.000328919
0.000328919
0.000328919
0.000320602
0.000320602
0.000320602
0.00030869
0.00030869
0.00030869
0.000300431
0.000300431
0.000300431
0.000303987
0.000303987
0.000303987
0.000308141
0.000308141
0.000308141
0.000214972
0.000214972
0.000214972
0.000221219
0.000221219
0.000221219
0.000232402
0.000232402
0.000232402
0.00022478
0.00022478
0.00022478
0.000220466
0.000220466
0.000220466
0.000219396
0.000219396
0.000219396
0.000228066
0.000228066
0.000228066
0.000222668
0.000222668
0.000222668
0.000227025
0.000227025
0.000227025
0.000225819
0.000225819
0.000225819
0.000217231
0.000217231
0.000217231
0.000210845
0.000210845
0.000210845
0.000196773
0.000196773
0.000196773
0.000215063
0.000215063
0.000215063
0.000201282
0.000201282
0.000201282
0.000261043
0.000261043
0.000261043
0.000224369
0.000224369
0.000224369
0.00022339
0.00022339
0.00022339
0.000236349
0.000236349
0.000236349
0.000243923
0.000243923
0.000243923
0.000240602
0.000240602
0.000240602
0.000261266
0.000261266
0.000261266
0.000306747
0.000306747
0.000306747
0.00028955
0.00028955
0.00028955
0.000288732
0.000288732
0.000288732
0.000283988
0.000283988
0.000283988
0.000282901
0.000282901
0.000282901
0.00023574
0.00023574
0.00023574
0.000251313
0.000251313
0.000251313
0.000242506
0.000242506
0.000242506
0.000322226
0.000322226
0.000322226
0.000317966
0.000317966
0.000317966
0.000258466
0.000258466
0.000258466
0.000266953
0.000266953
0.000266953
0.000266151
0.000266151
0.000266151
0.000261888
0.000261888
0.000261888
0.000273482
0.000273482
0.000273482
0.000255862
0.000255862
0.000255862
0.00026628
0.00026628
0.00026628
0.000338372
0.000338372
0.000338372
0.000338826
0.000338826
0.000338826
0.000335481
0.000335481
0.000335481
0.000327003
0.000327003
0.000327003
0.000330737
0.000330737
0.000330737
0.000335002
0.000335002
0.000335002
0.00033218
0.00033218
0.00033218
0.000328454
0.000328454
0.000328454
0.000324275
0.000324275
0.000324275
0.000323779
0.000323779
0.000323779
0.0003275
0.0003275
0.0003275
0.000331721
0.000331721
0.000331721
0.000309708
0.000309708
0.000309708
0.00030577
0.00030577
0.00030577
0.000305283
0.000305283
0.000305283
0.000313203
0.000313203
0.000313203
0.000308767
0.000308767
0.000308767
0.000312743
0.000312743
0.000312743
0.00025365
0.00025365
0.00025365
0.000246696
0.000246696
0.000246696
0.000250521
0.000250521
0.000250521
0.000252947
0.000252947
0.000252947
0.000262656
0.000262656
0.000262656
0.000255034
0.000255034
0.000255034
0.000255704
0.000255704
0.000255704
0.000259496
0.000259496
0.000259496
0.000257497
0.000257497
0.000257497
0.000258176
0.000258176
0.000258176
0.000262006
0.000262006
0.000262006
0.000265194
0.000265194
0.000265194
0.000277629
0.000277629
0.000277629
0.000269736
0.000269736
0.000269736
0.000274314
0.000274314
0.000274314
0.000270387
0.000270387
0.000270387
0.000282179
0.000282179
0.000282179
0.000281578
0.000281578
0.000281578
0.000267692
0.000267692
0.000267692
0.000268383
0.000268383
0.000268383
0.000255417
0.000255417
0.000255417
0.00025612
0.00025612
0.00025612
0.000262542
0.000262542
0.000262542
0.000258619
0.000258619
0.000258619
0.0002963
0.0002963
0.0002963
0.000292794
0.000292794
0.000292794
0.000283085
0.000283085
0.000283085
0.000302143
0.000302143
0.000302143
0.000305674
0.000305674
0.000305674
0.000301009
0.000301009
0.000301009
0.000305121
0.000305121
0.000305121
0.000245967
0.000245967
0.000245967
0.000249084
0.000249084
0.000249084
0.000248361
0.000248361
0.000248361
0.000244481
0.000244481
0.000244481
0.000241362
0.000241362
0.000241362
0.000242125
0.000242125
0.000242125
0.000239043
0.000239043
0.000239043
0.000235222
0.000235222
0.000235222
0.000250767
0.000250767
0.000250767
0.000253956
0.000253956
0.000253956
0.000253223
0.000253223
0.000253223
0.000249265
0.000249265
0.000249265
0.000237396
0.000237396
0.000237396
0.000241349
0.000241349
0.000241349
0.000258191
0.000258191
0.000258191
0.000256661
0.000256661
0.000256661
0.000243706
0.000243706
0.000243706
0.000251696
0.000251696
0.000251696
0.000244511
0.000244511
0.000244511
0.000248486
0.000248486
0.000248486
0.000254258
0.000254258
0.000254258
0.000222182
0.000222182
0.000222182
0.000219057
0.000219057
0.000219057
0.000237157
0.000237157
0.000237157
0.000233999
0.000233999
0.000233999
0.000272296
0.000272296
0.000272296
0.000269044
0.000269044
0.000269044
0.000273504
0.000273504
0.000273504
0.000269669
0.000269669
0.000269669
0.000283335
0.000283335
0.000283335
0.000279442
0.000279442
0.000279442
0.000283903
0.000283903
0.000283903
0.000276168
0.000276168
0.000276168
0.00028061
0.00028061
0.00028061
0.000276756
0.000276756
0.000276756
0.000259484
0.000259484
0.000259484
0.000270009
0.000270009
0.000270009
0.000266301
0.000266301
0.000266301
0.000270544
0.000270544
0.000270544
0.00026317
0.00026317
0.00026317
0.000267407
0.000267407
0.000267407