<VTKFile type="UnstructuredGrid" version="1.0">
<UnstructuredGrid>
<Piece NumberOfPoints="8859" NumberOfCells="2953">
<Points>
<DataArray type="Float64" NumberOfComponents="3" format="ascii">
2.04744 2.20956 3.00263
2.06275 2.19425 3.01458
2.04754 2.20946 3.02833
2.07804 2.17896 2.95167
2.07805 2.17895 2.92651
2.0934 2.1636 2.93898
2.06271 2.19429 2.96436
2.07804 2.17896 2.95167
2.07804 2.17896 2.97686
2.01701 2.23999 3.05488
2.03242 2.22458 3.0625
2.00164 2.25536 3.0625
2.01701 2.23999 3.05488
2.03232 2.22468 3.03957
2.03242 2.22458 3.0625
2.04777 2.20923 3.05479
2.06326 2.19374 3.0625
2.03242 2.22458 3.0625
2.04777 2.20923 3.05479
2.03232 2.22468 3.03957
2.04754 2.20946 3.02833
2.03242 2.22458 3.0625
2.03232 2.22468 3.03957
2.04777 2.20923 3.05479
2.04754 2.20946 3.02833
2.06275 2.19425 3.01458
2.06287 2.19413 3.03927
2.06287 2.19413 3.03927
2.04777 2.20923 3.05479
2.04754 2.20946 3.02833
2.06326 2.19374 3.0625
2.04777 2.20923 3.05479
2.06287 2.19413 3.03927
2.06275 2.19425 3.01458
2.04744 2.20956 3.00263
2.06271 2.19429 2.98952
2.06271 2.19429 2.96436
2.07804 2.17896 2.97686
2.06271 2.19429 2.98952
2.07809 2.17891 3.02762
2.06287 2.19413 3.03927
2.06275 2.19425 3.01458
2.0934 2.1636 3.01395
2.0934 2.1636 3.03855
2.07809 2.17891 3.02762
2.0934 2.1636 2.91387
2.0934 2.1636 2.93898
2.07805 2.17895 2.92651
2.07804 2.17896 2.95167
2.0934 2.1636 2.93898
2.0934 2.1636 2.96406
2.0934 2.1636 2.96406
2.07804 2.17896 2.97686
2.07804 2.17896 2.95167
2.0934 2.1636 2.38652
2.0934 2.1636 2.41165
2.07807 2.17893 2.39907
2.07807 2.17893 2.85107
2.0934 2.1636 2.86361
2.07806 2.17894 2.87621
2.0934 2.1636 2.83848
2.0934 2.1636 2.86361
2.07807 2.17893 2.85107
2.07808 2.17892 2.72544
2.0934 2.1636 2.73799
2.07808 2.17892 2.75055
1.61564 2.64136 2.17059
1.63134 2.62566 2.1625
1.63134 2.62566 2.18563
1.5683 2.6887 3.0625
1.53648 2.72052 3.0625
1.55243 2.70457 3.05432
2.07804 2.17896 3.00212
2.06271 2.19429 2.98952
2.07804 2.17896 2.97686
2.06275 2.19425 3.01458
2.06271 2.19429 2.98952
2.07804 2.17896 3.00212
2.07804 2.17896 3.00212
2.07809 2.17891 3.02762
2.06275 2.19425 3.01458
2.0934 2.1636 3.01395
2.07809 2.17891 3.02762
2.07804 2.17896 3.00212
2.07833 2.17867 3.05384
2.0934 2.1636 3.03855
2.0934 2.1636 3.0625
2.07833 2.17867 3.05384
2.07809 2.17891 3.02762
2.0934 2.1636 3.03855
2.0934 2.1636 3.0625
2.06326 2.19374 3.0625
2.07833 2.17867 3.05384
2.06326 2.19374 3.0625
2.06287 2.19413 3.03927
2.07833 2.17867 3.05384
2.06287 2.19413 3.03927
2.07809 2.17891 3.02762
2.07833 2.17867 3.05384
2.07806 2.17894 2.87621
2.0934 2.1636 2.86361
2.0934 2.1636 2.88875
2.07804 2.17896 2.97686
2.0934 2.1636 2.96406
2.0934 2.1636 2.98907
2.0934 2.1636 3.01395
2.07804 2.17896 3.00212
2.0934 2.1636 2.98907
2.0934 2.1636 2.98907
2.07804 2.17896 3.00212
2.07804 2.17896 2.97686
2.0934 2.1636 2.71288
2.0934 2.1636 2.73799
2.07808 2.17892 2.72544
2.07807 2.17893 2.39907
2.0934 2.1636 2.41165
2.07807 2.17893 2.4242
2.06275 2.19425 2.83853
2.04743 2.20957 2.82598
2.06275 2.19425 2.81338
2.07806 2.17894 2.90136
2.0934 2.1636 2.91387
2.07805 2.17895 2.92651
2.07806 2.17894 2.90136
2.0934 2.1636 2.88875
2.0934 2.1636 2.91387
2.07806 2.17894 2.90136
2.06273 2.19427 2.88884
2.07806 2.17894 2.87621
2.07806 2.17894 2.87621
2.0934 2.1636 2.88875
2.07806 2.17894 2.90136
2.06271 2.19429 2.93918
2.07804 2.17896 2.95167
2.06271 2.19429 2.96436
2.06271 2.19429 2.93918
2.07805 2.17895 2.92651
2.07804 2.17896 2.95167
2.04741 2.20959 2.90149
2.03209 2.22491 2.91415
2.0321 2.2249 2.88894
1.83285 2.42415 3.02838
1.81747 2.43953 3.0149
1.83285 2.42415 3.00275
1.78664 2.47036 2.8638
1.78664 2.47036 2.889
1.77121 2.48579 2.87639
2.0934 2.1636 2.1625
2.0934 2.1636 2.18645
2.07833 2.17867 2.17116
1.56833 2.68867 3.03933
1.5683 2.6887 3.0625
1.55243 2.70457 3.05432
1.63134 2.62566 2.96446
1.61565 2.64135 2.97714
1.61564 2.64136 2.95185
1.55243 2.70457 3.05432
1.53648 2.72052 3.0625
1.53664 2.72036 3.03923
2.06276 2.19424 2.487
2.04745 2.20955 2.47443
2.06276 2.19424 2.46188
2.0934 2.1636 2.63759
2.07808 2.17892 2.62505
2.0934 2.1636 2.6125
2.07808 2.17892 2.67524
2.0934 2.1636 2.66269
2.0934 2.1636 2.68778
2.06277 2.19423 2.58741
2.04745 2.20955 2.59995
2.04745 2.20955 2.57486
2.06277 2.19423 2.6125
2.04745 2.20955 2.59995
2.06277 2.19423 2.58741
2.07808 2.17892 2.62505
2.06277 2.19423 2.63759
2.06277 2.19423 2.6125
2.04745 2.20955 2.75057
2.06276 2.19424 2.76312
2.04744 2.20956 2.7757
2.01682 2.24018 2.72547
2.01682 2.24018 2.75059
2.0015 2.2555 2.73803
2.04745 2.20955 2.72545
2.03214 2.22486 2.7129
2.04745 2.20955 2.70035
2.04745 2.20955 2.70035
2.06277 2.19423 2.71289
2.04745 2.20955 2.72545
2.03214 2.22486 2.7129
2.03214 2.22486 2.6878
2.04745 2.20955 2.70035
2.04745 2.20955 2.70035
2.03214 2.22486 2.6878
2.04745 2.20955 2.67524
2.0934 2.1636 2.68778
2.0934 2.1636 2.71288
2.07808 2.17892 2.70034
2.07808 2.17892 2.70034
2.07808 2.17892 2.67524
2.0934 2.1636 2.68778
2.07808 2.17892 2.70034
2.0934 2.1636 2.71288
2.07808 2.17892 2.72544
2.07808 2.17892 2.72544
2.06277 2.19423 2.71289
2.07808 2.17892 2.70034
2.04744 2.20956 2.80083
2.03213 2.22487 2.78828
2.04744 2.20956 2.7757
2.04744 2.20956 2.80083
2.06275 2.19425 2.81338
2.04743 2.20957 2.82598
2.0015 2.2555 2.7883
2.01681 2.24019 2.77572
2.01681 2.24019 2.80086
2.01681 2.24019 2.80086
2.01681 2.24019 2.77572
2.03213 2.22487 2.78828
2.0934 2.1636 2.7631
2.07808 2.17892 2.75055
2.0934 2.1636 2.73799
2.04744 2.20956 2.7757
2.06276 2.19424 2.76312
2.06276 2.19424 2.78825
2.06276 2.19424 2.78825
2.04744 2.20956 2.80083
2.04744 2.20956 2.7757
2.06275 2.19425 2.81338
2.04744 2.20956 2.80083
2.06276 2.19424 2.78825
2.07806 2.17894 2.87621
2.06273 2.19427 2.88884
2.06274 2.19426 2.86368
2.06274 2.19426 2.86368
2.07807 2.17893 2.85107
2.07806 2.17894 2.87621
2.06275 2.19425 2.83853
2.07807 2.17893 2.85107
2.06274 2.19426 2.86368
2.0321 2.2249 2.88894
2.03211 2.22489 2.86375
2.04742 2.20958 2.8763
2.04742 2.20958 2.8763
2.04741 2.20959 2.90149
2.0321 2.2249 2.88894
2.06273 2.19427 2.88884
2.04741 2.20959 2.90149
2.04742 2.20958 2.8763
2.04742 2.20958 2.8763
2.06274 2.19426 2.86368
2.06273 2.19427 2.88884
2.01679 2.24021 2.87638
2.03211 2.22489 2.86375
2.0321 2.2249 2.88894
2.01679 2.24021 2.87638
2.00148 2.25552 2.88901
2.00148 2.25552 2.86381
2.06271 2.19429 2.96436
2.06271 2.19429 2.98952
2.04741 2.20959 2.97722
2.04741 2.20959 2.97722
2.06271 2.19429 2.98952
2.04744 2.20956 3.00263
2.03209 2.22491 2.91415
2.04741 2.20959 2.90149
2.0474 2.2096 2.92669
2.0474 2.2096 2.92669
2.03209 2.22491 2.93937
2.03209 2.22491 2.91415
1.97087 2.28613 2.76317
1.95555 2.30145 2.77575
1.95555 2.30145 2.75061
2.00148 2.25552 2.86381
2.00149 2.25551 2.83862
2.0168 2.2402 2.85119
2.0168 2.2402 2.85119
2.01679 2.24021 2.87638
2.00148 2.25552 2.86381
2.03211 2.22489 2.86375
2.01679 2.24021 2.87638
2.0168 2.2402 2.85119
2.03211 2.22489 2.83858
2.03211 2.22489 2.86375
2.0168 2.2402 2.85119
1.86358 2.39342 3.00276
1.86358 2.39342 3.02839
1.84822 2.40878 3.01491
1.84822 2.40878 3.01491
1.86358 2.39342 3.02839
1.84822 2.40878 3.0395
1.84822 2.40878 3.01491
1.84822 2.40878 3.0395
1.83285 2.42415 3.02838
1.83285 2.42415 3.02838
1.83285 2.42415 3.00275
1.84822 2.40878 3.01491
1.81747 2.43953 2.98984
1.83285 2.42415 3.00275
1.81747 2.43953 3.0149
1.80202 2.45498 2.62505
1.80202 2.45498 2.65015
1.7866 2.4704 2.6376
1.70922 2.54778 2.75056
1.69367 2.56333 2.738
1.70922 2.54778 2.72545
1.70924 2.54776 2.80083
1.6937 2.5633 2.81339
1.69369 2.56331 2.78825
1.63134 2.62566 2.96446
1.61564 2.64136 2.95185
1.63132 2.62568 2.93924
1.63135 2.62565 2.98966
1.61565 2.64135 2.97714
1.63134 2.62566 2.96446
1.69376 2.56324 2.91412
1.69378 2.56322 2.93934
1.6782 2.5788 2.92672
1.59983 2.65717 2.86358
1.61554 2.64146 2.85103
1.61557 2.64143 2.8762
1.59973 2.65727 2.76303
1.58397 2.67303 2.77556
1.58396 2.67304 2.75046
1.61564 2.64136 3.05441
1.63134 2.62566 3.0625
1.5999 2.6571 3.0625
1.63134 2.62566 3.03937
1.63134 2.62566 3.0625
1.61564 2.64136 3.05441
1.647 2.61 3.05447
1.63134 2.62566 3.0625
1.63134 2.62566 3.03937
1.59993 2.65707 2.98961
1.59992 2.65708 3.01469
1.58418 2.67282 3.00246
1.84822 2.40878 3.0625
1.81747 2.43953 3.0625
1.83285 2.42415 3.05472
1.83285 2.42415 3.02838
1.84822 2.40878 3.0395
1.83285 2.42415 3.05472
1.83285 2.42415 3.05472
1.84822 2.40878 3.0395
1.84822 2.40878 3.0625
1.81747 2.43953 3.03949
1.81747 2.43953 3.0149
1.83285 2.42415 3.02838
1.83285 2.42415 3.02838
1.83285 2.42415 3.05472
1.81747 2.43953 3.03949
1.81747 2.43953 3.03949
1.83285 2.42415 3.05472
1.81747 2.43953 3.0625
1.70931 2.54769 2.92676
1.69378 2.56322 2.93934
1.69376 2.56324 2.91412
1.7712 2.4858 2.8512
1.78663 2.47037 2.83862
1.78664 2.47036 2.8638
1.78664 2.47036 2.8638
1.77121 2.48579 2.87639
1.7712 2.4858 2.8512
1.77122 2.48578 2.9016
1.77121 2.48579 2.87639
1.78664 2.47036 2.889
1.77122 2.48578 2.9016
1.78664 2.47036 2.889
1.78665 2.47035 2.91421
1.78665 2.47035 2.91421
1.77123 2.48577 2.92682
1.77122 2.48578 2.9016
1.77122 2.48578 2.9016
1.77123 2.48577 2.92682
1.75578 2.50122 2.91419
1.78666 2.47034 2.93943
1.77123 2.48577 2.92682
1.78665 2.47035 2.91421
1.78666 2.47034 2.96464
1.77124 2.48576 2.97734
1.77124 2.48576 2.95206
1.77124 2.48576 2.95206
1.78666 2.47034 2.93943
1.78666 2.47034 2.96464
1.77123 2.48577 2.92682
1.78666 2.47034 2.93943
1.77124 2.48576 2.95206
2.07809 2.17891 2.19738
2.07833 2.17867 2.17116
2.0934 2.1636 2.18645
2.06287 2.19413 2.18573
2.07833 2.17867 2.17116
2.07809 2.17891 2.19738
1.94028 2.31672 2.18548
1.94028 2.31672 2.1625
1.95561 2.30139 2.17021
2.00164 2.25536 2.1625
1.98629 2.27071 2.17017
1.97095 2.28605 2.1625
1.97095 2.28605 2.1625
1.95561 2.30139 2.17021
1.94028 2.31672 2.1625
1.48928 2.76772 2.19897
1.48919 2.76781 2.17286
1.50509 2.75191 2.18645
1.50509 2.75191 2.18645
1.5206 2.7364 2.17101
1.52092 2.73608 2.19745
1.47362 2.78338 2.18782
1.48919 2.76781 2.17286
1.48928 2.76772 2.19897
1.47362 2.78338 2.18782
1.47412 2.78288 2.1625
1.48919 2.76781 2.17286
1.56833 2.68867 2.18567
1.5683 2.6887 2.1625
1.58412 2.67288 2.17063
[...]
<PointData Scalars="View Factor" >
<DataArray type="Float64" Name="View Factor" NumberOfComponents="1" format="ascii">
0.000159481
0.000159481
0.000159481
0.000162521
0.000162521
0.000162521
0.000161499
0.000161499
0.000161499
0.000158647
0.000158647
0.000158647
0.000158571
0.000158571
0.000158571
0.000157126
0.000157126
0.000157126
0.000158468
0.000158468
0.000158468
0.000158057
0.000158057
0.000158057
0.000158517
0.000158517
0.000158517
0.000157974
0.000157974
0.000157974
0.000157071
0.000157071
0.000157071
0.000159993
0.000159993
0.000159993
0.000160995
0.000160995
0.000160995
0.000158043
0.000158043
0.000158043
0.000157124
0.000157124
0.000157124
0.000163037
0.000163037
0.000163037
0.000161531
0.000161531
0.000161531
0.000161019
0.000161019
0.000161019
0.000199102
0.000199102
0.000199102
0.000167131
0.000167131
0.000167131
0.000167666
0.000167666
0.000167666
0.000175177
0.000175177
0.000175177
0.000399763
0.000399763
0.000399763
0.000311069
0.000311069
0.000311069
0.000159999
0.000159999
0.000159999
0.000159509
0.000159509
0.000159509
0.00015853
0.00015853
0.00015853
0.000158067
0.000158067
0.000158067
0.000155692
0.000155692
0.000155692
0.000156587
0.000156587
0.000156587
0.000155692
0.000155692
0.000155692
0.000156606
0.000156606
0.000156606
0.000157043
0.000157043
0.000157043
0.000166105
0.000166105
0.000166105
0.000160043
0.000160043
0.000160043
0.000158574
0.000158574
0.000158574
0.000159527
0.000159527
0.000159527
0.000175745
0.000175745
0.000175745
0.000198433
0.000198433
0.000198433
0.000170798
0.000170798
0.000170798
0.00016404
0.00016404
0.00016404
0.000164562
0.000164562
0.000164562
0.000166075
0.000166075
0.000166075
0.000165576
0.000165576
0.000165576
0.000162497
0.000162497
0.000162497
0.000163007
0.000163007
0.000163007
0.000167121
0.000167121
0.000167121
0.000213237
0.000213237
0.000213237
0.000242677
0.000242677
0.000242677
0.000217523
0.000217523
0.000217523
0.000308004
0.000308004
0.000308004
0.000296052
0.000296052
0.000296052
0.000315853
0.000315853
0.000315853
0.00019518
0.00019518
0.00019518
0.00018255
0.00018255
0.00018255
0.000179108
0.000179108
0.000179108
0.000187205
0.000187205
0.000187205
0.000186007
0.000186007
0.000186007
0.000183662
0.000183662
0.000183662
0.000175143
0.000175143
0.000175143
0.000179146
0.000179146
0.000179146
0.000179061
0.000179061
0.000179061
0.000178488
0.000178488
0.000178488
0.000180205
0.000180205
0.000180205
0.000180775
0.000180775
0.000180775
0.000177417
0.000177417
0.000177417
0.000178526
0.000178526
0.000178526
0.000176842
0.000176842
0.000176842
0.000177378
0.000177378
0.000177378
0.000174054
0.000174054
0.000174054
0.000171873
0.000171873
0.000171873
0.000175789
0.000175789
0.000175789
0.000175199
0.000175199
0.000175199
0.000174092
0.000174092
0.000174092
0.000174044
0.000174044
0.000174044
0.000173499
0.000173499
0.000173499
0.000172412
0.000172412
0.000172412
0.000167107
0.000167107
0.000167107
0.000167635
0.000167635
0.000167635
0.000168679
0.000168679
0.000168679
0.000168693
0.000168693
0.000168693
0.000167635
0.000167635
0.000167635
0.000167104
0.000167104
0.000167104
0.000167625
0.000167625
0.000167625
0.000169244
0.000169244
0.000169244
0.000170374
0.000170374
0.000170374
0.000161487
0.000161487
0.000161487
0.000160987
0.000160987
0.000160987
0.000166075
0.000166075
0.000166075
0.000165566
0.000165566
0.000165566
0.000180619
0.000180619
0.000180619
0.000171996
0.000171996
0.000171996
0.000170893
0.000170893
0.000170893
0.000170321
0.000170321
0.000170321
0.00017084
0.00017084
0.00017084
0.000201846
0.000201846
0.000201846
0.000202812
0.000202812
0.000202812
0.000206589
0.000206589
0.000206589
0.000209436
0.000209436
0.000209436
0.000216157
0.000216157
0.000216157
0.000259089
0.000259089
0.000259089
0.000287843
0.000287843
0.000287843
0.000283161
0.000283161
0.000283161
0.000295447
0.000295447
0.000295447
0.000292686
0.000292686
0.000292686
0.000274026
0.000274026
0.000274026
0.000311701
0.000311701
0.000311701
0.00033255
0.00033255
0.00033255
0.000287681
0.000287681
0.000287681
0.000284622
0.000284622
0.000284622
0.000280751
0.000280751
0.000280751
0.000301795
0.000301795
0.000301795
0.000207862
0.000207862
0.000207862
0.000207475
0.000207475
0.000207475
0.000204724
0.000204724
0.000204724
0.000214165
0.000214165
0.000214165
0.000211241
0.000211241
0.000211241
0.000212228
0.000212228
0.000212228
0.000270011
0.000270011
0.000270011
0.000245003
0.000245003
0.000245003
0.000245858
0.000245858
0.000245858
0.000243554
0.000243554
0.000243554
0.000240389
0.000240389
0.000240389
0.00024125
0.00024125
0.00024125
0.000245235
0.000245235
0.000245235
0.000238138
0.000238138
0.000238138
0.000236745
0.000236745
0.000236745
0.000235899
0.000235899
0.000235899
0.000238973
0.000238973
0.000238973
0.000216851
0.000216851
0.000216851
0.000217538
0.000217538
0.000217538
0.000234564
0.000234564
0.000234564
0.000225642
0.000225642
0.000225642
0.000230053
0.000230053
0.000230053
0.000466258
0.000466258
0.000466258
0.000455496
0.000455496
0.000455496
0.000471647
0.000471647
0.000471647
0.000476598
0.000476598
0.000476598
0.000427256
0.000427256
0.000427256
0.000406502
0.000406502
0.000406502
0.000423065
0.000423065
0.000423065
0.000444616
0.000444616
0.000444616
0.000439843
0.000439843
0.000439843
0.00029237
0.00029237
0.00029237
0.00030234
0.00030234
0.00030234
0.000299004
0.000299004
0.000299004
0.000340718
0.000340718
0.000340718
0.000336906
0.000336906
0.000336906
0.000314027
0.000314027
0.000314027
0.000200378
0.000200378
0.000200378
0.000186075
0.000186075
0.000186075
0.000191444
0.000191444
0.000191444
0.00019082
0.00019082
0.00019082
0.0001933
0.0001933
0.0001933
0.000192676
0.000192676
0.000192676
0.0001933
0.0001933
0.0001933
0.000194555
0.000194555
0.000194555
0.000195178
0.000195178
0.000195178
0.000194547
0.000194547
0.000194547
0.000287016
0.000287016
0.000287016
0.000288332
0.000288332
0.000288332
0.000293227
0.000293227
0.000293227
0.000196448
0.000196448
0.000196448
0.000197172
0.000197172
0.000197172
0.000186273
0.000186273
0.000186273
0.000194615
0.000194615
0.000194615
0.000180388
0.000180388
0.000180388
0.000197164
0.000197164
0.000197164
0.000188178
0.000188178
0.000188178
0.000189437
0.000189437
0.000189437
0.000193527
0.000193527
0.000193527
0.000194757
0.000194757
0.000194757
0.000187809
0.000187809
0.000187809
0.000184302
0.000184302
0.000184302
0.000183698
0.000183698
0.000183698
0.000184257
0.000184257
0.000184257
0.000185426
0.000185426
0.000185426
0.000186028
0.000186028
0.000186028
0.000185463
0.000185463
0.000185463
0.000222853
0.000222853
0.000222853
0.000221716
0.000221716
0.000221716
0.00019853
0.00019853
0.00019853
0.000195388
0.000195388
0.000195388
0.000196624
0.000196624
0.000196624
0.000200981
0.000200981
0.000200981
0.000223862
0.000223862
0.000223862
0.00022719
0.00022719
0.00022719
0.000229423
0.000229423
0.000229423
0.00022499
0.00022499
0.00022499
0.000202929
0.000202929
0.000202929
0.000204143
0.000204143
0.000204143
0.000175148
0.000175148
0.000175148
0.000175694
0.000175694
0.000175694
0.000176806
0.000176806
0.000176806
0.000175708
0.000175708
0.000175708
0.000176812
0.000176812
0.000176812
0.000177364
0.000177364
0.000177364
0.000178543
0.000178543
0.000178543
0.000177373
0.000177373
0.000177373
0.000178504
0.000178504
0.000178504
0.000179092
0.000179092
0.000179092
0.000183842
0.000183842
0.000183842
0.000183773
0.000183773
0.000183773
0.00018441
0.00018441
0.00018441
0.000179068
0.000179068
0.000179068
0.000180761
0.000180761
0.000180761
0.000180197
0.000180197
0.000180197
0.000180197
0.000180197
0.000180197
0.000179053
0.000179053
0.000179053
0.000178495
0.000178495
0.000178495
0.00017516
0.00017516
0.00017516
0.000175735
0.000175735
0.000175735
0.000176861
0.000176861
0.000176861
0.000175704
0.000175704
0.000175704
0.000177404
0.000177404
0.000177404
0.000176822
0.000176822
0.000176822
0.000177459
0.000177459
0.000177459
0.000178597
0.000178597
0.000178597
0.000179214
0.000179214
0.000179214
0.00017693
0.00017693
0.00017693
0.000173516
0.000173516
0.000173516
0.000174086
0.000174086
0.000174086
0.000172422
0.000172422
0.000172422
0.000171891
0.000171891
0.000171891
0.000175259
0.000175259
0.000175259
0.000174049
0.000174049
0.000174049
0.000173524
0.000173524
0.000173524
0.000172458
0.000172458
0.000172458
0.000173503
0.000173503
0.000173503
0.000169245
0.000169245
0.000169245
0.000170269
0.000170269
0.000170269
0.000168704
0.000168704
0.000168704
0.000169213
0.000169213
0.000169213
0.000170842
0.000170842
0.000170842
0.000171911
0.000171911
0.000171911
0.00017243
0.00017243
0.00017243
0.000171877
0.000171877
0.000171877
0.000170809
0.000170809
0.000170809
0.000170294
0.000170294
0.000170294
0.000170283
0.000170283
0.000170283
0.000169203
0.000169203
0.000169203
0.000169213
0.000169213
0.000169213
0.000168676
0.000168676
0.000168676
0.000170809
0.000170809
0.000170809
0.000170266
0.000170266
0.000170266
0.000167666
0.000167666
0.000167666
0.000168731
0.000168731
0.000168731
0.000169296
0.000169296
0.000169296
0.000162996
0.000162996
0.000162996
0.00016402
0.00016402
0.00016402
0.000164012
0.000164012
0.000164012
0.00016453
0.00016453
0.00016453
0.000162483
0.000162483
0.000162483
0.000162995
0.000162995
0.000162995
0.000159509
0.000159509
0.000159509
0.000159979
0.000159979
0.000159979
0.000159504
0.000159504
0.000159504
0.000160025
0.000160025
0.000160025
0.000161014
0.000161014
0.000161014
0.00016251
0.00016251
0.00016251
0.000161516
0.000161516
0.000161516
0.000161492
0.000161492
0.000161492
0.000160996
0.000160996
0.000160996
0.00016555
0.00016555
0.00016555
0.000164532
0.000164532
0.000164532
0.000164017
0.000164017
0.000164017
0.000164522
0.000164522
0.000164522
0.000165553
0.000165553
0.000165553
0.000166065
0.000166065
0.000166065
0.000211353
0.000211353
0.000211353
0.00021448
0.00021448
0.00021448
0.000198791
0.000198791
0.000198791
0.000207161
0.000207161
0.000207161
0.000179437
0.000179437
0.000179437
0.000196683
0.000196683
0.000196683
0.000200983
0.000200983
0.000200983
0.000199952
0.000199952
0.000199952
0.000260039
0.000260039
0.000260039
0.000254676
0.000254676
0.000254676
0.000230537
0.000230537
0.000230537
0.000227243
0.000227243
0.000227243
0.000291418
0.000291418
0.000291418
0.000297216
0.000297216
0.000297216
0.000288614
0.000288614
0.000288614
0.000315527
0.000315527
0.000315527
0.000320637
0.000320637
0.000320637
0.000319967
0.000319967
0.000319967
0.000298877
0.000298877
0.000298877
0.000293285
0.000293285
0.000293285
0.000297256
0.000297256
0.000297256
0.000297833
0.000297833
0.000297833
0.000291429
0.000291429
0.000291429
0.000290812
0.000290812
0.000290812
0.000283417
0.000283417
0.000283417
0.000286784
0.000286784
0.000286784
0.000291604
0.000291604
0.000291604
0.000287488
0.000287488
0.000287488
0.000299853
0.000299853
0.000299853
0.000303991
0.000303991
0.000303991
0.000307531
0.000307531
0.000307531
0.000293019
0.000293019
0.000293019
0.000282072
0.000282072
0.000282072
0.000286109
0.000286109
0.000286109
0.000315283
0.000315283
0.000315283
0.000314691
0.000314691
0.000314691
0.000313462
0.000313462
0.000313462
0.000331956
0.000331956
0.000331956
0.000276086
0.000276086
0.000276086
0.000264583
0.000264583
0.000264583
0.000300061
0.000300061
0.000300061
0.000300654
0.000300654
0.000300654
0.000219135
0.000219135
0.000219135
0.000215985
0.000215985
0.000215985
0.000257158
0.000257158
0.000257158
0.000258009
0.000258009
0.000258009
0.000243219
0.000243219
0.000243219
0.00024155
0.00024155
0.00024155
0.000248413
0.000248413
0.000248413
0.000247577
0.000247577
0.000247577
0.000240653
0.000240653
0.000240653
0.000248493
0.000248493
0.000248493
0.000218867
0.000218867
0.000218867
0.000218873
0.000218873
0.000218873
0.00022119
0.00022119
0.00022119
0.000221813
0.000221813
0.000221813
0.000223259
0.000223259
0.000223259
0.000449438
0.000449438
0.000449438
0.000450047
0.000450047
0.000450047
0.000439694
0.000439694
0.000439694
0.000443892
0.000443892
0.000443892
0.000439062
0.000439062
0.000439062
0.000432791
0.000432791
0.000432791
0.000433556
0.000433556
0.000433556
0.000428471
0.000428471
0.000428471
0.000455708
0.000455708
0.000455708
0.000461467
0.000461467
0.000461467
0.000461091
0.000461091
0.000461091
0.000465865
0.000465865
0.000465865
0.000460489
0.000460489
0.000460489
0.000472791
0.000472791
0.000472791
0.000456453
0.000456453
0.000456453
0.000401625
0.000401625
0.000401625
0.000374994
0.000374994
0.000374994
0.000392511
0.000392511
0.000392511
0.000420217
0.000420217
0.000420217
0.000424349
0.000424349
0.000424349
0.000419853
0.000419853
0.000419853
0.000414641
0.000414641
0.000414641
0.000415024
0.000415024
0.000415024
0.000441368
0.000441368
0.000441368
0.000413818
0.000413818
0.000413818
0.00039993
0.00039993
0.00039993
0.000383866
0.000383866
0.000383866
0.000379662
0.000379662
0.000379662
0.000418804
0.000418804
0.000418804
0.000413657
0.000413657
0.000413657
0.000429112
0.000429112
0.000429112
0.000434273
0.000434273
0.000434273
0.000434696
0.000434696
0.000434696
0.000395455
0.000395455
0.000395455
0.000450168
0.000450168
0.000450168
0.000454633
0.000454633
0.000454633
0.0004498
0.0004498
0.0004498
0.000317208
0.000317208
0.000317208
0.000313379
0.000313379
0.000313379
0.00033461
0.00033461
0.00033461
0.00030579
0.00030579
0.00030579
0.000304993
0.000304993
0.000304993
0.000308775
0.000308775
0.000308775
0.000281275
0.000281275
0.000281275
0.000288498
0.000288498
0.000288498
0.000350501
0.000350501
0.000350501
0.000349863
0.000349863
0.000349863
0.000287774
0.000287774
0.000287774
0.000291672
0.000291672
0.000291672
0.000295076
0.000295076
0.000295076
0.000294438
0.000294438
0.000294438
0.000296263
0.000296263
0.000296263
0.000299497
0.000299497
0.000299497
0.000299315
0.000299315
0.000299315
0.000304084
0.000304084
0.000304084
0.000303416
0.000303416
0.000303416
0.000392648
0.000392648
0.000392648
0.000388895
0.000388895
0.000388895
0.000388531
0.000388531
0.000388531
0.000337471
0.000337471
0.000337471
0.000338537
0.000338537
0.000338537
0.000342341
0.000342341
0.000342341
0.000341817
0.000341817
0.000341817
0.000350527
0.000350527
0.000350527
0.00034717
0.00034717
0.00034717
0.000346674
0.000346674
0.000346674
0.000351492
0.000351492
0.000351492
0.000313465
0.000313465
0.000313465
0.000312295
0.000312295
0.000312295
0.000332652
0.000332652
0.000332652
0.000332126
0.000332126
0.000332126
0.000318136
0.000318136
0.000318136
0.000319804
0.000319804
0.000319804
0.000322863
0.000322863
0.000322863
0.000327693
0.000327693
0.000327693
0.000306294
0.000306294
0.000306294
0.000306879
0.000306879
0.000306879
0.000311262
0.000311262
0.000311262
0.000315201
0.000315201
0.000315201
0.000310826
0.000310826
0.000310826
0.000314227
0.000314227
0.000314227
0.000221959
0.000221959
0.000221959
0.000223352
0.000223352
0.000223352
0.00022415
0.00022415
0.00022415
0.000223546
0.000223546
0.000223546
0.000226632
0.000226632
0.000226632
0.000225786
0.000225786
0.000225786
0.000224364
0.000224364
0.000224364
0.00025416
0.00025416
0.00025416
0.000216759
0.000216759
0.000216759
0.000217466
0.000217466
0.000217466
0.000219652
0.000219652
0.000219652
0.00021891
0.00021891
0.00021891
0.00018961
0.00018961
0.00018961
0.000189002
0.000189002
0.000189002
0.000187798
0.000187798
0.000187798
0.00018721
0.00018721
0.00018721
0.000189684
0.000189684
0.000189684
0.000190844
0.000190844
0.000190844
0.000191437
0.000191437
0.000191437
0.00019272
0.00019272
0.00019272
0.000193326
0.000193326
0.000193326
0.000192685
0.000192685
0.000192685
0.000261167
0.000261167
0.000261167
0.000259107
0.000259107
0.000259107
0.000272105
0.000272105
0.000272105
0.000277991
0.000277991
0.000277991
0.000282816
0.000282816
0.000282816
0.00028664
0.00028664
0.00028664
0.000276942
0.000276942
0.000276942
0.000285624
0.000285624
0.000285624
0.000280751
0.000280751
0.000280751
0.00027423
0.00027423
0.00027423
0.000283836
0.000283836
0.000283836
0.00028582
0.00028582
0.00028582
0.000333824
0.000333824
0.000333824
0.000291498
0.000291498
0.000291498
0.000328715
0.000328715
0.000328715
0.00023259
0.00023259
0.00023259
0.000258051
0.000258051
0.000258051
0.000261643
0.000261643
0.000261643
0.000257339
0.000257339
0.000257339
0.000251498
0.000251498
0.000251498
0.000252618
0.000252618
0.000252618
0.000284216
0.000284216
0.000284216
0.000239778
0.000239778
0.000239778
0.000252971
0.000252971
0.000252971
0.000256911
0.000256911
0.000256911
0.00026213
0.00026213
0.00026213
0.000265958
0.000265958
0.000265958
0.000271027
0.000271027
0.000271027
0.000259039
0.000259039
0.000259039
0.000268813
0.000268813
0.000268813
0.000196442
0.000196442
0.000196442
0.00019708
0.00019708
0.00019708
0.000230326
0.000230326
0.000230326
0.000221001
0.000221001
0.000221001
0.000224428
0.000224428
0.000224428
0.00022911
0.00022911
0.00022911
0.000206353
0.000206353
0.000206353
0.00021586
0.00021586
0.00021586
0.000197273
0.000197273
0.000197273
0.000196504
0.000196504
0.000196504
0.000195266
0.000195266
0.000195266
0.000193382
0.000193382
0.000193382
0.000194567
0.000194567
0.000194567
0.000195216
0.000195216
0.000195216
0.000194622
0.000194622
0.000194622
0.000191522
0.000191522
0.000191522
0.000190887
0.000190887
0.000190887
0.000191469
0.000191469
0.000191469
0.000192694
0.000192694
0.000192694
0.000193328
0.000193328
0.000193328
0.000192739
0.000192739
0.000192739
0.00018023
0.00018023
0.00018023
0.000180778
0.000180778
0.000180778
0.00018192
0.00018192
0.00018192
0.000180819
0.000180819
0.000180819
0.000182507
0.000182507
0.000182507
0.000181954
0.000181954
0.000181954
0.000188058
0.000188058
0.000188058
0.000193447
0.000193447
0.000193447
0.000189257
0.000189257
0.000189257
0.000191072
0.000191072
0.000191072
0.000181027
0.000181027
0.000181027
0.000182338
0.000182338
0.000182338
0.000181143
0.000181143
0.000181143
0.000180489
0.000180489
0.000180489
0.000184084
0.000184084
0.000184084
0.000182875
0.000182875
0.000182875
0.000182214
0.000182214
0.000182214
0.000182758
0.000182758
0.000182758
0.000186163
0.000186163
0.000186163
0.000187496
0.000187496
0.000187496
0.000185613
0.000185613
0.000185613
0.000186275
0.000186275
0.000186275
0.000184327
0.000184327
0.000184327
0.000185519
0.000185519
0.000185519
0.000191259
0.000191259
0.000191259
0.00018999
0.00018999
0.00018999
0.000192892
0.000192892
0.000192892
0.000189863
0.000189863
0.000189863
0.000187625
0.000187625
0.000187625
0.000191676
0.000191676
0.000191676
0.000193377
0.000193377
0.000193377
0.000192772
0.000192772
0.000192772
0.000189769
0.000189769
0.000189769
0.000189005
0.000189005
0.000189005
0.000189611
0.000189611
0.000189611
0.000191472
0.000191472
0.000191472
0.000190837
0.000190837
0.000190837
0.000196477
0.000196477
0.000196477
0.000195302
0.000195302
0.000195302
0.000198355
0.000198355
0.000198355
0.000202613
0.000202613
0.000202613
0.000203769
0.000203769
0.000203769
0.000200693
0.000200693
0.000200693
0.00020184
0.00020184
0.00020184
0.000206045
0.000206045
0.000206045
0.000200265
0.000200265
0.000200265
0.000199071
0.000199071
0.000199071
0.000202192
0.000202192
0.000202192
0.000206535
0.000206535
0.000206535
0.000219594
0.000219594
0.000219594
0.000215236
0.000215236
0.000215236
0.000206116
0.000206116
0.000206116
0.000212585
0.000212585
0.000212585
0.000217314
0.000217314
0.000217314
0.000208527
0.000208527
0.000208527
0.000214084
0.000214084
0.000214084
0.000209712
0.000209712
0.000209712
0.000222517
0.000222517
0.000222517
0.000255569
0.000255569
0.000255569
0.000256608
0.000256608
0.000256608
0.000231666
0.000231666
0.000231666
0.000232771
0.000232771
0.000232771
0.000182657
0.000182657
0.000182657
0.000182113
0.000182113
0.000182113
0.000180305
0.000180305
0.000180305
0.000180929
0.000180929
0.000180929
0.000181964
0.000181964
0.000181964
0.00018258
0.00018258
0.00018258
0.000180799
0.000180799
0.000180799
0.000182025
0.000182025
0.000182025
0.000180243
0.000180243
0.000180243
0.000180853
0.000180853
0.000180853
0.000174206
0.000174206
0.000174206
0.000173548
0.000173548
0.000173548
0.000174131
0.000174131
0.000174131
0.000172455
0.000172455
0.000172455
0.000173608
0.000173608