<VTKFile type="UnstructuredGrid" version="1.0">
<UnstructuredGrid>
<Piece NumberOfPoints="8859" NumberOfCells="2953">
<Points>
<DataArray type="Float64" NumberOfComponents="3" format="ascii">
0.5 3.01 9.31
0.512524 3.01 9.3325
0.487476 3.01 9.3325
0.17352 3.01 8.4325
0.160827 3.01 8.45422
0.148445 3.01 8.4325
0.122979 3.01 8.47589
0.110383 3.01 8.45421
0.135644 3.01 8.45422
0.135644 3.01 8.45422
0.110383 3.01 8.45421
0.123433 3.01 8.4325
0.123433 3.01 8.4325
0.148445 3.01 8.4325
0.135644 3.01 8.45422
0.135644 3.01 8.45422
0.148445 3.01 8.4325
0.160827 3.01 8.45422
0.17352 3.01 8.4325
0.198629 3.01 8.4325
0.185985 3.01 8.4542
0.185985 3.01 8.4542
0.160827 3.01 8.45422
0.17352 3.01 8.4325
0.0732297 3.01 8.47567
0.0586606 3.01 8.45381
0.0848754 3.01 8.45414
0.05 3.01 9.26528
0.05 3.01 9.2201
0.058509 3.01 9.24256
0.324276 3.01 8.4325
0.349395 3.01 8.4325
0.336827 3.01 8.45416
0.148138 3.01 8.4759
0.135644 3.01 8.45422
0.160827 3.01 8.45422
0.122979 3.01 8.47589
0.135644 3.01 8.45422
0.148138 3.01 8.4759
0.160827 3.01 8.45422
0.185985 3.01 8.4542
0.173316 3.01 8.47589
0.185806 3.01 8.49755
0.160572 3.01 8.49755
0.173316 3.01 8.47589
0.173316 3.01 8.47589
0.148138 3.01 8.4759
0.160827 3.01 8.45422
0.160572 3.01 8.49755
0.148138 3.01 8.4759
0.173316 3.01 8.47589
0.211137 3.01 8.45419
0.185985 3.01 8.4542
0.198629 3.01 8.4325
0.0979162 3.01 8.47584
0.110383 3.01 8.45421
0.122979 3.01 8.47589
0.122979 3.01 8.47589
0.109875 3.01 8.49749
0.0979162 3.01 8.47584
0.0732297 3.01 8.47567
0.0848754 3.01 8.45414
0.0979162 3.01 8.47584
0.0979162 3.01 8.47584
0.0848754 3.01 8.45414
0.110383 3.01 8.45421
0.0975729 3.01 8.51904
0.109875 3.01 8.49749
0.122678 3.01 8.51914
0.0841718 3.01 8.49735
0.0577122 3.01 8.49702
0.0732297 3.01 8.47567
0.0729308 3.01 8.51888
0.0577122 3.01 8.49702
0.0841718 3.01 8.49735
0.0732297 3.01 8.47567
0.0979162 3.01 8.47584
0.0841718 3.01 8.49735
0.0841718 3.01 8.49735
0.0979162 3.01 8.47584
0.109875 3.01 8.49749
0.0975729 3.01 8.51904
0.0729308 3.01 8.51888
0.0841718 3.01 8.49735
0.0841718 3.01 8.49735
0.109875 3.01 8.49749
0.0975729 3.01 8.51904
0.073948 3.01 8.4325
0.0586606 3.01 8.45381
0.05 3.01 8.4325
0.073948 3.01 8.4325
0.0848754 3.01 8.45414
0.0586606 3.01 8.45381
0.05 3.01 9.30829
0.05 3.01 9.26528
0.0603641 3.01 9.28697
0.0603641 3.01 9.28697
0.0753197 3.01 9.30899
0.05 3.01 9.30829
0.0709395 3.01 9.3325
0.05 3.01 9.3325
0.05 3.01 9.30829
0.05 3.01 9.30829
0.0753197 3.01 9.30899
0.0709395 3.01 9.3325
0.0579641 3.01 9.01963
0.05 3.01 9.04169
0.05 3.01 8.99761
0.0841948 3.01 8.9318
0.097638 3.01 8.90993
0.109814 3.01 8.9318
0.0841948 3.01 8.9318
0.0730539 3.01 8.9537
0.0578646 3.01 8.9318
0.0580261 3.01 9.0638
0.05 3.01 9.08595
0.05 3.01 9.04169
0.942292 3.01 8.62736
0.95 3.01 8.60567
0.95 3.01 8.64904
0.95 3.01 8.56226
0.95 3.01 8.60567
0.942332 3.01 8.58397
0.73872 3.01 8.84453
0.726137 3.01 8.82276
0.75132 3.01 8.82275
0.751305 3.01 8.86632
0.726124 3.01 8.86633
0.73872 3.01 8.84453
0.713546 3.01 8.84454
0.726137 3.01 8.82276
0.73872 3.01 8.84453
0.73872 3.01 8.84453
0.726124 3.01 8.86633
0.713546 3.01 8.84454
0.814318 3.01 8.88811
0.789096 3.01 8.88812
0.801709 3.01 8.8663
0.7765 3.01 8.86631
0.789115 3.01 8.84451
0.801709 3.01 8.8663
0.801709 3.01 8.8663
0.789096 3.01 8.88812
0.7765 3.01 8.86631
0.7765 3.01 8.86631
0.789096 3.01 8.88812
0.763892 3.01 8.88814
0.763892 3.01 8.88814
0.751305 3.01 8.86632
0.7765 3.01 8.86631
0.95 3.01 9.3325
0.929061 3.01 9.3325
0.95 3.01 9.30829
0.95 3.01 9.1304
0.926844 3.01 9.1304
0.941913 3.01 9.10815
0.941913 3.01 9.10815
0.95 3.01 9.08595
0.95 3.01 9.1304
0.926866 3.01 9.08594
0.95 3.01 9.08595
0.941913 3.01 9.10815
0.941974 3.01 9.0638
0.95 3.01 9.08595
0.926866 3.01 9.08594
0.95 3.01 9.04169
0.95 3.01 9.08595
0.941974 3.01 9.0638
0.941974 3.01 9.0638
0.926895 3.01 9.04169
0.95 3.01 9.04169
0.6127 3.01 9.3325
0.625238 3.01 9.30998
0.637734 3.01 9.3325
0.662757 3.01 9.3325
0.637734 3.01 9.3325
0.650275 3.01 9.30997
0.650275 3.01 9.30997
0.637734 3.01 9.3325
0.625238 3.01 9.30998
0.600415 3.01 8.86637
0.587856 3.01 8.8882
0.575304 3.01 8.86637
0.575304 3.01 8.86637
0.587856 3.01 8.8882
0.562749 3.01 8.8882
0.336827 3.01 8.45416
0.349395 3.01 8.4325
0.361946 3.01 8.45416
0.223755 3.01 8.4325
0.211137 3.01 8.45419
0.198629 3.01 8.4325
0.185985 3.01 8.4542
0.211137 3.01 8.45419
0.198492 3.01 8.47588
0.185806 3.01 8.49755
0.173316 3.01 8.47589
0.198492 3.01 8.47588
0.198492 3.01 8.47588
0.173316 3.01 8.47589
0.185985 3.01 8.4542
0.0576202 3.01 8.54053
0.05 3.01 8.56226
0.05 3.01 8.51874
0.05 3.01 8.51874
0.0729308 3.01 8.51888
0.0576202 3.01 8.54053
0.05 3.01 8.51874
0.0577122 3.01 8.49702
0.0729308 3.01 8.51888
0.135283 3.01 8.49754
0.109875 3.01 8.49749
0.122979 3.01 8.47589
0.135283 3.01 8.49754
0.122678 3.01 8.51914
0.109875 3.01 8.49749
0.122979 3.01 8.47589
0.148138 3.01 8.4759
0.135283 3.01 8.49754
0.135283 3.01 8.49754
0.148138 3.01 8.4759
0.160572 3.01 8.49755
0.123433 3.01 8.4325
0.110383 3.01 8.45421
0.0985513 3.01 8.4325
0.110383 3.01 8.45421
0.0848754 3.01 8.45414
0.0985513 3.01 8.4325
0.0848754 3.01 8.45414
0.073948 3.01 8.4325
0.0985513 3.01 8.4325
0.0603641 3.01 9.28697
0.05 3.01 9.26528
0.0739464 3.01 9.26449
0.0739464 3.01 9.26449
0.05 3.01 9.26528
0.058509 3.01 9.24256
0.058509 3.01 9.24256
0.0849548 3.01 9.24211
0.0739464 3.01 9.26449
0.058509 3.01 9.24256
0.05 3.01 9.2201
0.0732725 3.01 9.21988
0.0732725 3.01 9.21988
0.0849548 3.01 9.24211
0.058509 3.01 9.24256
0.5 3.01 9.31
0.487476 3.01 9.3325
0.47495 3.01 9.31
0.097663 3.01 8.9537
0.0841948 3.01 8.9318
0.109814 3.01 8.9318
0.0730539 3.01 8.9537
0.0841948 3.01 8.9318
0.097663 3.01 8.9537
0.0578646 3.01 8.9318
0.0730539 3.01 8.9537
0.05 3.01 8.9537
0.05 3.01 8.9537
0.05 3.01 8.90992
0.0578646 3.01 8.9318
0.05 3.01 9.1304
0.05 3.01 9.08595
0.0580869 3.01 9.10815
0.05 3.01 9.08595
0.0580261 3.01 9.0638
0.073134 3.01 9.08594
0.073134 3.01 9.08594
0.0580869 3.01 9.10815
0.05 3.01 9.08595
0.942268 3.01 8.67073
0.95 3.01 8.64904
0.95 3.01 8.69241
0.942292 3.01 8.62736
0.95 3.01 8.64904
0.927025 3.01 8.64904
0.927025 3.01 8.64904
0.942268 3.01 8.67073
0.915919 3.01 8.67072
0.95 3.01 8.64904
0.942268 3.01 8.67073
0.927025 3.01 8.64904
0.927013 3.01 8.69241
0.942268 3.01 8.67073
0.95 3.01 8.69241
0.915919 3.01 8.67072
0.942268 3.01 8.67073
0.927013 3.01 8.69241
0.801738 3.01 8.77925
0.814364 3.01 8.75753
0.826957 3.01 8.77925
0.852174 3.01 8.77924
0.826957 3.01 8.77925
0.839609 3.01 8.75752
0.839609 3.01 8.75752
0.826957 3.01 8.77925
0.814364 3.01 8.75753
0.776516 3.01 8.82275
0.75132 3.01 8.82275
0.763923 3.01 8.801
0.776516 3.01 8.82275
0.801725 3.01 8.82274
0.789115 3.01 8.84451
0.738704 3.01 8.88815
0.751305 3.01 8.86632
0.763892 3.01 8.88814
0.726124 3.01 8.86633
0.751305 3.01 8.86632
0.738704 3.01 8.88815
0.915617 3.01 9.10814
0.902228 3.01 9.08594
0.926866 3.01 9.08594
0.926866 3.01 9.08594
0.941913 3.01 9.10815
0.915617 3.01 9.10814
0.915617 3.01 9.10814
0.941913 3.01 9.10815
0.926844 3.01 9.1304
0.915617 3.01 9.10814
0.926844 3.01 9.1304
0.902193 3.01 9.13038
0.926866 3.01 9.08594
0.902228 3.01 9.08594
0.915668 3.01 9.06379
0.902267 3.01 9.04168
0.926895 3.01 9.04169
0.915668 3.01 9.06379
0.915668 3.01 9.06379
0.941974 3.01 9.0638
0.926866 3.01 9.08594
0.926895 3.01 9.04169
0.941974 3.01 9.0638
0.915668 3.01 9.06379
0.902267 3.01 9.04168
0.915668 3.01 9.06379
0.890059 3.01 9.06379
0.890059 3.01 9.06379
0.915668 3.01 9.06379
0.902228 3.01 9.08594
0.826927 3.01 8.86629
0.814318 3.01 8.88811
0.801709 3.01 8.8663
0.864816 3.01 8.9318
0.877308 3.01 8.90993
0.890186 3.01 8.9318
0.877308 3.01 8.90993
0.864816 3.01 8.9318
0.852122 3.01 8.90994
0.890186 3.01 8.9318
0.877308 3.01 8.90993
0.902362 3.01 8.90993
0.902362 3.01 8.90993
0.915805 3.01 8.9318
0.890186 3.01 8.9318
0.902362 3.01 8.90993
0.926964 3.01 8.90992
0.915805 3.01 8.9318
0.915835 3.01 8.88809
0.926964 3.01 8.90992
0.902362 3.01 8.90993
0.942171 3.01 8.88809
0.926964 3.01 8.90992
0.915835 3.01 8.88809
0.915835 3.01 8.88809
0.926978 3.01 8.86627
0.942171 3.01 8.88809
0.942171 3.01 8.88809
0.926978 3.01 8.86627
0.95 3.01 8.86627
0.87737 3.01 8.73581
0.890277 3.01 8.71411
0.902417 3.01 8.7358
0.852144 3.01 8.86628
0.877329 3.01 8.86628
0.864842 3.01 8.88809
0.877308 3.01 8.90993
0.852122 3.01 8.90994
0.864842 3.01 8.88809
0.902396 3.01 8.82272
0.915858 3.01 8.84448
0.890234 3.01 8.84449
0.926997 3.01 8.77923
0.942237 3.01 8.75751
0.95 3.01 8.77923
0.91589 3.01 8.75751
0.942237 3.01 8.75751
0.926997 3.01 8.77923
0.942199 3.01 8.84448
0.95 3.01 8.82271
0.95 3.01 8.86627
0.95 3.01 8.86627
0.926978 3.01 8.86627
0.942199 3.01 8.84448
0.942199 3.01 8.84448
0.926978 3.01 8.86627
0.915858 3.01 8.84448
0.95 3.01 8.77923
0.95 3.01 8.82271
0.942221 3.01 8.80097
0.942221 3.01 8.80097
0.926997 3.01 8.77923
0.95 3.01 8.77923
0.915876 3.01 8.80097
0.926997 3.01 8.77923
0.942221 3.01 8.80097
0.926989 3.01 8.82271
0.915858 3.01 8.84448
0.902396 3.01 8.82272
0.902396 3.01 8.82272
0.915876 3.01 8.80097
0.926989 3.01 8.82271
0.926989 3.01 8.82271
0.942199 3.01 8.84448
0.915858 3.01 8.84448
0.95 3.01 8.82271
0.942199 3.01 8.84448
0.926989 3.01 8.82271
0.915876 3.01 8.80097
0.942221 3.01 8.80097
0.926989 3.01 8.82271
0.926989 3.01 8.82271
0.942221 3.01 8.80097
0.95 3.01 8.82271
0.91353 3.01 9.28685
0.926054 3.01 9.26449
0.939636 3.01 9.28697
0.926728 3.01 9.21988
0.95 3.01 9.2201
0.941491 3.01 9.24256
0.926728 3.01 9.21988
0.941822 3.01 9.19754
0.95 3.01 9.2201
0.95 3.01 9.26528
0.95 3.01 9.30829
0.939636 3.01 9.28697
0.95 3.01 9.26528
0.926054 3.01 9.26449
0.941491 3.01 9.24256
0.939636 3.01 9.28697
0.926054 3.01 9.26449
0.95 3.01 9.26528
0.941491 3.01 9.24256
0.95 3.01 9.2201
0.95 3.01 9.26528
0.941869 3.01 9.15272
0.926844 3.01 9.1304
0.95 3.01 9.1304
0.762942 3.01 9.28728
0.75028 3.01 9.30989
0.737933 3.01 9.28734
0.71291 3.01 9.28739
0.725533 3.01 9.26485
0.737933 3.01 9.28734
0.71291 3.01 9.28739
0.737933 3.01 9.28734
0.725313 3.01 9.30992
0.725313 3.01 9.30992
0.737933 3.01 9.28734
0.75028 3.01 9.30989
0.737693 3.01 9.3325
0.712746 3.01 9.3325
[...]
<PointData Scalars="View Factor" >
<DataArray type="Float64" Name="View Factor" NumberOfComponents="1" format="ascii">
0.00961036
0.00961036
0.00961036
0.00477345
0.00477345
0.00477345
0.00485447
0.00485447
0.00485447
0.00480227
0.00480227
0.00480227
0.00477551
0.00477551
0.00477551
0.00480038
0.00480038
0.00480038
0.00477105
0.00477105
0.00477105
0.00479812
0.00479812
0.00479812
0.0048564
0.0048564
0.0048564
0.0091076
0.0091076
0.0091076
0.00474943
0.00474943
0.00474943
0.00485257
0.00485257
0.00485257
0.0048799
0.0048799
0.0048799
0.00485026
0.00485026
0.00485026
0.00495653
0.00495653
0.00495653
0.00487778
0.00487778
0.00487778
0.00493093
0.00493093
0.00493093
0.00479551
0.00479551
0.00479551
0.00488157
0.00488157
0.00488157
0.00493469
0.00493469
0.00493469
0.0048826
0.0048826
0.0048826
0.00485588
0.00485588
0.00485588
0.00504297
0.00504297
0.00504297
0.00496253
0.00496253
0.00496253
0.00501666
0.00501666
0.00501666
0.00493566
0.00493566
0.00493566
0.00496206
0.00496206
0.00496206
0.00504391
0.00504391
0.00504391
0.00501619
0.00501619
0.00501619
0.00477906
0.00477906
0.00477906
0.00480442
0.00480442
0.00480442
0.0094643
0.0094643
0.0094643
0.00958497
0.00958497
0.00958497
0.00978091
0.00978091
0.00978091
0.00971304
0.00971304
0.00971304
0.00754003
0.00754003
0.00754003
0.00697004
0.00697004
0.00697004
0.00705545
0.00705545
0.00705545
0.00782242
0.00782242
0.00782242
0.00522086
0.00522086
0.00522086
0.00505303
0.00505303
0.00505303
0.00624065
0.00624065
0.00624065
0.00638597
0.00638597
0.00638597
0.006284
0.006284
0.006284
0.00635678
0.00635678
0.00635678
0.00645702
0.00645702
0.00645702
0.00635432
0.00635432
0.00635432
0.00642812
0.00642812
0.00642812
0.00647372
0.00647372
0.00647372
0.00644444
0.00644444
0.00644444
0.00916559
0.00916559
0.00916559
0.00773482
0.00773482
0.00773482
0.00763292
0.00763292
0.00763292
0.00754773
0.00754773
0.00754773
0.00745646
0.00745646
0.00745646
0.00735949
0.00735949
0.00735949
0.00727839
0.00727839
0.00727839
0.0095115
0.0095115
0.0095115
0.00948923
0.00948923
0.00948923
0.00943854
0.00943854
0.00943854
0.00654462
0.00654462
0.00654462
0.00658912
0.00658912
0.00658912
0.00477266
0.00477266
0.00477266
0.0047683
0.0047683
0.0047683
0.00484759
0.00484759
0.00484759
0.00492839
0.00492839
0.00492839
0.00487527
0.00487527
0.00487527
0.00515626
0.00515626
0.00515626
0.00509978
0.00509978
0.00509978
0.00504417
0.00504417
0.00504417
0.00496076
0.00496076
0.00496076
0.00501491
0.00501491
0.00501491
0.00493305
0.00493305
0.00493305
0.00495887
0.00495887
0.00495887
0.00477719
0.00477719
0.00477719
0.00480371
0.00480371
0.00480371
0.00477846
0.00477846
0.00477846
0.00934398
0.00934398
0.00934398
0.00922455
0.00922455
0.00922455
0.00916195
0.00916195
0.00916195
0.0089887
0.0089887
0.0089887
0.00904483
0.00904483
0.00904483
0.0095562
0.0095562
0.0095562
0.00705344
0.00705344
0.00705344
0.00709667
0.00709667
0.00709667
0.00709836
0.00709836
0.00709836
0.0070147
0.0070147
0.0070147
0.00811922
0.00811922
0.00811922
0.00791915
0.00791915
0.00791915
0.00801806
0.00801806
0.00801806
0.00539553
0.00539553
0.00539553
0.00528289
0.00528289
0.00528289
0.00537754
0.00537754
0.00537754
0.00534118
0.00534118
0.00534118
0.00546017
0.00546017
0.00546017
0.00543714
0.00543714
0.00543714
0.00591868
0.00591868
0.00591868
0.00590319
0.00590319
0.00590319
0.00587774
0.00587774
0.00587774
0.00615474
0.00615474
0.00615474
0.00620999
0.00620999
0.00620999
0.00648993
0.00648993
0.00648993
0.00646027
0.00646027
0.00646027
0.00757144
0.00757144
0.00757144
0.00760509
0.00760509
0.00760509
0.00769882
0.00769882
0.00769882
0.0077593
0.0077593
0.0077593
0.0074798
0.0074798
0.0074798
0.00730097
0.00730097
0.00730097
0.0074222
0.0074222
0.0074222
0.00733299
0.00733299
0.00733299
0.00735627
0.00735627
0.00735627
0.00744586
0.00744586
0.00744586
0.00641131
0.00641131
0.00641131
0.0066309
0.0066309
0.0066309
0.00660191
0.00660191
0.00660191
0.00658283
0.00658283
0.00658283
0.00661133
0.00661133
0.00661133
0.00656338
0.00656338
0.00656338
0.00648763
0.00648763
0.00648763
0.00643996
0.00643996
0.00643996
0.00636607
0.00636607
0.00636607
0.00632086
0.00632086
0.00632086
0.00567678
0.00567678
0.00567678
0.00637626
0.00637626
0.00637626
0.00652555
0.00652555
0.00652555
0.00616927
0.00616927
0.00616927
0.00583758
0.00583758
0.00583758
0.00581261
0.00581261
0.00581261
0.006172
0.006172
0.006172
0.00624874
0.00624874
0.00624874
0.00622155
0.00622155
0.00622155
0.00596525
0.00596525
0.00596525
0.00590366
0.00590366
0.00590366
0.005945
0.005945
0.005945
0.00612548
0.00612548
0.00612548
0.00605621
0.00605621
0.00605621
0.00615089
0.00615089
0.00615089
0.00610768
0.00610768
0.00610768
0.00601264
0.00601264
0.00601264
0.00603868
0.00603868
0.00603868
0.00883849
0.00883849
0.00883849
0.00844214
0.00844214
0.00844214
0.00833574
0.00833574
0.00833574
0.00887035
0.00887035
0.00887035
0.00865938
0.00865938
0.00865938
0.00876999
0.00876999
0.00876999
0.00854204
0.00854204
0.00854204
0.00783076
0.00783076
0.00783076
0.00915007
0.00915007
0.00915007
0.00905682
0.00905682
0.00905682
0.00917503
0.00917503
0.00917503
0.00922245
0.00922245
0.00922245
0.00941754
0.00941754
0.00941754
0.00934356
0.00934356
0.00934356
0.00939207
0.00939207
0.00939207
0.00871336
0.00871336
0.00871336
0.00882633
0.00882633
0.00882633
0.00901037
0.00901037
0.00901037
0.00889496
0.00889496
0.00889496
0.00905594
0.00905594
0.00905594
0.00893984
0.00893984
0.00893984
0.00933758
0.00933758
0.00933758
0.00946024
0.00946024
0.00946024
0.00953295
0.00953295
0.00953295
0.00649116
0.00649116
0.00649116
0.0065765
0.0065765
0.0065765
0.00683786
0.00683786
0.00683786
0.00690632
0.00690632
0.00690632
0.00682517
0.00682517
0.00682517
0.00679143
0.00679143
0.00679143
0.0066666
0.0066666
0.0066666
0.00671204
0.00671204
0.00671204
0.00691921
0.00691921
0.00691921
0.00695394
0.00695394
0.00695394
0.00743533
0.00743533
0.00743533
0.00676894
0.00676894
0.00676894
0.00673673
0.00673673
0.00673673
0.00653236
0.00653236
0.00653236
0.00668654
0.00668654
0.00668654
0.004758
0.004758
0.004758
0.00476177
0.00476177
0.00476177
0.00478562
0.00478562
0.00478562
0.00483751
0.00483751
0.00483751
0.00467252
0.00467252
0.00467252
0.00600131
0.00600131
0.00600131
0.00613941
0.00613941
0.00613941
0.006043
0.006043
0.006043
0.00611217
0.00611217
0.00611217
0.00612714
0.00612714
0.00612714
0.00616959
0.00616959
0.00616959
0.00486171
0.00486171
0.00486171
0.00474464
0.00474464
0.00474464
0.00467009
0.00467009
0.00467009
0.0056316
0.0056316
0.0056316
0.00560294
0.00560294
0.00560294
0.00498925
0.00498925
0.00498925
0.00483028
0.00483028
0.00483028
0.00488234
0.00488234
0.00488234
0.00493541
0.00493541
0.00493541
0.00921856
0.00921856
0.00921856
0.00962759
0.00962759
0.00962759
0.0076321
0.0076321
0.0076321
0.0077262
0.0077262
0.0077262
0.00718208
0.00718208
0.00718208
0.00520154
0.00520154
0.00520154
0.00762769
0.00762769
0.00762769
0.00772171
0.00772171
0.00772171
0.00692762
0.00692762
0.00692762
0.00696751
0.00696751
0.00696751
0.00684834
0.00684834
0.00684834
0.00692983
0.00692983
0.00692983
0.00693146
0.00693146
0.00693146
0.00697201
0.00697201
0.00697201
0.00677008
0.00677008
0.00677008
0.00684994
0.00684994
0.00684994
0.00680898
0.00680898
0.00680898
0.00672934
0.00672934
0.00672934
0.00669061
0.00669061
0.00669061
0.00630328
0.00630328
0.00630328
0.00625831
0.00625831
0.00625831
0.00547543
0.00547543
0.00547543
0.00598601
0.00598601
0.00598601
0.00602781
0.00602781
0.00602781
0.00609674
0.00609674
0.00609674
0.00586214
0.00586214
0.00586214
0.00588727
0.00588727
0.00588727
0.00565293
0.00565293
0.00565293
0.00526075
0.00526075
0.00526075
0.00557425
0.00557425
0.00557425
0.00622556
0.00622556
0.00622556
0.00637039
0.00637039
0.00637039
0.00632587
0.00632587
0.00632587
0.00625358
0.00625358
0.00625358
0.00626903
0.00626903
0.00626903
0.00634157
0.00634157
0.00634157
0.0065658
0.0065658
0.0065658
0.00661229
0.00661229
0.00661229
0.00650563
0.00650563
0.00650563
0.00658176
0.00658176
0.00658176
0.0068335
0.0068335
0.0068335
0.00686586
0.00686586
0.00686586
0.00665821
0.00665821
0.00665821
0.006689
0.006689
0.006689
0.00732343
0.00732343
0.00732343
0.00725751
0.00725751
0.00725751
0.00723581
0.00723581
0.00723581
0.00720328
0.00720328
0.00720328
0.00896144
0.00896144
0.00896144
0.00903218
0.00903218
0.00903218
0.00898633
0.00898633
0.00898633
0.00887127
0.00887127
0.00887127
0.00836573
0.00836573
0.00836573
0.00861513
0.00861513
0.00861513
0.0087258
0.0087258
0.0087258
0.00812783
0.00812783
0.00812783
0.00825465
0.00825465
0.00825465
0.00806516
0.00806516
0.00806516
0.00612363
0.00612363
0.00612363
0.00643983
0.00643983
0.00643983
0.00639402
0.00639402
0.00639402
0.00642215
0.00642215
0.00642215
0.00649693
0.00649693
0.00649693
0.00672824
0.00672824
0.00672824
0.00664995
0.00664995
0.00664995
0.00633952
0.00633952
0.00633952
0.00628538
0.00628538
0.00628538
0.00626711
0.00626711
0.00626711
0.00624022
0.00624022
0.00624022
0.00646837
0.00646837
0.00646837
0.0063881
0.0063881
0.0063881
0.00603045
0.00603045
0.00603045
0.00595411
0.00595411
0.00595411
0.00597954
0.00597954
0.00597954
0.00576457
0.00576457
0.00576457
0.00584611
0.00584611
0.00584611
0.0057406
0.0057406
0.0057406
0.0057808
0.0057808
0.0057808
0.00563719
0.00563719
0.00563719
0.00557482
0.00557482
0.00557482
0.00553639
0.00553639
0.00553639
0.00904192
0.00904192
0.00904192
0.00895322
0.00895322
0.00895322
0.00899213
0.00899213
0.00899213
0.00895197
0.00895197
0.00895197
0.00911453
0.00911453
0.00911453
0.00879685
0.00879685
0.00879685
0.00846781
0.00846781
0.00846781
0.00868512
0.00868512
0.00868512
0.00861618
0.00861618
0.00861618
0.00850792
0.00850792
0.00850792
0.00839947
0.00839947
0.00839947
0.00823014
0.00823014
0.00823014
0.00829435
0.00829435
0.00829435
0.00826935
0.00826935
0.00826935
0.00785561
0.00785561
0.00785561
0.00789105
0.00789105
0.00789105
0.00829539
0.00829539
0.00829539
0.00836167
0.00836167
0.00836167
0.00910356
0.00910356
0.00910356
0.00908061
0.00908061
0.00908061
0.00903357
0.00903357
0.00903357
0.00944223
0.00944223
0.00944223
0.00936852
0.00936852
0.00936852
0.00924713
0.00924713
0.00924713
0.00919914
0.00919914
0.00919914
0.00923592
0.00923592
0.00923592
0.00907018
0.00907018
0.00907018
0.0091154
0.0091154
0.0091154
0.00931128
0.00931128
0.00931128
0.00919694
0.00919694
0.00919694
0.00931781
0.00931781
0.00931781
0.00871399
0.00871399
0.00871399
0.0086699
0.0086699
0.0086699
0.00795859
0.00795859
0.00795859
0.00789975
0.00789975
0.00789975
0.00815816
0.00815816
0.00815816
0.00856017
0.00856017
0.00856017
0.00849491
0.00849491
0.00849491
0.00860292
0.00860292
0.00860292
0.00822039
0.00822039
0.00822039
0.00832437
0.00832437
0.00832437
0.0083881
0.0083881
0.0083881
0.00834616
0.00834616
0.00834616
0.00884942
0.00884942
0.00884942
0.00875862
0.00875862
0.00875862
0.00887168
0.00887168
0.00887168
0.00891781
0.00891781
0.00891781
0.00869203
0.00869203
0.00869203
0.00873671
0.00873671
0.00873671
0.00912568
0.00912568
0.00912568
0.00924487
0.00924487
0.00924487
0.00931621
0.00931621
0.00931621
0.00926649
0.00926649
0.00926649
0.00889313
0.00889313
0.00889313
0.00877972
0.00877972
0.00877972
0.00873388
0.00873388
0.00873388
0.00783346
0.00783346
0.00783346
0.0077375
0.0077375
0.0077375
0.00636001
0.00636001
0.00636001
0.00666295
0.00666295
0.00666295
0.00632597
0.00632597
0.00632597
0.00636506
0.00636506
0.00636506
0.00669922
0.00669922
0.00669922
0.00653371
0.00653371
0.00653371
0.00650033
0.00650033
0.00650033
0.00689298
0.00689298
0.00689298
0.0068475
0.0068475
0.0068475
0.00675728
0.00675728
0.00675728
0.00697522
0.00697522
0.00697522
0.00702168
0.00702168
0.00702168
0.00710595
0.00710595
0.00710595
0.00714362
0.00714362
0.00714362
0.00653185
0.00653185
0.00653185
0.00665377
0.00665377
0.00665377
0.00669939
0.00669939
0.00669939
0.00677857
0.00677857
0.00677857
0.00681193
0.00681193
0.00681193
0.00727857
0.00727857
0.00727857
0.00722985
0.00722985
0.00722985
0.00696665
0.00696665
0.00696665
0.00703713
0.00703713
0.00703713
0.00688307
0.00688307
0.00688307
0.00683739
0.00683739
0.00683739
0.00724575
0.00724575
0.00724575
0.00719638
0.00719638
0.00719638
0.00686429
0.00686429
0.00686429
0.00678381
0.00678381
0.00678381
0.00676543
0.00676543
0.00676543
0.00746366
0.00746366
0.00746366
0.0047652
0.0047652
0.0047652
0.00478926
0.00478926
0.00478926
0.00479255
0.00479255
0.00479255
0.00500283
0.00500283
0.00500283
0.00489158
0.00489158
0.00489158
0.00494896
0.00494896
0.00494896
0.00469074
0.00469074
0.00469074
0.00461299
0.00461299
0.00461299
0.00464295
0.00464295
0.00464295
0.00601616
0.00601616
0.00601616
0.00605774
0.00605774
0.00605774
0.00603056
0.00603056
0.00603056
0.00596255
0.00596255
0.00596255
0.00614165
0.00614165
0.00614165
0.00607202
0.00607202
0.00607202
0.00478164
0.00478164
0.00478164
0.00483346
0.00483346
0.00483346
0.00475388
0.00475388
0.00475388
0.00477732
0.00477732
0.00477732
0.00482433
0.00482433
0.00482433
0.00484791
0.00484791
0.00484791
0.00490059
0.00490059
0.00490059
0.00489522
0.00489522
0.00489522
0.00492453
0.00492453
0.00492453
0.00500806
0.00500806
0.00500806
0.00497822
0.00497822
0.00497822
0.00472827
0.00472827
0.00472827
0.00469938
0.00469938
0.00469938
0.00569505
0.00569505
0.00569505
0.00582465
0.00582465
0.00582465
0.00481108
0.00481108
0.00481108
0.00486562
0.00486562
0.00486562
0.00491858
0.00491858
0.00491858
0.00484121
0.00484121
0.00484121
0.00845698
0.00845698
0.00845698
0.00866011
0.00866011
0.00866011
0.00902126
0.00902126
0.00902126
0.00902672
0.00902672
0.00902672
0.0089661
0.0089661
0.0089661
0.00868601
0.00868601
0.00868601
0.00885159
0.00885159
0.00885159
0.00879768
0.00879768
0.00879768
0.00896029
0.00896029
0.00896029
0.00915732
0.00915732
0.00915732
0.00887323
0.00887323
0.00887323
0.00876071
0.00876071
0.00876071
0.00957285
0.00957285
0.00957285
0.009273
0.009273
0.009273
0.00939463
0.00939463
0.00939463
0.00944834
0.00944834
0.00944834
0.00903566
0.00903566
0.00903566
0.00930152
0.00930152
0.00930152
0.00942367
0.00942367
0.00942367
0.00758261
0.00758261
0.00758261
0.00763021
0.00763021
0.00763021
0.00758483
0.00758483
0.00758483
0.00786948
0.00786948
0.00786948
0.00777303
0.00777303
0.00777303
0.00791715
0.00791715
0.00791715
0.00786712
0.00786712
0.00786712
0.00772428
0.00772428
0.00772428
0.00777072
0.00777072
0.00777072
0.00722423
0.00722423
0.00722423
0.00730898
0.00730898
0.00730898
0.00727108
0.00727108
0.00727108
0.0071838
0.0071838
0.0071838
0.0072263
0.0072263
0.0072263
0.00521316
0.00521316
0.00521316
0.00566015
0.00566015
0.00566015
0.00553502
0.00553502
0.00553502
0.00583549
0.00583549
0.00583549
0.00590185
0.00590185
0.00590185
0.00589471
0.00589471
0.00589471
0.00609937
0.00609937
0.00609937
0.00616922
0.00616922
0.00616922
0.00569857
0.00569857
0.00569857
0.00563345
0.00563345
0.00563345
0.00557077
0.00557077
0.00557077
0.00563469
0.00563469
0.00563469
0.00566583
0.00566583
0.00566583
0.00562973
0.00562973
0.00562973
0.00556714
0.00556714
0.00556714
0.00547766
0.00547766
0.00547766
0.00553903
0.00553903
0.00553903
0.00556916
0.00556916
0.00556916
0.00553723
0.00553723
0.00553723
0.00525901
0.00525901
0.00525901
0.00791448
0.00791448
0.00791448
0.00801328
0.00801328
0.00801328
0.00709439
0.00709439
0.00709439
0.00705088
0.00705088
0.00705088
0.00717977
0.00717977
0.00717977
0.00722158
0.00722158
0.00722158
0.00692486
0.00692486
0.00692486
0.00631309
0.00631309
0.00631309
0.00627586
0.00627586
0.00627586
0.00624045
0.00624045
0.00624045
0.00623904
0.00623904
0.00623904
0.00627415
0.00627415
0.00627415
0.00668906
0.00668906
0.00668906
0.00661123
0.00661123
0.00661123
0.00634195
0.00634195
0.00634195
0.00684617
0.00684617
0.00684617
0.00668696
0.00668696
0.00668696
0.00680708
0.00680708
0.00680708
0.00672746
0.00672746
0.00672746
0.00548836
0.00548836
0.00548836
0.00554961
0.00554961
0.00554961
0.00581195
0.00581195
0.00581195
0.00555181
0.00555181
0.00555181
0.00559033
0.00559033
0.00559033
0.00575642
0.00575642
0.00575642
0.00569236
0.00569236
0.00569236
0.00579659
0.00579659
0.00579659
0.00577185
0.00577185
0.00577185
0.00578688
0.00578688
0.00578688
0.00572237
0.00572237
0.00572237
0.00535598
0.00535598
0.00535598
0.00529747
0.00529747
0.00529747
0.00659594
0.00659594
0.00659594
0.00654934
0.00654934
0.00654934
0.00657909
0.00657909
0.00657909
0.00665631
0.00665631
0.00665631
0.00670407
0.00670407
0.00670407
0.00667344
0.00667344
0.00667344
0.00662812
0.00662812
0.00662812
0.00670614
0.00670614
0.00670614
0.0067217
0.0067217
0.0067217
0.00675352
0.00675352
0.00675352
0.0064756
0.0064756
0.0064756
0.0063715
0.0063715
0.0063715
0.00640105
0.00640105
0.00640105
0.00684917
0.00684917
0.00684917
0.00688193
0.00688193
0.00688193
0.00689745
0.00689745
0.00689745
0.00733906
0.00733906
0.00733906
0.0074284
0.0074284
0.0074284
0.00688851
0.00688851
0.00688851
0.00671841
0.00671841
0.00671841
0.00670889
0.00670889
0.00670889
0.00673849
0.00673849
0.00673849
0.00675819
0.00675819
0.00675819
0.00683816
0.00683816
0.00683816
0.00709604
0.00709604
0.00709604
0.00721371
0.00721371
0.00721371
0.00718139
0.00718139
0.00718139
0.00750299
0.00750299
0.00750299
0.00772361
0.00772361
0.00772361
0.0076295
0.0076295
0.0076295
0.00759499
0.00759499
0.00759499
0.0076532
0.0076532
0.0076532
0.00796555
0.00796555
0.00796555
0.00882138
0.00882138
0.00882138
0.00890915
0.00890915
0.00890915
0.00879523
0.00879523
0.00879523
0.0087521
0.0087521
0.0087521
0.00877766
0.00877766
0.00877766
0.0088024
0.0088024
0.0088024
0.00884674
0.00884674
0.00884674
0.0086661
0.0086661
0.0086661
0.00876836
0.00876836
0.00876836
0.00892534
0.00892534
0.00892534
0.00888184
0.00888184
0.00888184
0.00869886
0.00869886
0.00869886
0.00846535
0.00846535
0.00846535
0.00857341
0.00857341
0.00857341
0.00864097
0.00864097
0.00864097
0.00859867
0.00859867
0.00859867
0.00791656
0.00791656
0.00791656
0.00801543
0.00801543
0.00801543
0.00810327
0.00810327
0.00810327
0.00820514
0.00820514
0.00820514
0.00807833
0.00807833
0.00807833
0.00804054
0.00804054
0.00804054
0.00619396
0.00619396
0.00619396
0.00633778
0.00633778
0.00633778
0.00630969
0.00630969
0.00630969
0.00623765
0.00623765
0.00623765
0.00632076
0.00632076
0.00632076
0.00617748
0.00617748
0.00617748
0.00629303
0.00629303
0.00629303
0.00622126
0.00622126
0.00622126
0.00627591
0.00627591
0.00627591
0.0062044
0.0062044
0.0062044
0.00601216
0.00601216
0.00601216
0.00608085
0.00608085
0.00608085
0.0061074
0.0061074
0.0061074
0.00597028
0.00597028
0.00597028
0.00599608
0.00599608
0.00599608
0.00606451
0.00606451
0.00606451
0.00662053
0.00662053
0.00662053
0.00656173
0.00656173
0.00656173
0.00663867
0.00663867
0.00663867
0.0066685
0.0066685
0.0066685
0.00651489
0.00651489
0.00651489
0.00654388
0.00654388
0.00654388
0.00650678
0.00650678
0.00650678
0.00647848
0.00647848
0.00647848
0.00645952
0.00645952
0.00645952
0.00638532
0.00638532
0.00638532
0.00640399
0.00640399
0.00640399
0.00635807
0.00635807
0.00635807
0.00659115
0.00659115
0.00659115
0.00654382
0.00654382
0.00654382
0.00661418
0.00661418
0.00661418
0.00669822
0.00669822
0.00669822
0.0066685
0.0066685
0.0066685
0.00616054
0.00616054
0.00616054
0.00609073
0.00609073
0.00609073
0.00614319
0.00614319
0.00614319
0.00618708
0.00618708
0.00618708
0.00607364
0.00607364
0.00607364
0.00604772
0.00604772
0.00604772
0.00585432
0.00585432
0.00585432
0.00582962
0.00582962
0.00582962
0.00592065
0.00592065
0.00592065
0.00596254
0.00596254
0.00596254
0.00593755
0.00593755
0.00593755
0.00587096
0.00587096
0.00587096
0.0055209
0.0055209
0.0055209
0.00555882
0.00555882
0.00555882
0.00576726
0.00576726
0.00576726
0.00557752
0.00557752
0.00557752
0.00919586
0.00919586
0.00919586
0.00885391
0.00885391
0.00885391
0.00874093
0.00874093
0.00874093
0.00853463
0.00853463
0.00853463
0.00864367
0.00864367
0.00864367
0.00856179
0.00856179
0.00856179
0.00849438
0.00849438
0.00849438
0.00867143
0.00867143
0.00867143
0.00871308
0.00871308
0.00871308
0.00843992
0.00843992
0.00843992
0.00852109
0.00852109
0.00852109
0.008414
0.008414
0.008414
0.008374
0.008374
0.008374
0.00858869
0.00858869
0.00858869
0.0085475
0.0085475
0.0085475
0.0083219