<VTKFile type="UnstructuredGrid" version="1.0">
<UnstructuredGrid>
<Piece NumberOfPoints="8859" NumberOfCells="2953">
<Points>
<DataArray type="Float64" NumberOfComponents="3" format="ascii">
2.75455 1.50245 8.22762
2.76986 1.48714 8.23958
2.75465 1.50235 8.25333
2.78515 1.47185 8.17667
2.78516 1.47184 8.15152
2.8005 1.4565 8.16398
2.76981 1.48719 8.18936
2.78515 1.47185 8.17667
2.78514 1.47186 8.20186
2.72412 1.53288 8.27988
2.73952 1.51748 8.2875
2.70875 1.54825 8.2875
2.72412 1.53288 8.27988
2.73943 1.51757 8.26457
2.73952 1.51748 8.2875
2.75488 1.50212 8.27979
2.77036 1.48664 8.2875
2.73952 1.51748 8.2875
2.75488 1.50212 8.27979
2.73943 1.51757 8.26457
2.75465 1.50235 8.25333
2.73952 1.51748 8.2875
2.73943 1.51757 8.26457
2.75488 1.50212 8.27979
2.75465 1.50235 8.25333
2.76986 1.48714 8.23958
2.76997 1.48703 8.26427
2.76997 1.48703 8.26427
2.75488 1.50212 8.27979
2.75465 1.50235 8.25333
2.77036 1.48664 8.2875
2.75488 1.50212 8.27979
2.76997 1.48703 8.26427
2.76986 1.48714 8.23958
2.75455 1.50245 8.22762
2.76982 1.48718 8.21452
2.76981 1.48719 8.18936
2.78514 1.47186 8.20186
2.76982 1.48718 8.21452
2.7852 1.4718 8.25262
2.76997 1.48703 8.26427
2.76986 1.48714 8.23958
2.8005 1.4565 8.23895
2.8005 1.4565 8.26355
2.7852 1.4718 8.25262
2.8005 1.4565 8.13887
2.8005 1.4565 8.16398
2.78516 1.47184 8.15152
2.78515 1.47185 8.17667
2.8005 1.4565 8.16398
2.8005 1.4565 8.18906
2.8005 1.4565 8.18906
2.78514 1.47186 8.20186
2.78515 1.47185 8.17667
2.8005 1.4565 7.61152
2.8005 1.4565 7.63665
2.78518 1.47182 7.62407
2.78517 1.47183 8.07607
2.8005 1.4565 8.08861
2.78517 1.47183 8.10121
2.8005 1.4565 8.06348
2.8005 1.4565 8.08861
2.78517 1.47183 8.07607
2.78519 1.47181 7.95044
2.8005 1.4565 7.96299
2.78519 1.47181 7.97555
2.32274 1.93426 7.39559
2.33845 1.91855 7.3875
2.33845 1.91855 7.41063
2.27541 1.98159 8.2875
2.24359 2.01341 8.2875
2.25954 1.99746 8.27932
2.78515 1.47185 8.22712
2.76982 1.48718 8.21452
2.78514 1.47186 8.20186
2.76986 1.48714 8.23958
2.76982 1.48718 8.21452
2.78515 1.47185 8.22712
2.78515 1.47185 8.22712
2.7852 1.4718 8.25262
2.76986 1.48714 8.23958
2.8005 1.4565 8.23895
2.7852 1.4718 8.25262
2.78515 1.47185 8.22712
2.78544 1.47156 8.27884
2.8005 1.4565 8.26355
2.8005 1.4565 8.2875
2.78544 1.47156 8.27884
2.7852 1.4718 8.25262
2.8005 1.4565 8.26355
2.8005 1.4565 8.2875
2.77036 1.48664 8.2875
2.78544 1.47156 8.27884
2.77036 1.48664 8.2875
2.76997 1.48703 8.26427
2.78544 1.47156 8.27884
2.76997 1.48703 8.26427
2.7852 1.4718 8.25262
2.78544 1.47156 8.27884
2.78517 1.47183 8.10121
2.8005 1.4565 8.08861
2.8005 1.4565 8.11374
2.78514 1.47186 8.20186
2.8005 1.4565 8.18906
2.8005 1.4565 8.21407
2.8005 1.4565 8.23895
2.78515 1.47185 8.22712
2.8005 1.4565 8.21407
2.8005 1.4565 8.21407
2.78515 1.47185 8.22712
2.78514 1.47186 8.20186
2.8005 1.4565 7.93788
2.8005 1.4565 7.96299
2.78519 1.47181 7.95044
2.78518 1.47182 7.62407
2.8005 1.4565 7.63665
2.78518 1.47182 7.6492
2.76985 1.48715 8.06353
2.75454 1.50246 8.05098
2.76986 1.48714 8.03838
2.78516 1.47184 8.12636
2.8005 1.4565 8.13887
2.78516 1.47184 8.15152
2.78516 1.47184 8.12636
2.8005 1.4565 8.11374
2.8005 1.4565 8.13887
2.78516 1.47184 8.12636
2.76984 1.48716 8.11384
2.78517 1.47183 8.10121
2.78517 1.47183 8.10121
2.8005 1.4565 8.11374
2.78516 1.47184 8.12636
2.76982 1.48718 8.16418
2.78515 1.47185 8.17667
2.76981 1.48719 8.18936
2.76982 1.48718 8.16418
2.78516 1.47184 8.15152
2.78515 1.47185 8.17667
2.75451 1.50249 8.12649
2.7392 1.5178 8.13915
2.73921 1.51779 8.11394
2.53996 1.71704 8.25338
2.52458 1.73242 8.2399
2.53996 1.71704 8.22775
2.49374 1.76326 8.0888
2.49375 1.76325 8.114
2.47832 1.77868 8.10139
2.8005 1.4565 7.3875
2.8005 1.4565 7.41145
2.78544 1.47156 7.39616
2.27543 1.98157 8.26433
2.27541 1.98159 8.2875
2.25954 1.99746 8.27932
2.33845 1.91855 8.18946
2.32276 1.93424 8.20214
2.32275 1.93425 8.17685
2.25954 1.99746 8.27932
2.24359 2.01341 8.2875
2.24374 2.01326 8.26423
2.76987 1.48713 7.712
2.75455 1.50245 7.69943
2.76987 1.48713 7.68688
2.8005 1.4565 7.86259
2.78519 1.47181 7.85005
2.8005 1.4565 7.8375
2.78519 1.47181 7.90024
2.8005 1.4565 7.88769
2.8005 1.4565 7.91278
2.76988 1.48712 7.81241
2.75456 1.50244 7.82495
2.75456 1.50244 7.79986
2.76988 1.48712 7.8375
2.75456 1.50244 7.82495
2.76988 1.48712 7.81241
2.78519 1.47181 7.85005
2.76988 1.48712 7.86259
2.76988 1.48712 7.8375
2.75455 1.50245 7.97557
2.76987 1.48713 7.98812
2.75455 1.50245 8.0007
2.72393 1.53307 7.95047
2.72392 1.53308 7.97559
2.70861 1.54839 7.96303
2.75456 1.50244 7.95045
2.73924 1.51776 7.9379
2.75456 1.50244 7.92535
2.75456 1.50244 7.92535
2.76987 1.48713 7.93789
2.75456 1.50244 7.95045
2.73924 1.51776 7.9379
2.73925 1.51775 7.9128
2.75456 1.50244 7.92535
2.75456 1.50244 7.92535
2.73925 1.51775 7.9128
2.75456 1.50244 7.90024
2.8005 1.4565 7.91278
2.8005 1.4565 7.93788
2.78519 1.47181 7.92534
2.78519 1.47181 7.92534
2.78519 1.47181 7.90024
2.8005 1.4565 7.91278
2.78519 1.47181 7.92534
2.8005 1.4565 7.93788
2.78519 1.47181 7.95044
2.78519 1.47181 7.95044
2.76987 1.48713 7.93789
2.78519 1.47181 7.92534
2.75454 1.50246 8.02583
2.73923 1.51777 8.01328
2.75455 1.50245 8.0007
2.75454 1.50246 8.02583
2.76986 1.48714 8.03838
2.75454 1.50246 8.05098
2.7086 1.5484 8.0133
2.72392 1.53308 8.00072
2.72392 1.53308 8.02586
2.72392 1.53308 8.02586
2.72392 1.53308 8.00072
2.73923 1.51777 8.01328
2.8005 1.4565 7.9881
2.78519 1.47181 7.97555
2.8005 1.4565 7.96299
2.75455 1.50245 8.0007
2.76987 1.48713 7.98812
2.76986 1.48714 8.01325
2.76986 1.48714 8.01325
2.75454 1.50246 8.02583
2.75455 1.50245 8.0007
2.76986 1.48714 8.03838
2.75454 1.50246 8.02583
2.76986 1.48714 8.01325
2.78517 1.47183 8.10121
2.76984 1.48716 8.11384
2.76985 1.48715 8.08868
2.76985 1.48715 8.08868
2.78517 1.47183 8.07607
2.78517 1.47183 8.10121
2.76985 1.48715 8.06353
2.78517 1.47183 8.07607
2.76985 1.48715 8.08868
2.73921 1.51779 8.11394
2.73921 1.51779 8.08875
2.75452 1.50248 8.1013
2.75452 1.50248 8.1013
2.75451 1.50249 8.12649
2.73921 1.51779 8.11394
2.76984 1.48716 8.11384
2.75451 1.50249 8.12649
2.75452 1.50248 8.1013
2.75452 1.50248 8.1013
2.76985 1.48715 8.08868
2.76984 1.48716 8.11384
2.7239 1.5331 8.10138
2.73921 1.51779 8.08875
2.73921 1.51779 8.11394
2.7239 1.5331 8.10138
2.70859 1.54841 8.11401
2.70859 1.54841 8.08881
2.76981 1.48719 8.18936
2.76982 1.48718 8.21452
2.75451 1.50249 8.20222
2.75451 1.50249 8.20222
2.76982 1.48718 8.21452
2.75455 1.50245 8.22762
2.7392 1.5178 8.13915
2.75451 1.50249 8.12649
2.75451 1.50249 8.15169
2.75451 1.50249 8.15169
2.7392 1.5178 8.16437
2.7392 1.5178 8.13915
2.67798 1.57902 7.98817
2.66266 1.59434 8.00075
2.66266 1.59434 7.97561
2.70859 1.54841 8.08881
2.70859 1.54841 8.06362
2.7239 1.5331 8.07619
2.7239 1.5331 8.07619
2.7239 1.5331 8.10138
2.70859 1.54841 8.08881
2.73921 1.51779 8.08875
2.7239 1.5331 8.10138
2.7239 1.5331 8.07619
2.73922 1.51778 8.06358
2.73921 1.51779 8.08875
2.7239 1.5331 8.07619
2.57068 1.68632 8.22776
2.57068 1.68632 8.25339
2.55533 1.70167 8.23991
2.55533 1.70167 8.23991
2.57068 1.68632 8.25339
2.55533 1.70167 8.2645
2.55533 1.70167 8.23991
2.55533 1.70167 8.2645
2.53996 1.71704 8.25338
2.53996 1.71704 8.25338
2.53996 1.71704 8.22775
2.55533 1.70167 8.23991
2.52458 1.73242 8.21484
2.53996 1.71704 8.22775
2.52458 1.73242 8.2399
2.50912 1.74788 7.85005
2.50912 1.74788 7.87515
2.49371 1.76329 7.8626
2.41633 1.84067 7.97556
2.40077 1.85623 7.963
2.41632 1.84068 7.95045
2.41635 1.84065 8.02583
2.40081 1.85619 8.03839
2.40079 1.85621 8.01325
2.33845 1.91855 8.18946
2.32275 1.93425 8.17685
2.33843 1.91857 8.16424
2.33845 1.91855 8.21466
2.32276 1.93424 8.20214
2.33845 1.91855 8.18946
2.40087 1.85613 8.13912
2.40088 1.85612 8.16434
2.38531 1.87169 8.15172
2.30693 1.95007 8.08858
2.32265 1.93435 8.07603
2.32267 1.93433 8.1012
2.30684 1.95016 7.98803
2.29108 1.96592 8.00056
2.29106 1.96594 7.97546
2.32274 1.93426 8.27941
2.33845 1.91855 8.2875
2.30701 1.94999 8.2875
2.33845 1.91855 8.26437
2.33845 1.91855 8.2875
2.32274 1.93426 8.27941
2.35411 1.90289 8.27947
2.33845 1.91855 8.2875
2.33845 1.91855 8.26437
2.30704 1.94996 8.21461
2.30703 1.94997 8.23969
2.29128 1.96572 8.22746
2.55533 1.70167 8.2875
2.52458 1.73242 8.2875
2.53996 1.71704 8.27972
2.53996 1.71704 8.25338
2.55533 1.70167 8.2645
2.53996 1.71704 8.27972
2.53996 1.71704 8.27972
2.55533 1.70167 8.2645
2.55533 1.70167 8.2875
2.52458 1.73242 8.26449
2.52458 1.73242 8.2399
2.53996 1.71704 8.25338
2.53996 1.71704 8.25338
2.53996 1.71704 8.27972
2.52458 1.73242 8.26449
2.52458 1.73242 8.26449
2.53996 1.71704 8.27972
2.52458 1.73242 8.2875
2.41642 1.84058 8.15176
2.40088 1.85612 8.16434
2.40087 1.85613 8.13912
2.47831 1.77869 8.0762
2.49374 1.76326 8.06362
2.49374 1.76326 8.0888
2.49374 1.76326 8.0888
2.47832 1.77868 8.10139
2.47831 1.77869 8.0762
2.47833 1.77867 8.1266
2.47832 1.77868 8.10139
2.49375 1.76325 8.114
2.47833 1.77867 8.1266
2.49375 1.76325 8.114
2.49376 1.76324 8.13921
2.49376 1.76324 8.13921
2.47834 1.77866 8.15182
2.47833 1.77867 8.1266
2.47833 1.77867 8.1266
2.47834 1.77866 8.15182
2.46289 1.79411 8.13919
2.49377 1.76323 8.16443
2.47834 1.77866 8.15182
2.49376 1.76324 8.13921
2.49377 1.76323 8.18964
2.47835 1.77865 8.20234
2.47834 1.77866 8.17706
2.47834 1.77866 8.17706
2.49377 1.76323 8.16443
2.49377 1.76323 8.18964
2.47834 1.77866 8.15182
2.49377 1.76323 8.16443
2.47834 1.77866 8.17706
2.7852 1.4718 7.42238
2.78544 1.47156 7.39616
2.8005 1.4565 7.41145
2.76997 1.48703 7.41073
2.78544 1.47156 7.39616
2.7852 1.4718 7.42238
2.64739 1.60961 7.41048
2.64738 1.60962 7.3875
2.66272 1.59428 7.39521
2.70875 1.54825 7.3875
2.6934 1.5636 7.39517
2.67805 1.57895 7.3875
2.67805 1.57895 7.3875
2.66272 1.59428 7.39521
2.64738 1.60962 7.3875
2.19638 2.06062 7.42397
2.1963 2.0607 7.39786
2.2122 2.0448 7.41145
2.2122 2.0448 7.41145
2.22771 2.02929 7.39601
2.22802 2.02898 7.42245
2.18073 2.07627 7.41282
2.1963 2.0607 7.39786
2.19638 2.06062 7.42397
2.18073 2.07627 7.41282
2.18123 2.07577 7.3875
2.1963 2.0607 7.39786
2.27543 1.98157 7.41067
2.27541 1.98159 7.3875
2.29123 1.96577 7.39563
2.30701 1.94999 7.3875
[...]
<PointData Scalars="View Factor" >
<DataArray type="Float64" Name="View Factor" NumberOfComponents="1" format="ascii">
0.000179185
0.000179185
0.000179185
0.000191155
0.000191155
0.000191155
0.000187098
0.000187098
0.000187098
0.000168406
0.000168406
0.000168406
0.000171176
0.000171176
0.000171176
0.000175383
0.000175383
0.000175383
0.000175319
0.000175319
0.000175319
0.000173507
0.000173507
0.000173507
0.000179612
0.000179612
0.000179612
0.000177648
0.000177648
0.000177648
0.000178149
0.000178149
0.000178149
0.000181145
0.000181145
0.000181145
0.000185106
0.000185106
0.000185106
0.000181961
0.000181961
0.000181961
0.000186666
0.000186666
0.000186666
0.000193203
0.000193203
0.000193203
0.000191538
0.000191538
0.000191538
0.000189503
0.000189503
0.000189503
0.000232719
0.000232719
0.000232719
0.000196208
0.000196208
0.000196208
0.000198312
0.000198312
0.000198312
0.00020499
0.00020499
0.00020499
0.000138949
0.000138949
0.000138949
0.000103296
0.000103296
0.000103296
0.000185496
0.000185496
0.000185496
0.000183514
0.000183514
0.000183514
0.000183898
0.000183898
0.000183898
0.000186264
0.000186264
0.000186264
0.000185101
0.000185101
0.000185101
0.000184677
0.000184677
0.000184677
0.000182306
0.000182306
0.000182306
0.000180483
0.000180483
0.000180483
0.000182339
0.000182339
0.000182339
0.000196591
0.000196591
0.000196591
0.000189892
0.000189892
0.000189892
0.000188267
0.000188267
0.000188267
0.000187881
0.000187881
0.000187881
0.000207201
0.000207201
0.000207201
0.000230203
0.000230203
0.000230203
0.000192502
0.000192502
0.000192502
0.000192826
0.000192826
0.000192826
0.000194887
0.000194887
0.000194887
0.000192039
0.000192039
0.000192039
0.000194501
0.000194501
0.000194501
0.000186706
0.000186706
0.000186706
0.000188732
0.000188732
0.000188732
0.000182644
0.000182644
0.000182644
0.000127618
0.000127618
0.000127618
0.000122795
0.000122795
0.000122795
0.000252705
0.000252705
0.000252705
0.000103349
0.000103349
0.000103349
0.000105358
0.000105358
0.000105358
0.000103791
0.000103791
0.000103791
0.000217955
0.000217955
0.000217955
0.000214664
0.000214664
0.000214664
0.000210892
0.000210892
0.000210892
0.000207979
0.000207979
0.000207979
0.000208411
0.000208411
0.000208411
0.000209273
0.000209273
0.000209273
0.000195495
0.000195495
0.000195495
0.000186871
0.000186871
0.000186871
0.000196354
0.000196354
0.000196354
0.000198967
0.000198967
0.000198967
0.000195905
0.000195905
0.000195905
0.000198094
0.000198094
0.000198094
0.000209037
0.000209037
0.000209037
0.000208647
0.000208647
0.000208647
0.000206809
0.000206809
0.000206809
0.000204195
0.000204195
0.000204195
0.000191246
0.000191246
0.000191246
0.00019209
0.00019209
0.00019209
0.000183607
0.000183607
0.000183607
0.00018615
0.00018615
0.00018615
0.000205385
0.000205385
0.000205385
0.000195921
0.000195921
0.000195921
0.00019379
0.00019379
0.00019379
0.00019421
0.00019421
0.00019421
0.000191642
0.000191642
0.000191642
0.000193726
0.000193726
0.000193726
0.000193331
0.000193331
0.000193331
0.000184235
0.000184235
0.000184235
0.000184661
0.000184661
0.000184661
0.000187119
0.000187119
0.000187119
0.000189172
0.000189172
0.000189172
0.000181769
0.000181769
0.000181769
0.000176848
0.000176848
0.000176848
0.000182717
0.000182717
0.000182717
0.000180728
0.000180728
0.000180728
0.000183064
0.000183064
0.000183064
0.000181057
0.000181057
0.000181057
0.000172418
0.000172418
0.000172418
0.000178394
0.000178394
0.000178394
0.000178858
0.000178858
0.000178858
0.000181334
0.000181334
0.000181334
0.000183371
0.000183371
0.000183371
0.000134636
0.000134636
0.000134636
0.000132904
0.000132904
0.000132904
0.000130576
0.000130576
0.000130576
0.000129955
0.000129955
0.000129955
0.00012701
0.00012701
0.00012701
0.000137426
0.000137426
0.000137426
0.00011258
0.00011258
0.00011258
0.000110218
0.000110218
0.000110218
0.000105721
0.000105721
0.000105721
0.00010482
0.00010482
0.00010482
0.000105684
0.000105684
0.000105684
0.000109227
0.000109227
0.000109227
0.000113475
0.000113475
0.000113475
0.000102102
0.000102102
0.000102102
0.000102192
0.000102192
0.000102192
0.000102022
0.000102022
0.000102022
0.000104482
0.000104482
0.000104482
0.000126859
0.000126859
0.000126859
0.000128829
0.000128829
0.000128829
0.000129489
0.000129489
0.000129489
0.00012592
0.00012592
0.00012592
0.000126512
0.000126512
0.000126512
0.000124872
0.000124872
0.000124872
0.00010555
0.00010555
0.00010555
0.000123861
0.000123861
0.000123861
0.000122099
0.000122099
0.000122099
0.000121047
0.000121047
0.000121047
0.00012174
0.00012174
0.00012174
0.000120002
0.000120002
0.000120002
0.00011758
0.00011758
0.00011758
0.000120687
0.000120687
0.000120687
0.000117946
0.000117946
0.000117946
0.000119653
0.000119653
0.000119653
0.000118967
0.000118967
0.000118967
0.000250038
0.000250038
0.000250038
0.000246901
0.000246901
0.000246901
0.000208256
0.000208256
0.000208256
0.000221595
0.000221595
0.000221595
0.000212016
0.000212016
0.000212016
0.000141693
0.000141693
0.000141693
0.000141101
0.000141101
0.000141101
0.000142008
0.000142008
0.000142008
0.000142799
0.000142799
0.000142799
0.000140126
0.000140126
0.000140126
0.000139555
0.000139555
0.000139555
0.000140253
0.000140253
0.000140253
0.000134134
0.000134134
0.000134134
0.000133378
0.000133378
0.000133378
0.000102554
0.000102554
0.000102554
0.000104129
0.000104129
0.000104129
0.000103601
0.000103601
0.000103601
0.000114291
0.000114291
0.000114291
0.00011369
0.00011369
0.00011369
0.000107756
0.000107756
0.000107756
0.000232306
0.000232306
0.000232306
0.000218519
0.000218519
0.000218519
0.000214072
0.000214072
0.000214072
0.000211724
0.000211724
0.000211724
0.000216
0.000216
0.000216
0.000213629
0.000213629
0.000213629
0.000210821
0.000210821
0.000210821
0.000210354
0.000210354
0.000210354
0.000212727
0.000212727
0.000212727
0.00021556
0.00021556
0.00021556
0.000176588
0.000176588
0.000176588
0.000174284
0.000174284
0.000174284
0.000173901
0.000173901
0.000173901
0.000212253
0.000212253
0.000212253
0.00023062
0.00023062
0.00023062
0.000171359
0.000171359
0.000171359
0.000166191
0.000166191
0.000166191
0.000181697
0.000181697
0.000181697
0.000171213
0.000171213
0.000171213
0.000180727
0.000180727
0.000180727
0.000180181
0.000180181
0.000180181
0.000177504
0.000177504
0.000177504
0.000175388
0.000175388
0.000175388
0.000205246
0.000205246
0.000205246
0.000216581
0.000216581
0.000216581
0.000214264
0.000214264
0.000214264
0.000211555
0.000211555
0.000211555
0.000211132
0.000211132
0.000211132
0.000213446
0.000213446
0.000213446
0.00021618
0.00021618
0.00021618
0.000160829
0.000160829
0.000160829
0.000162894
0.000162894
0.000162894
0.000178524
0.000178524
0.000178524
0.000179088
0.000179088
0.000179088
0.000176955
0.000176955
0.000176955
0.000174267
0.000174267
0.000174267
0.000164345
0.000164345
0.000164345
0.000163703
0.000163703
0.000163703
0.000159559
0.000159559
0.000159559
0.000162267
0.000162267
0.000162267
0.000175811
0.000175811
0.000175811
0.000173687
0.000173687
0.000173687
0.000200221
0.000200221
0.000200221
0.000197641
0.000197641
0.000197641
0.000197217
0.000197217
0.000197217
0.000202399
0.000202399
0.000202399
0.000201995
0.000201995
0.000201995
0.000199393
0.000199393
0.000199393
0.000189458
0.000189458
0.000189458
0.000194627
0.000194627
0.000194627
0.000194194
0.000194194
0.000194194
0.000191594
0.000191594
0.000191594
0.000184927
0.000184927
0.000184927
0.000189704
0.000189704
0.000189704
0.000187059
0.000187059
0.000187059
0.00020601
0.00020601
0.00020601
0.000202949
0.000202949
0.000202949
0.000205598
0.000205598
0.000205598
0.00020073
0.00020073
0.00020073
0.000201159
0.000201159
0.000201159
0.000203784
0.000203784
0.000203784
0.0001908
0.0001908
0.0001908
0.000188245
0.000188245
0.000188245
0.000187795
0.000187795
0.000187795
0.000192928
0.000192928
0.000192928
0.000189915
0.000189915
0.000189915
0.000192493
0.000192493
0.000192493
0.00018523
0.00018523
0.00018523
0.000184758
0.000184758
0.000184758
0.000182183
0.000182183
0.000182183
0.000183138
0.000183138
0.000183138
0.000189138
0.000189138
0.000189138
0.000186605
0.000186605
0.000186605
0.000189568
0.000189568
0.000189568
0.000187484
0.000187484
0.000187484
0.000181548
0.000181548
0.000181548
0.00020064
0.00020064
0.00020064
0.00020321
0.00020321
0.00020321
0.000203589
0.000203589
0.000203589
0.000198478
0.000198478
0.000198478
0.000200053
0.000200053
0.000200053
0.000195016
0.000195016
0.000195016
0.000197928
0.000197928
0.000197928
0.000195425
0.000195425
0.000195425
0.000201811
0.000201811
0.000201811
0.000201415
0.000201415
0.000201415
0.000198868
0.000198868
0.000198868
0.000196745
0.000196745
0.000196745
0.000197147
0.000197147
0.000197147
0.000199672
0.000199672
0.000199672
0.00018586
0.00018586
0.00018586
0.00019084
0.00019084
0.00019084
0.000186284
0.000186284
0.000186284
0.000188764
0.000188764
0.000188764
0.000187924
0.000187924
0.000187924
0.000190425
0.000190425
0.000190425
0.000180199
0.000180199
0.000180199
0.00017975
0.00017975
0.00017975
0.000177297
0.000177297
0.000177297
0.000184297
0.000184297
0.000184297
0.000179496
0.000179496
0.000179496
0.000183898
0.000183898
0.000183898
0.000181482
0.000181482
0.000181482
0.000182309
0.000182309
0.000182309
0.000179914
0.000179914
0.000179914
0.000174931
0.000174931
0.000174931
0.000176834
0.000176834
0.000176834
0.000170655
0.000170655
0.000170655
0.000172593
0.000172593
0.000172593
0.000172133
0.000172133
0.000172133
0.00017794
0.00017794
0.00017794
0.000174059
0.000174059
0.000174059
0.000178356
0.000178356
0.000178356
0.000176417
0.000176417
0.000176417
0.0001855
0.0001855
0.0001855
0.000190384
0.000190384
0.000190384
0.000188339
0.000188339
0.000188339
0.000185909
0.000185909
0.000185909
0.000189989
0.000189989
0.000189989
0.000187539
0.000187539
0.000187539
0.000155871
0.000155871
0.000155871
0.000155265
0.000155265
0.000155265
0.00016361
0.00016361
0.00016361
0.00015845
0.00015845
0.00015845
0.000172938
0.000172938
0.000172938
0.000133768
0.000133768
0.000133768
0.000131798
0.000131798
0.000131798
0.000133464
0.000133464
0.000133464
0.000135486
0.000135486
0.000135486
0.000140095
0.000140095
0.000140095
0.000157502
0.000157502
0.000157502
0.000158145
0.000158145
0.000158145
0.000113138
0.000113138
0.000113138
0.000109851
0.000109851
0.000109851
0.00011215
0.00011215
0.00011215
0.00011531
0.00011531
0.00011531
0.000115072
0.000115072
0.000115072
0.000115482
0.000115482
0.000115482
0.000106263
0.000106263
0.000106263
0.000104454
0.000104454
0.000104454
0.000104637
0.000104637
0.000104637
0.00010429
0.00010429
0.00010429
0.000105548
0.000105548
0.000105548
0.000105912
0.000105912
0.000105912
0.000105218
0.000105218
0.000105218
0.000105748
0.000105748
0.000105748
0.00010797
0.00010797
0.00010797
0.000107814
0.000107814
0.000107814
0.000108303
0.000108303
0.000108303
0.000108479
0.000108479
0.000108479
0.000109039
0.000109039
0.000109039
0.000109694
0.000109694
0.000109694
0.000105972
0.000105972
0.000105972
0.000106126
0.000106126
0.000106126
0.000109796
0.000109796
0.000109796
0.000110172
0.000110172
0.000110172
0.000110936
0.000110936
0.000110936
0.000113861
0.000113861
0.000113861
0.000101605
0.000101605
0.000101605
0.000101151
0.000101151
0.000101151
0.000105542
0.000105542
0.000105542
0.000105184
0.000105184
0.000105184
0.000119938
0.000119938
0.000119938
0.000122564
0.000122564
0.000122564
0.000122792
0.000122792
0.000122792
0.000120993
0.000120993
0.000120993
0.000127441
0.000127441
0.000127441
0.000107983
0.000107983
0.000107983
0.000116876
0.000116876
0.000116876
0.000118604
0.000118604
0.000118604
0.000115567
0.000115567
0.000115567
0.000110814
0.000110814
0.000110814
0.000250324
0.000250324
0.000250324
0.000246429
0.000246429
0.000246429
0.000231149
0.000231149
0.000231149
0.000233708
0.000233708
0.000233708
0.000231185
0.000231185
0.000231185
0.000141246
0.000141246
0.000141246
0.000140803
0.000140803
0.000140803
0.000141066
0.000141066
0.000141066
0.000140953
0.000140953
0.000140953
0.000140226
0.000140226
0.000140226
0.000140393
0.000140393
0.000140393
0.000139946
0.000139946
0.000139946
0.00013914
0.00013914
0.00013914
0.000140574
0.000140574
0.000140574
0.000140398
0.000140398
0.000140398
0.000140872
0.000140872
0.000140872
0.000142154
0.000142154
0.000142154
0.000141861
0.000141861
0.000141861
0.000142894
0.000142894
0.000142894
0.000141955
0.000141955
0.000141955
0.00013321
0.00013321
0.00013321
0.000121145
0.000121145
0.000121145
0.000131776
0.000131776
0.000131776
0.00012603
0.00012603
0.00012603
0.000127139
0.000127139
0.000127139
0.000126421
0.000126421
0.000126421
0.0001265
0.0001265
0.0001265
0.000126102
0.000126102
0.000126102
0.000131697
0.000131697
0.000131697
0.000127313
0.000127313
0.000127313
0.000121025
0.000121025
0.000121025
0.000122072
0.000122072
0.000122072
0.000121407
0.000121407
0.000121407
0.000132606
0.000132606
0.000132606
0.000132328
0.000132328
0.000132328
0.00013319
0.00013319
0.00013319
0.000133495
0.000133495
0.000133495
0.000133059
0.000133059
0.000133059
0.000129463
0.000129463
0.000129463
0.000134045
0.000134045
0.000134045
0.000135235
0.000135235
0.000135235
0.000134468
0.000134468
0.000134468
0.000119996
0.000119996
0.000119996
0.000119395
0.000119395
0.000119395
0.00011831
0.00011831
0.00011831
0.000118205
0.000118205
0.000118205
0.00011866
0.00011866
0.00011866
0.000119255
0.000119255
0.000119255
0.000124068
0.000124068
0.000124068
0.000122473
0.000122473
0.000122473
0.000120804
0.000120804
0.000120804
0.000121229
0.000121229
0.000121229
0.000102678
0.000102678
0.000102678
0.000102858
0.000102858
0.000102858
0.00010341
0.00010341
0.00010341
0.000103749
0.000103749
0.000103749
0.000102743
0.000102743
0.000102743
0.000103236
0.000103236
0.000103236
0.000102676
0.000102676
0.000102676
0.000103139
0.000103139
0.000103139
0.000103436
0.000103436
0.000103436
0.000118588
0.000118588
0.000118588
0.00011757
0.00011757
0.00011757
0.000117925
0.000117925
0.000117925
0.00011331
0.00011331
0.00011331
0.000112556
0.000112556
0.000112556
0.000113158
0.000113158
0.000113158
0.000113536
0.000113536
0.000113536
0.000114009
0.000114009
0.000114009
0.000113031
0.000113031
0.000113031
0.000113395
0.000113395
0.000113395
0.000113279
0.000113279
0.000113279
0.000108118
0.000108118
0.000108118
0.000108855
0.000108855
0.000108855
0.000110278
0.000110278
0.000110278
0.000110633
0.000110633
0.000110633
0.000107963
0.000107963
0.000107963
0.000104025
0.000104025
0.000104025
0.000103992
0.000103992
0.000103992
0.00010451
0.00010451
0.00010451
0.00010433
0.00010433
0.00010433
0.000104002
0.000104002
0.000104002
0.000103856
0.000103856
0.000103856
0.000104077
0.000104077
0.000104077
0.000104213
0.000104213
0.000104213
0.000104759
0.000104759
0.000104759
0.000227979
0.000227979
0.000227979
0.000227342
0.000227342
0.000227342
0.000224156
0.000224156
0.000224156
0.000221633
0.000221633
0.000221633
0.000214607
0.000214607
0.000214607
0.000217787
0.000217787
0.000217787
0.000218465
0.000218465
0.000218465
0.000172273
0.000172273
0.000172273
0.000244118
0.000244118
0.000244118
0.000240995
0.000240995
0.000240995
0.000231584
0.000231584
0.000231584
0.000234725
0.000234725
0.000234725
0.000212161
0.000212161
0.000212161
0.000209841
0.000209841
0.000209841
0.000210285
0.000210285
0.000210285
0.000213031
0.000213031
0.000213031
0.000222461
0.000222461
0.000222461
0.000216868
0.000216868
0.000216868
0.000208942
0.000208942
0.000208942
0.000203384
0.000203384
0.000203384
0.000205693
0.000205693
0.000205693
0.000208487
0.000208487
0.000208487
0.000145877
0.000145877
0.000145877
0.000149969
0.000149969
0.000149969
0.000156852
0.000156852
0.000156852
0.000151802
0.000151802
0.000151802
0.000148906
0.000148906
0.000148906
0.000148126
0.000148126
0.000148126
0.000153943
0.000153943
0.000153943
0.000150258
0.000150258
0.000150258
0.00015318
0.00015318
0.00015318
0.000152563
0.000152563
0.000152563
0.000146795
0.000146795
0.000146795
0.000142623
0.000142623
0.000142623
0.000132488
0.000132488
0.000132488
0.000145217
0.000145217
0.000145217
0.000135506
0.000135506
0.000135506
0.00017628
0.00017628
0.00017628
0.000152029
0.000152029
0.000152029
0.000151307
0.000151307
0.000151307
0.000159767
0.000159767
0.000159767
0.000164786
0.000164786
0.000164786
0.000162625
0.000162625
0.000162625
0.000175007
0.000175007
0.000175007
0.000205083
0.000205083
0.000205083
0.000193824
0.000193824
0.000193824
0.000193191
0.000193191
0.000193191
0.000190037
0.000190037
0.000190037
0.000189239
0.000189239
0.000189239
0.000159025
0.000159025
0.000159025
0.000169321
0.000169321
0.000169321
0.000163423
0.000163423
0.000163423
0.000217504
0.000217504
0.000217504
0.000214645
0.000214645
0.000214645
0.000174695
0.000174695
0.000174695
0.000180397
0.000180397
0.000180397
0.000179784
0.000179784
0.000179784
0.000176922
0.000176922
0.000176922
0.000185013
0.000185013
0.000185013
0.000173447
0.000173447
0.000173447
0.00018069
0.00018069
0.00018069
0.000228146
0.000228146
0.000228146
0.000228546
0.000228546
0.000228546
0.000226494
0.000226494
0.000226494
0.000220803
0.000220803
0.000220803
0.000223214
0.000223214
0.000223214
0.000226076
0.000226076
0.000226076
0.000224466
0.000224466
0.000224466
0.000222056
0.000222056
0.000222056
0.000219247
0.000219247
0.000219247
0.000218822
0.000218822
0.000218822
0.000221229
0.000221229
0.000221229
0.000224064
0.000224064
0.000224064
0.000210491
0.000210491
0.000210491
0.00020783
0.00020783
0.00020783
0.000207416
0.000207416
0.000207416
0.000212767
0.000212767
0.000212767
0.000209685
0.000209685
0.000209685
0.00021237
0.00021237
0.00021237
0.000172865
0.000172865
0.000172865
0.00016822
0.00016822
0.00016822
0.000170813
0.000170813
0.000170813
0.000172319
0.000172319
0.000172319
0.000179111
0.000179111
0.000179111
0.000173943
0.000173943
0.000173943
0.000174466
0.000174466
0.000174466
0.000177039
0.000177039
0.000177039
0.000175472
0.000175472
0.000175472
0.000176003
0.000176003
0.000176003
0.000178599
0.000178599
0.000178599
0.000180686
0.000180686
0.000180686
0.000188729
0.000188729
0.000188729
0.000183394
0.000183394
0.000183394
0.000186563
0.000186563
0.000186563
0.000183908
0.000183908
0.000183908
0.000191882
0.000191882
0.000191882
0.000191398
0.000191398
0.000191398
0.00018179
0.00018179
0.00018179
0.000182331
0.000182331
0.000182331
0.000173853
0.000173853
0.000173853
0.000174399
0.000174399
0.000174399
0.000178603
0.000178603
0.000178603
0.000175949
0.000175949
0.000175949
0.000200604
0.000200604
0.000200604
0.000198326
0.000198326
0.000198326
0.000192102
0.000192102
0.000192102
0.00020479
0.00020479
0.00020479
0.000207084
0.000207084
0.000207084
0.000203857
0.000203857
0.000203857
0.000206626
0.000206626
0.000206626
0.000167659
0.000167659
0.000167659
0.000169702
0.000169702
0.000169702
0.000169145
0.000169145
0.000169145
0.000166518
0.000166518
0.000166518
0.000164471
0.000164471
0.000164471
0.000165054
0.000165054
0.000165054
0.00016303
0.00016303
0.00016303
0.000160439
0.000160439
0.000160439
0.000170637
0.000170637
0.000170637
0.000172724
0.000172724
0.000172724
0.000172159
0.000172159
0.000172159
0.000169484
0.000169484
0.000169484
0.000161459
0.000161459
0.000161459
0.000164132
0.000164132
0.000164132
0.000175232
0.000175232
0.000175232
0.000174058
0.000174058
0.000174058
0.000165592
0.000165592
0.000165592
0.000170988
0.000170988
0.000170988
0.000166203
0.000166203
0.000166203
0.000168889
0.000168889
0.000168889
0.000172225
0.000172225
0.000172225
0.000150679
0.000150679
0.000150679
0.000148632
0.000148632
0.000148632
0.00016097
0.00016097
0.00016097
0.000158904
0.000158904
0.000158904
0.000185424
0.000185424
0.000185424
0.000183295
0.000183295
0.000183295
0.000186391
0.000186391
0.000186391
0.000183792
0.000183792
0.000183792
0.000192819
0.000192819
0.000192819
0.000190185
0.000190185
0.000190185
0.000193281
0.000193281
0.000193281
0.000188045
0.000188045
0.000188045
0.00019113
0.00019113
0.00019113
0.000188519
0.000188519
0.000188519
0.000177453
0.000177453
0.000177453
0.000184538
0.000184538
0.000184538
0.000182018
0.000182018
0.000182018
0.000184974
0.000184974
0.000184974
0.00017996
0.00017996
0.00017996
0.000182913