<VTKFile type="UnstructuredGrid" version="1.0">
<UnstructuredGrid>
<Piece NumberOfPoints="8859" NumberOfCells="2953">
<Points>
<DataArray type="Float64" NumberOfComponents="3" format="ascii">
3.01 0.5 7.22
3.01 0.487476 7.2425
3.01 0.512524 7.2425
3.01 0.17352 6.3425
3.01 0.148445 6.3425
3.01 0.160827 6.36422
3.01 0.122979 6.38589
3.01 0.135644 6.36422
3.01 0.110383 6.36421
3.01 0.135644 6.36422
3.01 0.123433 6.3425
3.01 0.110383 6.36421
3.01 0.123433 6.3425
3.01 0.135644 6.36422
3.01 0.148445 6.3425
3.01 0.135644 6.36422
3.01 0.160827 6.36422
3.01 0.148445 6.3425
3.01 0.17352 6.3425
3.01 0.185985 6.3642
3.01 0.198629 6.3425
3.01 0.185985 6.3642
3.01 0.17352 6.3425
3.01 0.160827 6.36422
3.01 0.0732297 6.38567
3.01 0.0848754 6.36414
3.01 0.0586606 6.36381
3.01 0.05 7.17527
3.01 0.058509 7.15256
3.01 0.05 7.1301
3.01 0.324276 6.3425
3.01 0.336827 6.36416
3.01 0.349395 6.3425
3.01 0.148138 6.3859
3.01 0.160827 6.36422
3.01 0.135644 6.36422
3.01 0.122979 6.38589
3.01 0.148138 6.3859
3.01 0.135644 6.36422
3.01 0.160827 6.36422
3.01 0.173316 6.38589
3.01 0.185985 6.3642
3.01 0.185806 6.40755
3.01 0.173316 6.38589
3.01 0.160572 6.40755
3.01 0.173316 6.38589
3.01 0.160827 6.36422
3.01 0.148138 6.3859
3.01 0.160572 6.40755
3.01 0.173316 6.38589
3.01 0.148138 6.3859
3.01 0.211137 6.36419
3.01 0.198629 6.3425
3.01 0.185985 6.3642
3.01 0.0979162 6.38584
3.01 0.122979 6.38589
3.01 0.110383 6.36421
3.01 0.122979 6.38589
3.01 0.0979162 6.38584
3.01 0.109875 6.40749
3.01 0.0732297 6.38567
3.01 0.0979162 6.38584
3.01 0.0848754 6.36414
3.01 0.0979162 6.38584
3.01 0.110383 6.36421
3.01 0.0848754 6.36414
3.01 0.0975729 6.42904
3.01 0.122678 6.42914
3.01 0.109875 6.40749
3.01 0.0841718 6.40735
3.01 0.0732297 6.38567
3.01 0.0577122 6.40702
3.01 0.0729308 6.42888
3.01 0.0841718 6.40735
3.01 0.0577122 6.40702
3.01 0.0732297 6.38567
3.01 0.0841718 6.40735
3.01 0.0979162 6.38584
3.01 0.0841718 6.40735
3.01 0.109875 6.40749
3.01 0.0979162 6.38584
3.01 0.0975729 6.42904
3.01 0.0841718 6.40735
3.01 0.0729308 6.42888
3.01 0.0841718 6.40735
3.01 0.0975729 6.42904
3.01 0.109875 6.40749
3.01 0.073948 6.3425
3.01 0.05 6.3425
3.01 0.0586606 6.36381
3.01 0.073948 6.3425
3.01 0.0586606 6.36381
3.01 0.0848754 6.36414
3.01 0.05 7.21829
3.01 0.0603641 7.19697
3.01 0.05 7.17527
3.01 0.0603641 7.19697
3.01 0.05 7.21829
3.01 0.0753197 7.21899
3.01 0.0709395 7.2425
3.01 0.05 7.21829
3.01 0.05 7.2425
3.01 0.05 7.21829
3.01 0.0709395 7.2425
3.01 0.0753197 7.21899
3.01 0.0579641 6.92963
3.01 0.05 6.90761
3.01 0.05 6.95169
3.01 0.0841948 6.84179
3.01 0.109814 6.8418
3.01 0.097638 6.81993
3.01 0.0841948 6.84179
3.01 0.0578646 6.8418
3.01 0.0730539 6.8637
3.01 0.0580261 6.9738
3.01 0.05 6.95169
3.01 0.05 6.99595
3.01 0.942292 6.53735
3.01 0.95 6.55904
3.01 0.95 6.51567
3.01 0.95 6.47226
3.01 0.942332 6.49397
3.01 0.95 6.51567
3.01 0.73872 6.75453
3.01 0.75132 6.73275
3.01 0.726137 6.73276
3.01 0.751305 6.77632
3.01 0.73872 6.75453
3.01 0.726124 6.77633
3.01 0.713546 6.75454
3.01 0.73872 6.75453
3.01 0.726137 6.73276
3.01 0.73872 6.75453
3.01 0.713546 6.75454
3.01 0.726124 6.77633
3.01 0.814318 6.79811
3.01 0.801709 6.7763
3.01 0.789096 6.79812
3.01 0.7765 6.77631
3.01 0.801709 6.7763
3.01 0.789115 6.75451
3.01 0.801709 6.7763
3.01 0.7765 6.77631
3.01 0.789096 6.79812
3.01 0.7765 6.77631
3.01 0.763892 6.79814
3.01 0.789096 6.79812
3.01 0.763892 6.79814
3.01 0.7765 6.77631
3.01 0.751305 6.77632
3.01 0.95 7.2425
3.01 0.95 7.21829
3.01 0.929061 7.2425
3.01 0.95 7.0404
3.01 0.941913 7.01815
3.01 0.926844 7.0404
3.01 0.941913 7.01815
3.01 0.95 7.0404
3.01 0.95 6.99595
3.01 0.926866 6.99594
3.01 0.941913 7.01815
3.01 0.95 6.99595
3.01 0.941974 6.9738
3.01 0.926866 6.99594
3.01 0.95 6.99595
3.01 0.95 6.95169
3.01 0.941974 6.9738
3.01 0.95 6.99595
3.01 0.941974 6.9738
3.01 0.95 6.95169
3.01 0.926895 6.95169
3.01 0.6127 7.2425
3.01 0.637734 7.2425
3.01 0.625238 7.21998
3.01 0.662757 7.2425
3.01 0.650275 7.21997
3.01 0.637734 7.2425
3.01 0.650275 7.21997
3.01 0.625238 7.21998
3.01 0.637734 7.2425
3.01 0.600415 6.77637
3.01 0.575304 6.77637
3.01 0.587856 6.7982
3.01 0.575304 6.77637
3.01 0.562749 6.7982
3.01 0.587856 6.7982
3.01 0.336827 6.36416
3.01 0.361946 6.36416
3.01 0.349395 6.3425
3.01 0.223755 6.3425
3.01 0.198629 6.3425
3.01 0.211137 6.36419
3.01 0.185985 6.3642
3.01 0.198492 6.38588
3.01 0.211137 6.36419
3.01 0.185806 6.40755
3.01 0.198492 6.38588
3.01 0.173316 6.38589
3.01 0.198492 6.38588
3.01 0.185985 6.3642
3.01 0.173316 6.38589
3.01 0.0576202 6.45053
3.01 0.05 6.42874
3.01 0.05 6.47226
3.01 0.05 6.42874
3.01 0.0576202 6.45053
3.01 0.0729308 6.42888
3.01 0.05 6.42874
3.01 0.0729308 6.42888
3.01 0.0577122 6.40702
3.01 0.135283 6.40754
3.01 0.122979 6.38589
3.01 0.109875 6.40749
3.01 0.135283 6.40754
3.01 0.109875 6.40749
3.01 0.122678 6.42914
3.01 0.122979 6.38589
3.01 0.135283 6.40754
3.01 0.148138 6.3859
3.01 0.135283 6.40754
3.01 0.160572 6.40755
3.01 0.148138 6.3859
3.01 0.123433 6.3425
3.01 0.0985513 6.3425
3.01 0.110383 6.36421
3.01 0.110383 6.36421
3.01 0.0985513 6.3425
3.01 0.0848754 6.36414
3.01 0.0848754 6.36414
3.01 0.0985513 6.3425
3.01 0.073948 6.3425
3.01 0.0603641 7.19697
3.01 0.0739464 7.17449
3.01 0.05 7.17527
3.01 0.0739464 7.17449
3.01 0.058509 7.15256
3.01 0.05 7.17527
3.01 0.058509 7.15256
3.01 0.0739464 7.17449
3.01 0.0849548 7.15211
3.01 0.058509 7.15256
3.01 0.0732725 7.12988
3.01 0.05 7.1301
3.01 0.0732725 7.12988
3.01 0.058509 7.15256
3.01 0.0849548 7.15211
3.01 0.5 7.22
3.01 0.47495 7.22
3.01 0.487476 7.2425
3.01 0.097663 6.8637
3.01 0.109814 6.8418
3.01 0.0841948 6.84179
3.01 0.0730539 6.8637
3.01 0.097663 6.8637
3.01 0.0841948 6.84179
3.01 0.0578646 6.8418
3.01 0.05 6.8637
3.01 0.0730539 6.8637
3.01 0.05 6.8637
3.01 0.0578646 6.8418
3.01 0.05 6.81992
3.01 0.05 7.0404
3.01 0.0580869 7.01815
3.01 0.05 6.99595
3.01 0.05 6.99595
3.01 0.073134 6.99594
3.01 0.0580261 6.9738
3.01 0.073134 6.99594
3.01 0.05 6.99595
3.01 0.0580869 7.01815
3.01 0.942268 6.58073
3.01 0.95 6.60241
3.01 0.95 6.55904
3.01 0.942292 6.53735
3.01 0.927025 6.55904
3.01 0.95 6.55904
3.01 0.927025 6.55904
3.01 0.915919 6.58072
3.01 0.942268 6.58073
3.01 0.95 6.55904
3.01 0.927025 6.55904
3.01 0.942268 6.58073
3.01 0.927013 6.60241
3.01 0.95 6.60241
3.01 0.942268 6.58073
3.01 0.915919 6.58072
3.01 0.927013 6.60241
3.01 0.942268 6.58073
3.01 0.801738 6.68925
3.01 0.826957 6.68925
3.01 0.814364 6.66753
3.01 0.852174 6.68924
3.01 0.839609 6.66752
3.01 0.826957 6.68925
3.01 0.839609 6.66752
3.01 0.814364 6.66753
3.01 0.826957 6.68925
3.01 0.776516 6.73275
3.01 0.763923 6.711
3.01 0.75132 6.73275
3.01 0.776516 6.73275
3.01 0.789115 6.75451
3.01 0.801725 6.73274
3.01 0.738704 6.79815
3.01 0.763892 6.79814
3.01 0.751305 6.77632
3.01 0.726124 6.77633
3.01 0.738704 6.79815
3.01 0.751305 6.77632
3.01 0.915617 7.01814
3.01 0.926866 6.99594
3.01 0.902228 6.99594
3.01 0.926866 6.99594
3.01 0.915617 7.01814
3.01 0.941913 7.01815
3.01 0.915617 7.01814
3.01 0.926844 7.0404
3.01 0.941913 7.01815
3.01 0.915617 7.01814
3.01 0.902193 7.04038
3.01 0.926844 7.0404
3.01 0.926866 6.99594
3.01 0.915668 6.97379
3.01 0.902228 6.99594
3.01 0.902267 6.95168
3.01 0.915668 6.97379
3.01 0.926895 6.95169
3.01 0.915668 6.97379
3.01 0.926866 6.99594
3.01 0.941974 6.9738
3.01 0.926895 6.95169
3.01 0.915668 6.97379
3.01 0.941974 6.9738
3.01 0.902267 6.95168
3.01 0.890059 6.97379
3.01 0.915668 6.97379
3.01 0.890059 6.97379
3.01 0.902228 6.99594
3.01 0.915668 6.97379
3.01 0.826927 6.77629
3.01 0.801709 6.7763
3.01 0.814318 6.79811
3.01 0.864816 6.8418
3.01 0.890186 6.8418
3.01 0.877308 6.81993
3.01 0.877308 6.81993
3.01 0.852122 6.81994
3.01 0.864816 6.8418
3.01 0.890186 6.8418
3.01 0.902362 6.81993
3.01 0.877308 6.81993
3.01 0.902362 6.81993
3.01 0.890186 6.8418
3.01 0.915805 6.84179
3.01 0.902362 6.81993
3.01 0.915805 6.84179
3.01 0.926964 6.81992
3.01 0.915835 6.79809
3.01 0.902362 6.81993
3.01 0.926964 6.81992
3.01 0.942171 6.79809
3.01 0.915835 6.79809
3.01 0.926964 6.81992
3.01 0.915835 6.79809
3.01 0.942171 6.79809
3.01 0.926978 6.77627
3.01 0.942171 6.79809
3.01 0.95 6.77627
3.01 0.926978 6.77627
3.01 0.87737 6.64581
3.01 0.902417 6.6458
3.01 0.890277 6.62411
3.01 0.852144 6.77628
3.01 0.864842 6.79809
3.01 0.877329 6.77628
3.01 0.877308 6.81993
3.01 0.864842 6.79809
3.01 0.852122 6.81994
3.01 0.902396 6.73272
3.01 0.890234 6.75449
3.01 0.915858 6.75448
3.01 0.926997 6.68923
3.01 0.95 6.68923
3.01 0.942237 6.66751
3.01 0.91589 6.66751
3.01 0.926997 6.68923
3.01 0.942237 6.66751
3.01 0.942199 6.75448
3.01 0.95 6.77627
3.01 0.95 6.73271
3.01 0.95 6.77627
3.01 0.942199 6.75448
3.01 0.926978 6.77627
3.01 0.942199 6.75448
3.01 0.915858 6.75448
3.01 0.926978 6.77627
3.01 0.95 6.68923
3.01 0.942221 6.71097
3.01 0.95 6.73271
3.01 0.942221 6.71097
3.01 0.95 6.68923
3.01 0.926997 6.68923
3.01 0.915876 6.71097
3.01 0.942221 6.71097
3.01 0.926997 6.68923
3.01 0.926989 6.73271
3.01 0.902396 6.73272
3.01 0.915858 6.75448
3.01 0.902396 6.73272
3.01 0.926989 6.73271
3.01 0.915876 6.71097
3.01 0.926989 6.73271
3.01 0.915858 6.75448
3.01 0.942199 6.75448
3.01 0.95 6.73271
3.01 0.926989 6.73271
3.01 0.942199 6.75448
3.01 0.915876 6.71097
3.01 0.926989 6.73271
3.01 0.942221 6.71097
3.01 0.926989 6.73271
3.01 0.95 6.73271
3.01 0.942221 6.71097
3.01 0.91353 7.19685
3.01 0.939636 7.19697
3.01 0.926054 7.17449
3.01 0.926728 7.12988
3.01 0.941491 7.15256
3.01 0.95 7.1301
3.01 0.926728 7.12988
3.01 0.95 7.1301
3.01 0.941822 7.10754
3.01 0.95 7.17527
3.01 0.939636 7.19697
3.01 0.95 7.21829
3.01 0.95 7.17527
3.01 0.941491 7.15256
3.01 0.926054 7.17449
3.01 0.939636 7.19697
3.01 0.95 7.17527
3.01 0.926054 7.17449
3.01 0.941491 7.15256
3.01 0.95 7.17527
3.01 0.95 7.1301
3.01 0.941869 7.06272
3.01 0.95 7.0404
3.01 0.926844 7.0404
3.01 0.762942 7.19728
3.01 0.737933 7.19734
3.01 0.75028 7.21989
3.01 0.71291 7.19739
3.01 0.737933 7.19734
3.01 0.725533 7.17485
3.01 0.71291 7.19739
3.01 0.725313 7.21992
3.01 0.737933 7.19734
3.01 0.725313 7.21992
3.01 0.75028 7.21989
3.01 0.737933 7.19734
3.01 0.737693 7.2425
[...]
<PointData Scalars="View Factor" >
<DataArray type="Float64" Name="View Factor" NumberOfComponents="1" format="ascii">
0.639455
0.639455
0.639455
0.436728
0.436728
0.436728
0.445967
0.445967
0.445967
0.440072
0.440072
0.440072
0.436994
0.436994
0.436994
0.439829
0.439829
0.439829
0.436415
0.436415
0.436415
0.439537
0.439537
0.439537
0.446226
0.446226
0.446226
0.647761
0.647761
0.647761
0.433539
0.433539
0.433539
0.445723
0.445723
0.445723
0.448782
0.448782
0.448782
0.445426
0.445426
0.445426
0.457077
0.457077
0.457077
0.44851
0.44851
0.44851
0.454337
0.454337
0.454337
0.439198
0.439198
0.439198
0.448996
0.448996
0.448996
0.454819
0.454819
0.454819
0.449133
0.449133
0.449133
0.446149
0.446149
0.446149
0.466322
0.466322
0.466322
0.457862
0.457862
0.457862
0.463614
0.463614
0.463614
0.45495
0.45495
0.45495
0.457788
0.457788
0.457788
0.46645
0.46645
0.46645
0.463538
0.463538
0.463538
0.437458
0.437458
0.437458
0.440357
0.440357
0.440357
0.650653
0.650653
0.650653
0.651359
0.651359
0.651359
0.652375
0.652375
0.652375
0.652016
0.652016
0.652016
0.618936
0.618936
0.618936
0.598979
0.598979
0.598979
0.602475
0.602475
0.602475
0.626555
0.626555
0.626555
0.466333
0.466333
0.466333
0.451551
0.451551
0.451551
0.548029
0.548029
0.548029
0.555489
0.555489
0.555489
0.550988
0.550988
0.550988
0.554725
0.554725
0.554725
0.555004
0.555004
0.555004
0.550926
0.550926
0.550926
0.554486
0.554486
0.554486
0.557426
0.557426
0.557426
0.556841
0.556841
0.556841
0.597383
0.597383
0.597383
0.582191
0.582191
0.582191
0.579266
0.579266
0.579266
0.578381
0.578381
0.578381
0.576331
0.576331
0.576331
0.573134
0.573134
0.573134
0.571952
0.571952
0.571952
0.631266
0.631266
0.631266
0.629328
0.629328
0.629328
0.630026
0.630026
0.630026
0.570259
0.570259
0.570259
0.572827
0.572827
0.572827
0.436153
0.436153
0.436153
0.436056
0.436056
0.436056
0.445082
0.445082
0.445082
0.454013
0.454013
0.454013
0.448188
0.448188
0.448188
0.4779
0.4779
0.4779
0.472218
0.472218
0.472218
0.4665
0.4665
0.4665
0.457617
0.457617
0.457617
0.46337
0.46337
0.46337
0.454609
0.454609
0.454609
0.457375
0.457375
0.457375
0.437211
0.437211
0.437211
0.440259
0.440259
0.440259
0.437375
0.437375
0.437375
0.649754
0.649754
0.649754
0.648788
0.648788
0.648788
0.648166
0.648166
0.648166
0.646515
0.646515
0.646515
0.647037
0.647037
0.647037
0.639858
0.639858
0.639858
0.602279
0.602279
0.602279
0.603993
0.603993
0.603993
0.604157
0.604157
0.604157
0.600947
0.600947
0.600947
0.633249
0.633249
0.633249
0.628846
0.628846
0.628846
0.631077
0.631077
0.631077
0.480479
0.480479
0.480479
0.471987
0.471987
0.471987
0.480327
0.480327
0.480327
0.476712
0.476712
0.476712
0.485934
0.485934
0.485934
0.48495
0.48495
0.48495
0.525256
0.525256
0.525256
0.522775
0.522775
0.522775
0.521954
0.521954
0.521954
0.541979
0.541979
0.541979
0.543524
0.543524
0.543524
0.559729
0.559729
0.559729
0.559078
0.559078
0.559078
0.58169
0.58169
0.58169
0.580926
0.580926
0.580926
0.582837
0.582837
0.582837
0.585523
0.585523
0.585523
0.579629
0.579629
0.579629
0.575222
0.575222
0.575222
0.576816
0.576816
0.576816
0.57462
0.57462
0.57462
0.577934
0.577934
0.577934
0.580144
0.580144
0.580144
0.55201
0.55201
0.55201
0.556774
0.556774
0.556774
0.556649
0.556649
0.556649
0.553735
0.553735
0.553735
0.553764
0.553764
0.553764
0.550694
0.550694
0.550694
0.547498
0.547498
0.547498
0.544214
0.544214
0.544214
0.540888
0.540888
0.540888
0.537755
0.537755
0.537755
0.504811
0.504811
0.504811
0.546676
0.546676
0.546676
0.553418
0.553418
0.553418
0.53342
0.53342
0.53342
0.511672
0.511672
0.511672
0.511004
0.511004
0.511004
0.529782
0.529782
0.529782
0.534299
0.534299
0.534299
0.533959
0.533959
0.533959
0.51862
0.51862
0.51862
0.515665
0.515665
0.515665
0.519011
0.519011
0.519011
0.530128
0.530128
0.530128
0.526379
0.526379
0.526379
0.530358
0.530358
0.530358
0.527116
0.527116
0.527116
0.522883
0.522883
0.522883
0.523388
0.523388
0.523388
0.597736
0.597736
0.597736
0.592554
0.592554
0.592554
0.591348
0.591348
0.591348
0.595288
0.595288
0.595288
0.594668
0.594668
0.594668
0.595642
0.595642
0.595642
0.592555
0.592555
0.592555
0.583956
0.583956
0.583956
0.619171
0.619171
0.619171
0.620771
0.620771
0.620771
0.621565
0.621565
0.621565
0.620743
0.620743
0.620743
0.62285
0.62285
0.62285
0.621386
0.621386
0.621386
0.62046
0.62046
0.62046
0.622658
0.622658
0.622658
0.618884
0.618884
0.618884
0.621488
0.621488
0.621488
0.620544
0.620544
0.620544
0.625802
0.625802
0.625802
0.624855
0.624855
0.624855
0.631267
0.631267
0.631267
0.631912
0.631912
0.631912
0.6331
0.6331
0.6331
0.57202
0.57202
0.57202
0.571252
0.571252
0.571252
0.58459
0.58459
0.58459
0.586302
0.586302
0.586302
0.58308
0.58308
0.58308
0.582196
0.582196
0.582196
0.576342
0.576342
0.576342
0.578823
0.578823
0.578823
0.58782
0.58782
0.58782
0.588648
0.588648
0.588648
0.605111
0.605111
0.605111
0.576095
0.576095
0.576095
0.575424
0.575424
0.575424
0.558415
0.558415
0.558415
0.564952
0.564952
0.564952
0.434694
0.434694
0.434694
0.435196
0.435196
0.435196
0.437897
0.437897
0.437897
0.443763
0.443763
0.443763
0.421106
0.421106
0.421106
0.531731
0.531731
0.531731
0.539685
0.539685
0.539685
0.534903
0.534903
0.534903
0.538888
0.538888
0.538888
0.541117
0.541117
0.541117
0.544159
0.544159
0.544159
0.446418
0.446418
0.446418
0.432885
0.432885
0.432885
0.421878
0.421878
0.421878
0.519114
0.519114
0.519114
0.516947
0.516947
0.516947
0.46073
0.46073
0.46073
0.443301
0.443301
0.443301
0.449121
0.449121
0.449121
0.454942
0.454942
0.454942
0.648578
0.648578
0.648578
0.640814
0.640814
0.640814
0.621535
0.621535
0.621535
0.624075
0.624075
0.624075
0.607143
0.607143
0.607143
0.482007
0.482007
0.482007
0.621137
0.621137
0.621137
0.623674
0.623674
0.623674
0.597171
0.597171
0.597171
0.598727
0.598727
0.598727
0.593941
0.593941
0.593941
0.597392
0.597392
0.597392
0.597554
0.597554
0.597554
0.599174
0.599174
0.599174
0.59059
0.59059
0.59059
0.594102
0.594102
0.594102
0.592271
0.592271
0.592271
0.58867
0.58867
0.58867
0.586899
0.586899
0.586899
0.543164
0.543164
0.543164
0.539963
0.539963
0.539963
0.488717
0.488717
0.488717
0.529351
0.529351
0.529351
0.532574
0.532574
0.532574
0.536543
0.536543
0.536543
0.519419
0.519419
0.519419
0.520171
0.520171
0.520171
0.503964
0.503964
0.503964
0.470854
0.470854
0.470854
0.505307
0.505307
0.505307
0.545834
0.545834
0.545834
0.553266
0.553266
0.553266
0.550291
0.550291
0.550291
0.546583
0.546583
0.546583
0.548842
0.548842
0.548842
0.552565
0.552565
0.552565
0.563168
0.563168
0.563168
0.565969
0.565969
0.565969
0.561915
0.561915
0.561915
0.565367
0.565367
0.565367
0.577269
0.577269
0.577269
0.57777
0.57777
0.57777
0.572088
0.572088
0.572088
0.556828
0.556828
0.556828
0.578398
0.578398
0.578398
0.579069
0.579069
0.579069
0.576038
0.576038
0.576038
0.576343
0.576343
0.576343
0.616697
0.616697
0.616697
0.618376
0.618376
0.618376
0.619154
0.619154
0.619154
0.618211
0.618211
0.618211
0.611535
0.611535
0.611535
0.60743
0.60743
0.60743
0.60852
0.60852
0.60852
0.599926
0.599926
0.599926
0.604285
0.604285
0.604285
0.59766
0.59766
0.59766
0.537272
0.537272
0.537272
0.552457
0.552457
0.552457
0.549407
0.549407
0.549407
0.54978
0.54978
0.54978
0.55316
0.55316
0.55316
0.562732
0.562732
0.562732
0.559636
0.559636
0.559636
0.540827
0.540827
0.540827
0.54032
0.54032
0.54032
0.537352
0.537352
0.537352
0.537042
0.537042
0.537042
0.544387
0.544387
0.544387
0.540127
0.540127
0.540127
0.525903
0.525903
0.525903
0.524229
0.524229
0.524229
0.524851
0.524851
0.524851
0.5098
0.5098
0.5098
0.516757
0.516757
0.516757
0.509108
0.509108
0.509108
0.512578
0.512578
0.512578
0.501231
0.501231
0.501231
0.496821
0.496821
0.496821
0.493237
0.493237
0.493237
0.608313
0.608313
0.608313
0.61042
0.61042
0.61042
0.597178
0.597178
0.597178
0.59855
0.59855
0.59855
0.598297
0.598297
0.598297
0.599068
0.599068
0.599068
0.595944
0.595944
0.595944
0.598098
0.598098
0.598098
0.595792
0.595792
0.595792
0.594722
0.594722
0.594722
0.604972
0.604972
0.604972
0.601438
0.601438
0.601438
0.6036
0.6036
0.6036
0.600676
0.600676
0.600676
0.587297
0.587297
0.587297
0.586375
0.586375
0.586375
0.592306
0.592306
0.592306
0.594734
0.594734
0.594734
0.625201
0.625201
0.625201
0.623045
0.623045
0.623045
0.623702
0.623702
0.623702
0.625123
0.625123
0.625123
0.623718
0.623718
0.623718
0.623076
0.623076
0.623076
0.623838
0.623838
0.623838
0.610846
0.610846
0.610846
0.611231
0.611231
0.611231
0.610165
0.610165
0.610165
0.612573
0.612573
0.612573
0.618289
0.618289
0.618289
0.618935
0.618935
0.618935
0.617791
0.617791
0.617791
0.618357
0.618357
0.618357
0.60974
0.60974
0.60974
0.607708
0.607708
0.607708
0.608467
0.608467
0.608467
0.617113
0.617113
0.617113
0.615308
0.615308
0.615308
0.621409
0.621409
0.621409
0.610474
0.610474
0.610474
0.61201
0.61201
0.61201
0.613917
0.613917
0.613917
0.614328
0.614328
0.614328
0.621155
0.621155
0.621155
0.622212
0.622212
0.622212
0.623309
0.623309
0.623309
0.622757
0.622757
0.622757
0.620565
0.620565
0.620565
0.620061
0.620061
0.620061
0.627245
0.627245
0.627245
0.628041
0.628041
0.628041
0.629383
0.629383
0.629383
0.629977
0.629977
0.629977
0.62535
0.62535
0.62535
0.62425
0.62425
0.62425
0.624639
0.624639
0.624639
0.613297
0.613297
0.613297
0.611126
0.611126
0.611126
0.568468
0.568468
0.568468
0.583989
0.583989
0.583989
0.566706
0.566706
0.566706
0.569027
0.569027
0.569027
0.585509
0.585509
0.585509
0.574451
0.574451
0.574451
0.573089
0.573089
0.573089
0.590877
0.590877
0.590877
0.588671
0.588671
0.588671
0.584136
0.584136
0.584136
0.594139
0.594139
0.594139
0.596257
0.596257
0.596257
0.599371
0.599371
0.599371
0.600362
0.600362
0.600362
0.568643
0.568643
0.568643
0.574758
0.574758
0.574758
0.577281
0.577281
0.577281
0.580646
0.580646
0.580646
0.581479
0.581479
0.581479
0.605299
0.605299
0.605299
0.603324
0.603324
0.603324
0.590124
0.590124
0.590124
0.591725
0.591725
0.591725
0.589779
0.589779
0.589779
0.587537
0.587537
0.587537
0.601813
0.601813
0.601813
0.599727
0.599727
0.599727
0.581185
0.581185
0.581185
0.57799
0.57799
0.57799
0.568077
0.568077
0.568077
0.592179
0.592179
0.592179
0.43565
0.43565
0.43565
0.438378
0.438378
0.438378
0.438812
0.438812
0.438812
0.447317
0.447317
0.447317
0.436187
0.436187
0.436187
0.442187
0.442187
0.442187
0.42406
0.42406
0.42406
0.412342
0.412342
0.412342
0.417469
0.417469
0.417469
0.533993
0.533993
0.533993
0.537116
0.537116
0.537116
0.536143
0.536143
0.536143
0.531999
0.531999
0.531999
0.543234
0.543234
0.543234
0.539219
0.539219
0.539219
0.437366
0.437366
0.437366
0.443225
0.443225
0.443225
0.434141
0.434141
0.434141
0.436785
0.436785
0.436785
0.441999
0.441999
0.441999
0.444566
0.444566
0.444566
0.450351
0.450351
0.450351
0.449621
0.449621
0.449621
0.452868
0.452868
0.452868
0.46179
0.46179
0.46179
0.458584
0.458584
0.458584
0.430601
0.430601
0.430601
0.425425
0.425425
0.425425
0.524066
0.524066
0.524066
0.533723
0.533723
0.533723
0.439376
0.439376
0.439376
0.446933
0.446933
0.446933
0.452744
0.452744
0.452744
0.444251
0.444251
0.444251
0.637585
0.637585
0.637585
0.639549
0.639549
0.639549
0.645335
0.645335
0.645335
0.645793
0.645793
0.645793
0.644966
0.644966
0.644966
0.641764
0.641764
0.641764
0.643675
0.643675
0.643675
0.643211
0.643211
0.643211
0.644476
0.644476
0.644476
0.647937
0.647937
0.647937
0.645216
0.645216
0.645216
0.643859
0.643859
0.643859
0.641173
0.641173
0.641173
0.639971
0.639971
0.639971
0.64078
0.64078
0.64078
0.64052
0.64052
0.64052
0.638043
0.638043
0.638043
0.642262
0.642262
0.642262
0.643073
0.643073
0.643073
0.619954
0.619954
0.619954
0.621366
0.621366
0.621366
0.620156
0.620156
0.620156
0.62762
0.62762
0.62762
0.625234
0.625234
0.625234
0.628675
0.628675
0.628675
0.627415
0.627415
0.627415
0.623905
0.623905
0.623905
0.62503
0.62503
0.62503
0.608577
0.608577
0.608577
0.611316
0.611316
0.611316
0.610398
0.610398
0.610398
0.607307
0.607307
0.607307
0.608775
0.608775
0.608775
0.483478
0.483478
0.483478
0.522571
0.522571
0.522571
0.512375
0.512375
0.512375
0.535023
0.535023
0.535023
0.539734
0.539734
0.539734
0.540429
0.540429
0.540429
0.554232
0.554232
0.554232
0.558615
0.558615
0.558615
0.525842
0.525842
0.525842
0.520634
0.520634
0.520634
0.515527
0.515527
0.515527
0.520779
0.520779
0.520779
0.523241
0.523241
0.523241
0.520193
0.520193
0.520193
0.515093
0.515093
0.515093
0.507639
0.507639
0.507639
0.512858
0.512858
0.512858
0.515335
0.515335
0.515335
0.512641
0.512641
0.512641
0.487513
0.487513
0.487513
0.628442
0.628442
0.628442
0.630671
0.630671
0.630671
0.60377
0.60377
0.60377
0.602025
0.602025
0.602025
0.606918
0.606918
0.606918
0.608321
0.608321
0.608321
0.596892
0.596892
0.596892
0.567213
0.567213
0.567213
0.565006
0.565006
0.565006
0.562942
0.562942
0.562942
0.562788
0.562788
0.562788
0.56482
0.56482
0.56482
0.58674
0.58674
0.58674
0.582991
0.582991
0.582991
0.568466
0.568466
0.568466
0.593721
0.593721
0.593721
0.586522
0.586522
0.586522
0.592078
0.592078
0.592078
0.588478
0.588478
0.588478
0.499136
0.499136
0.499136
0.503922
0.503922
0.503922
0.517736
0.517736
0.517736
0.495969
0.495969
0.495969
0.499532
0.499532
0.499532
0.511794
0.511794
0.511794
0.507476
0.507476
0.507476
0.51522
0.51522
0.51522
0.514358
0.514358
0.514358
0.516802
0.516802
0.516802
0.512445
0.512445
0.512445
0.479444
0.479444
0.479444
0.474694
0.474694
0.474694
0.563705
0.563705
0.563705
0.560852
0.560852
0.560852
0.561323
0.561323
0.561323
0.564598
0.564598
0.564598
0.567417
0.567417
0.567417
0.566995
0.566995
0.566995
0.568118
0.568118
0.568118
0.571432
0.571432
0.571432
0.573482
0.573482
0.573482
0.574094
0.574094
0.574094
0.561201
0.561201
0.561201
0.556775
0.556775
0.556775
0.5576
0.5576
0.5576
0.57928
0.57928
0.57928
0.579841
0.579841
0.579841
0.581804
0.581804
0.581804
0.589829
0.589829
0.589829
0.592245
0.592245
0.592245
0.568639
0.568639
0.568639
0.556805
0.556805
0.556805
0.559855
0.559855
0.559855
0.559879
0.559879
0.559879
0.562825
0.562825
0.562825
0.565771
0.565771
0.565771
0.570732
0.570732
0.570732
0.572875
0.572875
0.572875
0.573228
0.573228
0.573228
0.58283
0.58283
0.58283
0.586199
0.586199
0.586199
0.584277
0.584277
0.584277
0.584902
0.584902
0.584902
0.587451
0.587451
0.587451
0.596007
0.596007
0.596007
0.613166
0.613166
0.613166
0.611392
0.611392
0.611392
0.610443
0.610443
0.610443
0.611313
0.611313
0.611313
0.613967
0.613967
0.613967
0.616489
0.616489
0.616489
0.615753
0.615753
0.615753
0.612877
0.612877
0.612877
0.607581
0.607581
0.607581
0.607491
0.607491
0.607491
0.608533
0.608533
0.608533
0.605582
0.605582
0.605582
0.607034
0.607034
0.607034
0.608265
0.608265
0.608265
0.610223
0.610223
0.610223
0.610986
0.610986
0.610986
0.589756
0.589756
0.589756
0.59139
0.59139
0.59139
0.596943
0.596943
0.596943
0.598447
0.598447
0.598447
0.593818
0.593818
0.593818
0.594603
0.594603
0.594603
0.541095
0.541095
0.541095
0.548465
0.548465
0.548465
0.547899
0.547899
0.547899
0.544206
0.544206
0.544206
0.545879
0.545879
0.545879
0.538543
0.538543
0.538543
0.545383
0.545383
0.545383
0.541707
0.541707
0.541707
0.54274
0.54274
0.54274
0.539081
0.539081
0.539081
0.530126
0.530126
0.530126
0.534077
0.534077
0.534077
0.534737
0.534737
0.534737
0.526852
0.526852
0.526852
0.527553
0.527553
0.527553
0.531487
0.531487
0.531487
0.559429
0.559429
0.559429
0.558816
0.558816
0.558816
0.562078
0.562078
0.562078
0.56236
0.56236
0.56236
0.555852
0.555852
0.555852
0.556183
0.556183
0.556183
0.550521
0.550521
0.550521
0.55033
0.55033
0.55033
0.547355
0.547355
0.547355
0.54401
0.54401
0.54401
0.546967
0.546967
0.546967
0.543813
0.543813
0.543813
0.550588
0.550588
0.550588
0.547566
0.547566
0.547566
0.549643
0.549643
0.549643
0.553642
0.553642
0.553642
0.553634
0.553634
0.553634
0.535864
0.535864
0.535864
0.532076
0.532076
0.532076
0.533057
0.533057
0.533057
0.536321
0.536321
0.536321
0.529288
0.529288
0.529288
0.528765
0.528765
0.528765
0.514598
0.514598
0.514598
0.513957
0.513957
0.513957
0.518613
0.518613
0.518613
0.52201
0.52201
0.52201
0.52148
0.52148
0.52148
0.517443
0.517443
0.517443
0.490429
0.490429
0.490429
0.493962
0.493962
0.493962
0.506663
0.506663
0.506663
0.493937
0.493937
0.493937
0.60056
0.60056
0.60056
0.605529
0.605529
0.605529
0.604571
0.604571
0.604571
0.598152
0.598152
0.598152
0.599235
0.599235
0.599235
0.601403
0.601403
0.601403
0.59924
0.59924
0.59924
0.602491
0.602491
0.602491
0.601411
0.601411
0.601411
0.604175
0.604175
0.604175
0.602395
0.602395
0.602395
0.601172
0.601172
0.601172
0.602042
0.602042
0.602042
0.604493
0.604493
0.604493
0.605403
0.605403
0.605403
0.595722
0.595722
0.595722
0.594373
0.594373
0.594373
0.598022
0.598022
0.598022
0.598961
0.598961
0.598961
0.595313
0.595313
0.595313
0.597603
0.597603
0.597603
0.588
0.588
0.588
0.590966
0.590966
0.590966
0.590556
0.590556
0.590556
0.592044
0.592044
0.592044
0.625933
0.625933
0.625933
0.628035
0.628035
0.628035
0.627281
0.627281
0.627281
0.627392
0.627392
0.627392
0.625996
0.625996
0.625996
0.625291
0.625291
0.625291
0.617951
0.617951
0.617951
0.616654
0.616654
0.616654
0.615856
0.615856
0.615856
0.613206
0.613206
0.613206
0.614111
0.614111
0.614111
0.613667
0.613667
0.613667
0.615711
0.615711
0.615711
0.615322
0.615322
0.615322
0.616363
0.616363
0.616363
0.613005
0.613005
0.613005
0.614009
0.614009
0.614009
0.614787
0.614787
0.614787
0.612335
0.612335
0.612335
0.612921
0.612921
0.612921
0.613572
0.613572
0.613572
0.616027
0.616027
0.616027
0.615398
0.615398
0.615398
0.607565
0.607565
0.607565
0.610839
0.610839
0.610839
0.612787
0.612787
0.612787
0.609151
0.609151
0.609151
0.609405
0.609405
0.609405
0.598904
0.598904
0.598904
0.596783
0.596783
0.596783
0.594443
0.594443
0.594443
0.602766
0.602766
0.602766
0.600569
0.600569
0.600569
0.608036
0.608036
0.608036
0.609567
0.609567
0.609567
0.619148
0.619148
0.619148
0.619022
0.619022
0.619022
0.618608
0.618608
0.618608
0.619319
0.619319
0.619319
0.619716
0.619716
0.619716
0.617571
0.617571
0.617571
0.618318
0.618318
0.618318
0.616177
0.616177
0.616177
0.616526
0.616526
0.616526
0.622441
0.622441
0.622441
0.622637
0.622637
0.622637
0.620881
0.620881
0.620881
0.620953
0.620953
0.620953
0.625257
0.625257
0.625257
0.622264
0.622264
0.622264
0.620578
0.620578
0.620578
0.620346
0.620346
0.620346
0.621748
0.621748
0.621748
0.623387
0.623387
0.623387
0.62367
0.62367
0.62367
0.631809
0.631809
0.631809
0.637805
0.637805
0.637805
0.638456
0.638456
0.638456
0.638007
0.638007
0.638007
0.571869
0.571869
0.571869
0.580255
0.580255
0.580255
0.578044
0.578044
0.578044
0.574165
0.574165
0.574165
0.572493
0.572493
0.572493
0.585072
0.585072
0.585072
0.592256
0.592256
0.592256
0.590732
0.590732
0.590732
0.587139
0.587139
0.587139
0.573056
0.573056
0.573056
0.580824
0.580824
0.580824
0.57476
0.57476
0.57476
0.578642
0.578642
0.578642
0.56306
0.56306
0.56306
0.567234
0.567234
0.567234
0.567702
0.567702
0.567702
0.569527
0.569527
0.569527
0.581332
0.581332
0.581332
0.579179
0.579179
0.579179
0.575294
0.575294
0.575294
0.573559
0.573559
0.573559
0.569238
0.569238
0.569238
0.589043
0.589043
0.589043
0.584108
0.584108
0.584108
0.587686
0.587686
0.587686
0.59247
0.59247
0.59247
0.593732
0.593732
0.593732
0.589729
0.589729
0.589729
0.597251
0.597251
0.597251
0.595168
0.595168
0.595168
0.596123
0.596123
0.596123
0.591901
0.591901
0.591901
0.585264
0.585264
0.585264
0.58297
0.58297
0.58297
0.578153
0.578153
0.578153
0.579418
0.579418
0.579418
0.571784
0.571784
0.571784
0.58293
0.58293
0.58293
0.581807
0.581807
0.581807
0.580565
0.580565
0.580565
0.598298
0.598298
0.598298
0.594043
0.594043
0.594043
0.595189
0.595189
0.595189
0.593035
0.593035
0.593035
0.606307
0.606307
0.606307
0.604367
0.604367
0.604367
0.60037
0.60037
0.60037
0.601401
0.601401
0.601401
0.569584
0.569584
0.569584
0.571307
0.571307
0.571307
0.567821
0.567821
0.567821
0.566933
0.566933
0.566933
0.622657
0.622657
0.622657
0.620938
0.620938
0.620938
0.620853
0.620853
0.620853
0.615175
0.615175
0.615175
0.617197
0.617197
0.617197
0.61898
0.61898
0.61898
0.610827
0.610827
0.610827
0.610074
0.610074
0.610074
0.607136
0.607136
0.607136
0.609621
0.609621
0.609621
0.638437
0.638437
0.638437
0.607023
0.607023
0.607023
0.604215
0.604215
0.604215
0.594606
0.594606
0.594606
0.595917
0.595917
0.595917
0.596782
0.596782
0.596782