<VTKFile type="UnstructuredGrid" version="1.0">
<UnstructuredGrid>
<Piece NumberOfPoints="8859" NumberOfCells="2953">
<Points>
<DataArray type="Float64" NumberOfComponents="3" format="ascii">
2.04744 2.20956 9.27262
2.06275 2.19425 9.28458
2.04754 2.20946 9.29833
2.07804 2.17896 9.22167
2.07805 2.17895 9.19652
2.0934 2.1636 9.20898
2.06271 2.19429 9.23436
2.07804 2.17896 9.22167
2.07804 2.17896 9.24686
2.01701 2.23999 9.32488
2.03242 2.22458 9.3325
2.00164 2.25536 9.3325
2.01701 2.23999 9.32488
2.03232 2.22468 9.30957
2.03242 2.22458 9.3325
2.04777 2.20923 9.32479
2.06326 2.19374 9.3325
2.03242 2.22458 9.3325
2.04777 2.20923 9.32479
2.03232 2.22468 9.30957
2.04754 2.20946 9.29833
2.03242 2.22458 9.3325
2.03232 2.22468 9.30957
2.04777 2.20923 9.32479
2.04754 2.20946 9.29833
2.06275 2.19425 9.28458
2.06287 2.19413 9.30927
2.06287 2.19413 9.30927
2.04777 2.20923 9.32479
2.04754 2.20946 9.29833
2.06326 2.19374 9.3325
2.04777 2.20923 9.32479
2.06287 2.19413 9.30927
2.06275 2.19425 9.28458
2.04744 2.20956 9.27262
2.06271 2.19429 9.25952
2.06271 2.19429 9.23436
2.07804 2.17896 9.24686
2.06271 2.19429 9.25952
2.07809 2.17891 9.29762
2.06287 2.19413 9.30927
2.06275 2.19425 9.28458
2.0934 2.1636 9.28395
2.0934 2.1636 9.30855
2.07809 2.17891 9.29762
2.0934 2.1636 9.18387
2.0934 2.1636 9.20898
2.07805 2.17895 9.19652
2.07804 2.17896 9.22167
2.0934 2.1636 9.20898
2.0934 2.1636 9.23406
2.0934 2.1636 9.23406
2.07804 2.17896 9.24686
2.07804 2.17896 9.22167
2.0934 2.1636 8.65652
2.0934 2.1636 8.68165
2.07807 2.17893 8.66907
2.07807 2.17893 9.12107
2.0934 2.1636 9.13361
2.07806 2.17894 9.14621
2.0934 2.1636 9.10848
2.0934 2.1636 9.13361
2.07807 2.17893 9.12107
2.07808 2.17892 8.99544
2.0934 2.1636 9.00799
2.07808 2.17892 9.02055
1.61564 2.64136 8.44059
1.63134 2.62566 8.4325
1.63134 2.62566 8.45563
1.5683 2.6887 9.3325
1.53648 2.72052 9.3325
1.55243 2.70457 9.32432
2.07804 2.17896 9.27212
2.06271 2.19429 9.25952
2.07804 2.17896 9.24686
2.06275 2.19425 9.28458
2.06271 2.19429 9.25952
2.07804 2.17896 9.27212
2.07804 2.17896 9.27212
2.07809 2.17891 9.29762
2.06275 2.19425 9.28458
2.0934 2.1636 9.28395
2.07809 2.17891 9.29762
2.07804 2.17896 9.27212
2.07833 2.17867 9.32384
2.0934 2.1636 9.30855
2.0934 2.1636 9.3325
2.07833 2.17867 9.32384
2.07809 2.17891 9.29762
2.0934 2.1636 9.30855
2.0934 2.1636 9.3325
2.06326 2.19374 9.3325
2.07833 2.17867 9.32384
2.06326 2.19374 9.3325
2.06287 2.19413 9.30927
2.07833 2.17867 9.32384
2.06287 2.19413 9.30927
2.07809 2.17891 9.29762
2.07833 2.17867 9.32384
2.07806 2.17894 9.14621
2.0934 2.1636 9.13361
2.0934 2.1636 9.15874
2.07804 2.17896 9.24686
2.0934 2.1636 9.23406
2.0934 2.1636 9.25907
2.0934 2.1636 9.28395
2.07804 2.17896 9.27212
2.0934 2.1636 9.25907
2.0934 2.1636 9.25907
2.07804 2.17896 9.27212
2.07804 2.17896 9.24686
2.0934 2.1636 8.98289
2.0934 2.1636 9.00799
2.07808 2.17892 8.99544
2.07807 2.17893 8.66907
2.0934 2.1636 8.68165
2.07807 2.17893 8.6942
2.06275 2.19425 9.10853
2.04743 2.20957 9.09598
2.06275 2.19425 9.08338
2.07806 2.17894 9.17136
2.0934 2.1636 9.18387
2.07805 2.17895 9.19652
2.07806 2.17894 9.17136
2.0934 2.1636 9.15874
2.0934 2.1636 9.18387
2.07806 2.17894 9.17136
2.06273 2.19427 9.15884
2.07806 2.17894 9.14621
2.07806 2.17894 9.14621
2.0934 2.1636 9.15874
2.07806 2.17894 9.17136
2.06271 2.19429 9.20918
2.07804 2.17896 9.22167
2.06271 2.19429 9.23436
2.06271 2.19429 9.20918
2.07805 2.17895 9.19652
2.07804 2.17896 9.22167
2.04741 2.20959 9.17149
2.03209 2.22491 9.18415
2.0321 2.2249 9.15894
1.83285 2.42415 9.29838
1.81747 2.43953 9.2849
1.83285 2.42415 9.27275
1.78664 2.47036 9.1338
1.78664 2.47036 9.159
1.77121 2.48579 9.14639
2.0934 2.1636 8.4325
2.0934 2.1636 8.45645
2.07833 2.17867 8.44116
1.56833 2.68867 9.30933
1.5683 2.6887 9.3325
1.55243 2.70457 9.32432
1.63134 2.62566 9.23446
1.61565 2.64135 9.24714
1.61564 2.64136 9.22185
1.55243 2.70457 9.32432
1.53648 2.72052 9.3325
1.53664 2.72036 9.30923
2.06276 2.19424 8.757
2.04745 2.20955 8.74443
2.06276 2.19424 8.73188
2.0934 2.1636 8.90759
2.07808 2.17892 8.89505
2.0934 2.1636 8.8825
2.07808 2.17892 8.94524
2.0934 2.1636 8.93269
2.0934 2.1636 8.95778
2.06277 2.19423 8.85741
2.04745 2.20955 8.86995
2.04745 2.20955 8.84486
2.06277 2.19423 8.8825
2.04745 2.20955 8.86995
2.06277 2.19423 8.85741
2.07808 2.17892 8.89505
2.06277 2.19423 8.90759
2.06277 2.19423 8.8825
2.04745 2.20955 9.02057
2.06276 2.19424 9.03312
2.04744 2.20956 9.0457
2.01682 2.24018 8.99547
2.01682 2.24018 9.02059
2.0015 2.2555 9.00803
2.04745 2.20955 8.99545
2.03214 2.22486 8.9829
2.04745 2.20955 8.97035
2.04745 2.20955 8.97035
2.06277 2.19423 8.98289
2.04745 2.20955 8.99545
2.03214 2.22486 8.9829
2.03214 2.22486 8.9578
2.04745 2.20955 8.97035
2.04745 2.20955 8.97035
2.03214 2.22486 8.9578
2.04745 2.20955 8.94524
2.0934 2.1636 8.95778
2.0934 2.1636 8.98289
2.07808 2.17892 8.97034
2.07808 2.17892 8.97034
2.07808 2.17892 8.94524
2.0934 2.1636 8.95778
2.07808 2.17892 8.97034
2.0934 2.1636 8.98289
2.07808 2.17892 8.99544
2.07808 2.17892 8.99544
2.06277 2.19423 8.98289
2.07808 2.17892 8.97034
2.04744 2.20956 9.07083
2.03213 2.22487 9.05828
2.04744 2.20956 9.0457
2.04744 2.20956 9.07083
2.06275 2.19425 9.08338
2.04743 2.20957 9.09598
2.0015 2.2555 9.0583
2.01681 2.24019 9.04572
2.01681 2.24019 9.07086
2.01681 2.24019 9.07086
2.01681 2.24019 9.04572
2.03213 2.22487 9.05828
2.0934 2.1636 9.0331
2.07808 2.17892 9.02055
2.0934 2.1636 9.00799
2.04744 2.20956 9.0457
2.06276 2.19424 9.03312
2.06276 2.19424 9.05825
2.06276 2.19424 9.05825
2.04744 2.20956 9.07083
2.04744 2.20956 9.0457
2.06275 2.19425 9.08338
2.04744 2.20956 9.07083
2.06276 2.19424 9.05825
2.07806 2.17894 9.14621
2.06273 2.19427 9.15884
2.06274 2.19426 9.13368
2.06274 2.19426 9.13368
2.07807 2.17893 9.12107
2.07806 2.17894 9.14621
2.06275 2.19425 9.10853
2.07807 2.17893 9.12107
2.06274 2.19426 9.13368
2.0321 2.2249 9.15894
2.03211 2.22489 9.13375
2.04742 2.20958 9.1463
2.04742 2.20958 9.1463
2.04741 2.20959 9.17149
2.0321 2.2249 9.15894
2.06273 2.19427 9.15884
2.04741 2.20959 9.17149
2.04742 2.20958 9.1463
2.04742 2.20958 9.1463
2.06274 2.19426 9.13368
2.06273 2.19427 9.15884
2.01679 2.24021 9.14638
2.03211 2.22489 9.13375
2.0321 2.2249 9.15894
2.01679 2.24021 9.14638
2.00148 2.25552 9.15901
2.00148 2.25552 9.13381
2.06271 2.19429 9.23436
2.06271 2.19429 9.25952
2.04741 2.20959 9.24722
2.04741 2.20959 9.24722
2.06271 2.19429 9.25952
2.04744 2.20956 9.27262
2.03209 2.22491 9.18415
2.04741 2.20959 9.17149
2.0474 2.2096 9.19669
2.0474 2.2096 9.19669
2.03209 2.22491 9.20937
2.03209 2.22491 9.18415
1.97087 2.28613 9.03317
1.95555 2.30145 9.04575
1.95555 2.30145 9.02061
2.00148 2.25552 9.13381
2.00149 2.25551 9.10862
2.0168 2.2402 9.12119
2.0168 2.2402 9.12119
2.01679 2.24021 9.14638
2.00148 2.25552 9.13381
2.03211 2.22489 9.13375
2.01679 2.24021 9.14638
2.0168 2.2402 9.12119
2.03211 2.22489 9.10858
2.03211 2.22489 9.13375
2.0168 2.2402 9.12119
1.86358 2.39342 9.27276
1.86358 2.39342 9.29839
1.84822 2.40878 9.28491
1.84822 2.40878 9.28491
1.86358 2.39342 9.29839
1.84822 2.40878 9.3095
1.84822 2.40878 9.28491
1.84822 2.40878 9.3095
1.83285 2.42415 9.29838
1.83285 2.42415 9.29838
1.83285 2.42415 9.27275
1.84822 2.40878 9.28491
1.81747 2.43953 9.25984
1.83285 2.42415 9.27275
1.81747 2.43953 9.2849
1.80202 2.45498 8.89505
1.80202 2.45498 8.92015
1.7866 2.4704 8.9076
1.70922 2.54778 9.02056
1.69367 2.56333 9.008
1.70922 2.54778 8.99545
1.70924 2.54776 9.07083
1.6937 2.5633 9.08339
1.69369 2.56331 9.05825
1.63134 2.62566 9.23446
1.61564 2.64136 9.22185
1.63132 2.62568 9.20924
1.63135 2.62565 9.25966
1.61565 2.64135 9.24714
1.63134 2.62566 9.23446
1.69376 2.56324 9.18412
1.69378 2.56322 9.20934
1.6782 2.5788 9.19672
1.59983 2.65717 9.13358
1.61554 2.64146 9.12103
1.61557 2.64143 9.1462
1.59973 2.65727 9.03303
1.58397 2.67303 9.04556
1.58396 2.67304 9.02046
1.61564 2.64136 9.32441
1.63134 2.62566 9.3325
1.5999 2.6571 9.3325
1.63134 2.62566 9.30937
1.63134 2.62566 9.3325
1.61564 2.64136 9.32441
1.647 2.61 9.32447
1.63134 2.62566 9.3325
1.63134 2.62566 9.30937
1.59993 2.65707 9.25961
1.59992 2.65708 9.28469
1.58418 2.67282 9.27246
1.84822 2.40878 9.3325
1.81747 2.43953 9.3325
1.83285 2.42415 9.32472
1.83285 2.42415 9.29838
1.84822 2.40878 9.3095
1.83285 2.42415 9.32472
1.83285 2.42415 9.32472
1.84822 2.40878 9.3095
1.84822 2.40878 9.3325
1.81747 2.43953 9.30949
1.81747 2.43953 9.2849
1.83285 2.42415 9.29838
1.83285 2.42415 9.29838
1.83285 2.42415 9.32472
1.81747 2.43953 9.30949
1.81747 2.43953 9.30949
1.83285 2.42415 9.32472
1.81747 2.43953 9.3325
1.70931 2.54769 9.19676
1.69378 2.56322 9.20934
1.69376 2.56324 9.18412
1.7712 2.4858 9.1212
1.78663 2.47037 9.10862
1.78664 2.47036 9.1338
1.78664 2.47036 9.1338
1.77121 2.48579 9.14639
1.7712 2.4858 9.1212
1.77122 2.48578 9.1716
1.77121 2.48579 9.14639
1.78664 2.47036 9.159
1.77122 2.48578 9.1716
1.78664 2.47036 9.159
1.78665 2.47035 9.18421
1.78665 2.47035 9.18421
1.77123 2.48577 9.19682
1.77122 2.48578 9.1716
1.77122 2.48578 9.1716
1.77123 2.48577 9.19682
1.75578 2.50122 9.18419
1.78666 2.47034 9.20943
1.77123 2.48577 9.19682
1.78665 2.47035 9.18421
1.78666 2.47034 9.23464
1.77124 2.48576 9.24734
1.77124 2.48576 9.22206
1.77124 2.48576 9.22206
1.78666 2.47034 9.20943
1.78666 2.47034 9.23464
1.77123 2.48577 9.19682
1.78666 2.47034 9.20943
1.77124 2.48576 9.22206
2.07809 2.17891 8.46738
2.07833 2.17867 8.44116
2.0934 2.1636 8.45645
2.06287 2.19413 8.45573
2.07833 2.17867 8.44116
2.07809 2.17891 8.46738
1.94028 2.31672 8.45548
1.94028 2.31672 8.4325
1.95561 2.30139 8.44021
2.00164 2.25536 8.4325
1.98629 2.27071 8.44017
1.97095 2.28605 8.4325
1.97095 2.28605 8.4325
1.95561 2.30139 8.44021
1.94028 2.31672 8.4325
1.48928 2.76772 8.46897
1.48919 2.76781 8.44286
1.50509 2.75191 8.45645
1.50509 2.75191 8.45645
1.5206 2.7364 8.44101
1.52092 2.73608 8.46745
1.47362 2.78338 8.45782
1.48919 2.76781 8.44286
1.48928 2.76772 8.46897
1.47362 2.78338 8.45782
1.47412 2.78288 8.4325
1.48919 2.76781 8.44286
1.56833 2.68867 8.45567
1.5683 2.6887 8.4325
1.58412 2.67288 8.44063
[...]
<PointData Scalars="View Factor" >
<DataArray type="Float64" Name="View Factor" NumberOfComponents="1" format="ascii">
3.71521e-06
3.71521e-06
3.71521e-06
3.72743e-06
3.72743e-06
3.72743e-06
3.72344e-06
3.72344e-06
3.72344e-06
3.72441e-06
3.72441e-06
3.72441e-06
3.71892e-06
3.71892e-06
3.71892e-06
3.69613e-06
3.69613e-06
3.69613e-06
3.71047e-06
3.71047e-06
3.71047e-06
3.70907e-06
3.70907e-06
3.70907e-06
3.70363e-06
3.70363e-06
3.70363e-06
3.70077e-06
3.70077e-06
3.70077e-06
3.68997e-06
3.68997e-06
3.68997e-06
3.7174e-06
3.7174e-06
3.7174e-06
3.72145e-06
3.72145e-06
3.72145e-06
3.69403e-06
3.69403e-06
3.69403e-06
3.6749e-06
3.6749e-06
3.6749e-06
3.72942e-06
3.72942e-06
3.72942e-06
3.71567e-06
3.71567e-06
3.71567e-06
3.71368e-06
3.71368e-06
3.71368e-06
4.03335e-06
4.03335e-06
4.03335e-06
3.76904e-06
3.76904e-06
3.76904e-06
3.77107e-06
3.77107e-06
3.77107e-06
3.83968e-06
3.83968e-06
3.83968e-06
7.45013e-06
7.45013e-06
7.45013e-06
7.13636e-06
7.13636e-06
7.13636e-06
3.70928e-06
3.70928e-06
3.70928e-06
3.7077e-06
3.7077e-06
3.7077e-06
3.6963e-06
3.6963e-06
3.6963e-06
3.6867e-06
3.6867e-06
3.6867e-06
3.66143e-06
3.66143e-06
3.66143e-06
3.67249e-06
3.67249e-06
3.67249e-06
3.66663e-06
3.66663e-06
3.66663e-06
3.68044e-06
3.68044e-06
3.68044e-06
3.68201e-06
3.68201e-06
3.68201e-06
3.75712e-06
3.75712e-06
3.75712e-06
3.702e-06
3.702e-06
3.702e-06
3.68842e-06
3.68842e-06
3.68842e-06
3.6996e-06
3.6996e-06
3.6996e-06
3.84177e-06
3.84177e-06
3.84177e-06
4.03107e-06
4.03107e-06
4.03107e-06
3.81512e-06
3.81512e-06
3.81512e-06
3.74123e-06
3.74123e-06
3.74123e-06
3.74324e-06
3.74324e-06
3.74324e-06
3.765e-06
3.765e-06
3.765e-06
3.75511e-06
3.75511e-06
3.75511e-06
3.73524e-06
3.73524e-06
3.73524e-06
3.73723e-06
3.73723e-06
3.73723e-06
3.79287e-06
3.79287e-06
3.79287e-06
4.89947e-06
4.89947e-06
4.89947e-06
5.39112e-06
5.39112e-06
5.39112e-06
4.17276e-06
4.17276e-06
4.17276e-06
7.05554e-06
7.05554e-06
7.05554e-06
6.6627e-06
6.6627e-06
6.6627e-06
7.22982e-06
7.22982e-06
7.22982e-06
4.01976e-06
4.01976e-06
4.01976e-06
3.89947e-06
3.89947e-06
3.89947e-06
3.87049e-06
3.87049e-06
3.87049e-06
3.95817e-06
3.95817e-06
3.95817e-06
3.94514e-06
3.94514e-06
3.94514e-06
3.92007e-06
3.92007e-06
3.92007e-06
3.85581e-06
3.85581e-06
3.85581e-06
3.9114e-06
3.9114e-06
3.9114e-06
3.89489e-06
3.89489e-06
3.89489e-06
3.88461e-06
3.88461e-06
3.88461e-06
3.90732e-06
3.90732e-06
3.90732e-06
3.90984e-06
3.90984e-06
3.90984e-06
3.8561e-06
3.8561e-06
3.8561e-06
3.86837e-06
3.86837e-06
3.86837e-06
3.85399e-06
3.85399e-06
3.85399e-06
3.86416e-06
3.86416e-06
3.86416e-06
3.85167e-06
3.85167e-06
3.85167e-06
3.82726e-06
3.82726e-06
3.82726e-06
3.8824e-06
3.8824e-06
3.8824e-06
3.87212e-06
3.87212e-06
3.87212e-06
3.82751e-06
3.82751e-06
3.82751e-06
3.84357e-06
3.84357e-06
3.84357e-06
3.8415e-06
3.8415e-06
3.8415e-06
3.82932e-06
3.82932e-06
3.82932e-06
3.77695e-06
3.77695e-06
3.77695e-06
3.77898e-06
3.77898e-06
3.77898e-06
3.79098e-06
3.79098e-06
3.79098e-06
3.80697e-06
3.80697e-06
3.80697e-06
3.79489e-06
3.79489e-06
3.79489e-06
3.78489e-06
3.78489e-06
3.78489e-06
3.78692e-06
3.78692e-06
3.78692e-06
3.81704e-06
3.81704e-06
3.81704e-06
3.83692e-06
3.83692e-06
3.83692e-06
3.73122e-06
3.73122e-06
3.73122e-06
3.72954e-06
3.72954e-06
3.72954e-06
3.78084e-06
3.78084e-06
3.78084e-06
3.77882e-06
3.77882e-06
3.77882e-06
3.9491e-06
3.9491e-06
3.9491e-06
3.85202e-06
3.85202e-06
3.85202e-06
3.83936e-06
3.83936e-06
3.83936e-06
3.8292e-06
3.8292e-06
3.8292e-06
3.83124e-06
3.83124e-06
3.83124e-06
4.64512e-06
4.64512e-06
4.64512e-06
4.67856e-06
4.67856e-06
4.67856e-06
4.76316e-06
4.76316e-06
4.76316e-06
4.81466e-06
4.81466e-06
4.81466e-06
4.95071e-06
4.95071e-06
4.95071e-06
5.45073e-06
5.45073e-06
5.45073e-06
6.17099e-06
6.17099e-06
6.17099e-06
6.15859e-06
6.15859e-06
6.15859e-06
6.63139e-06
6.63139e-06
6.63139e-06
6.60776e-06
6.60776e-06
6.60776e-06
6.13153e-06
6.13153e-06
6.13153e-06
6.8526e-06
6.8526e-06
6.8526e-06
7.13701e-06
7.13701e-06
7.13701e-06
6.61416e-06
6.61416e-06
6.61416e-06
6.53505e-06
6.53505e-06
6.53505e-06
6.4488e-06
6.4488e-06
6.4488e-06
6.84348e-06
6.84348e-06
6.84348e-06
4.82416e-06
4.82416e-06
4.82416e-06
4.79712e-06
4.79712e-06
4.79712e-06
4.74646e-06
4.74646e-06
4.74646e-06
4.93302e-06
4.93302e-06
4.93302e-06
4.88165e-06
4.88165e-06
4.88165e-06
4.91551e-06
4.91551e-06
4.91551e-06
6.04442e-06
6.04442e-06
6.04442e-06
5.41212e-06
5.41212e-06
5.41212e-06
5.44475e-06
5.44475e-06
5.44475e-06
5.42531e-06
5.42531e-06
5.42531e-06
5.37101e-06
5.37101e-06
5.37101e-06
5.40451e-06
5.40451e-06
5.40451e-06
5.49105e-06
5.49105e-06
5.49105e-06
5.35159e-06
5.35159e-06
5.35159e-06
5.36467e-06
5.36467e-06
5.36467e-06
5.33142e-06
5.33142e-06
5.33142e-06
5.38385e-06
5.38385e-06
5.38385e-06
4.17091e-06
4.17091e-06
4.17091e-06
4.18204e-06
4.18204e-06
4.18204e-06
4.45132e-06
4.45132e-06
4.45132e-06
4.28991e-06
4.28991e-06
4.28991e-06
4.36036e-06
4.36036e-06
4.36036e-06
8.6719e-06
8.6719e-06
8.6719e-06
8.47591e-06
8.47591e-06
8.47591e-06
8.76984e-06
8.76984e-06
8.76984e-06
8.83265e-06
8.83265e-06
8.83265e-06
7.94424e-06
7.94424e-06
7.94424e-06
7.55736e-06
7.55736e-06
7.55736e-06
7.85482e-06
7.85482e-06
7.85482e-06
8.60802e-06
8.60802e-06
8.60802e-06
8.54297e-06
8.54297e-06
8.54297e-06
6.70713e-06
6.70713e-06
6.70713e-06
6.8746e-06
6.8746e-06
6.8746e-06
6.81915e-06
6.81915e-06
6.81915e-06
7.28656e-06
7.28656e-06
7.28656e-06
7.22759e-06
7.22759e-06
7.22759e-06
6.9787e-06
6.9787e-06
6.9787e-06
4.0463e-06
4.0463e-06
4.0463e-06
3.92872e-06
3.92872e-06
3.92872e-06
3.98969e-06
3.98969e-06
3.98969e-06
3.98707e-06
3.98707e-06
3.98707e-06
4.00469e-06
4.00469e-06
4.00469e-06
4.00247e-06
4.00247e-06
4.00247e-06
4.01307e-06
4.01307e-06
4.01307e-06
4.02594e-06
4.02594e-06
4.02594e-06
4.02817e-06
4.02817e-06
4.02817e-06
4.01752e-06
4.01752e-06
4.01752e-06
5.41127e-06
5.41127e-06
5.41127e-06
5.44944e-06
5.44944e-06
5.44944e-06
5.51528e-06
5.51528e-06
5.51528e-06
4.0411e-06
4.0411e-06
4.0411e-06
4.01818e-06
4.01818e-06
4.01818e-06
4.04654e-06
4.04654e-06
4.04654e-06
4.22268e-06
4.22268e-06
4.22268e-06
3.93225e-06
3.93225e-06
3.93225e-06
4.21736e-06
4.21736e-06
4.21736e-06
4.01032e-06
4.01032e-06
4.01032e-06
4.02362e-06
4.02362e-06
4.02362e-06
4.10777e-06
4.10777e-06
4.10777e-06
4.14466e-06
4.14466e-06
4.14466e-06
3.96866e-06
3.96866e-06
3.96866e-06
3.91406e-06
3.91406e-06
3.91406e-06
3.9119e-06
3.9119e-06
3.9119e-06
3.92222e-06
3.92222e-06
3.92222e-06
3.93474e-06
3.93474e-06
3.93474e-06
3.9369e-06
3.9369e-06
3.9369e-06
3.92654e-06
3.92654e-06
3.92654e-06
4.6977e-06
4.6977e-06
4.6977e-06
4.6611e-06
4.6611e-06
4.6611e-06
4.17574e-06
4.17574e-06
4.17574e-06
4.12292e-06
4.12292e-06
4.12292e-06
4.15972e-06
4.15972e-06
4.15972e-06
4.2492e-06
4.2492e-06
4.2492e-06
4.67855e-06
4.67855e-06
4.67855e-06
4.73299e-06
4.73299e-06
4.73299e-06
4.80433e-06
4.80433e-06
4.80433e-06
4.71431e-06
4.71431e-06
4.71431e-06
4.26556e-06
4.26556e-06
4.26556e-06
4.3022e-06
4.3022e-06
4.3022e-06
3.84772e-06
3.84772e-06
3.84772e-06
3.85789e-06
3.85789e-06
3.85789e-06
3.87018e-06
3.87018e-06
3.87018e-06
3.84981e-06
3.84981e-06
3.84981e-06
3.86206e-06
3.86206e-06
3.86206e-06
3.87227e-06
3.87227e-06
3.87227e-06
3.90103e-06
3.90103e-06
3.90103e-06
3.88042e-06
3.88042e-06
3.88042e-06
3.8928e-06
3.8928e-06
3.8928e-06
3.90312e-06
3.90312e-06
3.90312e-06
3.96124e-06
3.96124e-06
3.96124e-06
3.95367e-06
3.95367e-06
3.95367e-06
3.96417e-06
3.96417e-06
3.96417e-06
3.87858e-06
3.87858e-06
3.87858e-06
3.90123e-06
3.90123e-06
3.90123e-06
3.89094e-06
3.89094e-06
3.89094e-06
3.89952e-06
3.89952e-06
3.89952e-06
3.88671e-06
3.88671e-06
3.88671e-06
3.87647e-06
3.87647e-06
3.87647e-06
3.86394e-06
3.86394e-06
3.86394e-06
3.87419e-06
3.87419e-06
3.87419e-06
3.88654e-06
3.88654e-06
3.88654e-06
3.86602e-06
3.86602e-06
3.86602e-06
3.88862e-06
3.88862e-06
3.88862e-06
3.87834e-06
3.87834e-06
3.87834e-06
3.89688e-06
3.89688e-06
3.89688e-06
3.90891e-06
3.90891e-06
3.90891e-06
3.9193e-06
3.9193e-06
3.9193e-06
3.89522e-06
3.89522e-06
3.89522e-06
3.84961e-06
3.84961e-06
3.84961e-06
3.85981e-06
3.85981e-06
3.85981e-06
3.83739e-06
3.83739e-06
3.83739e-06
3.83533e-06
3.83533e-06
3.83533e-06
3.88034e-06
3.88034e-06
3.88034e-06
3.8351e-06
3.8351e-06
3.8351e-06
3.82503e-06
3.82503e-06
3.82503e-06
3.81332e-06
3.81332e-06
3.81332e-06
3.83343e-06
3.83343e-06
3.83343e-06
3.78509e-06
3.78509e-06
3.78509e-06
3.80507e-06
3.80507e-06
3.80507e-06
3.78305e-06
3.78305e-06
3.78305e-06
3.79302e-06
3.79302e-06
3.79302e-06
3.79917e-06
3.79917e-06
3.79917e-06
3.81165e-06
3.81165e-06
3.81165e-06
3.82169e-06
3.82169e-06
3.82169e-06
3.81923e-06
3.81923e-06
3.81923e-06
3.80712e-06
3.80712e-06
3.80712e-06
3.79711e-06
3.79711e-06
3.79711e-06
3.82112e-06
3.82112e-06
3.82112e-06
3.80099e-06
3.80099e-06
3.80099e-06
3.809e-06
3.809e-06
3.809e-06
3.79896e-06
3.79896e-06
3.79896e-06
3.82316e-06
3.82316e-06
3.82316e-06
3.81308e-06
3.81308e-06
3.81308e-06
3.8029e-06
3.8029e-06
3.8029e-06
3.81501e-06
3.81501e-06
3.81501e-06
3.82514e-06
3.82514e-06
3.82514e-06
3.74506e-06
3.74506e-06
3.74506e-06
3.76442e-06
3.76442e-06
3.76442e-06
3.75694e-06
3.75694e-06
3.75694e-06
3.76684e-06
3.76684e-06
3.76684e-06
3.74263e-06
3.74263e-06
3.74263e-06
3.75249e-06
3.75249e-06
3.75249e-06
3.72309e-06
3.72309e-06
3.72309e-06
3.72495e-06
3.72495e-06
3.72495e-06
3.73053e-06
3.73053e-06
3.73053e-06
3.73291e-06
3.73291e-06
3.73291e-06
3.74463e-06
3.74463e-06
3.74463e-06
3.75126e-06
3.75126e-06
3.75126e-06
3.74679e-06
3.74679e-06
3.74679e-06
3.73932e-06
3.73932e-06
3.73932e-06
3.73694e-06
3.73694e-06
3.73694e-06
3.77089e-06
3.77089e-06
3.77089e-06
3.75109e-06
3.75109e-06
3.75109e-06
3.74908e-06
3.74908e-06
3.74908e-06
3.75896e-06
3.75896e-06
3.75896e-06
3.76299e-06
3.76299e-06
3.76299e-06
3.77291e-06
3.77291e-06
3.77291e-06
4.57489e-06
4.57489e-06
4.57489e-06
4.62808e-06
4.62808e-06
4.62808e-06
4.31067e-06
4.31067e-06
4.31067e-06
4.48679e-06
4.48679e-06
4.48679e-06
3.93649e-06
3.93649e-06
3.93649e-06
4.57242e-06
4.57242e-06
4.57242e-06
4.66219e-06
4.66219e-06
4.66219e-06
4.62777e-06
4.62777e-06
4.62777e-06
5.48518e-06
5.48518e-06
5.48518e-06
5.36079e-06
5.36079e-06
5.36079e-06
4.84079e-06
4.84079e-06
4.84079e-06
4.7874e-06
4.7874e-06
4.7874e-06
6.22872e-06
6.22872e-06
6.22872e-06
6.49009e-06
6.49009e-06
6.49009e-06
6.20415e-06
6.20415e-06
6.20415e-06
6.67082e-06
6.67082e-06
6.67082e-06
6.79411e-06
6.79411e-06
6.79411e-06
6.76169e-06
6.76169e-06
6.76169e-06
6.68801e-06
6.68801e-06
6.68801e-06
6.63896e-06
6.63896e-06
6.63896e-06
6.72614e-06
6.72614e-06
6.72614e-06
6.75628e-06
6.75628e-06
6.75628e-06
6.54393e-06
6.54393e-06
6.54393e-06
6.51341e-06
6.51341e-06
6.51341e-06
6.36965e-06
6.36965e-06
6.36965e-06
6.42593e-06
6.42593e-06
6.42593e-06
6.44161e-06
6.44161e-06
6.44161e-06
6.3535e-06
6.3535e-06
6.3535e-06
6.61791e-06
6.61791e-06
6.61791e-06
6.70639e-06
6.70639e-06
6.70639e-06
6.76373e-06
6.76373e-06
6.76373e-06
6.40129e-06
6.40129e-06
6.40129e-06
6.30573e-06
6.30573e-06
6.30573e-06
6.3932e-06
6.3932e-06
6.3932e-06
6.90967e-06
6.90967e-06
6.90967e-06
6.87837e-06
6.87837e-06
6.87837e-06
6.8147e-06
6.8147e-06
6.8147e-06
7.10468e-06
7.10468e-06
7.10468e-06
6.35468e-06
6.35468e-06
6.35468e-06
6.09796e-06
6.09796e-06
6.09796e-06
6.75018e-06
6.75018e-06
6.75018e-06
6.78171e-06
6.78171e-06
6.78171e-06
5.07935e-06
5.07935e-06
5.07935e-06
4.99996e-06
4.99996e-06
4.99996e-06
5.59452e-06
5.59452e-06
5.59452e-06
5.62754e-06
5.62754e-06
5.62754e-06
5.34424e-06
5.34424e-06
5.34424e-06
5.55987e-06
5.55987e-06
5.55987e-06
5.54528e-06
5.54528e-06
5.54528e-06
5.51218e-06
5.51218e-06
5.51218e-06
5.45054e-06
5.45054e-06
5.45054e-06
5.62284e-06
5.62284e-06
5.62284e-06
4.18865e-06
4.18865e-06
4.18865e-06
4.19476e-06
4.19476e-06
4.19476e-06
4.23821e-06
4.23821e-06
4.23821e-06
4.24027e-06
4.24027e-06
4.24027e-06
4.25674e-06
4.25674e-06
4.25674e-06
8.343e-06
8.343e-06
8.343e-06
8.37741e-06
8.37741e-06
8.37741e-06
8.15159e-06
8.15159e-06
8.15159e-06
8.24326e-06
8.24326e-06
8.24326e-06
8.17943e-06
8.17943e-06
8.17943e-06
8.04364e-06
8.04364e-06
8.04364e-06
8.08023e-06
8.08023e-06
8.08023e-06
8.01299e-06
8.01299e-06
8.01299e-06
8.50694e-06
8.50694e-06
8.50694e-06
8.63763e-06
8.63763e-06
8.63763e-06
8.60517e-06
8.60517e-06
8.60517e-06
8.63913e-06
8.63913e-06
8.63913e-06
8.54142e-06
8.54142e-06
8.54142e-06
8.74625e-06
8.74625e-06
8.74625e-06
8.45236e-06
8.45236e-06
8.45236e-06
7.7307e-06
7.7307e-06
7.7307e-06
7.73082e-06
7.73082e-06
7.73082e-06
7.60606e-06
7.60606e-06
7.60606e-06
8.51151e-06
8.51151e-06
8.51151e-06
8.54349e-06
8.54349e-06
8.54349e-06
8.47969e-06
8.47969e-06
8.47969e-06
8.35377e-06
8.35377e-06
8.35377e-06
8.38502e-06
8.38502e-06
8.38502e-06
8.6727e-06
8.6727e-06
8.6727e-06
8.28953e-06
8.28953e-06
8.28953e-06
8.32297e-06
8.32297e-06
8.32297e-06
7.88588e-06
7.88588e-06
7.88588e-06
7.82407e-06
7.82407e-06
7.82407e-06
8.12258e-06
8.12258e-06
8.12258e-06
8.02585e-06
8.02585e-06
8.02585e-06
8.3164e-06
8.3164e-06
8.3164e-06
8.41347e-06
8.41347e-06
8.41347e-06
8.44589e-06
8.44589e-06
8.44589e-06
7.77348e-06
7.77348e-06
7.77348e-06
8.73798e-06
8.73798e-06
8.73798e-06
8.77072e-06
8.77072e-06
8.77072e-06
8.70553e-06
8.70553e-06
8.70553e-06
6.51909e-06
6.51909e-06
6.51909e-06
6.46161e-06
6.46161e-06
6.46161e-06
6.96233e-06
6.96233e-06
6.96233e-06
6.34562e-06
6.34562e-06
6.34562e-06
6.31204e-06
6.31204e-06
6.31204e-06
6.36975e-06
6.36975e-06
6.36975e-06
5.90235e-06
5.90235e-06
5.90235e-06
6.01499e-06
6.01499e-06
6.01499e-06
7.20061e-06
7.20061e-06
7.20061e-06
7.16757e-06
7.16757e-06
7.16757e-06
6.58889e-06
6.58889e-06
6.58889e-06
6.67546e-06
6.67546e-06
6.67546e-06
6.73219e-06
6.73219e-06
6.73219e-06
6.69977e-06
6.69977e-06
6.69977e-06
6.79379e-06
6.79379e-06
6.79379e-06
6.8494e-06
6.8494e-06
6.8494e-06
6.8733e-06
6.8733e-06
6.8733e-06
6.96835e-06
6.96835e-06
6.96835e-06
6.9364e-06
6.9364e-06
6.9364e-06
8.29176e-06
8.29176e-06
8.29176e-06
8.26095e-06
8.26095e-06
8.26095e-06
8.23037e-06
8.23037e-06
8.23037e-06
7.25969e-06
7.25969e-06
7.25969e-06
7.32162e-06
7.32162e-06
7.32162e-06
7.3814e-06
7.3814e-06
7.3814e-06
7.3503e-06
7.3503e-06
7.3503e-06
7.5318e-06
7.5318e-06
7.5318e-06
7.50282e-06
7.50282e-06
7.50282e-06
7.47197e-06
7.47197e-06
7.47197e-06
7.59337e-06
7.59337e-06
7.59337e-06
6.94754e-06
6.94754e-06
6.94754e-06
6.88412e-06
6.88412e-06
6.88412e-06
7.29862e-06
7.29862e-06
7.29862e-06
7.26718e-06
7.26718e-06
7.26718e-06
7.06721e-06
7.06721e-06
7.06721e-06
7.31752e-06
7.31752e-06
7.31752e-06
7.39853e-06
7.39853e-06
7.39853e-06
7.49279e-06
7.49279e-06
7.49279e-06
6.96183e-06
6.96183e-06
6.96183e-06
6.99339e-06
6.99339e-06
6.99339e-06
7.10977e-06
7.10977e-06
7.10977e-06
7.1971e-06
7.1971e-06
7.1971e-06
7.08067e-06
7.08067e-06
7.08067e-06
7.13695e-06
7.13695e-06
7.13695e-06
4.24952e-06
4.24952e-06
4.24952e-06
4.26248e-06
4.26248e-06
4.26248e-06
4.27388e-06
4.27388e-06
4.27388e-06
4.27226e-06
4.27226e-06
4.27226e-06
4.30784e-06
4.30784e-06
4.30784e-06
4.29631e-06
4.29631e-06
4.29631e-06
4.28371e-06
4.28371e-06
4.28371e-06
5.02655e-06
5.02655e-06
5.02655e-06
4.17939e-06
4.17939e-06
4.17939e-06
4.19056e-06
4.19056e-06
4.19056e-06
4.22412e-06
4.22412e-06
4.22412e-06
4.2129e-06
4.2129e-06
4.2129e-06
3.97478e-06
3.97478e-06
3.97478e-06
3.9726e-06
3.9726e-06
3.9726e-06
3.95993e-06
3.95993e-06
3.95993e-06
3.94948e-06
3.94948e-06
3.94948e-06
3.95825e-06
3.95825e-06
3.95825e-06
3.97917e-06
3.97917e-06
3.97917e-06
3.99763e-06
3.99763e-06
3.99763e-06
4.01931e-06
4.01931e-06
4.01931e-06
4.02151e-06
4.02151e-06
4.02151e-06
4.01086e-06
4.01086e-06
4.01086e-06
5.38652e-06
5.38652e-06
5.38652e-06
5.31509e-06
5.31509e-06
5.31509e-06
5.41605e-06
5.41605e-06
5.41605e-06
5.54525e-06
5.54525e-06
5.54525e-06
5.63829e-06
5.63829e-06
5.63829e-06
5.69556e-06
5.69556e-06
5.69556e-06
5.50914e-06
5.50914e-06
5.50914e-06
5.65989e-06
5.65989e-06
5.65989e-06
5.5665e-06
5.5665e-06
5.5665e-06
5.48841e-06
5.48841e-06
5.48841e-06
5.67442e-06
5.67442e-06
5.67442e-06
5.74543e-06
5.74543e-06
5.74543e-06
6.44741e-06
6.44741e-06
6.44741e-06
5.78886e-06
5.78886e-06
5.78886e-06
6.35211e-06
6.35211e-06
6.35211e-06
4.69303e-06
4.69303e-06
4.69303e-06
5.27879e-06
5.27879e-06
5.27879e-06
5.33511e-06
5.33511e-06
5.33511e-06
5.19048e-06
5.19048e-06
5.19048e-06
5.06224e-06
5.06224e-06
5.06224e-06
5.09829e-06
5.09829e-06
5.09829e-06
5.39171e-06
5.39171e-06
5.39171e-06
4.54713e-06
4.54713e-06
4.54713e-06
4.8172e-06
4.8172e-06
4.8172e-06
4.87427e-06
4.87427e-06
4.87427e-06
4.97003e-06
4.97003e-06
4.97003e-06
5.02707e-06
5.02707e-06
5.02707e-06
5.37995e-06
5.37995e-06
5.37995e-06
5.11991e-06
5.11991e-06
5.11991e-06
5.3065e-06
5.3065e-06
5.3065e-06
4.03265e-06
4.03265e-06
4.03265e-06
4.04334e-06
4.04334e-06
4.04334e-06
4.67538e-06
4.67538e-06
4.67538e-06
4.49164e-06
4.49164e-06
4.49164e-06
4.5463e-06
4.5463e-06
4.5463e-06
4.63821e-06
4.63821e-06
4.63821e-06
4.23865e-06
4.23865e-06
4.23865e-06
4.4782e-06
4.4782e-06
4.4782e-06
4.13817e-06
4.13817e-06
4.13817e-06
4.01549e-06
4.01549e-06
4.01549e-06
4.0031e-06
4.0031e-06
4.0031e-06
3.98807e-06
3.98807e-06
3.98807e-06
4.00915e-06
4.00915e-06
4.00915e-06
4.01182e-06
4.01182e-06
4.01182e-06
4.00126e-06
4.00126e-06
4.00126e-06
3.97312e-06
3.97312e-06
3.97312e-06
3.9709e-06
3.9709e-06
3.9709e-06
3.98138e-06
3.98138e-06
3.98138e-06
3.99412e-06
3.99412e-06
3.99412e-06
3.99635e-06
3.99635e-06
3.99635e-06
3.98583e-06
3.98583e-06
3.98583e-06
3.88282e-06
3.88282e-06
3.88282e-06
3.89306e-06
3.89306e-06
3.89306e-06
3.90547e-06
3.90547e-06
3.90547e-06
3.88495e-06
3.88495e-06
3.88495e-06
3.90761e-06
3.90761e-06
3.90761e-06
3.89733e-06
3.89733e-06
3.89733e-06
4.06186e-06
4.06186e-06
4.06186e-06
4.18648e-06
4.18648e-06
4.18648e-06
4.09835e-06
4.09835e-06
4.09835e-06
4.11387e-06
4.11387e-06
4.11387e-06
3.94273e-06
3.94273e-06
3.94273e-06
3.96362e-06
3.96362e-06
3.96362e-06
3.95097e-06
3.95097e-06
3.95097e-06
3.94045e-06
3.94045e-06
3.94045e-06
3.97862e-06
3.97862e-06
3.97862e-06
3.96592e-06
3.96592e-06
3.96592e-06
3.95535e-06
3.95535e-06
3.95535e-06
3.95765e-06
3.95765e-06
3.95765e-06
3.97816e-06
3.97816e-06
3.97816e-06
3.99964e-06
3.99964e-06
3.99964e-06
3.97665e-06
3.97665e-06
3.97665e-06
3.98729e-06
3.98729e-06
3.98729e-06
3.95538e-06
3.95538e-06
3.95538e-06
3.96761e-06
3.96761e-06
3.96761e-06
4.03849e-06
4.03849e-06
4.03849e-06
4.02535e-06
4.02535e-06
4.02535e-06
4.12857e-06
4.12857e-06
4.12857e-06
4.07724e-06
4.07724e-06
4.07724e-06
4.0082e-06
4.0082e-06
4.0082e-06
4.09203e-06
4.09203e-06
4.09203e-06
4.03e-06
4.03e-06
4.03e-06
4.02739e-06
4.02739e-06
4.02739e-06
4.00842e-06
4.00842e-06
4.00842e-06
3.9805e-06
3.9805e-06
3.9805e-06
3.9831e-06
3.9831e-06
3.9831e-06
4.00647e-06
4.00647e-06
4.00647e-06
3.99585e-06
3.99585e-06
3.99585e-06
4.23845e-06
4.23845e-06
4.23845e-06
4.20233e-06
4.20233e-06
4.20233e-06
4.25404e-06
4.25404e-06
4.25404e-06
4.34269e-06
4.34269e-06
4.34269e-06
4.37886e-06
4.37886e-06
4.37886e-06
4.32676e-06
4.32676e-06
4.32676e-06
4.3628e-06
4.3628e-06
4.3628e-06
4.45103e-06
4.45103e-06
4.45103e-06
4.27018e-06
4.27018e-06
4.27018e-06
4.2338e-06
4.2338e-06
4.2338e-06
4.28614e-06
4.28614e-06
4.28614e-06
4.37549e-06
4.37549e-06
4.37549e-06
4.64369e-06
4.64369e-06
4.64369e-06
4.55426e-06
4.55426e-06
4.55426e-06
4.31832e-06
4.31832e-06
4.31832e-06
4.42487e-06
4.42487e-06
4.42487e-06
4.57132e-06
4.57132e-06
4.57132e-06
4.39187e-06
4.39187e-06
4.39187e-06
4.51799e-06
4.51799e-06
4.51799e-06
4.42844e-06
4.42844e-06
4.42844e-06
4.58644e-06
4.58644e-06
4.58644e-06
5.25984e-06
5.25984e-06
5.25984e-06
5.29548e-06
5.29548e-06
5.29548e-06
4.82336e-06
4.82336e-06
4.82336e-06
4.85895e-06
4.85895e-06
4.85895e-06
3.94903e-06
3.94903e-06
3.94903e-06
3.94713e-06
3.94713e-06
3.94713e-06
3.92389e-06
3.92389e-06
3.92389e-06
3.93434e-06
3.93434e-06
3.93434e-06
3.9302e-06
3.9302e-06
3.9302e-06
3.94064e-06
3.94064e-06
3.94064e-06
3.91768e-06
3.91768e-06
3.91768e-06
3.93853e-06
3.93853e-06
3.93853e-06
3.91558e-06
3.91558e-06
3.91558e-06
3.92599e-06
3.92599e-06
3.92599e-06
3.87581e-06
3.87581e-06
3.87581e-06
3.85735e-06
3.85735e-06
3.85735e-06
3.86758e-06
3.86758e-06
3.86758e-06
3.84551e-06
3.84551e-06
3.84551e-06
3.86553e-06
3.86553e-06
3.86553e-06
3.84386e-06
3.84386e-06
3.84386e-06