<VTKFile type="UnstructuredGrid" version="1.0">
<UnstructuredGrid>
<Piece NumberOfPoints="8859" NumberOfCells="2953">
<Points>
<DataArray type="Float64" NumberOfComponents="3" format="ascii">
2.04744 2.20956 3.00263
2.06275 2.19425 3.01458
2.04754 2.20946 3.02833
2.07804 2.17896 2.95167
2.07805 2.17895 2.92651
2.0934 2.1636 2.93898
2.06271 2.19429 2.96436
2.07804 2.17896 2.95167
2.07804 2.17896 2.97686
2.01701 2.23999 3.05488
2.03242 2.22458 3.0625
2.00164 2.25536 3.0625
2.01701 2.23999 3.05488
2.03232 2.22468 3.03957
2.03242 2.22458 3.0625
2.04777 2.20923 3.05479
2.06326 2.19374 3.0625
2.03242 2.22458 3.0625
2.04777 2.20923 3.05479
2.03232 2.22468 3.03957
2.04754 2.20946 3.02833
2.03242 2.22458 3.0625
2.03232 2.22468 3.03957
2.04777 2.20923 3.05479
2.04754 2.20946 3.02833
2.06275 2.19425 3.01458
2.06287 2.19413 3.03927
2.06287 2.19413 3.03927
2.04777 2.20923 3.05479
2.04754 2.20946 3.02833
2.06326 2.19374 3.0625
2.04777 2.20923 3.05479
2.06287 2.19413 3.03927
2.06275 2.19425 3.01458
2.04744 2.20956 3.00263
2.06271 2.19429 2.98952
2.06271 2.19429 2.96436
2.07804 2.17896 2.97686
2.06271 2.19429 2.98952
2.07809 2.17891 3.02762
2.06287 2.19413 3.03927
2.06275 2.19425 3.01458
2.0934 2.1636 3.01395
2.0934 2.1636 3.03855
2.07809 2.17891 3.02762
2.0934 2.1636 2.91387
2.0934 2.1636 2.93898
2.07805 2.17895 2.92651
2.07804 2.17896 2.95167
2.0934 2.1636 2.93898
2.0934 2.1636 2.96406
2.0934 2.1636 2.96406
2.07804 2.17896 2.97686
2.07804 2.17896 2.95167
2.0934 2.1636 2.38652
2.0934 2.1636 2.41165
2.07807 2.17893 2.39907
2.07807 2.17893 2.85107
2.0934 2.1636 2.86361
2.07806 2.17894 2.87621
2.0934 2.1636 2.83848
2.0934 2.1636 2.86361
2.07807 2.17893 2.85107
2.07808 2.17892 2.72544
2.0934 2.1636 2.73799
2.07808 2.17892 2.75055
1.61564 2.64136 2.17059
1.63134 2.62566 2.1625
1.63134 2.62566 2.18563
1.5683 2.6887 3.0625
1.53648 2.72052 3.0625
1.55243 2.70457 3.05432
2.07804 2.17896 3.00212
2.06271 2.19429 2.98952
2.07804 2.17896 2.97686
2.06275 2.19425 3.01458
2.06271 2.19429 2.98952
2.07804 2.17896 3.00212
2.07804 2.17896 3.00212
2.07809 2.17891 3.02762
2.06275 2.19425 3.01458
2.0934 2.1636 3.01395
2.07809 2.17891 3.02762
2.07804 2.17896 3.00212
2.07833 2.17867 3.05384
2.0934 2.1636 3.03855
2.0934 2.1636 3.0625
2.07833 2.17867 3.05384
2.07809 2.17891 3.02762
2.0934 2.1636 3.03855
2.0934 2.1636 3.0625
2.06326 2.19374 3.0625
2.07833 2.17867 3.05384
2.06326 2.19374 3.0625
2.06287 2.19413 3.03927
2.07833 2.17867 3.05384
2.06287 2.19413 3.03927
2.07809 2.17891 3.02762
2.07833 2.17867 3.05384
2.07806 2.17894 2.87621
2.0934 2.1636 2.86361
2.0934 2.1636 2.88875
2.07804 2.17896 2.97686
2.0934 2.1636 2.96406
2.0934 2.1636 2.98907
2.0934 2.1636 3.01395
2.07804 2.17896 3.00212
2.0934 2.1636 2.98907
2.0934 2.1636 2.98907
2.07804 2.17896 3.00212
2.07804 2.17896 2.97686
2.0934 2.1636 2.71288
2.0934 2.1636 2.73799
2.07808 2.17892 2.72544
2.07807 2.17893 2.39907
2.0934 2.1636 2.41165
2.07807 2.17893 2.4242
2.06275 2.19425 2.83853
2.04743 2.20957 2.82598
2.06275 2.19425 2.81338
2.07806 2.17894 2.90136
2.0934 2.1636 2.91387
2.07805 2.17895 2.92651
2.07806 2.17894 2.90136
2.0934 2.1636 2.88875
2.0934 2.1636 2.91387
2.07806 2.17894 2.90136
2.06273 2.19427 2.88884
2.07806 2.17894 2.87621
2.07806 2.17894 2.87621
2.0934 2.1636 2.88875
2.07806 2.17894 2.90136
2.06271 2.19429 2.93918
2.07804 2.17896 2.95167
2.06271 2.19429 2.96436
2.06271 2.19429 2.93918
2.07805 2.17895 2.92651
2.07804 2.17896 2.95167
2.04741 2.20959 2.90149
2.03209 2.22491 2.91415
2.0321 2.2249 2.88894
1.83285 2.42415 3.02838
1.81747 2.43953 3.0149
1.83285 2.42415 3.00275
1.78664 2.47036 2.8638
1.78664 2.47036 2.889
1.77121 2.48579 2.87639
2.0934 2.1636 2.1625
2.0934 2.1636 2.18645
2.07833 2.17867 2.17116
1.56833 2.68867 3.03933
1.5683 2.6887 3.0625
1.55243 2.70457 3.05432
1.63134 2.62566 2.96446
1.61565 2.64135 2.97714
1.61564 2.64136 2.95185
1.55243 2.70457 3.05432
1.53648 2.72052 3.0625
1.53664 2.72036 3.03923
2.06276 2.19424 2.487
2.04745 2.20955 2.47443
2.06276 2.19424 2.46188
2.0934 2.1636 2.63759
2.07808 2.17892 2.62505
2.0934 2.1636 2.6125
2.07808 2.17892 2.67524
2.0934 2.1636 2.66269
2.0934 2.1636 2.68778
2.06277 2.19423 2.58741
2.04745 2.20955 2.59995
2.04745 2.20955 2.57486
2.06277 2.19423 2.6125
2.04745 2.20955 2.59995
2.06277 2.19423 2.58741
2.07808 2.17892 2.62505
2.06277 2.19423 2.63759
2.06277 2.19423 2.6125
2.04745 2.20955 2.75057
2.06276 2.19424 2.76312
2.04744 2.20956 2.7757
2.01682 2.24018 2.72547
2.01682 2.24018 2.75059
2.0015 2.2555 2.73803
2.04745 2.20955 2.72545
2.03214 2.22486 2.7129
2.04745 2.20955 2.70035
2.04745 2.20955 2.70035
2.06277 2.19423 2.71289
2.04745 2.20955 2.72545
2.03214 2.22486 2.7129
2.03214 2.22486 2.6878
2.04745 2.20955 2.70035
2.04745 2.20955 2.70035
2.03214 2.22486 2.6878
2.04745 2.20955 2.67524
2.0934 2.1636 2.68778
2.0934 2.1636 2.71288
2.07808 2.17892 2.70034
2.07808 2.17892 2.70034
2.07808 2.17892 2.67524
2.0934 2.1636 2.68778
2.07808 2.17892 2.70034
2.0934 2.1636 2.71288
2.07808 2.17892 2.72544
2.07808 2.17892 2.72544
2.06277 2.19423 2.71289
2.07808 2.17892 2.70034
2.04744 2.20956 2.80083
2.03213 2.22487 2.78828
2.04744 2.20956 2.7757
2.04744 2.20956 2.80083
2.06275 2.19425 2.81338
2.04743 2.20957 2.82598
2.0015 2.2555 2.7883
2.01681 2.24019 2.77572
2.01681 2.24019 2.80086
2.01681 2.24019 2.80086
2.01681 2.24019 2.77572
2.03213 2.22487 2.78828
2.0934 2.1636 2.7631
2.07808 2.17892 2.75055
2.0934 2.1636 2.73799
2.04744 2.20956 2.7757
2.06276 2.19424 2.76312
2.06276 2.19424 2.78825
2.06276 2.19424 2.78825
2.04744 2.20956 2.80083
2.04744 2.20956 2.7757
2.06275 2.19425 2.81338
2.04744 2.20956 2.80083
2.06276 2.19424 2.78825
2.07806 2.17894 2.87621
2.06273 2.19427 2.88884
2.06274 2.19426 2.86368
2.06274 2.19426 2.86368
2.07807 2.17893 2.85107
2.07806 2.17894 2.87621
2.06275 2.19425 2.83853
2.07807 2.17893 2.85107
2.06274 2.19426 2.86368
2.0321 2.2249 2.88894
2.03211 2.22489 2.86375
2.04742 2.20958 2.8763
2.04742 2.20958 2.8763
2.04741 2.20959 2.90149
2.0321 2.2249 2.88894
2.06273 2.19427 2.88884
2.04741 2.20959 2.90149
2.04742 2.20958 2.8763
2.04742 2.20958 2.8763
2.06274 2.19426 2.86368
2.06273 2.19427 2.88884
2.01679 2.24021 2.87638
2.03211 2.22489 2.86375
2.0321 2.2249 2.88894
2.01679 2.24021 2.87638
2.00148 2.25552 2.88901
2.00148 2.25552 2.86381
2.06271 2.19429 2.96436
2.06271 2.19429 2.98952
2.04741 2.20959 2.97722
2.04741 2.20959 2.97722
2.06271 2.19429 2.98952
2.04744 2.20956 3.00263
2.03209 2.22491 2.91415
2.04741 2.20959 2.90149
2.0474 2.2096 2.92669
2.0474 2.2096 2.92669
2.03209 2.22491 2.93937
2.03209 2.22491 2.91415
1.97087 2.28613 2.76317
1.95555 2.30145 2.77575
1.95555 2.30145 2.75061
2.00148 2.25552 2.86381
2.00149 2.25551 2.83862
2.0168 2.2402 2.85119
2.0168 2.2402 2.85119
2.01679 2.24021 2.87638
2.00148 2.25552 2.86381
2.03211 2.22489 2.86375
2.01679 2.24021 2.87638
2.0168 2.2402 2.85119
2.03211 2.22489 2.83858
2.03211 2.22489 2.86375
2.0168 2.2402 2.85119
1.86358 2.39342 3.00276
1.86358 2.39342 3.02839
1.84822 2.40878 3.01491
1.84822 2.40878 3.01491
1.86358 2.39342 3.02839
1.84822 2.40878 3.0395
1.84822 2.40878 3.01491
1.84822 2.40878 3.0395
1.83285 2.42415 3.02838
1.83285 2.42415 3.02838
1.83285 2.42415 3.00275
1.84822 2.40878 3.01491
1.81747 2.43953 2.98984
1.83285 2.42415 3.00275
1.81747 2.43953 3.0149
1.80202 2.45498 2.62505
1.80202 2.45498 2.65015
1.7866 2.4704 2.6376
1.70922 2.54778 2.75056
1.69367 2.56333 2.738
1.70922 2.54778 2.72545
1.70924 2.54776 2.80083
1.6937 2.5633 2.81339
1.69369 2.56331 2.78825
1.63134 2.62566 2.96446
1.61564 2.64136 2.95185
1.63132 2.62568 2.93924
1.63135 2.62565 2.98966
1.61565 2.64135 2.97714
1.63134 2.62566 2.96446
1.69376 2.56324 2.91412
1.69378 2.56322 2.93934
1.6782 2.5788 2.92672
1.59983 2.65717 2.86358
1.61554 2.64146 2.85103
1.61557 2.64143 2.8762
1.59973 2.65727 2.76303
1.58397 2.67303 2.77556
1.58396 2.67304 2.75046
1.61564 2.64136 3.05441
1.63134 2.62566 3.0625
1.5999 2.6571 3.0625
1.63134 2.62566 3.03937
1.63134 2.62566 3.0625
1.61564 2.64136 3.05441
1.647 2.61 3.05447
1.63134 2.62566 3.0625
1.63134 2.62566 3.03937
1.59993 2.65707 2.98961
1.59992 2.65708 3.01469
1.58418 2.67282 3.00246
1.84822 2.40878 3.0625
1.81747 2.43953 3.0625
1.83285 2.42415 3.05472
1.83285 2.42415 3.02838
1.84822 2.40878 3.0395
1.83285 2.42415 3.05472
1.83285 2.42415 3.05472
1.84822 2.40878 3.0395
1.84822 2.40878 3.0625
1.81747 2.43953 3.03949
1.81747 2.43953 3.0149
1.83285 2.42415 3.02838
1.83285 2.42415 3.02838
1.83285 2.42415 3.05472
1.81747 2.43953 3.03949
1.81747 2.43953 3.03949
1.83285 2.42415 3.05472
1.81747 2.43953 3.0625
1.70931 2.54769 2.92676
1.69378 2.56322 2.93934
1.69376 2.56324 2.91412
1.7712 2.4858 2.8512
1.78663 2.47037 2.83862
1.78664 2.47036 2.8638
1.78664 2.47036 2.8638
1.77121 2.48579 2.87639
1.7712 2.4858 2.8512
1.77122 2.48578 2.9016
1.77121 2.48579 2.87639
1.78664 2.47036 2.889
1.77122 2.48578 2.9016
1.78664 2.47036 2.889
1.78665 2.47035 2.91421
1.78665 2.47035 2.91421
1.77123 2.48577 2.92682
1.77122 2.48578 2.9016
1.77122 2.48578 2.9016
1.77123 2.48577 2.92682
1.75578 2.50122 2.91419
1.78666 2.47034 2.93943
1.77123 2.48577 2.92682
1.78665 2.47035 2.91421
1.78666 2.47034 2.96464
1.77124 2.48576 2.97734
1.77124 2.48576 2.95206
1.77124 2.48576 2.95206
1.78666 2.47034 2.93943
1.78666 2.47034 2.96464
1.77123 2.48577 2.92682
1.78666 2.47034 2.93943
1.77124 2.48576 2.95206
2.07809 2.17891 2.19738
2.07833 2.17867 2.17116
2.0934 2.1636 2.18645
2.06287 2.19413 2.18573
2.07833 2.17867 2.17116
2.07809 2.17891 2.19738
1.94028 2.31672 2.18548
1.94028 2.31672 2.1625
1.95561 2.30139 2.17021
2.00164 2.25536 2.1625
1.98629 2.27071 2.17017
1.97095 2.28605 2.1625
1.97095 2.28605 2.1625
1.95561 2.30139 2.17021
1.94028 2.31672 2.1625
1.48928 2.76772 2.19897
1.48919 2.76781 2.17286
1.50509 2.75191 2.18645
1.50509 2.75191 2.18645
1.5206 2.7364 2.17101
1.52092 2.73608 2.19745
1.47362 2.78338 2.18782
1.48919 2.76781 2.17286
1.48928 2.76772 2.19897
1.47362 2.78338 2.18782
1.47412 2.78288 2.1625
1.48919 2.76781 2.17286
1.56833 2.68867 2.18567
1.5683 2.6887 2.1625
1.58412 2.67288 2.17063
[...]
<PointData Scalars="View Factor" >
<DataArray type="Float64" Name="View Factor" NumberOfComponents="1" format="ascii">
0.000372309
0.000372309
0.000372309
0.000381482
0.000381482
0.000381482
0.000378386
0.000378386
0.000378386
0.000369478
0.000369478
0.000369478
0.000369384
0.000369384
0.000369384
0.000365532
0.000365532
0.000365532
0.000369291
0.000369291
0.000369291
0.000368055
0.000368055
0.000368055
0.000369637
0.000369637
0.000369637
0.000368028
0.000368028
0.000368028
0.000365528
0.000365528
0.000365528
0.000373844
0.000373844
0.000373844
0.000376863
0.000376863
0.000376863
0.00036844
0.00036844
0.00036844
0.000366147
0.000366147
0.000366147
0.000383053
0.000383053
0.000383053
0.00037873
0.00037873
0.00037873
0.000377178
0.000377178
0.000377178
0.000489675
0.000489675
0.000489675
0.000394766
0.000394766
0.000394766
0.000396404
0.000396404
0.000396404
0.000418185
0.000418185
0.000418185
0.0010225
0.0010225
0.0010225
0.000734311
0.000734311
0.000734311
0.000374102
0.000374102
0.000374102
0.000372618
0.000372618
0.000372618
0.000369899
0.000369899
0.000369899
0.000368742
0.000368742
0.000368742
0.000362079
0.000362079
0.000362079
0.00036454
0.00036454
0.00036454
0.000361921
0.000361921
0.000361921
0.000364358
0.000364358
0.000364358
0.000365675
0.000365675
0.000365675
0.00039189
0.00039189
0.00039189
0.000374471
0.000374471
0.000374471
0.000370277
0.000370277
0.000370277
0.000372919
0.000372919
0.000372919
0.000419946
0.000419946
0.000419946
0.00048753
0.00048753
0.00048753
0.000404968
0.000404968
0.000404968
0.000385848
0.000385848
0.000385848
0.00038744
0.00038744
0.00038744
0.000391541
0.000391541
0.000391541
0.000390275
0.000390275
0.000390275
0.000381166
0.000381166
0.000381166
0.000382711
0.000382711
0.000382711
0.000394011
0.000394011
0.000394011
0.000501879
0.000501879
0.000501879
0.000578741
0.000578741
0.000578741
0.000546345
0.000546345
0.000546345
0.00072741
0.00072741
0.00072741
0.000703584
0.000703584
0.000703584
0.000746258
0.000746258
0.000746258
0.000477171
0.000477171
0.000477171
0.000440011
0.000440011
0.000440011
0.000429835
0.000429835
0.000429835
0.000453161
0.000453161
0.000453161
0.000449694
0.000449694
0.000449694
0.000442914
0.000442914
0.000442914
0.000417553
0.000417553
0.000417553
0.000428689
0.000428689
0.000428689
0.000428885
0.000428885
0.000428885
0.000427364
0.000427364
0.000427364
0.000432173
0.000432173
0.000432173
0.000433929
0.000433929
0.000433929
0.000424856
0.000424856
0.000424856
0.000428022
0.000428022
0.000428022
0.000423069
0.000423069
0.000423069
0.000424456
0.000424456
0.000424456
0.000414211
0.000414211
0.000414211
0.000408013
0.000408013
0.000408013
0.000418846
0.000418846
0.000418846
0.000417259
0.000417259
0.000417259
0.000415105
0.000415105
0.000415105
0.000414424
0.000414424
0.000414424
0.00041275
0.00041275
0.00041275
0.000409663
0.000409663
0.000409663
0.000394438
0.000394438
0.000394438
0.000396048
0.000396048
0.000396048
0.000398987
0.000398987
0.000398987
0.000398556
0.000398556
0.000398556
0.00039557
0.00039557
0.00039557
0.000394187
0.000394187
0.000394187
0.000395771
0.000395771
0.000395771
0.000400008
0.000400008
0.000400008
0.00040302
0.00040302
0.00040302
0.000378114
0.000378114
0.000378114
0.000376604
0.000376604
0.000376604
0.000391066
0.000391066
0.000391066
0.000389527
0.000389527
0.000389527
0.000432422
0.000432422
0.000432422
0.000407716
0.000407716
0.000407716
0.000404583
0.000404583
0.000404583
0.00040306
0.00040306
0.00040306
0.000404635
0.000404635
0.000404635
0.000474631
0.000474631
0.000474631
0.000476494
0.000476494
0.000476494
0.000485518
0.000485518
0.000485518
0.000492784
0.000492784
0.000492784
0.000509381
0.000509381
0.000509381
0.00063075
0.00063075
0.00063075
0.000696358
0.000696358
0.000696358
0.000681311
0.000681311
0.000681311
0.000702827
0.000702827
0.000702827
0.000694742
0.000694742
0.000694742
0.000652308
0.000652308
0.000652308
0.000747468
0.000747468
0.000747468
0.000804987
0.000804987
0.000804987
0.000678229
0.000678229
0.000678229
0.000671304
0.000671304
0.000671304
0.000662018
0.000662018
0.000662018
0.000715322
0.000715322
0.000715322
0.000487352
0.000487352
0.000487352
0.000487128
0.000487128
0.000487128
0.000480145
0.000480145
0.000480145
0.000503625
0.000503625
0.000503625
0.00049612
0.00049612
0.00049612
0.000498043
0.000498043
0.000498043
0.000642579
0.000642579
0.000642579
0.000585557
0.000585557
0.000585557
0.000587054
0.000587054
0.000587054
0.000580281
0.000580281
0.000580281
0.000572042
0.000572042
0.000572042
0.000573552
0.000573552
0.000573552
0.000583196
0.000583196
0.000583196
0.000565458
0.000565458
0.000565458
0.000560421
0.000560421
0.000560421
0.000558939
0.000558939
0.000558939
0.000566919
0.000566919
0.000566919
0.000544127
0.000544127
0.000544127
0.000546019
0.000546019
0.000546019
0.000593215
0.000593215
0.000593215
0.000569725
0.000569725
0.000569725
0.000581987
0.000581987
0.000581987
0.00119487
0.00119487
0.00119487
0.00116688
0.00116688
0.00116688
0.00120889
0.00120889
0.00120889
0.00122323
0.00122323
0.00122323
0.00109435
0.00109435
0.00109435
0.00104085
0.00104085
0.00104085
0.00108417
0.00108417
0.00108417
0.00112138
0.00112138
0.00112138
0.00110788
0.00110788
0.00110788
0.000689896
0.000689896
0.000689896
0.000715904
0.000715904
0.000715904
0.000707183
0.000707183
0.000707183
0.000825978
0.000825978
0.000825978
0.000815723
0.000815723
0.000815723
0.000750081
0.000750081
0.000750081
0.000493439
0.000493439
0.000493439
0.000450484
0.000450484
0.000450484
0.000465935
0.000465935
0.000465935
0.00046398
0.00046398
0.00046398
0.000471511
0.000471511
0.000471511
0.00046954
0.00046954
0.00046954
0.000471235
0.000471235
0.000471235
0.000474923
0.000474923
0.000474923
0.000476888
0.000476888
0.000476888
0.00047517
0.00047517
0.00047517
0.000728874
0.000728874
0.000728874
0.000731545
0.000731545
0.000731545
0.000745487
0.000745487
0.000745487
0.000480631
0.000480631
0.000480631
0.000483822
0.000483822
0.000483822
0.00044711
0.00044711
0.00044711
0.000467476
0.000467476
0.000467476
0.000432082
0.000432082
0.000432082
0.00047613
0.00047613
0.00047613
0.000454858
0.000454858
0.000454858
0.000458547
0.000458547
0.000458547
0.000468637
0.000468637
0.000468637
0.000471181
0.000471181
0.000471181
0.000454788
0.000454788
0.000454788
0.000445209
0.000445209
0.000445209
0.000443313
0.000443313
0.000443313
0.000444774
0.000444774
0.000444774
0.000448151
0.000448151
0.000448151
0.000450039
0.000450039
0.000450039
0.000448559
0.000448559
0.000448559
0.000541562
0.000541562
0.000541562
0.000539313
0.000539313
0.000539313
0.00048246
0.00048246
0.00048246
0.000474202
0.000474202
0.000474202
0.000476764
0.000476764
0.000476764
0.000487512
0.000487512
0.000487512
0.000545764
0.000545764
0.000545764
0.000554604
0.000554604
0.000554604
0.000558998
0.000558998
0.000558998
0.000548
0.000548
0.000548
0.00049334
0.00049334
0.00049334
0.000495829
0.000495829
0.000495829
0.000417826
0.000417826
0.000417826
0.000419251
0.000419251
0.000419251
0.000422424
0.000422424
0.000422424
0.000419554
0.000419554
0.000419554
0.000422702
0.000422702
0.000422702
0.000424147
0.000424147
0.000424147
0.000427057
0.000427057
0.000427057
0.000423925
0.000423925
0.000423925
0.000427168
0.000427168
0.000427168
0.000428745
0.000428745
0.000428745
0.000442285
0.000442285
0.000442285
0.000442262
0.000442262
0.000442262
0.000444016
0.000444016
0.000444016
0.000429427
0.000429427
0.000429427
0.000434148
0.000434148
0.000434148
0.000432664
0.000432664
0.000432664
0.000432389
0.000432389
0.000432389
0.000429111
0.000429111
0.000429111
0.000427648
0.000427648
0.000427648
0.000417365
0.000417365
0.000417365
0.0004189
0.0004189
0.0004189
0.000422124
0.000422124
0.000422124
0.000419034
0.000419034
0.000419034
0.000423788
0.000423788
0.000423788
0.000422232
0.000422232
0.000422232
0.000423735
0.000423735
0.000423735
0.000427016
0.000427016
0.000427016
0.000428699
0.000428699
0.000428699
0.000422111
0.000422111
0.000422111
0.000412565
0.000412565
0.000412565
0.000414079
0.000414079
0.000414079
0.000409454
0.000409454
0.000409454
0.000407831
0.000407831
0.000407831
0.000417232
0.000417232
0.000417232
0.000414707
0.000414707
0.000414707
0.000413356
0.000413356
0.000413356
0.000410332
0.000410332
0.000410332
0.000413016
0.000413016
0.000413016
0.000400981
0.000400981
0.000400981
0.000403598
0.000403598
0.000403598
0.000399319
0.000399319
0.000399319
0.000400619
0.000400619
0.000400619
0.000405624
0.000405624
0.000405624
0.000408635
0.000408635
0.000408635
0.000409968
0.000409968
0.000409968
0.000408275
0.000408275
0.000408275
0.000405254
0.000405254
0.000405254
0.000403937
0.000403937
0.000403937
0.000403162
0.000403162
0.000403162
0.000400338
0.000400338
0.000400338
0.000400135
0.000400135
0.000400135
0.000398733
0.000398733
0.000398733
0.000404762
0.000404762
0.000404762
0.000403341
0.000403341
0.000403341
0.000395443
0.000395443
0.000395443
0.000398453
0.000398453
0.000398453
0.000399957
0.000399957
0.000399957
0.000382439
0.000382439
0.000382439
0.000385089
0.000385089
0.000385089
0.000385278
0.000385278
0.000385278
0.00038662
0.00038662
0.00038662
0.000380897
0.000380897
0.000380897
0.000382218
0.000382218
0.000382218
0.00037218
0.00037218
0.00037218
0.000373588
0.000373588
0.000373588
0.000371968
0.000371968
0.000371968
0.000373516
0.000373516
0.000373516
0.000376274
0.000376274
0.000376274
0.000380745
0.000380745
0.000380745
0.000377773
0.000377773
0.000377773
0.000377902
0.000377902
0.000377902
0.000376422
0.000376422
0.000376422
0.000389703
0.000389703
0.000389703
0.000387095
0.000387095
0.000387095
0.000385529
0.000385529
0.000385529
0.000386823
0.000386823
0.000386823
0.000389953
0.000389953
0.000389953
0.000391267
0.000391267
0.000391267
0.000508409
0.000508409
0.000508409
0.000516587
0.000516587
0.000516587
0.000477681
0.000477681
0.000477681
0.000498149
0.000498149
0.000498149
0.000429
0.000429
0.000429
0.000460713
0.000460713
0.000460713
0.000471227
0.000471227
0.000471227
0.000469178
0.000469178
0.000469178
0.000632451
0.000632451
0.000632451
0.000619803
0.000619803
0.000619803
0.000561172
0.000561172
0.000561172
0.000552427
0.000552427
0.000552427
0.000705886
0.000705886
0.000705886
0.000714306
0.000714306
0.000714306
0.00069754
0.00069754
0.00069754
0.000767821
0.000767821
0.000767821
0.000779682
0.000779682
0.000779682
0.000778832
0.000778832
0.000778832
0.000711842
0.000711842
0.000711842
0.000695489
0.000695489
0.000695489
0.00070507
0.00070507
0.00070507
0.00070577
0.00070577
0.00070577
0.000693102
0.000693102
0.000693102
0.000692295
0.000692295
0.000692295
0.000673714
0.000673714
0.000673714
0.000682538
0.000682538
0.000682538
0.00069773
0.00069773
0.00069773
0.000687707
0.000687707
0.000687707
0.000717831
0.000717831
0.000717831
0.000727915
0.000727915
0.000727915
0.000737292
0.000737292
0.000737292
0.000704036
0.000704036
0.000704036
0.000671809
0.000671809
0.000671809
0.000681598
0.000681598
0.000681598
0.000756988
0.000756988
0.000756988
0.00075631
0.00075631
0.00075631
0.000754849
0.000754849
0.000754849
0.000804364
0.000804364
0.000804364
0.00065045
0.00065045
0.00065045
0.000622891
0.000622891
0.000622891
0.000713279
0.000713279
0.000713279
0.000713994
0.000713994
0.000713994
0.000514222
0.000514222
0.000514222
0.000507009
0.000507009
0.000507009
0.000618275
0.000618275
0.000618275
0.000619735
0.000619735
0.000619735
0.000582394
0.000582394
0.000582394
0.000568612
0.000568612
0.000568612
0.000591475
0.000591475
0.000591475
0.000590041
0.000590041
0.000590041
0.000569836
0.000569836
0.000569836
0.000588731
0.000588731
0.000588731
0.000550286
0.000550286
0.000550286
0.000550065
0.000550065
0.000550065
0.000556352
0.000556352
0.000556352
0.000558381
0.000558381
0.000558381
0.000562717
0.000562717
0.000562717
0.00115234
0.00115234
0.00115234
0.00115267
0.00115267
0.00115267
0.0011277
0.0011277
0.0011277
0.00113784
0.00113784
0.00113784
0.001124
0.001124
0.001124
0.00110882
0.00110882
0.00110882
0.00110962
0.00110962
0.00110962
0.00109502
0.00109502
0.00109502
0.00116598
0.00116598
0.00116598
0.00117956
0.00117956
0.00117956
0.00117996
0.00117996
0.00117996
0.00119521
0.00119521
0.00119521
0.00118122
0.00118122
0.00118122
0.00121424
0.00121424
0.00121424
0.00117155
0.00117155
0.00117155
0.00101452
0.00101452
0.00101452
0.000922284
0.000922284
0.000922284
0.000988798
0.000988798
0.000988798
0.00104121
0.00104121
0.00104121
0.00105394
0.00105394
0.00105394
0.00104144
0.00104144
0.00104144
0.00102942
0.00102942
0.00102942
0.00102926
0.00102926
0.00102926
0.00110678
0.00110678
0.00110678
0.00102962
0.00102962
0.00102962
0.000980483
0.000980483
0.000980483
0.000945516
0.000945516
0.000945516
0.000933973
0.000933973
0.000933973
0.00105516
0.00105516
0.00105516
0.00104195
0.00104195
0.00104195
0.00108161
0.00108161
0.00108161
0.00109485
0.00109485
0.00109485
0.00109469
0.00109469
0.00109469
0.00099079
0.00099079
0.00099079
0.00113433
0.00113433
0.00113433
0.00114838
0.00114838
0.00114838
0.00113468
0.00113468
0.00113468
0.00078019
0.00078019
0.00078019
0.000769762
0.000769762
0.000769762
0.000819471
0.000819471
0.000819471
0.000749175
0.000749175
0.000749175
0.000747973
0.000747973
0.000747973
0.000758233
0.000758233
0.000758233
0.000685833
0.000685833
0.000685833
0.00070527
0.00070527
0.00070527
0.000862812
0.000862812
0.000862812
0.000862135
0.000862135
0.000862135
0.000679478
0.000679478
0.000679478
0.000688837
0.000688837
0.000688837
0.000697736
0.000697736
0.000697736
0.000696887
0.000696887
0.000696887
0.000699239
0.000699239
0.000699239
0.00070763
0.00070763
0.00070763
0.000706131
0.000706131
0.000706131
0.000718001
0.000718001
0.000718001
0.000717046
0.000717046
0.000717046
0.000957208
0.000957208
0.000957208
0.000945904
0.000945904
0.000945904
0.000946006
0.000946006
0.000946006
0.000816264
0.000816264
0.000816264
0.000817202
0.000817202
0.000817202
0.000827397
0.000827397
0.000827397
0.000826964
0.000826964
0.000826964
0.000848411
0.000848411
0.000848411
0.000838408
0.000838408
0.000838408
0.000838056
0.000838056
0.000838056
0.000849027
0.000849027
0.000849027
0.000749474
0.000749474
0.000749474
0.000748155
0.000748155
0.000748155
0.000798622
0.000798622
0.000798622
0.000798159
0.000798159
0.000798159
0.000760067
0.000760067
0.000760067
0.000755751
0.000755751
0.000755751
0.000762615
0.000762615
0.000762615
0.000774702
0.000774702
0.000774702
0.000725425
0.000725425
0.000725425
0.000726124
0.000726124
0.000726124
0.000735908
0.000735908
0.000735908
0.000745376
0.000745376
0.000745376
0.000735621
0.000735621
0.000735621
0.000744531
0.000744531
0.000744531
0.000558578
0.000558578
0.000558578
0.000562851
0.000562851
0.000562851
0.000565187
0.000565187
0.000565187
0.000563218
0.000563218
0.000563218
0.000572563
0.000572563
0.000572563
0.000570035
0.000570035
0.000570035
0.000565635
0.000565635
0.000565635
0.000633189
0.000633189
0.000633189
0.000543475
0.000543475
0.000543475
0.00054545
0.00054545
0.00054545
0.000551648
0.000551648
0.000551648
0.000549525
0.000549525
0.000549525
0.000460442
0.000460442
0.000460442
0.000458532
0.000458532
0.000458532
0.000455029
0.000455029
0.000455029
0.000453464
0.000453464
0.000453464
0.000461268
0.000461268
0.000461268
0.000464328
0.000464328
0.000464328
0.00046565
0.00046565
0.00046565
0.000469159
0.000469159
0.000469159
0.000471059
0.000471059
0.000471059
0.0004693
0.0004693
0.0004693
0.000640586
0.000640586
0.000640586
0.000636786
0.000636786
0.000636786
0.000676609
0.000676609
0.000676609
0.000690791
0.000690791
0.000690791
0.000703025
0.000703025
0.000703025
0.000713501
0.000713501
0.000713501
0.000688881
0.000688881
0.000688881
0.000711695
0.000711695
0.000711695
0.000699308
0.000699308
0.000699308
0.000680518
0.000680518
0.000680518
0.000704843
0.000704843
0.000704843
0.000708337
0.000708337
0.000708337
0.000840986
0.000840986
0.000840986
0.000725843
0.000725843
0.000725843
0.000827847
0.000827847
0.000827847
0.000574706
0.000574706
0.000574706
0.000634818
0.000634818
0.000634818
0.000644511
0.000644511
0.000644511
0.000636424
0.000636424
0.000636424
0.000622364
0.000622364
0.000622364
0.000624522
0.000624522
0.000624522
0.00072001
0.00072001
0.00072001
0.000606666
0.000606666
0.000606666
0.000639319
0.000639319
0.000639319
0.000650257
0.000650257
0.000650257
0.000663742
0.000663742
0.000663742
0.000674316
0.000674316
0.000674316
0.000674606
0.000674606
0.000674606
0.00064559
0.00064559
0.00064559
0.00067045
0.00067045
0.00067045
0.000480884
0.000480884
0.000480884
0.000482626
0.000482626
0.000482626
0.000567788
0.000567788
0.000567788
0.000544382
0.000544382
0.000544382
0.00055357
0.00055357
0.00055357
0.00056534
0.00056534
0.00056534
0.000506042
0.000506042
0.000506042
0.000527562
0.000527562
0.000527562
0.000479854
0.000479854
0.000479854
0.000481695
0.000481695
0.000481695
0.000478057
0.000478057
0.000478057
0.000472376
0.000472376
0.000472376
0.00047552
0.00047552
0.00047552
0.000477574
0.000477574
0.000477574
0.000475993
0.000475993
0.000475993
0.00046678
0.00046678
0.00046678
0.000464765
0.000464765
0.000464765
0.000466305
0.000466305
0.000466305
0.000469882
0.000469882
0.000469882
0.00047189
0.00047189
0.00047189
0.000470329
0.000470329
0.000470329
0.000433046
0.000433046
0.000433046
0.00043447
0.00043447
0.00043447
0.000437752
0.000437752
0.000437752
0.000434886
0.000434886
0.000434886
0.000439585
0.000439585
0.000439585
0.000438143
0.000438143
0.000438143
0.000452381
0.000452381
0.000452381
0.000465094
0.000465094
0.000465094
0.000454853
0.000454853
0.000454853
0.000460224
0.000460224
0.000460224
0.000433845
0.000433845
0.000433845
0.000437492
0.000437492
0.000437492
0.000434022
0.000434022
0.000434022
0.000432207
0.000432207
0.000432207
0.000442648
0.000442648
0.000442648
0.000439128
0.000439128
0.000439128
0.000437288
0.000437288
0.000437288
0.000438948
0.000438948
0.000438948
0.000449231
0.000449231
0.000449231
0.00045294
0.00045294
0.00045294
0.000447522
0.000447522
0.000447522
0.000449363
0.000449363
0.000449363
0.000443981
0.000443981
0.000443981
0.000447452
0.000447452
0.000447452
0.000463994
0.000463994
0.000463994
0.000460259
0.000460259
0.000460259
0.00046564
0.00046564
0.00046564
0.000457728
0.000457728
0.000457728
0.000453158
0.000453158
0.000453158
0.000463126
0.000463126
0.000463126
0.00047098
0.00047098
0.00047098
0.000469099
0.000469099
0.000469099
0.000459962
0.000459962
0.000459962
0.000458287
0.000458287
0.000458287
0.000460178
0.000460178
0.000460178
0.000465495
0.000465495
0.000465495
0.000463759
0.000463759
0.000463759
0.000472986
0.000472986
0.000472986
0.000470588
0.000470588
0.000470588
0.000478565
0.000478565
0.000478565
0.000489019
0.000489019
0.000489019
0.000491355
0.000491355
0.000491355
0.000483314
0.000483314
0.000483314
0.000485628
0.000485628
0.000485628
0.000495924
0.000495924
0.000495924
0.000484243
0.000484243
0.000484243
0.000481799
0.000481799
0.000481799
0.000489993
0.000489993
0.000489993
0.000500705
0.000500705
0.000500705
0.000532951
0.000532951
0.000532951
0.000522184
0.000522184
0.000522184
0.00050175
0.00050175
0.00050175
0.000518868
0.000518868
0.000518868
0.000528412
0.000528412
0.000528412
0.000506671
0.000506671
0.000506671
0.000519877
0.000519877
0.000519877
0.000509072
0.000509072
0.000509072
0.000545279
0.000545279
0.000545279
0.000627255
0.000627255
0.000627255
0.00062919
0.00062919
0.00062919
0.000565737
0.000565737
0.000565737
0.000567896
0.000567896
0.000567896
0.000438836
0.000438836
0.000438836
0.000437162
0.000437162
0.000437162
0.00043203
0.00043203
0.00043203
0.000433739
0.000433739
0.000433739
0.000437133
0.000437133
0.000437133
0.00043881
0.00043881
0.00043881
0.000433772
0.000433772
0.000433772
0.000437102
0.000437102
0.000437102
0.00043206
0.00043206
0.00043206
0.000433714
0.000433714
0.000433714
0.000414038
0.000414038
0.000414038
0.000412448
0.000412448
0.000412448
0.000414012
0.000414012
0.000414012
0.000409326
0.000409326
0.000409326
0.00041242
0.00041242
0.00041242
0.000407743
0.000407743
0.000407743
0.000409287
0.000409287
0.000409287
0.000372172
0.000372172
0.000372172
0.000373361
0.000373361
0.000373361