<VTKFile type="UnstructuredGrid" version="1.0">
<UnstructuredGrid>
<Piece NumberOfPoints="8859" NumberOfCells="2953">
<Points>
<DataArray type="Float64" NumberOfComponents="3" format="ascii">
2.75455 1.50245 0.912625
2.76986 1.48714 0.924584
2.75465 1.50235 0.938328
2.78515 1.47185 0.861673
2.78516 1.47184 0.836515
2.8005 1.4565 0.84898
2.76981 1.48719 0.874362
2.78515 1.47185 0.861673
2.78514 1.47186 0.886856
2.72412 1.53288 0.96488
2.73952 1.51748 0.9725
2.70875 1.54825 0.9725
2.72412 1.53288 0.96488
2.73943 1.51757 0.949569
2.73952 1.51748 0.9725
2.75488 1.50212 0.964788
2.77036 1.48664 0.9725
2.73952 1.51748 0.9725
2.75488 1.50212 0.964788
2.73943 1.51757 0.949569
2.75465 1.50235 0.938328
2.73952 1.51748 0.9725
2.73943 1.51757 0.949569
2.75488 1.50212 0.964788
2.75465 1.50235 0.938328
2.76986 1.48714 0.924584
2.76997 1.48703 0.94927
2.76997 1.48703 0.94927
2.75488 1.50212 0.964788
2.75465 1.50235 0.938328
2.77036 1.48664 0.9725
2.75488 1.50212 0.964788
2.76997 1.48703 0.94927
2.76986 1.48714 0.924584
2.75455 1.50245 0.912625
2.76982 1.48718 0.899521
2.76981 1.48719 0.874362
2.78514 1.47186 0.886856
2.76982 1.48718 0.899521
2.7852 1.4718 0.937625
2.76997 1.48703 0.94927
2.76986 1.48714 0.924584
2.8005 1.4565 0.923949
2.8005 1.4565 0.948552
2.7852 1.4718 0.937625
2.8005 1.4565 0.823871
2.8005 1.4565 0.84898
2.78516 1.47184 0.836515
2.78515 1.47185 0.861673
2.8005 1.4565 0.84898
2.8005 1.4565 0.874055
2.8005 1.4565 0.874055
2.78514 1.47186 0.886856
2.78515 1.47185 0.861673
2.8005 1.4565 0.29652
2.8005 1.4565 0.321651
2.78518 1.47182 0.309069
2.78517 1.47183 0.76107
2.8005 1.4565 0.773613
2.78517 1.47183 0.786215
2.8005 1.4565 0.74848
2.8005 1.4565 0.773613
2.78517 1.47183 0.76107
2.78519 1.47181 0.635442
2.8005 1.4565 0.647992
2.78519 1.47181 0.660554
2.32274 1.93426 0.0805869
2.33845 1.91855 0.0725
2.33845 1.91855 0.095634
2.27541 1.98159 0.9725
2.24359 2.01341 0.9725
2.25954 1.99746 0.964321
2.78515 1.47185 0.912117
2.76982 1.48718 0.899521
2.78514 1.47186 0.886856
2.76986 1.48714 0.924584
2.76982 1.48718 0.899521
2.78515 1.47185 0.912117
2.78515 1.47185 0.912117
2.7852 1.4718 0.937625
2.76986 1.48714 0.924584
2.8005 1.4565 0.923949
2.7852 1.4718 0.937625
2.78515 1.47185 0.912117
2.78544 1.47156 0.963839
2.8005 1.4565 0.948552
2.8005 1.4565 0.9725
2.78544 1.47156 0.963839
2.7852 1.4718 0.937625
2.8005 1.4565 0.948552
2.8005 1.4565 0.9725
2.77036 1.48664 0.9725
2.78544 1.47156 0.963839
2.77036 1.48664 0.9725
2.76997 1.48703 0.94927
2.78544 1.47156 0.963839
2.76997 1.48703 0.94927
2.7852 1.4718 0.937625
2.78544 1.47156 0.963839
2.78517 1.47183 0.786215
2.8005 1.4565 0.773613
2.8005 1.4565 0.798745
2.78514 1.47186 0.886856
2.8005 1.4565 0.874055
2.8005 1.4565 0.899067
2.8005 1.4565 0.923949
2.78515 1.47185 0.912117
2.8005 1.4565 0.899067
2.8005 1.4565 0.899067
2.78515 1.47185 0.912117
2.78514 1.47186 0.886856
2.8005 1.4565 0.622885
2.8005 1.4565 0.647992
2.78519 1.47181 0.635442
2.78518 1.47182 0.309069
2.8005 1.4565 0.321651
2.78518 1.47182 0.334202
2.76985 1.48715 0.748526
2.75454 1.50246 0.735977
2.76986 1.48714 0.723383
2.78516 1.47184 0.811363
2.8005 1.4565 0.823871
2.78516 1.47184 0.836515
2.78516 1.47184 0.811363
2.8005 1.4565 0.798745
2.8005 1.4565 0.823871
2.78516 1.47184 0.811363
2.76984 1.48716 0.798839
2.78517 1.47183 0.786215
2.78517 1.47183 0.786215
2.8005 1.4565 0.798745
2.78516 1.47184 0.811363
2.76982 1.48718 0.849184
2.78515 1.47185 0.861673
2.76981 1.48719 0.874362
2.76982 1.48718 0.849184
2.78516 1.47184 0.836515
2.78515 1.47185 0.861673
2.75451 1.50249 0.81149
2.7392 1.5178 0.824146
2.73921 1.51779 0.798941
2.53996 1.71704 0.938376
2.52458 1.73242 0.924896
2.53996 1.71704 0.91275
2.49374 1.76326 0.773805
2.49375 1.76325 0.799
2.47832 1.77868 0.786392
2.8005 1.4565 0.0725
2.8005 1.4565 0.096448
2.78544 1.47156 0.0811606
2.27543 1.98157 0.949328
2.27541 1.98159 0.9725
2.25954 1.99746 0.964321
2.33845 1.91855 0.874462
2.32276 1.93424 0.88714
2.32275 1.93425 0.861854
2.25954 1.99746 0.964321
2.24359 2.01341 0.9725
2.24374 2.01326 0.949228
2.76987 1.48713 0.396996
2.75455 1.50245 0.384429
2.76987 1.48713 0.371878
2.8005 1.4565 0.547592
2.78519 1.47181 0.535047
2.8005 1.4565 0.5225
2.78519 1.47181 0.585237
2.8005 1.4565 0.572686
2.8005 1.4565 0.597784
2.76988 1.48712 0.497406
2.75456 1.50244 0.509952
2.75456 1.50244 0.484856
2.76988 1.48712 0.5225
2.75456 1.50244 0.509952
2.76988 1.48712 0.497406
2.78519 1.47181 0.535047
2.76988 1.48712 0.547594
2.76988 1.48712 0.5225
2.75455 1.50245 0.660571
2.76987 1.48713 0.673122
2.75455 1.50245 0.685697
2.72393 1.53307 0.635467
2.72392 1.53308 0.660589
2.70861 1.54839 0.648033
2.75456 1.50244 0.635455
2.73924 1.51776 0.622905
2.75456 1.50244 0.610346
2.75456 1.50244 0.610346
2.76987 1.48713 0.622894
2.75456 1.50244 0.635455
2.73924 1.51776 0.622905
2.73925 1.51775 0.597797
2.75456 1.50244 0.610346
2.75456 1.50244 0.610346
2.73925 1.51775 0.597797
2.75456 1.50244 0.585242
2.8005 1.4565 0.597784
2.8005 1.4565 0.622885
2.78519 1.47181 0.610337
2.78519 1.47181 0.610337
2.78519 1.47181 0.585237
2.8005 1.4565 0.597784
2.78519 1.47181 0.610337
2.8005 1.4565 0.622885
2.78519 1.47181 0.635442
2.78519 1.47181 0.635442
2.76987 1.48713 0.622894
2.78519 1.47181 0.610337
2.75454 1.50246 0.710831
2.73923 1.51777 0.698277
2.75455 1.50245 0.685697
2.75454 1.50246 0.710831
2.76986 1.48714 0.723383
2.75454 1.50246 0.735977
2.7086 1.5484 0.698302
2.72392 1.53308 0.68572
2.72392 1.53308 0.710864
2.72392 1.53308 0.710864
2.72392 1.53308 0.68572
2.73923 1.51777 0.698277
2.8005 1.4565 0.673105
2.78519 1.47181 0.660554
2.8005 1.4565 0.647992
2.75455 1.50245 0.685697
2.76987 1.48713 0.673122
2.76986 1.48714 0.698248
2.76986 1.48714 0.698248
2.75454 1.50246 0.710831
2.75455 1.50245 0.685697
2.76986 1.48714 0.723383
2.75454 1.50246 0.710831
2.76986 1.48714 0.698248
2.78517 1.47183 0.786215
2.76984 1.48716 0.798839
2.76985 1.48715 0.773678
2.76985 1.48715 0.773678
2.78517 1.47183 0.76107
2.78517 1.47183 0.786215
2.76985 1.48715 0.748526
2.78517 1.47183 0.76107
2.76985 1.48715 0.773678
2.73921 1.51779 0.798941
2.73921 1.51779 0.773753
2.75452 1.50248 0.786304
2.75452 1.50248 0.786304
2.75451 1.50249 0.81149
2.73921 1.51779 0.798941
2.76984 1.48716 0.798839
2.75451 1.50249 0.81149
2.75452 1.50248 0.786304
2.75452 1.50248 0.786304
2.76985 1.48715 0.773678
2.76984 1.48716 0.798839
2.7239 1.5331 0.786381
2.73921 1.51779 0.773753
2.73921 1.51779 0.798941
2.7239 1.5331 0.786381
2.70859 1.54841 0.799009
2.70859 1.54841 0.773807
2.76981 1.48719 0.874362
2.76982 1.48718 0.899521
2.75451 1.50249 0.887217
2.75451 1.50249 0.887217
2.76982 1.48718 0.899521
2.75455 1.50245 0.912625
2.7392 1.5178 0.824146
2.75451 1.50249 0.81149
2.75451 1.50249 0.836694
2.75451 1.50249 0.836694
2.7392 1.5178 0.849368
2.7392 1.5178 0.824146
2.67798 1.57902 0.673174
2.66266 1.59434 0.685749
2.66266 1.59434 0.660611
2.70859 1.54841 0.773807
2.70859 1.54841 0.748623
2.7239 1.5331 0.761192
2.7239 1.5331 0.761192
2.7239 1.5331 0.786381
2.70859 1.54841 0.773807
2.73921 1.51779 0.773753
2.7239 1.5331 0.786381
2.7239 1.5331 0.761192
2.73922 1.51778 0.748581
2.73921 1.51779 0.773753
2.7239 1.5331 0.761192
2.57068 1.68632 0.912763
2.57068 1.68632 0.93839
2.55533 1.70167 0.924907
2.55533 1.70167 0.924907
2.57068 1.68632 0.93839
2.55533 1.70167 0.949497
2.55533 1.70167 0.924907
2.55533 1.70167 0.949497
2.53996 1.71704 0.938376
2.53996 1.71704 0.938376
2.53996 1.71704 0.91275
2.55533 1.70167 0.924907
2.52458 1.73242 0.899845
2.53996 1.71704 0.91275
2.52458 1.73242 0.924896
2.50912 1.74788 0.53505
2.50912 1.74788 0.56015
2.49371 1.76329 0.547599
2.41633 1.84067 0.660564
2.40077 1.85623 0.647996
2.41632 1.84068 0.635447
2.41635 1.84065 0.710832
2.40081 1.85619 0.723393
2.40079 1.85621 0.698249
2.33845 1.91855 0.874462
2.32275 1.93425 0.861854
2.33843 1.91857 0.849241
2.33845 1.91855 0.899657
2.32276 1.93424 0.88714
2.33845 1.91855 0.874462
2.40087 1.85613 0.824121
2.40088 1.85612 0.849338
2.38531 1.87169 0.836717
2.30693 1.95007 0.773576
2.32265 1.93435 0.761025
2.32267 1.93433 0.786199
2.30684 1.95016 0.67303
2.29108 1.96592 0.685563
2.29106 1.96594 0.660458
2.32274 1.93426 0.964413
2.33845 1.91855 0.9725
2.30701 1.94999 0.9725
2.33845 1.91855 0.949366
2.33845 1.91855 0.9725
2.32274 1.93426 0.964413
2.35411 1.90289 0.964474
2.33845 1.91855 0.9725
2.33845 1.91855 0.949366
2.30704 1.94996 0.89961
2.30703 1.94997 0.924693
2.29128 1.96572 0.912459
2.55533 1.70167 0.9725
2.52458 1.73242 0.9725
2.53996 1.71704 0.964721
2.53996 1.71704 0.938376
2.55533 1.70167 0.949497
2.53996 1.71704 0.964721
2.53996 1.71704 0.964721
2.55533 1.70167 0.949497
2.55533 1.70167 0.9725
2.52458 1.73242 0.949489
2.52458 1.73242 0.924896
2.53996 1.71704 0.938376
2.53996 1.71704 0.938376
2.53996 1.71704 0.964721
2.52458 1.73242 0.949489
2.52458 1.73242 0.949489
2.53996 1.71704 0.964721
2.52458 1.73242 0.9725
2.41642 1.84058 0.836759
2.40088 1.85612 0.849338
2.40087 1.85613 0.824121
2.47831 1.77869 0.761204
2.49374 1.76326 0.748624
2.49374 1.76326 0.773805
2.49374 1.76326 0.773805
2.47832 1.77868 0.786392
2.47831 1.77869 0.761204
2.47833 1.77867 0.811596
2.47832 1.77868 0.786392
2.49375 1.76325 0.799
2.47833 1.77867 0.811596
2.49375 1.76325 0.799
2.49376 1.76324 0.824208
2.49376 1.76324 0.824208
2.47834 1.77866 0.836818
2.47833 1.77867 0.811596
2.47833 1.77867 0.811596
2.47834 1.77866 0.836818
2.46289 1.79411 0.824187
2.49377 1.76323 0.849427
2.47834 1.77866 0.836818
2.49376 1.76324 0.824208
2.49377 1.76323 0.874644
2.47835 1.77865 0.887342
2.47834 1.77866 0.862061
2.47834 1.77866 0.862061
2.49377 1.76323 0.849427
2.49377 1.76323 0.874644
2.47834 1.77866 0.836818
2.49377 1.76323 0.849427
2.47834 1.77866 0.862061
2.7852 1.4718 0.107375
2.78544 1.47156 0.0811606
2.8005 1.4565 0.096448
2.76997 1.48703 0.0957297
2.78544 1.47156 0.0811606
2.7852 1.4718 0.107375
2.64739 1.60961 0.0954754
2.64738 1.60962 0.0725
2.66272 1.59428 0.0802084
2.70875 1.54825 0.0725
2.6934 1.5636 0.0801683
2.67805 1.57895 0.0725
2.67805 1.57895 0.0725
2.66272 1.59428 0.0802084
[...]
<PointData Scalars="View Factor" >
<DataArray type="Float64" Name="View Factor" NumberOfComponents="1" format="ascii">
0.000127171
0.000127171
0.000127171
0.00013536
0.00013536
0.00013536
0.000132587
0.000132587
0.000132587
0.00011969
0.00011969
0.00011969
0.000121627
0.000121627
0.000121627
0.000124628
0.000124628
0.000124628
0.000124521
0.000124521
0.000124521
0.000123276
0.000123276
0.000123276
0.000127514
0.000127514
0.000127514
0.000126169
0.000126169
0.000126169
0.00012656
0.00012656
0.00012656
0.000128513
0.000128513
0.000128513
0.000131225
0.000131225
0.000131225
0.000129174
0.000129174
0.000129174
0.000132499
0.000132499
0.000132499
0.000136759
0.000136759
0.000136759
0.000135675
0.000135675
0.000135675
0.000134283
0.000134283
0.000134283
0.000162221
0.000162221
0.000162221
0.000138645
0.000138645
0.000138645
0.000140079
0.000140079
0.000140079
0.000144334
0.000144334
0.000144334
9.66825e-05
9.66825e-05
9.66825e-05
7.37672e-05
7.37672e-05
7.37672e-05
0.000131543
0.000131543
0.000131543
0.000130187
0.000130187
0.000130187
0.000130501
0.000130501
0.000130501
0.000132173
0.000132173
0.000132173
0.000131478
0.000131478
0.000131478
0.000131138
0.000131138
0.000131138
0.000129526
0.000129526
0.000129526
0.00012821
0.00012821
0.00012821
0.000129485
0.000129485
0.000129485
0.000138961
0.000138961
0.000138961
0.000134603
0.000134603
0.000134603
0.000133543
0.000133543
0.000133543
0.000133228
0.000133228
0.000133228
0.000145835
0.000145835
0.000145835
0.000160533
0.000160533
0.000160533
0.0001359
0.0001359
0.0001359
0.000136448
0.000136448
0.000136448
0.000137854
0.000137854
0.000137854
0.000135802
0.000135802
0.000135802
0.000137536
0.000137536
0.000137536
0.000132266
0.000132266
0.000132266
0.000133652
0.000133652
0.000133652
0.000129229
0.000129229
0.000129229
9.06994e-05
9.06994e-05
9.06994e-05
8.69706e-05
8.69706e-05
8.69706e-05
0.000174928
0.000174928
0.000174928
7.3782e-05
7.3782e-05
7.3782e-05
7.49852e-05
7.49852e-05
7.49852e-05
7.4113e-05
7.4113e-05
7.4113e-05
0.000152302
0.000152302
0.000152302
0.000150647
0.000150647
0.000150647
0.000148217
0.000148217
0.000148217
0.000145823
0.000145823
0.000145823
0.000146176
0.000146176
0.000146176
0.00014688
0.00014688
0.00014688
0.00013777
0.00013777
0.00013777
0.000131629
0.000131629
0.000131629
0.000138184
0.000138184
0.000138184
0.000140015
0.000140015
0.000140015
0.000137822
0.000137822
0.000137822
0.000139308
0.000139308
0.000139308
0.00014702
0.00014702
0.00014702
0.000146697
0.000146697
0.000146697
0.00014551
0.00014551
0.00014551
0.000143678
0.000143678
0.000143678
0.00013488
0.00013488
0.00013488
0.000135564
0.000135564
0.000135564
0.000129515
0.000129515
0.000129515
0.000131301
0.000131301
0.000131301
0.000144661
0.000144661
0.000144661
0.000138116
0.000138116
0.000138116
0.000136667
0.000136667
0.000136667
0.000137008
0.000137008
0.000137008
0.000135477
0.000135477
0.000135477
0.000136898
0.000136898
0.000136898
0.000136575
0.000136575
0.000136575
0.000130262
0.000130262
0.000130262
0.000130606
0.000130606
0.000130606
0.000132337
0.000132337
0.000132337
0.000133738
0.000133738
0.000133738
0.000128526
0.000128526
0.000128526
0.000125061
0.000125061
0.000125061
0.000129538
0.000129538
0.000129538
0.000128177
0.000128177
0.000128177
0.000129568
0.000129568
0.000129568
0.000128196
0.000128196
0.000128196
0.000121573
0.000121573
0.000121573
0.000126066
0.000126066
0.000126066
0.000126435
0.000126435
0.000126435
0.000128177
0.000128177
0.000128177
0.000129568
0.000129568
0.000129568
9.56664e-05
9.56664e-05
9.56664e-05
9.44704e-05
9.44704e-05
9.44704e-05
9.28218e-05
9.28218e-05
9.28218e-05
9.23538e-05
9.23538e-05
9.23538e-05
9.02392e-05
9.02392e-05
9.02392e-05
9.66676e-05
9.66676e-05
9.66676e-05
7.94956e-05
7.94956e-05
7.94956e-05
7.79742e-05
7.79742e-05
7.79742e-05
7.52121e-05
7.52121e-05
7.52121e-05
7.46212e-05
7.46212e-05
7.46212e-05
7.50432e-05
7.50432e-05
7.50432e-05
7.7541e-05
7.7541e-05
7.7541e-05
8.03604e-05
8.03604e-05
8.03604e-05
7.28574e-05
7.28574e-05
7.28574e-05
7.28952e-05
7.28952e-05
7.28952e-05
7.27613e-05
7.27613e-05
7.27613e-05
7.44652e-05
7.44652e-05
7.44652e-05
9.02659e-05
9.02659e-05
9.02659e-05
9.16162e-05
9.16162e-05
9.16162e-05
9.21108e-05
9.21108e-05
9.21108e-05
8.95254e-05
8.95254e-05
8.95254e-05
8.99749e-05
8.99749e-05
8.99749e-05
8.88399e-05
8.88399e-05
8.88399e-05
7.49302e-05
7.49302e-05
7.49302e-05
8.76639e-05
8.76639e-05
8.76639e-05
8.64509e-05
8.64509e-05
8.64509e-05
8.57655e-05
8.57655e-05
8.57655e-05
8.62835e-05
8.62835e-05
8.62835e-05
8.5084e-05
8.5084e-05
8.5084e-05
8.3374e-05
8.3374e-05
8.3374e-05
8.55961e-05
8.55961e-05
8.55961e-05
8.37416e-05
8.37416e-05
8.37416e-05
8.49216e-05
8.49216e-05
8.49216e-05
8.44089e-05
8.44089e-05
8.44089e-05
0.000173149
0.000173149
0.000173149
0.000170986
0.000170986
0.000170986
0.000144294
0.000144294
0.000144294
0.000153454
0.000153454
0.000153454
0.000146851
0.000146851
0.000146851
9.8795e-05
9.8795e-05
9.8795e-05
9.83654e-05
9.83654e-05
9.83654e-05
9.90213e-05
9.90213e-05
9.90213e-05
9.95389e-05
9.95389e-05
9.95389e-05
9.75887e-05
9.75887e-05
9.75887e-05
9.71014e-05
9.71014e-05
9.71014e-05
9.7639e-05
9.7639e-05
9.7639e-05
9.39824e-05
9.39824e-05
9.39824e-05
9.34847e-05
9.34847e-05
9.34847e-05
7.31763e-05
7.31763e-05
7.31763e-05
7.42438e-05
7.42438e-05
7.42438e-05
7.38862e-05
7.38862e-05
7.38862e-05
8.09269e-05
8.09269e-05
8.09269e-05
8.05241e-05
8.05241e-05
8.05241e-05
7.66229e-05
7.66229e-05
7.66229e-05
0.000161876
0.000161876
0.000161876
0.000153126
0.000153126
0.000153126
0.000149813
0.000149813
0.000149813
0.00014823
0.00014823
0.00014823
0.000151049
0.000151049
0.000151049
0.000149452
0.000149452
0.000149452
0.000147496
0.000147496
0.000147496
0.000147118
0.000147118
0.000147118
0.000148718
0.000148718
0.000148718
0.00015069
0.00015069
0.00015069
0.000122453
0.000122453
0.000122453
0.000120904
0.000120904
0.000120904
0.000120571
0.000120571
0.000120571
0.000148335
0.000148335
0.000148335
0.000160881
0.000160881
0.000160881
0.000120748
0.000120748
0.000120748
0.000117122
0.000117122
0.000117122
0.000128
0.000128
0.000128
0.00012044
0.00012044
0.00012044
0.000127015
0.000127015
0.000127015
0.000126589
0.000126589
0.000126589
0.000124717
0.000124717
0.000124717
0.000123279
0.000123279
0.000123279
0.000143916
0.000143916
0.000143916
0.00015188
0.00015188
0.00015188
0.000150316
0.000150316
0.000150316
0.000148423
0.000148423
0.000148423
0.000148075
0.000148075
0.000148075
0.000149639
0.000149639
0.000149639
0.000151547
0.000151547
0.000151547
0.000113012
0.000113012
0.000113012
0.000114418
0.000114418
0.000114418
0.0001253
0.0001253
0.0001253
0.000125738
0.000125738
0.000125738
0.000124291
0.000124291
0.000124291
0.000122411
0.000122411
0.000122411
0.000115353
0.000115353
0.000115353
0.000114864
0.000114864
0.000114864
0.000112047
0.000112047
0.000112047
0.00011394
0.00011394
0.00011394
0.000123405
0.000123405
0.000123405
0.000121963
0.000121963
0.000121963
0.000141038
0.000141038
0.000141038
0.000139228
0.000139228
0.000139228
0.000138883
0.000138883
0.000138883
0.000142517
0.000142517
0.000142517
0.000142186
0.000142186
0.000142186
0.000140361
0.000140361
0.000140361
0.000133443
0.000133443
0.000133443
0.000137068
0.000137068
0.000137068
0.000136718
0.000136718
0.000136718
0.000134895
0.000134895
0.000134895
0.000130088
0.000130088
0.000130088
0.000133386
0.000133386
0.000133386
0.000131535
0.000131535
0.000131535
0.00014485
0.00014485
0.00014485
0.000142658
0.000142658
0.000142658
0.000144512
0.000144512
0.000144512
0.000141154
0.000141154
0.000141154
0.000141502
0.000141502
0.000141502
0.000143341
0.000143341
0.000143341
0.000134521
0.000134521
0.000134521
0.000132727
0.000132727
0.000132727
0.000132367
0.000132367
0.000132367
0.000135969
0.000135969
0.000135969
0.000133809
0.000133809
0.000133809
0.000135618
0.000135618
0.000135618
0.000130567
0.000130567
0.000130567
0.000130191
0.000130191
0.000130191
0.000128384
0.000128384
0.000128384
0.000129142
0.000129142
0.000129142
0.000133445
0.000133445
0.000133445
0.000131665
0.000131665
0.000131665
0.000133792
0.000133792
0.000133792
0.000132372
0.000132372
0.000132372
0.000128112
0.000128112
0.000128112
0.000141381
0.000141381
0.000141381
0.000143184
0.000143184
0.000143184
0.000143499
0.000143499
0.000143499
0.000139911
0.000139911
0.000139911
0.000141208
0.000141208
0.000141208
0.000137666
0.000137666
0.000137666
0.000139762
0.000139762
0.000139762
0.000138001
0.000138001
0.000138001
0.000142347
0.000142347
0.000142347
0.00014202
0.00014202
0.00014202
0.000140232
0.000140232
0.000140232
0.000138789
0.000138789
0.000138789
0.000139119
0.000139119
0.000139119
0.000140893
0.000140893
0.000140893
0.000131319
0.000131319
0.000131319
0.000134823
0.000134823
0.000134823
0.000131662
0.000131662
0.000131662
0.000133406
0.000133406
0.000133406
0.000132727
0.000132727
0.000132727
0.000134485
0.000134485
0.000134485
0.000127506
0.000127506
0.000127506
0.000127147
0.000127147
0.000127147
0.000125419
0.000125419
0.000125419
0.000130567
0.000130567
0.000130567
0.00012718
0.00012718
0.00012718
0.000130243
0.000130243
0.000130243
0.000128539
0.000128539
0.000128539
0.000129208
0.000129208
0.000129208
0.000127518
0.000127518
0.000127518
0.000124204
0.000124204
0.000124204
0.00012551
0.00012551
0.00012551
0.000121222
0.000121222
0.000121222
0.000122551
0.000122551
0.000122551
0.000122186
0.000122186
0.000122186
0.000126166
0.000126166
0.000126166
0.000123506
0.000123506
0.000123506
0.000126501
0.000126501
0.000126501
0.000125173
0.000125173
0.000125173
0.000131285
0.000131285
0.000131285
0.000134727
0.000134727
0.000134727
0.00013333
0.00013333
0.00013333
0.000131617
0.000131617
0.000131617
0.000134404
0.000134404
0.000134404
0.000132678
0.000132678
0.000132678
0.00010988
0.00010988
0.00010988
0.000109418
0.000109418
0.000109418
0.000115311
0.000115311
0.000115311
0.00011169
0.00011169
0.00011169
0.000121979
0.000121979
0.000121979
9.51616e-05
9.51616e-05
9.51616e-05
9.37467e-05
9.37467e-05
9.37467e-05
9.48993e-05
9.48993e-05
9.48993e-05
9.5341e-05
9.5341e-05
9.5341e-05
9.85371e-05
9.85371e-05
9.85371e-05
0.000110647
0.000110647
0.000110647
0.000111134
0.000111134
0.000111134
7.9872e-05
7.9872e-05
7.9872e-05
7.78393e-05
7.78393e-05
7.78393e-05
7.92298e-05
7.92298e-05
7.92298e-05
8.14035e-05
8.14035e-05
8.14035e-05
8.12886e-05
8.12886e-05
8.12886e-05
8.15418e-05
8.15418e-05
8.15418e-05
7.5578e-05
7.5578e-05
7.5578e-05
7.43918e-05
7.43918e-05
7.43918e-05
7.45338e-05
7.45338e-05
7.45338e-05
7.43177e-05
7.43177e-05
7.43177e-05
7.50753e-05
7.50753e-05
7.50753e-05
7.53012e-05
7.53012e-05
7.53012e-05
7.48119e-05
7.48119e-05
7.48119e-05
7.51703e-05
7.51703e-05
7.51703e-05
7.66114e-05
7.66114e-05
7.66114e-05
7.6485e-05
7.6485e-05
7.6485e-05
7.68776e-05
7.68776e-05
7.68776e-05
7.70169e-05
7.70169e-05
7.70169e-05
7.73944e-05
7.73944e-05
7.73944e-05
7.77113e-05
7.77113e-05
7.77113e-05
7.52809e-05
7.52809e-05
7.52809e-05
7.54063e-05
7.54063e-05
7.54063e-05
7.79241e-05
7.79241e-05
7.79241e-05
7.81584e-05
7.81584e-05
7.81584e-05
7.8633e-05
7.8633e-05
7.8633e-05
8.06006e-05
8.06006e-05
8.06006e-05
7.24659e-05
7.24659e-05
7.24659e-05
7.20984e-05
7.20984e-05
7.20984e-05
7.5128e-05
7.5128e-05
7.5128e-05
7.49039e-05
7.49039e-05
7.49039e-05
8.53596e-05
8.53596e-05
8.53596e-05
8.72043e-05
8.72043e-05
8.72043e-05
8.6766e-05
8.6766e-05
8.6766e-05
8.55281e-05
8.55281e-05
8.55281e-05
9.01275e-05
9.01275e-05
9.01275e-05
7.68453e-05
7.68453e-05
7.68453e-05
8.28494e-05
8.28494e-05
8.28494e-05
8.40413e-05
8.40413e-05
8.40413e-05
8.20591e-05
8.20591e-05
8.20591e-05
7.86977e-05
7.86977e-05
7.86977e-05
0.000173247
0.000173247
0.000173247
0.000170603
0.000170603
0.000170603
0.000160126
0.000160126
0.000160126
0.000161835
0.000161835
0.000161835
0.00016006
0.00016006
0.00016006
9.84182e-05
9.84182e-05
9.84182e-05
9.81481e-05
9.81481e-05
9.81481e-05
9.82474e-05
9.82474e-05
9.82474e-05
9.82031e-05
9.82031e-05
9.82031e-05
9.77244e-05
9.77244e-05
9.77244e-05
9.77882e-05
9.77882e-05
9.77882e-05
9.75174e-05
9.75174e-05
9.75174e-05
9.69871e-05
9.69871e-05
9.69871e-05
9.80407e-05
9.80407e-05
9.80407e-05
9.79662e-05
9.79662e-05
9.79662e-05
9.82574e-05
9.82574e-05
9.82574e-05
9.90777e-05
9.90777e-05
9.90777e-05
9.88647e-05
9.88647e-05
9.88647e-05
9.9576e-05
9.9576e-05
9.9576e-05
9.88985e-05
9.88985e-05
9.88985e-05
9.31469e-05
9.31469e-05
9.31469e-05
8.5453e-05
8.5453e-05
8.5453e-05
9.2198e-05
9.2198e-05
9.2198e-05
8.87835e-05
8.87835e-05
8.87835e-05
8.9502e-05
8.9502e-05
8.9502e-05
8.90263e-05
8.90263e-05
8.90263e-05
8.90458e-05
8.90458e-05
8.90458e-05
8.87991e-05
8.87991e-05
8.87991e-05
9.24463e-05
9.24463e-05
9.24463e-05
8.95503e-05
8.95503e-05
8.95503e-05
8.55258e-05
8.55258e-05
8.55258e-05
8.60888e-05
8.60888e-05
8.60888e-05
8.56457e-05
8.56457e-05
8.56457e-05
9.28792e-05
9.28792e-05
9.28792e-05
9.26745e-05
9.26745e-05
9.26745e-05
9.33043e-05
9.33043e-05
9.33043e-05
9.35249e-05
9.35249e-05
9.35249e-05
9.32562e-05
9.32562e-05
9.32562e-05
9.07783e-05
9.07783e-05
9.07783e-05
9.39592e-05
9.39592e-05
9.39592e-05
9.47247e-05
9.47247e-05
9.47247e-05
9.42202e-05
9.42202e-05
9.42202e-05
8.43533e-05
8.43533e-05
8.43533e-05
8.39503e-05
8.39503e-05
8.39503e-05
8.34154e-05
8.34154e-05
8.34154e-05
8.31518e-05
8.31518e-05
8.31518e-05
8.34313e-05
8.34313e-05
8.34313e-05
8.38305e-05
8.38305e-05
8.38305e-05
8.73089e-05
8.73089e-05
8.73089e-05
8.6133e-05
8.6133e-05
8.6133e-05
8.5084e-05
8.5084e-05
8.5084e-05
8.53455e-05
8.53455e-05
8.53455e-05
7.32255e-05
7.32255e-05
7.32255e-05
7.33655e-05
7.33655e-05
7.33655e-05
7.37395e-05
7.37395e-05
7.37395e-05
7.39515e-05
7.39515e-05
7.39515e-05
7.33221e-05
7.33221e-05
7.33221e-05
7.36562e-05
7.36562e-05
7.36562e-05
7.32994e-05
7.32994e-05
7.32994e-05
7.36237e-05
7.36237e-05
7.36237e-05
7.38085e-05
7.38085e-05
7.38085e-05
8.39488e-05
8.39488e-05
8.39488e-05
8.32853e-05
8.32853e-05
8.32853e-05
8.35074e-05
8.35074e-05
8.35074e-05
8.02879e-05
8.02879e-05
8.02879e-05
7.98178e-05
7.98178e-05
7.98178e-05
8.02216e-05
8.02216e-05
8.02216e-05
8.0458e-05
8.0458e-05
8.0458e-05
8.08101e-05
8.08101e-05
8.08101e-05
8.01719e-05
8.01719e-05
8.01719e-05
8.03982e-05
8.03982e-05
8.03982e-05
8.03547e-05
8.03547e-05
8.03547e-05
7.6849e-05
7.6849e-05
7.6849e-05
7.7309e-05
7.7309e-05
7.7309e-05
7.83397e-05
7.83397e-05
7.83397e-05
7.85609e-05
7.85609e-05
7.85609e-05
7.67805e-05
7.67805e-05
7.67805e-05
7.42859e-05
7.42859e-05
7.42859e-05
7.42832e-05
7.42832e-05
7.42832e-05
7.46425e-05
7.46425e-05
7.46425e-05
7.43971e-05
7.43971e-05
7.43971e-05
7.41917e-05
7.41917e-05
7.41917e-05
7.4126e-05
7.4126e-05
7.4126e-05
7.4291e-05
7.4291e-05
7.4291e-05
7.4351e-05
7.4351e-05
7.4351e-05
7.47204e-05
7.47204e-05
7.47204e-05
0.00015794
0.00015794
0.00015794
0.000157449
0.000157449
0.000157449
0.000155253
0.000155253
0.000155253
0.000153565
0.000153565
0.000153565
0.000148671
0.000148671
0.000148671
0.000150863
0.000150863
0.000150863
0.000151381
0.000151381
0.000151381
0.000120126
0.000120126
0.000120126
0.000169134
0.000169134
0.000169134
0.000166979
0.000166979
0.000166979
0.000160489
0.000160489
0.000160489
0.000162655
0.000162655
0.000162655
0.000148585
0.000148585
0.000148585
0.00014702
0.00014702
0.00014702
0.000147382
0.000147382
0.000147382
0.000149297
0.000149297
0.000149297
0.000155658
0.000155658
0.000155658
0.000151761
0.000151761
0.000151761
0.00014629
0.00014629
0.00014629
0.000142416
0.000142416
0.000142416
0.000143975
0.000143975
0.000143975
0.000145922
0.000145922
0.000145922
0.000102338
0.000102338
0.000102338
0.000105123
0.000105123
0.000105123
0.00010954
0.00010954
0.00010954
0.000106066
0.000106066
0.000106066
0.000104052
0.000104052
0.000104052
0.000103473
0.000103473
0.000103473
0.000107518
0.000107518
0.000107518
0.000104918
0.000104918
0.000104918
0.000106949
0.000106949
0.000106949
0.000106634
0.000106634
0.000106634
0.00010262
0.00010262
0.00010262
9.97868e-05
9.97868e-05
9.97868e-05
9.23307e-05
9.23307e-05
9.23307e-05
0.00010145
0.00010145
0.00010145
9.44245e-05
9.44245e-05
9.44245e-05
0.000123171
0.000123171
0.000123171
0.000106523
0.000106523
0.000106523
0.000105983
0.000105983
0.000105983
0.000111724
0.000111724
0.000111724
0.000115176
0.000115176
0.000115176
0.000113713
0.000113713
0.000113713
0.00012145
0.00012145
0.00012145
0.000142106
0.000142106
0.000142106
0.000134441
0.000134441
0.000134441
0.000133952
0.000133952
0.000133952
0.000131776
0.000131776
0.000131776
0.000131181
0.000131181
0.000131181
0.00011101
0.00011101
0.00011101
0.000118078
0.000118078
0.000118078
0.000113984
0.000113984
0.000113984
0.000151934
0.000151934
0.000151934
0.000149946
0.000149946
0.000149946
0.000122155
0.000122155
0.000122155
0.000126123
0.000126123
0.000126123
0.000125652
0.000125652
0.000125652
0.000123661
0.000123661
0.000123661
0.000129472
0.000129472
0.000129472
0.000121584
0.000121584
0.000121584
0.00012677
0.00012677
0.00012677
0.00015922
0.00015922
0.00015922
0.000159554
0.000159554
0.000159554
0.000158242
0.000158242
0.000158242
0.000154283
0.000154283
0.000154283
0.000155904
0.000155904
0.000155904
0.000157893
0.000157893
0.000157893
0.000156943
0.000156943
0.000156943
0.00015532
0.00015532
0.00015532
0.000153364
0.000153364
0.000153364
0.000153013
0.000153013
0.000153013
0.000154635
0.000154635
0.000154635
0.000156608
0.000156608
0.000156608
0.000147885
0.000147885
0.000147885
0.000146023
0.000146023
0.000146023
0.000145683
0.000145683
0.000145683
0.000149426
0.000149426
0.000149426
0.000147219
0.000147219
0.000147219
0.000149096
0.000149096
0.000149096
0.000121721
0.000121721
0.000121721
0.000118505
0.000118505
0.000118505
0.000120324
0.000120324
0.000120324
0.000121297
0.000121297
0.000121297
0.000126186
0.000126186
0.000126186
0.000122561
0.000122561
0.000122561
0.00012297
0.00012297
0.00012297
0.000124775
0.000124775
0.000124775
0.000123549
0.000123549
0.000123549
0.000123963
0.000123963
0.000123963
0.000125784
0.000125784
0.000125784
0.000127204
0.000127204
0.000127204
0.000132613
0.000132613
0.000132613
0.000128881
0.000128881
0.000128881
0.000131143
0.000131143
0.000131143
0.000129285
0.000129285
0.000129285
0.000134865
0.000134865
0.000134865
0.000134481
0.000134481
0.000134481
0.000127627
0.000127627
0.000127627
0.000128049
0.000128049
0.000128049
0.00012229
0.00012229
0.00012229
0.000122713
0.000122713
0.000122713
0.000125572
0.000125572
0.000125572
0.000123715
0.000123715
0.000123715
0.000140478
0.000140478
0.000140478
0.000138939
0.000138939
0.000138939
0.000134786
0.000134786
0.000134786
0.000143547
0.000143547
0.000143547
0.000145097
0.000145097
0.000145097
0.000142796
0.000142796
0.000142796
0.000144727
0.000144727
0.000144727
0.000118072
0.000118072
0.000118072
0.000119464
0.000119464
0.000119464
0.000119033
0.000119033
0.000119033
0.000117192
0.000117192
0.000117192
0.000115797
0.000115797
0.000115797
0.000116246
0.000116246
0.000116246
0.000114865
0.000114865
0.000114865
0.000113047
0.000113047
0.000113047
0.000119995
0.000119995
0.000119995
0.000121415
0.000121415
0.000121415
0.000120979
0.000120979
0.000120979
0.000119108
0.000119108
0.000119108
0.000113492
0.000113492
0.000113492
0.000115363
0.000115363
0.000115363
0.000122958
0.000122958
0.000122958
0.000122053
0.000122053
0.000122053
0.000116304
0.000116304
0.000116304
0.000120077
0.000120077
0.000120077
0.000116771
0.000116771
0.000116771
0.00011865
0.00011865
0.00011865
0.000120648
0.000120648
0.000120648
0.000105655
0.000105655
0.000105655
0.000104263
0.000104263
0.000104263
0.000112955
0.000112955
0.000112955
0.000111551
0.000111551
0.000111551
0.00013048
0.00013048
0.00013048
0.000129032
0.000129032
0.000129032
0.000131247
0.000131247
0.000131247
0.000129425
0.000129425
0.000129425
0.000135614
0.000135614
0.000135614
0.000133769
0.000133769
0.000133769
0.000135984
0.000135984
0.000135984
0.000132317
0.000132317
0.000132317
0.000134523
0.000134523
0.000134523
0.000132694
0.000132694
0.000132694
0.000125319
0.000125319
0.000125319
0.000130258
0.000130258
0.000130258
0.000128486
0.000128486
0.000128486
0.000130607
0.000130607
0.000130607
0.000127082
0.000127082
0.000127082
0.000129201
0.000129201
0.000129201