<VTKFile type="UnstructuredGrid" version="1.0">
<UnstructuredGrid>
<Piece NumberOfPoints="8859" NumberOfCells="2953">
<Points>
<DataArray type="Float64" NumberOfComponents="3" format="ascii">
2.75455 1.50245 1.95763
2.76986 1.48714 1.96958
2.75465 1.50235 1.98333
2.78515 1.47185 1.90667
2.78516 1.47184 1.88151
2.8005 1.4565 1.89398
2.76981 1.48719 1.91936
2.78515 1.47185 1.90667
2.78514 1.47186 1.93186
2.72412 1.53288 2.00988
2.73952 1.51748 2.0175
2.70875 1.54825 2.0175
2.72412 1.53288 2.00988
2.73943 1.51757 1.99457
2.73952 1.51748 2.0175
2.75488 1.50212 2.00979
2.77036 1.48664 2.0175
2.73952 1.51748 2.0175
2.75488 1.50212 2.00979
2.73943 1.51757 1.99457
2.75465 1.50235 1.98333
2.73952 1.51748 2.0175
2.73943 1.51757 1.99457
2.75488 1.50212 2.00979
2.75465 1.50235 1.98333
2.76986 1.48714 1.96958
2.76997 1.48703 1.99427
2.76997 1.48703 1.99427
2.75488 1.50212 2.00979
2.75465 1.50235 1.98333
2.77036 1.48664 2.0175
2.75488 1.50212 2.00979
2.76997 1.48703 1.99427
2.76986 1.48714 1.96958
2.75455 1.50245 1.95763
2.76982 1.48718 1.94452
2.76981 1.48719 1.91936
2.78514 1.47186 1.93186
2.76982 1.48718 1.94452
2.7852 1.4718 1.98262
2.76997 1.48703 1.99427
2.76986 1.48714 1.96958
2.8005 1.4565 1.96895
2.8005 1.4565 1.99355
2.7852 1.4718 1.98262
2.8005 1.4565 1.86887
2.8005 1.4565 1.89398
2.78516 1.47184 1.88151
2.78515 1.47185 1.90667
2.8005 1.4565 1.89398
2.8005 1.4565 1.91906
2.8005 1.4565 1.91906
2.78514 1.47186 1.93186
2.78515 1.47185 1.90667
2.8005 1.4565 1.34152
2.8005 1.4565 1.36665
2.78518 1.47182 1.35407
2.78517 1.47183 1.80607
2.8005 1.4565 1.81861
2.78517 1.47183 1.83121
2.8005 1.4565 1.79348
2.8005 1.4565 1.81861
2.78517 1.47183 1.80607
2.78519 1.47181 1.68044
2.8005 1.4565 1.69299
2.78519 1.47181 1.70555
2.32274 1.93426 1.12559
2.33845 1.91855 1.1175
2.33845 1.91855 1.14063
2.27541 1.98159 2.0175
2.24359 2.01341 2.0175
2.25954 1.99746 2.00932
2.78515 1.47185 1.95712
2.76982 1.48718 1.94452
2.78514 1.47186 1.93186
2.76986 1.48714 1.96958
2.76982 1.48718 1.94452
2.78515 1.47185 1.95712
2.78515 1.47185 1.95712
2.7852 1.4718 1.98262
2.76986 1.48714 1.96958
2.8005 1.4565 1.96895
2.7852 1.4718 1.98262
2.78515 1.47185 1.95712
2.78544 1.47156 2.00884
2.8005 1.4565 1.99355
2.8005 1.4565 2.0175
2.78544 1.47156 2.00884
2.7852 1.4718 1.98262
2.8005 1.4565 1.99355
2.8005 1.4565 2.0175
2.77036 1.48664 2.0175
2.78544 1.47156 2.00884
2.77036 1.48664 2.0175
2.76997 1.48703 1.99427
2.78544 1.47156 2.00884
2.76997 1.48703 1.99427
2.7852 1.4718 1.98262
2.78544 1.47156 2.00884
2.78517 1.47183 1.83121
2.8005 1.4565 1.81861
2.8005 1.4565 1.84374
2.78514 1.47186 1.93186
2.8005 1.4565 1.91906
2.8005 1.4565 1.94407
2.8005 1.4565 1.96895
2.78515 1.47185 1.95712
2.8005 1.4565 1.94407
2.8005 1.4565 1.94407
2.78515 1.47185 1.95712
2.78514 1.47186 1.93186
2.8005 1.4565 1.66788
2.8005 1.4565 1.69299
2.78519 1.47181 1.68044
2.78518 1.47182 1.35407
2.8005 1.4565 1.36665
2.78518 1.47182 1.3792
2.76985 1.48715 1.79353
2.75454 1.50246 1.78098
2.76986 1.48714 1.76838
2.78516 1.47184 1.85636
2.8005 1.4565 1.86887
2.78516 1.47184 1.88151
2.78516 1.47184 1.85636
2.8005 1.4565 1.84374
2.8005 1.4565 1.86887
2.78516 1.47184 1.85636
2.76984 1.48716 1.84384
2.78517 1.47183 1.83121
2.78517 1.47183 1.83121
2.8005 1.4565 1.84374
2.78516 1.47184 1.85636
2.76982 1.48718 1.89418
2.78515 1.47185 1.90667
2.76981 1.48719 1.91936
2.76982 1.48718 1.89418
2.78516 1.47184 1.88151
2.78515 1.47185 1.90667
2.75451 1.50249 1.85649
2.7392 1.5178 1.86915
2.73921 1.51779 1.84394
2.53996 1.71704 1.98338
2.52458 1.73242 1.9699
2.53996 1.71704 1.95775
2.49374 1.76326 1.8188
2.49375 1.76325 1.844
2.47832 1.77868 1.83139
2.8005 1.4565 1.1175
2.8005 1.4565 1.14145
2.78544 1.47156 1.12616
2.27543 1.98157 1.99433
2.27541 1.98159 2.0175
2.25954 1.99746 2.00932
2.33845 1.91855 1.91946
2.32276 1.93424 1.93214
2.32275 1.93425 1.90685
2.25954 1.99746 2.00932
2.24359 2.01341 2.0175
2.24374 2.01326 1.99423
2.76987 1.48713 1.442
2.75455 1.50245 1.42943
2.76987 1.48713 1.41688
2.8005 1.4565 1.59259
2.78519 1.47181 1.58005
2.8005 1.4565 1.5675
2.78519 1.47181 1.63024
2.8005 1.4565 1.61769
2.8005 1.4565 1.64278
2.76988 1.48712 1.54241
2.75456 1.50244 1.55495
2.75456 1.50244 1.52986
2.76988 1.48712 1.5675
2.75456 1.50244 1.55495
2.76988 1.48712 1.54241
2.78519 1.47181 1.58005
2.76988 1.48712 1.59259
2.76988 1.48712 1.5675
2.75455 1.50245 1.70557
2.76987 1.48713 1.71812
2.75455 1.50245 1.7307
2.72393 1.53307 1.68047
2.72392 1.53308 1.70559
2.70861 1.54839 1.69303
2.75456 1.50244 1.68045
2.73924 1.51776 1.6679
2.75456 1.50244 1.65535
2.75456 1.50244 1.65535
2.76987 1.48713 1.66789
2.75456 1.50244 1.68045
2.73924 1.51776 1.6679
2.73925 1.51775 1.6428
2.75456 1.50244 1.65535
2.75456 1.50244 1.65535
2.73925 1.51775 1.6428
2.75456 1.50244 1.63024
2.8005 1.4565 1.64278
2.8005 1.4565 1.66788
2.78519 1.47181 1.65534
2.78519 1.47181 1.65534
2.78519 1.47181 1.63024
2.8005 1.4565 1.64278
2.78519 1.47181 1.65534
2.8005 1.4565 1.66788
2.78519 1.47181 1.68044
2.78519 1.47181 1.68044
2.76987 1.48713 1.66789
2.78519 1.47181 1.65534
2.75454 1.50246 1.75583
2.73923 1.51777 1.74328
2.75455 1.50245 1.7307
2.75454 1.50246 1.75583
2.76986 1.48714 1.76838
2.75454 1.50246 1.78098
2.7086 1.5484 1.7433
2.72392 1.53308 1.73072
2.72392 1.53308 1.75586
2.72392 1.53308 1.75586
2.72392 1.53308 1.73072
2.73923 1.51777 1.74328
2.8005 1.4565 1.7181
2.78519 1.47181 1.70555
2.8005 1.4565 1.69299
2.75455 1.50245 1.7307
2.76987 1.48713 1.71812
2.76986 1.48714 1.74325
2.76986 1.48714 1.74325
2.75454 1.50246 1.75583
2.75455 1.50245 1.7307
2.76986 1.48714 1.76838
2.75454 1.50246 1.75583
2.76986 1.48714 1.74325
2.78517 1.47183 1.83121
2.76984 1.48716 1.84384
2.76985 1.48715 1.81868
2.76985 1.48715 1.81868
2.78517 1.47183 1.80607
2.78517 1.47183 1.83121
2.76985 1.48715 1.79353
2.78517 1.47183 1.80607
2.76985 1.48715 1.81868
2.73921 1.51779 1.84394
2.73921 1.51779 1.81875
2.75452 1.50248 1.8313
2.75452 1.50248 1.8313
2.75451 1.50249 1.85649
2.73921 1.51779 1.84394
2.76984 1.48716 1.84384
2.75451 1.50249 1.85649
2.75452 1.50248 1.8313
2.75452 1.50248 1.8313
2.76985 1.48715 1.81868
2.76984 1.48716 1.84384
2.7239 1.5331 1.83138
2.73921 1.51779 1.81875
2.73921 1.51779 1.84394
2.7239 1.5331 1.83138
2.70859 1.54841 1.84401
2.70859 1.54841 1.81881
2.76981 1.48719 1.91936
2.76982 1.48718 1.94452
2.75451 1.50249 1.93222
2.75451 1.50249 1.93222
2.76982 1.48718 1.94452
2.75455 1.50245 1.95763
2.7392 1.5178 1.86915
2.75451 1.50249 1.85649
2.75451 1.50249 1.88169
2.75451 1.50249 1.88169
2.7392 1.5178 1.89437
2.7392 1.5178 1.86915
2.67798 1.57902 1.71817
2.66266 1.59434 1.73075
2.66266 1.59434 1.70561
2.70859 1.54841 1.81881
2.70859 1.54841 1.79362
2.7239 1.5331 1.80619
2.7239 1.5331 1.80619
2.7239 1.5331 1.83138
2.70859 1.54841 1.81881
2.73921 1.51779 1.81875
2.7239 1.5331 1.83138
2.7239 1.5331 1.80619
2.73922 1.51778 1.79358
2.73921 1.51779 1.81875
2.7239 1.5331 1.80619
2.57068 1.68632 1.95776
2.57068 1.68632 1.98339
2.55533 1.70167 1.96991
2.55533 1.70167 1.96991
2.57068 1.68632 1.98339
2.55533 1.70167 1.9945
2.55533 1.70167 1.96991
2.55533 1.70167 1.9945
2.53996 1.71704 1.98338
2.53996 1.71704 1.98338
2.53996 1.71704 1.95775
2.55533 1.70167 1.96991
2.52458 1.73242 1.94484
2.53996 1.71704 1.95775
2.52458 1.73242 1.9699
2.50912 1.74788 1.58005
2.50912 1.74788 1.60515
2.49371 1.76329 1.5926
2.41633 1.84067 1.70556
2.40077 1.85623 1.693
2.41632 1.84068 1.68045
2.41635 1.84065 1.75583
2.40081 1.85619 1.76839
2.40079 1.85621 1.74325
2.33845 1.91855 1.91946
2.32275 1.93425 1.90685
2.33843 1.91857 1.89424
2.33845 1.91855 1.94466
2.32276 1.93424 1.93214
2.33845 1.91855 1.91946
2.40087 1.85613 1.86912
2.40088 1.85612 1.89434
2.38531 1.87169 1.88172
2.30693 1.95007 1.81858
2.32265 1.93435 1.80603
2.32267 1.93433 1.8312
2.30684 1.95016 1.71803
2.29108 1.96592 1.73056
2.29106 1.96594 1.70546
2.32274 1.93426 2.00941
2.33845 1.91855 2.0175
2.30701 1.94999 2.0175
2.33845 1.91855 1.99437
2.33845 1.91855 2.0175
2.32274 1.93426 2.00941
2.35411 1.90289 2.00947
2.33845 1.91855 2.0175
2.33845 1.91855 1.99437
2.30704 1.94996 1.94461
2.30703 1.94997 1.96969
2.29128 1.96572 1.95746
2.55533 1.70167 2.0175
2.52458 1.73242 2.0175
2.53996 1.71704 2.00972
2.53996 1.71704 1.98338
2.55533 1.70167 1.9945
2.53996 1.71704 2.00972
2.53996 1.71704 2.00972
2.55533 1.70167 1.9945
2.55533 1.70167 2.0175
2.52458 1.73242 1.99449
2.52458 1.73242 1.9699
2.53996 1.71704 1.98338
2.53996 1.71704 1.98338
2.53996 1.71704 2.00972
2.52458 1.73242 1.99449
2.52458 1.73242 1.99449
2.53996 1.71704 2.00972
2.52458 1.73242 2.0175
2.41642 1.84058 1.88176
2.40088 1.85612 1.89434
2.40087 1.85613 1.86912
2.47831 1.77869 1.8062
2.49374 1.76326 1.79362
2.49374 1.76326 1.8188
2.49374 1.76326 1.8188
2.47832 1.77868 1.83139
2.47831 1.77869 1.8062
2.47833 1.77867 1.8566
2.47832 1.77868 1.83139
2.49375 1.76325 1.844
2.47833 1.77867 1.8566
2.49375 1.76325 1.844
2.49376 1.76324 1.86921
2.49376 1.76324 1.86921
2.47834 1.77866 1.88182
2.47833 1.77867 1.8566
2.47833 1.77867 1.8566
2.47834 1.77866 1.88182
2.46289 1.79411 1.86919
2.49377 1.76323 1.89443
2.47834 1.77866 1.88182
2.49376 1.76324 1.86921
2.49377 1.76323 1.91964
2.47835 1.77865 1.93234
2.47834 1.77866 1.90706
2.47834 1.77866 1.90706
2.49377 1.76323 1.89443
2.49377 1.76323 1.91964
2.47834 1.77866 1.88182
2.49377 1.76323 1.89443
2.47834 1.77866 1.90706
2.7852 1.4718 1.15238
2.78544 1.47156 1.12616
2.8005 1.4565 1.14145
2.76997 1.48703 1.14073
2.78544 1.47156 1.12616
2.7852 1.4718 1.15238
2.64739 1.60961 1.14048
2.64738 1.60962 1.1175
2.66272 1.59428 1.12521
2.70875 1.54825 1.1175
2.6934 1.5636 1.12517
2.67805 1.57895 1.1175
2.67805 1.57895 1.1175
2.66272 1.59428 1.12521
2.64738 1.60962 1.1175
2.19638 2.06062 1.15397
2.1963 2.0607 1.12786
2.2122 2.0448 1.14145
2.2122 2.0448 1.14145
2.22771 2.02929 1.12601
2.22802 2.02898 1.15245
2.18073 2.07627 1.14282
2.1963 2.0607 1.12786
2.19638 2.06062 1.15397
2.18073 2.07627 1.14282
2.18123 2.07577 1.1175
2.1963 2.0607 1.12786
2.27543 1.98157 1.14067
2.27541 1.98159 1.1175
2.29123 1.96577 1.12563
2.30701 1.94999 1.1175
[...]
<PointData Scalars="View Factor" >
<DataArray type="Float64" Name="View Factor" NumberOfComponents="1" format="ascii">
0.000393078
0.000393078
0.000393078
0.000421845
0.000421845
0.000421845
0.000412076
0.000412076
0.000412076
0.00036805
0.00036805
0.00036805
0.000374365
0.000374365
0.000374365
0.000383484
0.000383484
0.000383484
0.000383835
0.000383835
0.000383835
0.000379525
0.000379525
0.000379525
0.000393703
0.000393703
0.000393703
0.000388998
0.000388998
0.000388998
0.000389807
0.000389807
0.000389807
0.00039778
0.00039778
0.00039778
0.000407281
0.000407281
0.000407281
0.000398919
0.000398919
0.000398919
0.000409367
0.000409367
0.000409367
0.000426788
0.000426788
0.000426788
0.000422336
0.000422336
0.000422336
0.000417436
0.000417436
0.000417436
0.000535274
0.000535274
0.000535274
0.000435396
0.000435396
0.000435396
0.000440509
0.000440509
0.000440509
0.000459173
0.000459173
0.000459173
0.000320505
0.000320505
0.000320505
0.000222583
0.000222583
0.000222583
0.000407798
0.000407798
0.000407798
0.000403049
0.000403049
0.000403049
0.000403555
0.000403555
0.000403555
0.000408813
0.000408813
0.000408813
0.000405213
0.000405213
0.000405213
0.000404589
0.000404589
0.000404589
0.000398815
0.000398815
0.000398815
0.000394983
0.000394983
0.000394983
0.000399401
0.000399401
0.000399401
0.000435875
0.000435875
0.000435875
0.000417945
0.000417945
0.000417945
0.00041362
0.00041362
0.00041362
0.000413109
0.000413109
0.000413109
0.000464601
0.000464601
0.000464601
0.000528912
0.000528912
0.000528912
0.000428202
0.000428202
0.000428202
0.000426311
0.000426311
0.000426311
0.000431301
0.000431301
0.000431301
0.000425293
0.000425293
0.000425293
0.000430811
0.000430811
0.000430811
0.000411555
0.000411555
0.000411555
0.000416433
0.000416433
0.000416433
0.000403881
0.000403881
0.000403881
0.000278803
0.000278803
0.000278803
0.00027066
0.00027066
0.00027066
0.000592122
0.000592122
0.000592122
0.000222883
0.000222883
0.000222883
0.000229096
0.000229096
0.000229096
0.000223702
0.000223702
0.000223702
0.000498051
0.000498051
0.000498051
0.000485039
0.000485039
0.000485039
0.000474685
0.000474685
0.000474685
0.000471029
0.000471029
0.000471029
0.000471592
0.000471592
0.000471592
0.000472703
0.000472703
0.000472703
0.000436862
0.000436862
0.000436862
0.000418088
0.000418088
0.000418088
0.000440371
0.000440371
0.000440371
0.000446308
0.000446308
0.000446308
0.000439747
0.000439747
0.000439747
0.000445122
0.000445122
0.000445122
0.00046961
0.00046961
0.00046961
0.000469144
0.000469144
0.000469144
0.000464126
0.000464126
0.000464126
0.000458185
0.000458185
0.000458185
0.000426491
0.000426491
0.000426491
0.000427646
0.000427646
0.000427646
0.000409248
0.000409248
0.000409248
0.000414987
0.000414987
0.000414987
0.000459657
0.000459657
0.000459657
0.000437437
0.000437437
0.000437437
0.000432238
0.000432238
0.000432238
0.000432802
0.000432802
0.000432802
0.000424773
0.000424773
0.000424773
0.000429821
0.000429821
0.000429821
0.000429309
0.000429309
0.000429309
0.000408155
0.000408155
0.000408155
0.000408756
0.000408756
0.000408756
0.000414265
0.000414265
0.000414265
0.000419231
0.000419231
0.000419231
0.000402623
0.000402623
0.000402623
0.000391584
0.000391584
0.000391584
0.000401958
0.000401958
0.000401958
0.000397192
0.000397192
0.000397192
0.000404472
0.000404472
0.000404472
0.000399637
0.000399637
0.000399637
0.000384669
0.000384669
0.000384669
0.000395742
0.000395742
0.000395742
0.000396438
0.000396438
0.000396438
0.000401994
0.000401994
0.000401994
0.000406923
0.000406923
0.000406923
0.000294323
0.000294323
0.000294323
0.000290258
0.000290258
0.000290258
0.000285112
0.000285112
0.000285112
0.000283971
0.000283971
0.000283971
0.000277693
0.000277693
0.000277693
0.000308401
0.000308401
0.000308401
0.000250024
0.000250024
0.000250024
0.000243572
0.000243572
0.000243572
0.000230145
0.000230145
0.000230145
0.000227785
0.000227785
0.000227785
0.000231297
0.000231297
0.000231297
0.000239068
0.000239068
0.000239068
0.000249908
0.000249908
0.000249908
0.000220519
0.000220519
0.000220519
0.000220937
0.000220937
0.000220937
0.000220682
0.000220682
0.000220682
0.000226344
0.000226344
0.000226344
0.000276303
0.000276303
0.000276303
0.000281004
0.000281004
0.000281004
0.000282247
0.000282247
0.000282247
0.000274827
0.000274827
0.000274827
0.00027589
0.00027589
0.00027589
0.000272067
0.000272067
0.000272067
0.000231165
0.000231165
0.000231165
0.000273508
0.000273508
0.000273508
0.000269337
0.000269337
0.000269337
0.000266531
0.000266531
0.000266531
0.000267848
0.000267848
0.000267848
0.000263753
0.000263753
0.000263753
0.000258369
0.000258369
0.000258369
0.000265054
0.000265054
0.000265054
0.000258304
0.000258304
0.000258304
0.000262309
0.000262309
0.000262309
0.00026101
0.00026101
0.00026101
0.00058525
0.00058525
0.00058525
0.000577815
0.000577815
0.000577815
0.000486593
0.000486593
0.000486593
0.000518555
0.000518555
0.000518555
0.000495811
0.000495811
0.000495811
0.000324844
0.000324844
0.000324844
0.000323655
0.000323655
0.000323655
0.000325502
0.000325502
0.000325502
0.000327604
0.000327604
0.000327604
0.000322346
0.000322346
0.000322346
0.000321903
0.000321903
0.000321903
0.000322991
0.000322991
0.000322991
0.000303601
0.000303601
0.000303601
0.000301627
0.000301627
0.000301627
0.000221508
0.000221508
0.000221508
0.000225335
0.000225335
0.000225335
0.000224051
0.000224051
0.000224051
0.000251777
0.000251777
0.000251777
0.000250278
0.000250278
0.000250278
0.000234812
0.000234812
0.000234812
0.00053482
0.00053482
0.00053482
0.000495673
0.000495673
0.000495673
0.000487248
0.000487248
0.000487248
0.00048139
0.00048139
0.00048139
0.000492607
0.000492607
0.000492607
0.000486677
0.000486677
0.000486677
0.000480194
0.000480194
0.000480194
0.000479562
0.000479562
0.000479562
0.000485492
0.000485492
0.000485492
0.000492046
0.000492046
0.000492046
0.000411561
0.000411561
0.000411561
0.000405754
0.000405754
0.000405754
0.000405452
0.000405452
0.000405452
0.000484851
0.000484851
0.000484851
0.000529378
0.000529378
0.000529378
0.00038295
0.00038295
0.00038295
0.000371253
0.000371253
0.000371253
0.000406364
0.000406364
0.000406364
0.000384319
0.000384319
0.000384319
0.000406696
0.000406696
0.000406696
0.00040582
0.00040582
0.00040582
0.000399709
0.000399709
0.000399709
0.000394527
0.000394527
0.000394527
0.000464759
0.000464759
0.000464759
0.00049032
0.00049032
0.00049032
0.000484567
0.000484567
0.000484567
0.00047836
0.00047836
0.00047836
0.00047783
0.00047783
0.00047783
0.000483575
0.000483575
0.000483575
0.000489849
0.000489849
0.000489849
0.000362001
0.000362001
0.000362001
0.000367041
0.000367041
0.000367041
0.000403124
0.000403124
0.000403124
0.000404049
0.000404049
0.000404049
0.000398812
0.000398812
0.000398812
0.000392671
0.000392671
0.000392671
0.000371022
0.000371022
0.000371022
0.000369889
0.000369889
0.000369889
0.000359745
0.000359745
0.000359745
0.000365935
0.000365935
0.000365935
0.000396916
0.000396916
0.000396916
0.000391701
0.000391701
0.000391701
0.000447957
0.000447957
0.000447957
0.000442113
0.000442113
0.000442113
0.000441546
0.000441546
0.000441546
0.000453296
0.000453296
0.000453296
0.000452783
0.000452783
0.000452783
0.000446876
0.000446876
0.000446876
0.000423953
0.000423953
0.000423953
0.000435675
0.000435675
0.000435675
0.000435077
0.000435077
0.000435077
0.000429176
0.000429176
0.000429176
0.000415159
0.000415159
0.000415159
0.000426411
0.000426411
0.000426411
0.000420388
0.000420388
0.000420388
0.000463139
0.000463139
0.000463139
0.00045658
0.00045658
0.00045658
0.000462617
0.000462617
0.000462617
0.000451123
0.000451123
0.000451123
0.000451692
0.000451692
0.000451692
0.000457663
0.000457663
0.000457663
0.000425865
0.000425865
0.000425865
0.00042009
0.00042009
0.00042009
0.000419441
0.000419441
0.000419441
0.000431054
0.000431054
0.000431054
0.000424612
0.000424612
0.000424612
0.00043045
0.00043045
0.00043045
0.00041364
0.00041364
0.00041364
0.000412937
0.000412937
0.000412937
0.000407107
0.000407107
0.000407107
0.000408549
0.000408549
0.000408549
0.000421361
0.000421361
0.000421361
0.000415648
0.000415648
0.000415648
0.000421961
0.000421961
0.000421961
0.000416899
0.000416899
0.000416899
0.000404239
0.000404239
0.000404239
0.000448503
0.000448503
0.000448503
0.000454318
0.000454318
0.000454318
0.000454777
0.000454777
0.000454777
0.000443217
0.000443217
0.000443217
0.000445203
0.000445203
0.000445203
0.000433862
0.000433862
0.000433862
0.000440031
0.000440031
0.000440031
0.000434398
0.000434398
0.000434398
0.000449959
0.000449959
0.000449959
0.000449466
0.000449466
0.000449466
0.000443713
0.000443713
0.000443713
0.000438523
0.000438523
0.000438523
0.000439044
0.000439044
0.000439044
0.000444735
0.000444735
0.000444735
0.000412515
0.000412515
0.000412515
0.000423709
0.000423709
0.000423709
0.000413111
0.000413111
0.000413111
0.000418678
0.000418678
0.000418678
0.00041752
0.00041752
0.00041752
0.000423147
0.000423147
0.000423147
0.000398407
0.000398407
0.000398407
0.000397751
0.000397751
0.000397751
0.000392254
0.000392254
0.000392254
0.000406179
0.000406179
0.000406179
0.000395464
0.000395464
0.000395464
0.000405634
0.000405634
0.000405634
0.00040024
0.00040024
0.00040024
0.000401394
0.000401394
0.000401394
0.000396056
0.000396056
0.000396056
0.000383318
0.000383318
0.000383318
0.000387857
0.000387857
0.000387857
0.0003735
0.0003735
0.0003735
0.000378131
0.000378131
0.000378131
0.000377423
0.000377423
0.000377423
0.000391326
0.000391326
0.000391326
0.000382032
0.000382032
0.000382032
0.000391912
0.000391912
0.000391912
0.000387272
0.000387272
0.000387272
0.000409922
0.000409922
0.000409922
0.000420847
0.000420847
0.000420847
0.000415913
0.000415913
0.000415913
0.000410481
0.000410481
0.000410481
0.000420327
0.000420327
0.000420327
0.00041484
0.00041484
0.00041484
0.000347906
0.000347906
0.000347906
0.000346839
0.000346839
0.000346839
0.000365411
0.000365411
0.000365411
0.000353738
0.000353738
0.000353738
0.000385505
0.000385505
0.000385505
0.000291535
0.000291535
0.000291535
0.000287341
0.000287341
0.000287341
0.000291239
0.000291239
0.000291239
0.000303724
0.000303724
0.000303724
0.00031447
0.00031447
0.00031447
0.000354728
0.000354728
0.000354728
0.000355879
0.000355879
0.000355879
0.000251401
0.000251401
0.000251401
0.00024167
0.00024167
0.00024167
0.00024875
0.00024875
0.00024875
0.00025614
0.00025614
0.00025614
0.000255148
0.000255148
0.000255148
0.000256367
0.000256367
0.000256367
0.000231469
0.000231469
0.000231469
0.000226737
0.000226737
0.000226737
0.000227024
0.000227024
0.000227024
0.000226026
0.000226026
0.000226026
0.000229888
0.000229888
0.000229888
0.000230947
0.000230947
0.000230947
0.00022943
0.00022943
0.00022943
0.000230721
0.000230721
0.000230721
0.000236684
0.000236684
0.000236684
0.00023649
0.00023649
0.00023649
0.000237139
0.000237139
0.000237139
0.000237399
0.000237399
0.000237399
0.000238773
0.000238773
0.000238773
0.000241476
0.000241476
0.000241476
0.000231623
0.000231623
0.000231623
0.000231819
0.000231819
0.000231819
0.000240468
0.000240468
0.000240468
0.000241563
0.000241563
0.000241563
0.000243792
0.000243792
0.000243792
0.000251039
0.000251039
0.000251039
0.000219778
0.000219778
0.000219778
0.000219187
0.000219187
0.000219187
0.000229385
0.000229385
0.000229385
0.000228357
0.000228357
0.000228357
0.000261063
0.000261063
0.000261063
0.00026698
0.00026698
0.00026698
0.000272288
0.000272288
0.000272288
0.000268021
0.000268021
0.000268021
0.000281995
0.000281995
0.000281995
0.000235049
0.000235049
0.000235049
0.00025702
0.00025702
0.00025702
0.000261087
0.000261087
0.000261087
0.000253033
0.000253033
0.000253033
0.000242508
0.000242508
0.000242508
0.000586822
0.000586822
0.000586822
0.000577214
0.000577214
0.000577214
0.000540457
0.000540457
0.000540457
0.000547018
0.000547018
0.000547018
0.000541342
0.000541342
0.000541342
0.000324425
0.000324425
0.000324425
0.000323063
0.000323063
0.000323063
0.000324432
0.000324432
0.000324432
0.00032386
0.00032386
0.00032386
0.000321954
0.000321954
0.000321954
0.000322817
0.000322817
0.000322817
0.000321435
0.000321435
0.000321435
0.000319318
0.000319318
0.000319318
0.000322069
0.000322069
0.000322069
0.000321237
0.000321237
0.000321237
0.000322671
0.000322671
0.000322671
0.00032624
0.00032624
0.00032624
0.000325654
0.000325654
0.000325654
0.000328087
0.000328087
0.000328087
0.000326155
0.000326155
0.000326155
0.000303224
0.000303224
0.000303224
0.000269504
0.000269504
0.000269504
0.000299521
0.000299521
0.000299521
0.000281261
0.000281261
0.000281261
0.000284259
0.000284259
0.000284259
0.000282403
0.000282403
0.000282403
0.000282886
0.000282886
0.000282886
0.000281719
0.000281719
0.000281719
0.000296644
0.000296644
0.000296644
0.000285271
0.000285271
0.000285271
0.000267903
0.000267903
0.000267903
0.000271699
0.000271699
0.000271699
0.000270007
0.000270007
0.000270007
0.000300469
0.000300469
0.000300469
0.000299933
0.000299933
0.000299933
0.00030163
0.00030163
0.00030163
0.000302256
0.000302256
0.000302256
0.000300955
0.000300955
0.000300955
0.000292534
0.000292534
0.000292534
0.000303068
0.000303068
0.000303068
0.000306334
0.000306334
0.000306334
0.000304323
0.000304323
0.000304323
0.000269588
0.000269588
0.000269588
0.000268084
0.000268084
0.000268084
0.000263624
0.000263624
0.000263624
0.000265115
0.000265115
0.000265115
0.000266493
0.000266493
0.000266493
0.000267975
0.000267975
0.000267975
0.000278063
0.000278063
0.000278063
0.000274932
0.000274932
0.000274932
0.000269893
0.000269893
0.000269893
0.000271164
0.000271164
0.000271164
0.000222104
0.000222104
0.000222104
0.000222388
0.000222388
0.000222388
0.000223734
0.000223734
0.000223734
0.000224706
0.000224706
0.000224706
0.000221823
0.000221823
0.000221823
0.000223015
0.000223015
0.000223015
0.000221472
0.000221472
0.000221472
0.000222507
0.000222507
0.000222507
0.00022336
0.00022336
0.00022336
0.000261326
0.000261326
0.000261326
0.000258624
0.000258624
0.000258624
0.000259644
0.000259644
0.000259644
0.000249171
0.000249171
0.000249171
0.000246986
0.000246986
0.000246986
0.000248484
0.000248484
0.000248484
0.000249577
0.000249577
0.000249577
0.000250456
0.000250456
0.000250456
0.00024787
0.00024787
0.00024787
0.000248925
0.000248925
0.000248925
0.000248345
0.000248345
0.000248345
0.000235857
0.000235857
0.000235857
0.000237987
0.000237987
0.000237987
0.000240882
0.000240882
0.000240882
0.000241913
0.000241913
0.000241913
0.00023517
0.00023517
0.00023517
0.000224149
0.000224149
0.000224149
0.000223909
0.000223909
0.000223909
0.000225101
0.000225101
0.000225101
0.000225683
0.000225683
0.000225683
0.000224744
0.000224744
0.000224744
0.000224115
0.000224115
0.000224115
0.000224524
0.000224524
0.000224524
0.000225123
0.000225123
0.000225123
0.000226453
0.000226453
0.000226453
0.000532933
0.000532933
0.000532933
0.000531893
0.000531893
0.000531893
0.000524326
0.000524326
0.000524326
0.000517881
0.000517881
0.000517881
0.000501661
0.000501661
0.000501661
0.000509208
0.000509208
0.000509208
0.000510368
0.000510368
0.000510368
0.000395673
0.000395673
0.000395673
0.000570621
0.000570621
0.000570621
0.000563225
0.000563225
0.000563225
0.000540927
0.000540927
0.000540927
0.000548371
0.000548371
0.000548371
0.000481952
0.000481952
0.000481952
0.000476175
0.000476175
0.000476175
0.000476755
0.000476755
0.000476755
0.000483062
0.000483062
0.000483062
0.0005066
0.0005066
0.0005066
0.000493697
0.000493697
0.000493697
0.000474979
0.000474979
0.000474979
0.000462174
0.000462174
0.000462174
0.000467922
0.000467922
0.000467922
0.000474365
0.000474365
0.000474365
0.000329688
0.000329688
0.000329688
0.000339674
0.000339674
0.000339674
0.000358766
0.000358766
0.000358766
0.000346733
0.000346733
0.000346733
0.000340028
0.000340028
0.000340028
0.000338535
0.000338535
0.000338535
0.00035202
0.00035202
0.00035202
0.000343796
0.000343796
0.000343796
0.000350577
0.000350577
0.000350577
0.000348173
0.000348173
0.000348173
0.000334831
0.000334831
0.000334831
0.00032459
0.00032459
0.00032459
0.000304604
0.000304604
0.000304604
0.000331796
0.000331796
0.000331796
0.000311638
0.000311638
0.000311638
0.000402747
0.000402747
0.000402747
0.00034472
0.00034472
0.00034472
0.000343374
0.000343374
0.000343374
0.000364176
0.000364176
0.000364176
0.00037613
0.00037613
0.00037613
0.000370781
0.000370781
0.000370781
0.000407048
0.000407048
0.000407048
0.000479064
0.000479064
0.000479064
0.000451512
0.000451512
0.000451512
0.000450476
0.000450476
0.000450476
0.00044301
0.00044301
0.00044301
0.000441512
0.000441512
0.000441512
0.000364145
0.000364145
0.000364145
0.000388796
0.000388796
0.000388796
0.000375062
0.000375062
0.000375062
0.000497472
0.000497472
0.000497472
0.000490845
0.000490845
0.000490845
0.00039834
0.00039834
0.00039834
0.000411526
0.000411526
0.000411526
0.000410484
0.000410484
0.000410484
0.000403858
0.000403858
0.000403858
0.00042104
0.00042104
0.00042104
0.000392927
0.000392927
0.000392927
0.000408448
0.000408448
0.000408448
0.000523125
0.000523125
0.000523125
0.000523566
0.000523566
0.000523566
0.000517831
0.000517831
0.000517831
0.000504646
0.000504646
0.000504646
0.000510716
0.000510716
0.000510716
0.000517351
0.000517351
0.000517351
0.000512177
0.000512177
0.000512177
0.000506134
0.000506134
0.000506134
0.000499647
0.000499647
0.000499647
0.000499129
0.000499129
0.000499129
0.000505162
0.000505162
0.000505162
0.000511723
0.000511723
0.000511723
0.000474202
0.000474202
0.000474202
0.000468131
0.000468131
0.000468131
0.000467609
0.000467609
0.000467609
0.000479828
0.000479828
0.000479828
0.000473216
0.000473216
0.000473216
0.000479355
0.000479355
0.000479355
0.000387048
0.000387048
0.000387048
0.000376176
0.000376176
0.000376176
0.000382053
0.000382053
0.000382053
0.000386152
0.000386152
0.000386152
0.000400507
0.000400507
0.000400507
0.0003888
0.0003888
0.0003888
0.000389642
0.000389642
0.000389642
0.000395463
0.000395463
0.000395463
0.000392962
0.000392962
0.000392962
0.000393816
0.000393816
0.000393816
0.000399701
0.000399701
0.000399701
0.000404796
0.000404796
0.000404796
0.00042495
0.00042495
0.00042495
0.000412779
0.000412779
0.000412779
0.000419634
0.000419634
0.000419634
0.000413583
0.000413583
0.000413583
0.000431756
0.000431756
0.000431756
0.00043104
0.00043104
0.00043104
0.000410228
0.000410228
0.000410228
0.000411094
0.000411094
0.000411094
0.000390327
0.000390327
0.000390327
0.000391221
0.000391221
0.000391221
0.000401492
0.000401492
0.000401492
0.000395448
0.000395448
0.000395448
0.000455771
0.000455771
0.000455771
0.000450113
0.000450113
0.000450113
0.000434216
0.000434216
0.000434216
0.000464137
0.000464137
0.000464137
0.000469835
0.000469835
0.000469835
0.00046284
0.00046284
0.00046284
0.000469212
0.000469212
0.000469212
0.000375237
0.000375237
0.000375237
0.000380211
0.000380211
0.000380211
0.000379279
0.000379279
0.000379279
0.00037331
0.00037331
0.00037331
0.000368336
0.000368336
0.000368336
0.000369331
0.000369331
0.000369331
0.000364422
0.000364422
0.000364422
0.000358554
0.000358554
0.000358554
0.000383354
0.000383354
0.000383354
0.000388454
0.000388454
0.000388454
0.000387511
0.000387511
0.000387511
0.000381409
0.000381409
0.000381409
0.000363112
0.000363112
0.000363112
0.000369206
0.000369206
0.000369206
0.000395948
0.000395948
0.000395948
0.000393968
0.000393968
0.000393968
0.000373202
0.000373202
0.000373202
0.000385532
0.000385532
0.000385532
0.000374262
0.000374262
0.000374262
0.000380393
0.000380393
0.000380393
0.000390828
0.000390828
0.000390828
0.000340999
0.000340999
0.000340999
0.000336
0.000336
0.000336
0.00036363
0.00036363
0.00036363
0.000358574
0.000358574
0.000358574
0.000415918
0.000415918
0.000415918
0.000410718
0.000410718
0.000410718
0.000417374
0.000417374
0.000417374
0.00041148
0.00041148
0.00041148
0.000433118
0.000433118
0.000433118
0.000427124
0.000427124
0.000427124
0.000433782
0.000433782
0.000433782
0.000421876
0.000421876
0.000421876
0.000428506
0.000428506
0.000428506
0.000422578
0.000422578
0.000422578
0.000394317
0.000394317
0.000394317
0.00041062
0.00041062
0.00041062
0.000404942
0.000404942
0.000404942
0.000411248
0.000411248
0.000411248
0.000399959
0.000399959
0.000399959