<VTKFile type="UnstructuredGrid" version="1.0">
<UnstructuredGrid>
<Piece NumberOfPoints="8859" NumberOfCells="2953">
<Points>
<DataArray type="Float64" NumberOfComponents="3" format="ascii">
2.75455 1.50245 15.5426
2.76986 1.48714 15.5546
2.75465 1.50235 15.5683
2.78515 1.47185 15.4917
2.78516 1.47184 15.4665
2.8005 1.4565 15.479
2.76981 1.48719 15.5044
2.78515 1.47185 15.4917
2.78514 1.47186 15.5169
2.72412 1.53288 15.5949
2.73952 1.51748 15.6025
2.70875 1.54825 15.6025
2.72412 1.53288 15.5949
2.73943 1.51757 15.5796
2.73952 1.51748 15.6025
2.75488 1.50212 15.5948
2.77036 1.48664 15.6025
2.73952 1.51748 15.6025
2.75488 1.50212 15.5948
2.73943 1.51757 15.5796
2.75465 1.50235 15.5683
2.73952 1.51748 15.6025
2.73943 1.51757 15.5796
2.75488 1.50212 15.5948
2.75465 1.50235 15.5683
2.76986 1.48714 15.5546
2.76997 1.48703 15.5793
2.76997 1.48703 15.5793
2.75488 1.50212 15.5948
2.75465 1.50235 15.5683
2.77036 1.48664 15.6025
2.75488 1.50212 15.5948
2.76997 1.48703 15.5793
2.76986 1.48714 15.5546
2.75455 1.50245 15.5426
2.76982 1.48718 15.5295
2.76981 1.48719 15.5044
2.78514 1.47186 15.5169
2.76982 1.48718 15.5295
2.7852 1.4718 15.5676
2.76997 1.48703 15.5793
2.76986 1.48714 15.5546
2.8005 1.4565 15.5539
2.8005 1.4565 15.5786
2.7852 1.4718 15.5676
2.8005 1.4565 15.4539
2.8005 1.4565 15.479
2.78516 1.47184 15.4665
2.78515 1.47185 15.4917
2.8005 1.4565 15.479
2.8005 1.4565 15.5041
2.8005 1.4565 15.5041
2.78514 1.47186 15.5169
2.78515 1.47185 15.4917
2.8005 1.4565 14.9265
2.8005 1.4565 14.9517
2.78518 1.47182 14.9391
2.78517 1.47183 15.3911
2.8005 1.4565 15.4036
2.78517 1.47183 15.4162
2.8005 1.4565 15.3785
2.8005 1.4565 15.4036
2.78517 1.47183 15.3911
2.78519 1.47181 15.2654
2.8005 1.4565 15.278
2.78519 1.47181 15.2906
2.32274 1.93426 14.7106
2.33845 1.91855 14.7025
2.33845 1.91855 14.7256
2.27541 1.98159 15.6025
2.24359 2.01341 15.6025
2.25954 1.99746 15.5943
2.78515 1.47185 15.5421
2.76982 1.48718 15.5295
2.78514 1.47186 15.5169
2.76986 1.48714 15.5546
2.76982 1.48718 15.5295
2.78515 1.47185 15.5421
2.78515 1.47185 15.5421
2.7852 1.4718 15.5676
2.76986 1.48714 15.5546
2.8005 1.4565 15.5539
2.7852 1.4718 15.5676
2.78515 1.47185 15.5421
2.78544 1.47156 15.5938
2.8005 1.4565 15.5786
2.8005 1.4565 15.6025
2.78544 1.47156 15.5938
2.7852 1.4718 15.5676
2.8005 1.4565 15.5786
2.8005 1.4565 15.6025
2.77036 1.48664 15.6025
2.78544 1.47156 15.5938
2.77036 1.48664 15.6025
2.76997 1.48703 15.5793
2.78544 1.47156 15.5938
2.76997 1.48703 15.5793
2.7852 1.4718 15.5676
2.78544 1.47156 15.5938
2.78517 1.47183 15.4162
2.8005 1.4565 15.4036
2.8005 1.4565 15.4287
2.78514 1.47186 15.5169
2.8005 1.4565 15.5041
2.8005 1.4565 15.5291
2.8005 1.4565 15.5539
2.78515 1.47185 15.5421
2.8005 1.4565 15.5291
2.8005 1.4565 15.5291
2.78515 1.47185 15.5421
2.78514 1.47186 15.5169
2.8005 1.4565 15.2529
2.8005 1.4565 15.278
2.78519 1.47181 15.2654
2.78518 1.47182 14.9391
2.8005 1.4565 14.9517
2.78518 1.47182 14.9642
2.76985 1.48715 15.3785
2.75454 1.50246 15.366
2.76986 1.48714 15.3534
2.78516 1.47184 15.4414
2.8005 1.4565 15.4539
2.78516 1.47184 15.4665
2.78516 1.47184 15.4414
2.8005 1.4565 15.4287
2.8005 1.4565 15.4539
2.78516 1.47184 15.4414
2.76984 1.48716 15.4288
2.78517 1.47183 15.4162
2.78517 1.47183 15.4162
2.8005 1.4565 15.4287
2.78516 1.47184 15.4414
2.76982 1.48718 15.4792
2.78515 1.47185 15.4917
2.76981 1.48719 15.5044
2.76982 1.48718 15.4792
2.78516 1.47184 15.4665
2.78515 1.47185 15.4917
2.75451 1.50249 15.4415
2.7392 1.5178 15.4541
2.73921 1.51779 15.4289
2.53996 1.71704 15.5684
2.52458 1.73242 15.5549
2.53996 1.71704 15.5428
2.49374 1.76326 15.4038
2.49375 1.76325 15.429
2.47832 1.77868 15.4164
2.8005 1.4565 14.7025
2.8005 1.4565 14.7264
2.78544 1.47156 14.7112
2.27543 1.98157 15.5793
2.27541 1.98159 15.6025
2.25954 1.99746 15.5943
2.33845 1.91855 15.5045
2.32276 1.93424 15.5171
2.32275 1.93425 15.4919
2.25954 1.99746 15.5943
2.24359 2.01341 15.6025
2.24374 2.01326 15.5792
2.76987 1.48713 15.027
2.75455 1.50245 15.0144
2.76987 1.48713 15.0019
2.8005 1.4565 15.1776
2.78519 1.47181 15.165
2.8005 1.4565 15.1525
2.78519 1.47181 15.2152
2.8005 1.4565 15.2027
2.8005 1.4565 15.2278
2.76988 1.48712 15.1274
2.75456 1.50244 15.14
2.75456 1.50244 15.1149
2.76988 1.48712 15.1525
2.75456 1.50244 15.14
2.76988 1.48712 15.1274
2.78519 1.47181 15.165
2.76988 1.48712 15.1776
2.76988 1.48712 15.1525
2.75455 1.50245 15.2906
2.76987 1.48713 15.3031
2.75455 1.50245 15.3157
2.72393 1.53307 15.2655
2.72392 1.53308 15.2906
2.70861 1.54839 15.278
2.75456 1.50244 15.2655
2.73924 1.51776 15.2529
2.75456 1.50244 15.2403
2.75456 1.50244 15.2403
2.76987 1.48713 15.2529
2.75456 1.50244 15.2655
2.73924 1.51776 15.2529
2.73925 1.51775 15.2278
2.75456 1.50244 15.2403
2.75456 1.50244 15.2403
2.73925 1.51775 15.2278
2.75456 1.50244 15.2152
2.8005 1.4565 15.2278
2.8005 1.4565 15.2529
2.78519 1.47181 15.2403
2.78519 1.47181 15.2403
2.78519 1.47181 15.2152
2.8005 1.4565 15.2278
2.78519 1.47181 15.2403
2.8005 1.4565 15.2529
2.78519 1.47181 15.2654
2.78519 1.47181 15.2654
2.76987 1.48713 15.2529
2.78519 1.47181 15.2403
2.75454 1.50246 15.3408
2.73923 1.51777 15.3283
2.75455 1.50245 15.3157
2.75454 1.50246 15.3408
2.76986 1.48714 15.3534
2.75454 1.50246 15.366
2.7086 1.5484 15.3283
2.72392 1.53308 15.3157
2.72392 1.53308 15.3409
2.72392 1.53308 15.3409
2.72392 1.53308 15.3157
2.73923 1.51777 15.3283
2.8005 1.4565 15.3031
2.78519 1.47181 15.2906
2.8005 1.4565 15.278
2.75455 1.50245 15.3157
2.76987 1.48713 15.3031
2.76986 1.48714 15.3282
2.76986 1.48714 15.3282
2.75454 1.50246 15.3408
2.75455 1.50245 15.3157
2.76986 1.48714 15.3534
2.75454 1.50246 15.3408
2.76986 1.48714 15.3282
2.78517 1.47183 15.4162
2.76984 1.48716 15.4288
2.76985 1.48715 15.4037
2.76985 1.48715 15.4037
2.78517 1.47183 15.3911
2.78517 1.47183 15.4162
2.76985 1.48715 15.3785
2.78517 1.47183 15.3911
2.76985 1.48715 15.4037
2.73921 1.51779 15.4289
2.73921 1.51779 15.4038
2.75452 1.50248 15.4163
2.75452 1.50248 15.4163
2.75451 1.50249 15.4415
2.73921 1.51779 15.4289
2.76984 1.48716 15.4288
2.75451 1.50249 15.4415
2.75452 1.50248 15.4163
2.75452 1.50248 15.4163
2.76985 1.48715 15.4037
2.76984 1.48716 15.4288
2.7239 1.5331 15.4164
2.73921 1.51779 15.4038
2.73921 1.51779 15.4289
2.7239 1.5331 15.4164
2.70859 1.54841 15.429
2.70859 1.54841 15.4038
2.76981 1.48719 15.5044
2.76982 1.48718 15.5295
2.75451 1.50249 15.5172
2.75451 1.50249 15.5172
2.76982 1.48718 15.5295
2.75455 1.50245 15.5426
2.7392 1.5178 15.4541
2.75451 1.50249 15.4415
2.75451 1.50249 15.4667
2.75451 1.50249 15.4667
2.7392 1.5178 15.4794
2.7392 1.5178 15.4541
2.67798 1.57902 15.3032
2.66266 1.59434 15.3157
2.66266 1.59434 15.2906
2.70859 1.54841 15.4038
2.70859 1.54841 15.3786
2.7239 1.5331 15.3912
2.7239 1.5331 15.3912
2.7239 1.5331 15.4164
2.70859 1.54841 15.4038
2.73921 1.51779 15.4038
2.7239 1.5331 15.4164
2.7239 1.5331 15.3912
2.73922 1.51778 15.3786
2.73921 1.51779 15.4038
2.7239 1.5331 15.3912
2.57068 1.68632 15.5428
2.57068 1.68632 15.5684
2.55533 1.70167 15.5549
2.55533 1.70167 15.5549
2.57068 1.68632 15.5684
2.55533 1.70167 15.5795
2.55533 1.70167 15.5549
2.55533 1.70167 15.5795
2.53996 1.71704 15.5684
2.53996 1.71704 15.5684
2.53996 1.71704 15.5428
2.55533 1.70167 15.5549
2.52458 1.73242 15.5298
2.53996 1.71704 15.5428
2.52458 1.73242 15.5549
2.50912 1.74788 15.165
2.50912 1.74788 15.1901
2.49371 1.76329 15.1776
2.41633 1.84067 15.2906
2.40077 1.85623 15.278
2.41632 1.84068 15.2654
2.41635 1.84065 15.3408
2.40081 1.85619 15.3534
2.40079 1.85621 15.3282
2.33845 1.91855 15.5045
2.32275 1.93425 15.4919
2.33843 1.91857 15.4792
2.33845 1.91855 15.5297
2.32276 1.93424 15.5171
2.33845 1.91855 15.5045
2.40087 1.85613 15.4541
2.40088 1.85612 15.4793
2.38531 1.87169 15.4667
2.30693 1.95007 15.4036
2.32265 1.93435 15.391
2.32267 1.93433 15.4162
2.30684 1.95016 15.303
2.29108 1.96592 15.3156
2.29106 1.96594 15.2905
2.32274 1.93426 15.5944
2.33845 1.91855 15.6025
2.30701 1.94999 15.6025
2.33845 1.91855 15.5794
2.33845 1.91855 15.6025
2.32274 1.93426 15.5944
2.35411 1.90289 15.5945
2.33845 1.91855 15.6025
2.33845 1.91855 15.5794
2.30704 1.94996 15.5296
2.30703 1.94997 15.5547
2.29128 1.96572 15.5425
2.55533 1.70167 15.6025
2.52458 1.73242 15.6025
2.53996 1.71704 15.5947
2.53996 1.71704 15.5684
2.55533 1.70167 15.5795
2.53996 1.71704 15.5947
2.53996 1.71704 15.5947
2.55533 1.70167 15.5795
2.55533 1.70167 15.6025
2.52458 1.73242 15.5795
2.52458 1.73242 15.5549
2.53996 1.71704 15.5684
2.53996 1.71704 15.5684
2.53996 1.71704 15.5947
2.52458 1.73242 15.5795
2.52458 1.73242 15.5795
2.53996 1.71704 15.5947
2.52458 1.73242 15.6025
2.41642 1.84058 15.4668
2.40088 1.85612 15.4793
2.40087 1.85613 15.4541
2.47831 1.77869 15.3912
2.49374 1.76326 15.3786
2.49374 1.76326 15.4038
2.49374 1.76326 15.4038
2.47832 1.77868 15.4164
2.47831 1.77869 15.3912
2.47833 1.77867 15.4416
2.47832 1.77868 15.4164
2.49375 1.76325 15.429
2.47833 1.77867 15.4416
2.49375 1.76325 15.429
2.49376 1.76324 15.4542
2.49376 1.76324 15.4542
2.47834 1.77866 15.4668
2.47833 1.77867 15.4416
2.47833 1.77867 15.4416
2.47834 1.77866 15.4668
2.46289 1.79411 15.4542
2.49377 1.76323 15.4794
2.47834 1.77866 15.4668
2.49376 1.76324 15.4542
2.49377 1.76323 15.5046
2.47835 1.77865 15.5173
2.47834 1.77866 15.4921
2.47834 1.77866 15.4921
2.49377 1.76323 15.4794
2.49377 1.76323 15.5046
2.47834 1.77866 15.4668
2.49377 1.76323 15.4794
2.47834 1.77866 15.4921
2.7852 1.4718 14.7374
2.78544 1.47156 14.7112
2.8005 1.4565 14.7264
2.76997 1.48703 14.7257
2.78544 1.47156 14.7112
2.7852 1.4718 14.7374
2.64739 1.60961 14.7255
2.64738 1.60962 14.7025
2.66272 1.59428 14.7102
2.70875 1.54825 14.7025
2.6934 1.5636 14.7102
2.67805 1.57895 14.7025
2.67805 1.57895 14.7025
2.66272 1.59428 14.7102
2.64738 1.60962 14.7025
2.19638 2.06062 14.739
2.1963 2.0607 14.7129
2.2122 2.0448 14.7264
2.2122 2.0448 14.7264
2.22771 2.02929 14.711
2.22802 2.02898 14.7375
2.18073 2.07627 14.7278
2.1963 2.0607 14.7129
2.19638 2.06062 14.739
2.18073 2.07627 14.7278
2.18123 2.07577 14.7025
2.1963 2.0607 14.7129
2.27543 1.98157 14.7257
[...]
<PointData Scalars="View Factor" >
<DataArray type="Float64" Name="View Factor" NumberOfComponents="1" format="ascii">
3.30739e-06
3.30739e-06
3.30739e-06
3.46771e-06
3.46771e-06
3.46771e-06
3.41355e-06
3.41355e-06
3.41355e-06
3.14158e-06
3.14158e-06
3.14158e-06
3.18734e-06
3.18734e-06
3.18734e-06
3.2687e-06
3.2687e-06
3.2687e-06
3.25461e-06
3.25461e-06
3.25461e-06
3.22973e-06
3.22973e-06
3.22973e-06
3.32334e-06
3.32334e-06
3.32334e-06
3.2968e-06
3.2968e-06
3.2968e-06
3.31363e-06
3.31363e-06
3.31363e-06
3.33367e-06
3.33367e-06
3.33367e-06
3.38717e-06
3.38717e-06
3.38717e-06
3.36565e-06
3.36565e-06
3.36565e-06
3.45038e-06
3.45038e-06
3.45038e-06
3.4948e-06
3.4948e-06
3.4948e-06
3.48358e-06
3.48358e-06
3.48358e-06
3.45634e-06
3.45634e-06
3.45634e-06
3.74099e-06
3.74099e-06
3.74099e-06
3.50143e-06
3.50143e-06
3.50143e-06
3.52875e-06
3.52875e-06
3.52875e-06
3.55822e-06
3.55822e-06
3.55822e-06
2.17925e-06
2.17925e-06
2.17925e-06
1.98003e-06
1.98003e-06
1.98003e-06
3.40302e-06
3.40302e-06
3.40302e-06
3.37616e-06
3.37616e-06
3.37616e-06
3.39197e-06
3.39197e-06
3.39197e-06
3.43448e-06
3.43448e-06
3.43448e-06
3.43976e-06
3.43976e-06
3.43976e-06
3.42396e-06
3.42396e-06
3.42396e-06
3.39414e-06
3.39414e-06
3.39414e-06
3.35584e-06
3.35584e-06
3.35584e-06
3.38174e-06
3.38174e-06
3.38174e-06
3.51739e-06
3.51739e-06
3.51739e-06
3.47241e-06
3.47241e-06
3.47241e-06
3.46133e-06
3.46133e-06
3.46133e-06
3.44569e-06
3.44569e-06
3.44569e-06
3.58621e-06
3.58621e-06
3.58621e-06
3.71172e-06
3.71172e-06
3.71172e-06
3.40935e-06
3.40935e-06
3.40935e-06
3.47913e-06
3.47913e-06
3.47913e-06
3.50607e-06
3.50607e-06
3.50607e-06
3.44678e-06
3.44678e-06
3.44678e-06
3.48992e-06
3.48992e-06
3.48992e-06
3.39766e-06
3.39766e-06
3.39766e-06
3.4248e-06
3.4248e-06
3.4248e-06
3.29101e-06
3.29101e-06
3.29101e-06
2.37416e-06
2.37416e-06
2.37416e-06
2.22165e-06
2.22165e-06
2.22165e-06
3.85335e-06
3.85335e-06
3.85335e-06
1.97669e-06
1.97669e-06
1.97669e-06
1.96999e-06
1.96999e-06
1.96999e-06
1.9875e-06
1.9875e-06
1.9875e-06
3.56839e-06
3.56839e-06
3.56839e-06
3.63296e-06
3.63296e-06
3.63296e-06
3.60949e-06
3.60949e-06
3.60949e-06
3.49394e-06
3.49394e-06
3.49394e-06
3.51041e-06
3.51041e-06
3.51041e-06
3.54406e-06
3.54406e-06
3.54406e-06
3.41559e-06
3.41559e-06
3.41559e-06
3.25119e-06
3.25119e-06
3.25119e-06
3.39371e-06
3.39371e-06
3.39371e-06
3.43778e-06
3.43778e-06
3.43778e-06
3.37693e-06
3.37693e-06
3.37693e-06
3.40472e-06
3.40472e-06
3.40472e-06
3.59783e-06
3.59783e-06
3.59783e-06
3.58178e-06
3.58178e-06
3.58178e-06
3.56998e-06
3.56998e-06
3.56998e-06
3.52591e-06
3.52591e-06
3.52591e-06
3.36113e-06
3.36113e-06
3.36113e-06
3.39333e-06
3.39333e-06
3.39333e-06
3.22979e-06
3.22979e-06
3.22979e-06
3.27342e-06
3.27342e-06
3.27342e-06
3.57463e-06
3.57463e-06
3.57463e-06
3.43215e-06
3.43215e-06
3.43215e-06
3.40477e-06
3.40477e-06
3.40477e-06
3.42106e-06
3.42106e-06
3.42106e-06
3.43076e-06
3.43076e-06
3.43076e-06
3.45816e-06
3.45816e-06
3.45816e-06
3.44231e-06
3.44231e-06
3.44231e-06
3.30125e-06
3.30125e-06
3.30125e-06
3.31745e-06
3.31745e-06
3.31745e-06
3.36055e-06
3.36055e-06
3.36055e-06
3.38758e-06
3.38758e-06
3.38758e-06
3.25811e-06
3.25811e-06
3.25811e-06
3.17225e-06
3.17225e-06
3.17225e-06
3.34453e-06
3.34453e-06
3.34453e-06
3.31746e-06
3.31746e-06
3.31746e-06
3.30695e-06
3.30695e-06
3.30695e-06
3.28018e-06
3.28018e-06
3.28018e-06
3.0216e-06
3.0216e-06
3.0216e-06
3.18233e-06
3.18233e-06
3.18233e-06
3.19899e-06
3.19899e-06
3.19899e-06
3.2422e-06
3.2422e-06
3.2422e-06
3.26909e-06
3.26909e-06
3.26909e-06
2.50175e-06
2.50175e-06
2.50175e-06
2.47633e-06
2.47633e-06
2.47633e-06
2.43393e-06
2.43393e-06
2.43393e-06
2.41665e-06
2.41665e-06
2.41665e-06
2.35706e-06
2.35706e-06
2.35706e-06
2.35797e-06
2.35797e-06
2.35797e-06
1.98587e-06
1.98587e-06
1.98587e-06
1.97233e-06
1.97233e-06
1.97233e-06
1.97056e-06
1.97056e-06
1.97056e-06
1.96422e-06
1.96422e-06
1.96422e-06
1.94583e-06
1.94583e-06
1.94583e-06
2.00077e-06
2.00077e-06
2.00077e-06
2.03772e-06
2.03772e-06
2.03772e-06
1.94849e-06
1.94849e-06
1.94849e-06
1.94529e-06
1.94529e-06
1.94529e-06
1.94015e-06
1.94015e-06
1.94015e-06
1.97347e-06
1.97347e-06
1.97347e-06
2.38233e-06
2.38233e-06
2.38233e-06
2.40865e-06
2.40865e-06
2.40865e-06
2.42645e-06
2.42645e-06
2.42645e-06
2.34908e-06
2.34908e-06
2.34908e-06
2.36631e-06
2.36631e-06
2.36631e-06
2.34188e-06
2.34188e-06
2.34188e-06
1.94075e-06
1.94075e-06
1.94075e-06
2.22865e-06
2.22865e-06
2.22865e-06
2.20363e-06
2.20363e-06
2.20363e-06
2.19657e-06
2.19657e-06
2.19657e-06
2.21467e-06
2.21467e-06
2.21467e-06
2.18938e-06
2.18938e-06
2.18938e-06
2.14618e-06
2.14618e-06
2.14618e-06
2.20728e-06
2.20728e-06
2.20728e-06
2.17522e-06
2.17522e-06
2.17522e-06
2.20034e-06
2.20034e-06
2.20034e-06
2.18222e-06
2.18222e-06
2.18222e-06
3.82367e-06
3.82367e-06
3.82367e-06
3.77674e-06
3.77674e-06
3.77674e-06
3.19148e-06
3.19148e-06
3.19148e-06
3.38443e-06
3.38443e-06
3.38443e-06
3.24159e-06
3.24159e-06
3.24159e-06
2.24916e-06
2.24916e-06
2.24916e-06
2.23749e-06
2.23749e-06
2.23749e-06
2.25504e-06
2.25504e-06
2.25504e-06
2.26154e-06
2.26154e-06
2.26154e-06
2.20837e-06
2.20837e-06
2.20837e-06
2.18729e-06
2.18729e-06
2.18729e-06
2.20436e-06
2.20436e-06
2.20436e-06
2.21081e-06
2.21081e-06
2.21081e-06
2.20426e-06
2.20426e-06
2.20426e-06
1.95579e-06
1.95579e-06
1.95579e-06
1.97288e-06
1.97288e-06
1.97288e-06
1.96717e-06
1.96717e-06
1.96717e-06
2.04907e-06
2.04907e-06
2.04907e-06
2.04316e-06
2.04316e-06
2.04316e-06
1.99838e-06
1.99838e-06
1.99838e-06
3.72411e-06
3.72411e-06
3.72411e-06
3.65662e-06
3.65662e-06
3.65662e-06
3.54501e-06
3.54501e-06
3.54501e-06
3.51672e-06
3.51672e-06
3.51672e-06
3.55657e-06
3.55657e-06
3.55657e-06
3.52817e-06
3.52817e-06
3.52817e-06
3.48295e-06
3.48295e-06
3.48295e-06
3.46575e-06
3.46575e-06
3.46575e-06
3.49453e-06
3.49453e-06
3.49453e-06
3.5399e-06
3.5399e-06
3.5399e-06
2.71842e-06
2.71842e-06
2.71842e-06
2.69088e-06
2.69088e-06
2.69088e-06
2.67317e-06
2.67317e-06
2.67317e-06
3.47706e-06
3.47706e-06
3.47706e-06
3.72878e-06
3.72878e-06
3.72878e-06
2.98766e-06
2.98766e-06
2.98766e-06
2.89962e-06
2.89962e-06
2.89962e-06
3.16335e-06
3.16335e-06
3.16335e-06
2.94551e-06
2.94551e-06
2.94551e-06
3.08836e-06
3.08836e-06
3.08836e-06
3.07073e-06
3.07073e-06
3.07073e-06
3.02623e-06
3.02623e-06
3.02623e-06
2.99912e-06
2.99912e-06
2.99912e-06
3.44916e-06
3.44916e-06
3.44916e-06
3.64477e-06
3.64477e-06
3.64477e-06
3.61654e-06
3.61654e-06
3.61654e-06
3.5719e-06
3.5719e-06
3.5719e-06
3.55512e-06
3.55512e-06
3.55512e-06
3.58351e-06
3.58351e-06
3.58351e-06
3.62829e-06
3.62829e-06
3.62829e-06
2.74132e-06
2.74132e-06
2.74132e-06
2.76828e-06
2.76828e-06
2.76828e-06
3.01863e-06
3.01863e-06
3.01863e-06
3.03625e-06
3.03625e-06
3.03625e-06
3.00924e-06
3.00924e-06
3.00924e-06
2.96466e-06
2.96466e-06
2.96466e-06
2.77728e-06
2.77728e-06
2.77728e-06
2.75899e-06
2.75899e-06
2.75899e-06
2.7058e-06
2.7058e-06
2.7058e-06
2.75057e-06
2.75057e-06
2.75057e-06
2.97391e-06
2.97391e-06
2.97391e-06
2.94696e-06
2.94696e-06
2.94696e-06
3.48669e-06
3.48669e-06
3.48669e-06
3.44283e-06
3.44283e-06
3.44283e-06
3.42644e-06
3.42644e-06
3.42644e-06
3.5143e-06
3.5143e-06
3.5143e-06
3.49821e-06
3.49821e-06
3.49821e-06
3.45421e-06
3.45421e-06
3.45421e-06
3.29511e-06
3.29511e-06
3.29511e-06
3.38253e-06
3.38253e-06
3.38253e-06
3.36644e-06
3.36644e-06
3.36644e-06
3.32245e-06
3.32245e-06
3.32245e-06
3.18391e-06
3.18391e-06
3.18391e-06
3.25506e-06
3.25506e-06
3.25506e-06
3.21079e-06
3.21079e-06
3.21079e-06
3.53757e-06
3.53757e-06
3.53757e-06
3.47688e-06
3.47688e-06
3.47688e-06
3.52116e-06
3.52116e-06
3.52116e-06
3.44893e-06
3.44893e-06
3.44893e-06
3.46542e-06
3.46542e-06
3.46542e-06
3.50955e-06
3.50955e-06
3.50955e-06
3.34429e-06
3.34429e-06
3.34429e-06
3.30058e-06
3.30058e-06
3.30058e-06
3.28424e-06
3.28424e-06
3.28424e-06
3.37182e-06
3.37182e-06
3.37182e-06
3.3117e-06
3.3117e-06
3.3117e-06
3.35557e-06
3.35557e-06
3.35557e-06
3.24047e-06
3.24047e-06
3.24047e-06
3.2238e-06
3.2238e-06
3.2238e-06
3.17995e-06
3.17995e-06
3.17995e-06
3.21317e-06
3.21317e-06
3.21317e-06
3.33369e-06
3.33369e-06
3.33369e-06
3.29012e-06
3.29012e-06
3.29012e-06
3.34984e-06
3.34984e-06
3.34984e-06
3.3227e-06
3.3227e-06
3.3227e-06
3.2032e-06
3.2032e-06
3.2032e-06
3.50362e-06
3.50362e-06
3.50362e-06
3.54742e-06
3.54742e-06
3.54742e-06
3.5631e-06
3.5631e-06
3.5631e-06
3.47587e-06
3.47587e-06
3.47587e-06
3.54016e-06
3.54016e-06
3.54016e-06
3.4528e-06
3.4528e-06
3.4528e-06
3.51275e-06
3.51275e-06
3.51275e-06
3.46936e-06
3.46936e-06
3.46936e-06
3.5516e-06
3.5516e-06
3.5516e-06
3.53506e-06
3.53506e-06
3.53506e-06
3.49141e-06
3.49141e-06
3.49141e-06
3.46466e-06
3.46466e-06
3.46466e-06
3.48082e-06
3.48082e-06
3.48082e-06
3.52434e-06
3.52434e-06
3.52434e-06
3.31238e-06
3.31238e-06
3.31238e-06
3.399e-06
3.399e-06
3.399e-06
3.32843e-06
3.32843e-06
3.32843e-06
3.37166e-06
3.37166e-06
3.37166e-06
3.33943e-06
3.33943e-06
3.33943e-06
3.38281e-06
3.38281e-06
3.38281e-06
3.248e-06
3.248e-06
3.248e-06
3.23131e-06
3.23131e-06
3.23131e-06
3.18825e-06
3.18825e-06
3.18825e-06
3.35487e-06
3.35487e-06
3.35487e-06
3.26983e-06
3.26983e-06
3.26983e-06
3.3393e-06
3.3393e-06
3.3393e-06
3.29649e-06
3.29649e-06
3.29649e-06
3.32855e-06
3.32855e-06
3.32855e-06
3.28589e-06
3.28589e-06
3.28589e-06
3.23882e-06
3.23882e-06
3.23882e-06
3.26505e-06
3.26505e-06
3.26505e-06
3.17017e-06
3.17017e-06
3.17017e-06
3.19655e-06
3.19655e-06
3.19655e-06
3.18017e-06
3.18017e-06
3.18017e-06
3.25894e-06
3.25894e-06
3.25894e-06
3.20625e-06
3.20625e-06
3.20625e-06
3.27496e-06
3.27496e-06
3.27496e-06
3.24864e-06
3.24864e-06
3.24864e-06
3.3499e-06
3.3499e-06
3.3499e-06
3.43611e-06
3.43611e-06
3.43611e-06
3.40887e-06
3.40887e-06
3.40887e-06
3.36594e-06
3.36594e-06
3.36594e-06
3.42013e-06
3.42013e-06
3.42013e-06
3.37707e-06
3.37707e-06
3.37707e-06
2.72385e-06
2.72385e-06
2.72385e-06
2.7064e-06
2.7064e-06
2.7064e-06
2.85568e-06
2.85568e-06
2.85568e-06
2.7678e-06
2.7678e-06
2.7678e-06
3.03857e-06
3.03857e-06
3.03857e-06
2.50905e-06
2.50905e-06
2.50905e-06
2.46873e-06
2.46873e-06
2.46873e-06
2.49331e-06
2.49331e-06
2.49331e-06
2.33153e-06
2.33153e-06
2.33153e-06
2.40266e-06
2.40266e-06
2.40266e-06
2.67889e-06
2.67889e-06
2.67889e-06
2.69669e-06
2.69669e-06
2.69669e-06
1.99167e-06
1.99167e-06
1.99167e-06
1.98669e-06
1.98669e-06
1.98669e-06
1.98499e-06
1.98499e-06
1.98499e-06
2.02496e-06
2.02496e-06
2.02496e-06
2.02984e-06
2.02984e-06
2.02984e-06
2.03031e-06
2.03031e-06
2.03031e-06
1.97623e-06
1.97623e-06
1.97623e-06
1.9634e-06
1.9634e-06
1.9634e-06
1.96862e-06
1.96862e-06
1.96862e-06
1.96822e-06
1.96822e-06
1.96822e-06
1.96536e-06
1.96536e-06
1.96536e-06
1.96568e-06
1.96568e-06
1.96568e-06
1.95489e-06
1.95489e-06
1.95489e-06
1.9605e-06
1.9605e-06
1.9605e-06
1.9739e-06
1.9739e-06
1.9739e-06
1.96872e-06
1.96872e-06
1.96872e-06
1.98435e-06
1.98435e-06
1.98435e-06
1.98961e-06
1.98961e-06
1.98961e-06
1.99546e-06
1.99546e-06
1.99546e-06
1.98147e-06
1.98147e-06
1.98147e-06
1.95605e-06
1.95605e-06
1.95605e-06
1.96121e-06
1.96121e-06
1.96121e-06
2.00667e-06
2.00667e-06
2.00667e-06
2.00724e-06
2.00724e-06
2.00724e-06
2.00838e-06
2.00838e-06
2.00838e-06
2.03829e-06
2.03829e-06
2.03829e-06
1.93366e-06
1.93366e-06
1.93366e-06
1.91827e-06
1.91827e-06
1.91827e-06
1.97523e-06
1.97523e-06
1.97523e-06
1.97455e-06
1.97455e-06
1.97455e-06
2.25475e-06
2.25475e-06
2.25475e-06
2.29955e-06
2.29955e-06
2.29955e-06
2.18107e-06
2.18107e-06
2.18107e-06
2.15534e-06
2.15534e-06
2.15534e-06
2.27962e-06
2.27962e-06
2.27962e-06
2.02703e-06
2.02703e-06
2.02703e-06
2.12812e-06
2.12812e-06
2.12812e-06
2.15321e-06
2.15321e-06
2.15321e-06
2.13231e-06
2.13231e-06
2.13231e-06
2.04666e-06
2.04666e-06
2.04666e-06
3.81151e-06
3.81151e-06
3.81151e-06
3.76009e-06
3.76009e-06
3.76009e-06
3.54152e-06
3.54152e-06
3.54152e-06
3.57016e-06
3.57016e-06
3.57016e-06
3.52684e-06
3.52684e-06
3.52684e-06
2.23203e-06
2.23203e-06
2.23203e-06
2.23158e-06
2.23158e-06
2.23158e-06
2.22257e-06
2.22257e-06
2.22257e-06
2.22606e-06
2.22606e-06
2.22606e-06
2.21982e-06
2.21982e-06
2.21982e-06
2.21429e-06
2.21429e-06
2.21429e-06
2.21389e-06
2.21389e-06
2.21389e-06
2.20696e-06
2.20696e-06
2.20696e-06
2.23648e-06
2.23648e-06
2.23648e-06
2.24166e-06
2.24166e-06
2.24166e-06
2.24235e-06
2.24235e-06
2.24235e-06
2.24982e-06
2.24982e-06
2.24982e-06
2.24401e-06
2.24401e-06
2.24401e-06
2.2581e-06
2.2581e-06
2.2581e-06
2.24039e-06
2.24039e-06
2.24039e-06
2.16598e-06
2.16598e-06
2.16598e-06
2.10602e-06
2.10602e-06
2.10602e-06
2.15305e-06
2.15305e-06
2.15305e-06
2.16652e-06
2.16652e-06
2.16652e-06
2.17354e-06
2.17354e-06
2.17354e-06
2.16709e-06
2.16709e-06
2.16709e-06
2.16181e-06
2.16181e-06
2.16181e-06
2.16123e-06
2.16123e-06
2.16123e-06
2.2019e-06
2.2019e-06
2.2019e-06
2.16324e-06
2.16324e-06
2.16324e-06
2.13235e-06
2.13235e-06
2.13235e-06
2.11795e-06
2.11795e-06
2.11795e-06
2.11169e-06
2.11169e-06
2.11169e-06
2.1813e-06
2.1813e-06
2.1813e-06
2.17547e-06
2.17547e-06
2.17547e-06
2.19303e-06
2.19303e-06
2.19303e-06
2.19893e-06
2.19893e-06
2.19893e-06
2.19832e-06
2.19832e-06
2.19832e-06
2.14969e-06
2.14969e-06
2.14969e-06
2.21621e-06
2.21621e-06
2.21621e-06
2.22338e-06
2.22338e-06
2.22338e-06
2.21679e-06
2.21679e-06
2.21679e-06
2.04187e-06
2.04187e-06
2.04187e-06
2.0359e-06
2.0359e-06
2.0359e-06
2.05491e-06
2.05491e-06
2.05491e-06
2.02389e-06
2.02389e-06
2.02389e-06
2.02454e-06
2.02454e-06
2.02454e-06
2.03059e-06
2.03059e-06
2.03059e-06
2.13372e-06
2.13372e-06
2.13372e-06
2.09572e-06
2.09572e-06
2.09572e-06
2.07925e-06
2.07925e-06
2.07925e-06
2.07973e-06
2.07973e-06
2.07973e-06
1.95085e-06
1.95085e-06
1.95085e-06
1.95604e-06
1.95604e-06
1.95604e-06
1.96194e-06
1.96194e-06
1.96194e-06
1.96252e-06
1.96252e-06
1.96252e-06
1.96101e-06
1.96101e-06
1.96101e-06
1.96637e-06
1.96637e-06
1.96637e-06
1.96452e-06
1.96452e-06
1.96452e-06
1.97139e-06
1.97139e-06
1.97139e-06
1.97163e-06
1.97163e-06
1.97163e-06
2.11811e-06
2.11811e-06
2.11811e-06
2.11131e-06
2.11131e-06
2.11131e-06
2.11184e-06
2.11184e-06
2.11184e-06
2.0426e-06
2.0426e-06
2.0426e-06
2.04122e-06
2.04122e-06
2.04122e-06
2.04726e-06
2.04726e-06
2.04726e-06
2.04807e-06
2.04807e-06
2.04807e-06
2.05897e-06
2.05897e-06
2.05897e-06
2.05235e-06
2.05235e-06
2.05235e-06
2.05277e-06
2.05277e-06
2.05277e-06
2.05788e-06
2.05788e-06
2.05788e-06
1.99894e-06
1.99894e-06
1.99894e-06
2.0002e-06
2.0002e-06
2.0002e-06
2.02767e-06
2.02767e-06
2.02767e-06
2.02796e-06
2.02796e-06
2.02796e-06
2.00372e-06
2.00372e-06
2.00372e-06
1.9929e-06
1.9929e-06
1.9929e-06
1.99637e-06
1.99637e-06
1.99637e-06
2.00373e-06
2.00373e-06
2.00373e-06
1.97815e-06
1.97815e-06
1.97815e-06
1.97771e-06
1.97771e-06
1.97771e-06
1.98224e-06
1.98224e-06
1.98224e-06
1.98758e-06
1.98758e-06
1.98758e-06
1.98302e-06
1.98302e-06
1.98302e-06
1.98903e-06
1.98903e-06
1.98903e-06
3.49423e-06
3.49423e-06
3.49423e-06
3.47581e-06
3.47581e-06
3.47581e-06
3.42841e-06
3.42841e-06
3.42841e-06
3.39944e-06
3.39944e-06
3.39944e-06
3.28611e-06
3.28611e-06
3.28611e-06
3.33345e-06
3.33345e-06
3.33345e-06
3.35216e-06
3.35216e-06
3.35216e-06
2.76757e-06
2.76757e-06
2.76757e-06
3.74653e-06
3.74653e-06
3.74653e-06
3.69964e-06
3.69964e-06
3.69964e-06
3.55871e-06
3.55871e-06
3.55871e-06
3.60574e-06
3.60574e-06
3.60574e-06
3.53328e-06
3.53328e-06
3.53328e-06
3.50531e-06
3.50531e-06
3.50531e-06
3.52227e-06
3.52227e-06
3.52227e-06
3.56713e-06
3.56713e-06
3.56713e-06
3.68047e-06
3.68047e-06
3.68047e-06
3.59017e-06
3.59017e-06
3.59017e-06
3.47164e-06
3.47164e-06
3.47164e-06
3.38171e-06
3.38171e-06
3.38171e-06
3.40978e-06
3.40978e-06
3.40978e-06
3.45493e-06
3.45493e-06
3.45493e-06
2.45239e-06
2.45239e-06
2.45239e-06
2.50601e-06
2.50601e-06
2.50601e-06
2.54715e-06
2.54715e-06
2.54715e-06
2.474e-06
2.474e-06
2.474e-06
2.42797e-06
2.42797e-06
2.42797e-06
2.4089e-06
2.4089e-06
2.4089e-06
2.5011e-06
2.5011e-06
2.5011e-06
2.43596e-06
2.43596e-06
2.43596e-06
2.48213e-06
2.48213e-06
2.48213e-06
2.49306e-06
2.49306e-06
2.49306e-06
2.40101e-06
2.40101e-06
2.40101e-06
2.34731e-06
2.34731e-06
2.34731e-06
2.11296e-06
2.11296e-06
2.11296e-06
2.36277e-06
2.36277e-06
2.36277e-06
2.15992e-06
2.15992e-06
2.15992e-06
2.8778e-06
2.8778e-06
2.8778e-06
2.53246e-06
2.53246e-06
2.53246e-06
2.51387e-06
2.51387e-06
2.51387e-06
2.62213e-06
2.62213e-06
2.62213e-06
2.69472e-06
2.69472e-06
2.69472e-06
2.66783e-06
2.66783e-06
2.66783e-06
2.70983e-06
2.70983e-06
2.70983e-06
3.14416e-06
3.14416e-06
3.14416e-06
2.99298e-06
2.99298e-06
2.99298e-06
2.97455e-06
2.97455e-06
2.97455e-06
2.92729e-06
2.92729e-06
2.92729e-06
2.90762e-06
2.90762e-06
2.90762e-06
2.57439e-06
2.57439e-06
2.57439e-06
2.72137e-06
2.72137e-06
2.72137e-06
2.6291e-06
2.6291e-06
2.6291e-06
3.55122e-06
3.55122e-06
3.55122e-06
3.50571e-06
3.50571e-06
3.50571e-06
2.86822e-06
2.86822e-06
2.86822e-06
2.9595e-06
2.9595e-06
2.9595e-06
2.94172e-06
2.94172e-06
2.94172e-06
2.89609e-06
2.89609e-06
2.89609e-06
3.05833e-06
3.05833e-06
3.05833e-06
2.90326e-06
2.90326e-06
2.90326e-06
3.04632e-06
3.04632e-06
3.04632e-06
3.70032e-06
3.70032e-06
3.70032e-06
3.71663e-06
3.71663e-06
3.71663e-06
3.70452e-06
3.70452e-06
3.70452e-06
3.61385e-06
3.61385e-06
3.61385e-06
3.64181e-06
3.64181e-06
3.64181e-06
3.68733e-06
3.68733e-06
3.68733e-06
3.69247e-06
3.69247e-06
3.69247e-06
3.66385e-06
3.66385e-06
3.66385e-06
3.61862e-06
3.61862e-06
3.61862e-06
3.60187e-06
3.60187e-06
3.60187e-06
3.63066e-06
3.63066e-06
3.63066e-06
3.67603e-06
3.67603e-06
3.67603e-06
3.59294e-06
3.59294e-06
3.59294e-06
3.54859e-06
3.54859e-06
3.54859e-06
3.53213e-06
3.53213e-06
3.53213e-06
3.62121e-06
3.62121e-06
3.62121e-06
3.56034e-06
3.56034e-06
3.56034e-06
3.60483e-06
3.60483e-06
3.60483e-06
2.99697e-06
2.99697e-06
2.99697e-06
2.92632e-06
2.92632e-06
2.92632e-06
2.97032e-06
2.97032e-06
2.97032e-06
2.97975e-06
2.97975e-06
2.97975e-06
3.11943e-06
3.11943e-06
3.11943e-06
3.03159e-06
3.03159e-06
3.03159e-06
3.04862e-06
3.04862e-06
3.04862e-06
3.09246e-06
3.09246e-06
3.09246e-06
3.04103e-06
3.04103e-06
3.04103e-06
3.0583e-06
3.0583e-06
3.0583e-06
3.10229e-06
3.10229e-06
3.10229e-06
3.12915e-06
3.12915e-06
3.12915e-06
3.22163e-06
3.22163e-06
3.22163e-06
3.13279e-06
3.13279e-06
3.13279e-06
3.19403e-06
3.19403e-06
3.19403e-06
3.14969e-06
3.14969e-06
3.14969e-06
3.28294e-06
3.28294e-06
3.28294e-06
3.26605e-06
3.26605e-06
3.26605e-06
3.0809e-06
3.0809e-06
3.0809e-06
3.09819e-06
3.09819e-06
3.09819e-06
2.9898e-06
2.9898e-06
2.9898e-06
3.00688e-06
3.00688e-06
3.00688e-06
3.06118e-06
3.06118e-06
3.06118e-06
3.01682e-06
3.01682e-06
3.01682e-06
3.33663e-06
3.33663e-06
3.33663e-06
3.30872e-06
3.30872e-06
3.30872e-06
3.24238e-06
3.24238e-06
3.24238e-06
3.43234e-06
3.43234e-06
3.43234e-06
3.46038e-06
3.46038e-06
3.46038e-06
3.3985e-06
3.3985e-06
3.3985e-06
3.4435e-06
3.4435e-06
3.4435e-06
2.90902e-06
2.90902e-06
2.90902e-06
2.93562e-06
2.93562e-06
2.93562e-06
2.91863e-06
2.91863e-06
2.91863e-06
2.87442e-06
2.87442e-06
2.87442e-06
2.84732e-06
2.84732e-06
2.84732e-06
2.86494e-06
2.86494e-06
2.86494e-06
2.83812e-06
2.83812e-06
2.83812e-06
2.7941e-06
2.7941e-06
2.7941e-06
2.92773e-06
2.92773e-06
2.92773e-06
2.95469e-06
2.95469e-06
2.95469e-06
2.9376e-06
2.9376e-06
2.9376e-06
2.89309e-06
2.89309e-06
2.89309e-06
2.75932e-06
2.75932e-06
2.75932e-06
2.80386e-06
2.80386e-06
2.80386e-06
2.95634e-06
2.95634e-06
2.95634e-06
2.92139e-06
2.92139e-06
2.92139e-06
2.81297e-06
2.81297e-06
2.81297e-06
2.90231e-06
2.90231e-06
2.90231e-06
2.83071e-06
2.83071e-06
2.83071e-06
2.87531e-06
2.87531e-06
2.87531e-06
2.86791e-06
2.86791e-06
2.86791e-06
2.52424e-06
2.52424e-06
2.52424e-06
2.49756e-06
2.49756e-06
2.49756e-06
2.71407e-06
2.71407e-06
2.71407e-06
2.6876e-06
2.6876e-06
2.6876e-06
3.20082e-06
3.20082e-06
3.20082e-06
3.1732e-06
3.1732e-06
3.1732e-06
3.23426e-06
3.23426e-06
3.23426e-06
3.19026e-06
3.19026e-06
3.19026e-06
3.3161e-06
3.3161e-06
3.3161e-06
3.2719e-06
3.2719e-06
3.2719e-06
3.3328e-06
3.3328e-06
3.3328e-06
3.24496e-06
3.24496e-06
3.24496e-06
3.30559e-06
3.30559e-06
3.30559e-06
3.26153e-06
3.26153e-06
3.26153e-06
3.14922e-06
3.14922e-06
3.14922e-06
3.26347e-06
3.26347e-06
3.26347e-06
3.21997e-06
3.21997e-06
3.21997e-06
3.27928e-06
3.27928e-06
3.27928e-06
3.19264e-06
3.19264e-06