<VTKFile type="UnstructuredGrid" version="1.0">
<UnstructuredGrid>
<Piece NumberOfPoints="8859" NumberOfCells="2953">
<Points>
<DataArray type="Float64" NumberOfComponents="3" format="ascii">
2.04744 2.20956 14.4976
2.06275 2.19425 14.5096
2.04754 2.20946 14.5233
2.07804 2.17896 14.4467
2.07805 2.17895 14.4215
2.0934 2.1636 14.434
2.06271 2.19429 14.4594
2.07804 2.17896 14.4467
2.07804 2.17896 14.4719
2.01701 2.23999 14.5499
2.03242 2.22458 14.5575
2.00164 2.25536 14.5575
2.01701 2.23999 14.5499
2.03232 2.22468 14.5346
2.03242 2.22458 14.5575
2.04777 2.20923 14.5498
2.06326 2.19374 14.5575
2.03242 2.22458 14.5575
2.04777 2.20923 14.5498
2.03232 2.22468 14.5346
2.04754 2.20946 14.5233
2.03242 2.22458 14.5575
2.03232 2.22468 14.5346
2.04777 2.20923 14.5498
2.04754 2.20946 14.5233
2.06275 2.19425 14.5096
2.06287 2.19413 14.5343
2.06287 2.19413 14.5343
2.04777 2.20923 14.5498
2.04754 2.20946 14.5233
2.06326 2.19374 14.5575
2.04777 2.20923 14.5498
2.06287 2.19413 14.5343
2.06275 2.19425 14.5096
2.04744 2.20956 14.4976
2.06271 2.19429 14.4845
2.06271 2.19429 14.4594
2.07804 2.17896 14.4719
2.06271 2.19429 14.4845
2.07809 2.17891 14.5226
2.06287 2.19413 14.5343
2.06275 2.19425 14.5096
2.0934 2.1636 14.5089
2.0934 2.1636 14.5336
2.07809 2.17891 14.5226
2.0934 2.1636 14.4089
2.0934 2.1636 14.434
2.07805 2.17895 14.4215
2.07804 2.17896 14.4467
2.0934 2.1636 14.434
2.0934 2.1636 14.4591
2.0934 2.1636 14.4591
2.07804 2.17896 14.4719
2.07804 2.17896 14.4467
2.0934 2.1636 13.8815
2.0934 2.1636 13.9067
2.07807 2.17893 13.8941
2.07807 2.17893 14.3461
2.0934 2.1636 14.3586
2.07806 2.17894 14.3712
2.0934 2.1636 14.3335
2.0934 2.1636 14.3586
2.07807 2.17893 14.3461
2.07808 2.17892 14.2204
2.0934 2.1636 14.233
2.07808 2.17892 14.2456
1.61564 2.64136 13.6656
1.63134 2.62566 13.6575
1.63134 2.62566 13.6806
1.5683 2.6887 14.5575
1.53648 2.72052 14.5575
1.55243 2.70457 14.5493
2.07804 2.17896 14.4971
2.06271 2.19429 14.4845
2.07804 2.17896 14.4719
2.06275 2.19425 14.5096
2.06271 2.19429 14.4845
2.07804 2.17896 14.4971
2.07804 2.17896 14.4971
2.07809 2.17891 14.5226
2.06275 2.19425 14.5096
2.0934 2.1636 14.5089
2.07809 2.17891 14.5226
2.07804 2.17896 14.4971
2.07833 2.17867 14.5488
2.0934 2.1636 14.5336
2.0934 2.1636 14.5575
2.07833 2.17867 14.5488
2.07809 2.17891 14.5226
2.0934 2.1636 14.5336
2.0934 2.1636 14.5575
2.06326 2.19374 14.5575
2.07833 2.17867 14.5488
2.06326 2.19374 14.5575
2.06287 2.19413 14.5343
2.07833 2.17867 14.5488
2.06287 2.19413 14.5343
2.07809 2.17891 14.5226
2.07833 2.17867 14.5488
2.07806 2.17894 14.3712
2.0934 2.1636 14.3586
2.0934 2.1636 14.3837
2.07804 2.17896 14.4719
2.0934 2.1636 14.4591
2.0934 2.1636 14.4841
2.0934 2.1636 14.5089
2.07804 2.17896 14.4971
2.0934 2.1636 14.4841
2.0934 2.1636 14.4841
2.07804 2.17896 14.4971
2.07804 2.17896 14.4719
2.0934 2.1636 14.2079
2.0934 2.1636 14.233
2.07808 2.17892 14.2204
2.07807 2.17893 13.8941
2.0934 2.1636 13.9067
2.07807 2.17893 13.9192
2.06275 2.19425 14.3335
2.04743 2.20957 14.321
2.06275 2.19425 14.3084
2.07806 2.17894 14.3964
2.0934 2.1636 14.4089
2.07805 2.17895 14.4215
2.07806 2.17894 14.3964
2.0934 2.1636 14.3837
2.0934 2.1636 14.4089
2.07806 2.17894 14.3964
2.06273 2.19427 14.3838
2.07806 2.17894 14.3712
2.07806 2.17894 14.3712
2.0934 2.1636 14.3837
2.07806 2.17894 14.3964
2.06271 2.19429 14.4342
2.07804 2.17896 14.4467
2.06271 2.19429 14.4594
2.06271 2.19429 14.4342
2.07805 2.17895 14.4215
2.07804 2.17896 14.4467
2.04741 2.20959 14.3965
2.03209 2.22491 14.4091
2.0321 2.2249 14.3839
1.83285 2.42415 14.5234
1.81747 2.43953 14.5099
1.83285 2.42415 14.4978
1.78664 2.47036 14.3588
1.78664 2.47036 14.384
1.77121 2.48579 14.3714
2.0934 2.1636 13.6575
2.0934 2.1636 13.6814
2.07833 2.17867 13.6662
1.56833 2.68867 14.5343
1.5683 2.6887 14.5575
1.55243 2.70457 14.5493
1.63134 2.62566 14.4595
1.61565 2.64135 14.4721
1.61564 2.64136 14.4469
1.55243 2.70457 14.5493
1.53648 2.72052 14.5575
1.53664 2.72036 14.5342
2.06276 2.19424 13.982
2.04745 2.20955 13.9694
2.06276 2.19424 13.9569
2.0934 2.1636 14.1326
2.07808 2.17892 14.12
2.0934 2.1636 14.1075
2.07808 2.17892 14.1702
2.0934 2.1636 14.1577
2.0934 2.1636 14.1828
2.06277 2.19423 14.0824
2.04745 2.20955 14.095
2.04745 2.20955 14.0699
2.06277 2.19423 14.1075
2.04745 2.20955 14.095
2.06277 2.19423 14.0824
2.07808 2.17892 14.12
2.06277 2.19423 14.1326
2.06277 2.19423 14.1075
2.04745 2.20955 14.2456
2.06276 2.19424 14.2581
2.04744 2.20956 14.2707
2.01682 2.24018 14.2205
2.01682 2.24018 14.2456
2.0015 2.2555 14.233
2.04745 2.20955 14.2205
2.03214 2.22486 14.2079
2.04745 2.20955 14.1953
2.04745 2.20955 14.1953
2.06277 2.19423 14.2079
2.04745 2.20955 14.2205
2.03214 2.22486 14.2079
2.03214 2.22486 14.1828
2.04745 2.20955 14.1953
2.04745 2.20955 14.1953
2.03214 2.22486 14.1828
2.04745 2.20955 14.1702
2.0934 2.1636 14.1828
2.0934 2.1636 14.2079
2.07808 2.17892 14.1953
2.07808 2.17892 14.1953
2.07808 2.17892 14.1702
2.0934 2.1636 14.1828
2.07808 2.17892 14.1953
2.0934 2.1636 14.2079
2.07808 2.17892 14.2204
2.07808 2.17892 14.2204
2.06277 2.19423 14.2079
2.07808 2.17892 14.1953
2.04744 2.20956 14.2958
2.03213 2.22487 14.2833
2.04744 2.20956 14.2707
2.04744 2.20956 14.2958
2.06275 2.19425 14.3084
2.04743 2.20957 14.321
2.0015 2.2555 14.2833
2.01681 2.24019 14.2707
2.01681 2.24019 14.2959
2.01681 2.24019 14.2959
2.01681 2.24019 14.2707
2.03213 2.22487 14.2833
2.0934 2.1636 14.2581
2.07808 2.17892 14.2456
2.0934 2.1636 14.233
2.04744 2.20956 14.2707
2.06276 2.19424 14.2581
2.06276 2.19424 14.2832
2.06276 2.19424 14.2832
2.04744 2.20956 14.2958
2.04744 2.20956 14.2707
2.06275 2.19425 14.3084
2.04744 2.20956 14.2958
2.06276 2.19424 14.2832
2.07806 2.17894 14.3712
2.06273 2.19427 14.3838
2.06274 2.19426 14.3587
2.06274 2.19426 14.3587
2.07807 2.17893 14.3461
2.07806 2.17894 14.3712
2.06275 2.19425 14.3335
2.07807 2.17893 14.3461
2.06274 2.19426 14.3587
2.0321 2.2249 14.3839
2.03211 2.22489 14.3588
2.04742 2.20958 14.3713
2.04742 2.20958 14.3713
2.04741 2.20959 14.3965
2.0321 2.2249 14.3839
2.06273 2.19427 14.3838
2.04741 2.20959 14.3965
2.04742 2.20958 14.3713
2.04742 2.20958 14.3713
2.06274 2.19426 14.3587
2.06273 2.19427 14.3838
2.01679 2.24021 14.3714
2.03211 2.22489 14.3588
2.0321 2.2249 14.3839
2.01679 2.24021 14.3714
2.00148 2.25552 14.384
2.00148 2.25552 14.3588
2.06271 2.19429 14.4594
2.06271 2.19429 14.4845
2.04741 2.20959 14.4722
2.04741 2.20959 14.4722
2.06271 2.19429 14.4845
2.04744 2.20956 14.4976
2.03209 2.22491 14.4091
2.04741 2.20959 14.3965
2.0474 2.2096 14.4217
2.0474 2.2096 14.4217
2.03209 2.22491 14.4344
2.03209 2.22491 14.4091
1.97087 2.28613 14.2582
1.95555 2.30145 14.2707
1.95555 2.30145 14.2456
2.00148 2.25552 14.3588
2.00149 2.25551 14.3336
2.0168 2.2402 14.3462
2.0168 2.2402 14.3462
2.01679 2.24021 14.3714
2.00148 2.25552 14.3588
2.03211 2.22489 14.3588
2.01679 2.24021 14.3714
2.0168 2.2402 14.3462
2.03211 2.22489 14.3336
2.03211 2.22489 14.3588
2.0168 2.2402 14.3462
1.86358 2.39342 14.4978
1.86358 2.39342 14.5234
1.84822 2.40878 14.5099
1.84822 2.40878 14.5099
1.86358 2.39342 14.5234
1.84822 2.40878 14.5345
1.84822 2.40878 14.5099
1.84822 2.40878 14.5345
1.83285 2.42415 14.5234
1.83285 2.42415 14.5234
1.83285 2.42415 14.4978
1.84822 2.40878 14.5099
1.81747 2.43953 14.4848
1.83285 2.42415 14.4978
1.81747 2.43953 14.5099
1.80202 2.45498 14.12
1.80202 2.45498 14.1451
1.7866 2.4704 14.1326
1.70922 2.54778 14.2456
1.69367 2.56333 14.233
1.70922 2.54778 14.2204
1.70924 2.54776 14.2958
1.6937 2.5633 14.3084
1.69369 2.56331 14.2832
1.63134 2.62566 14.4595
1.61564 2.64136 14.4469
1.63132 2.62568 14.4342
1.63135 2.62565 14.4847
1.61565 2.64135 14.4721
1.63134 2.62566 14.4595
1.69376 2.56324 14.4091
1.69378 2.56322 14.4343
1.6782 2.5788 14.4217
1.59983 2.65717 14.3586
1.61554 2.64146 14.346
1.61557 2.64143 14.3712
1.59973 2.65727 14.258
1.58397 2.67303 14.2706
1.58396 2.67304 14.2455
1.61564 2.64136 14.5494
1.63134 2.62566 14.5575
1.5999 2.6571 14.5575
1.63134 2.62566 14.5344
1.63134 2.62566 14.5575
1.61564 2.64136 14.5494
1.647 2.61 14.5495
1.63134 2.62566 14.5575
1.63134 2.62566 14.5344
1.59993 2.65707 14.4846
1.59992 2.65708 14.5097
1.58418 2.67282 14.4975
1.84822 2.40878 14.5575
1.81747 2.43953 14.5575
1.83285 2.42415 14.5497
1.83285 2.42415 14.5234
1.84822 2.40878 14.5345
1.83285 2.42415 14.5497
1.83285 2.42415 14.5497
1.84822 2.40878 14.5345
1.84822 2.40878 14.5575
1.81747 2.43953 14.5345
1.81747 2.43953 14.5099
1.83285 2.42415 14.5234
1.83285 2.42415 14.5234
1.83285 2.42415 14.5497
1.81747 2.43953 14.5345
1.81747 2.43953 14.5345
1.83285 2.42415 14.5497
1.81747 2.43953 14.5575
1.70931 2.54769 14.4218
1.69378 2.56322 14.4343
1.69376 2.56324 14.4091
1.7712 2.4858 14.3462
1.78663 2.47037 14.3336
1.78664 2.47036 14.3588
1.78664 2.47036 14.3588
1.77121 2.48579 14.3714
1.7712 2.4858 14.3462
1.77122 2.48578 14.3966
1.77121 2.48579 14.3714
1.78664 2.47036 14.384
1.77122 2.48578 14.3966
1.78664 2.47036 14.384
1.78665 2.47035 14.4092
1.78665 2.47035 14.4092
1.77123 2.48577 14.4218
1.77122 2.48578 14.3966
1.77122 2.48578 14.3966
1.77123 2.48577 14.4218
1.75578 2.50122 14.4092
1.78666 2.47034 14.4344
1.77123 2.48577 14.4218
1.78665 2.47035 14.4092
1.78666 2.47034 14.4596
1.77124 2.48576 14.4723
1.77124 2.48576 14.4471
1.77124 2.48576 14.4471
1.78666 2.47034 14.4344
1.78666 2.47034 14.4596
1.77123 2.48577 14.4218
1.78666 2.47034 14.4344
1.77124 2.48576 14.4471
2.07809 2.17891 13.6924
2.07833 2.17867 13.6662
2.0934 2.1636 13.6814
2.06287 2.19413 13.6807
2.07833 2.17867 13.6662
2.07809 2.17891 13.6924
1.94028 2.31672 13.6805
1.94028 2.31672 13.6575
1.95561 2.30139 13.6652
2.00164 2.25536 13.6575
1.98629 2.27071 13.6652
1.97095 2.28605 13.6575
1.97095 2.28605 13.6575
1.95561 2.30139 13.6652
1.94028 2.31672 13.6575
1.48928 2.76772 13.694
1.48919 2.76781 13.6679
1.50509 2.75191 13.6814
1.50509 2.75191 13.6814
1.5206 2.7364 13.666
1.52092 2.73608 13.6925
1.47362 2.78338 13.6828
1.48919 2.76781 13.6679
1.48928 2.76772 13.694
1.47362 2.78338 13.6828
1.47412 2.78288 13.6575
1.48919 2.76781 13.6679
1.56833 2.68867 13.6807
[...]
<PointData Scalars="View Factor" >
<DataArray type="Float64" Name="View Factor" NumberOfComponents="1" format="ascii">
0.240348
0.240348
0.240348
0.19433
0.19433
0.19433
0.208871
0.208871
0.208871
0.270392
0.270392
0.270392
0.265083
0.265083
0.265083
0.269028
0.269028
0.269028
0.257039
0.257039
0.257039
0.264563
0.264563
0.264563
0.247606
0.247606
0.247606
0.25641
0.25641
0.25641
0.263507
0.263507
0.263507
0.232123
0.232123
0.232123
0.216433
0.216433
0.216433
0.246833
0.246833
0.246833
0.245358
0.245358
0.245358
0.187389
0.187389
0.187389
0.200598
0.200598
0.200598
0.20798
0.20798
0.20798
0.0558331
0.0558331
0.0558331
0.158708
0.158708
0.158708
0.153063
0.153063
0.153063
0.115149
0.115149
0.115149
0.0787281
0.0787281
0.0787281
0.307197
0.307197
0.307197
0.223366
0.223366
0.223366
0.231272
0.231272
0.231272
0.238723
0.238723
0.238723
0.237938
0.237938
0.237938
0.261742
0.261742
0.261742
0.254271
0.254271
0.254271
0.267526
0.267526
0.267526
0.262818
0.262818
0.262818
0.254953
0.254953
0.254953
0.163643
0.163643
0.163643
0.214695
0.214695
0.214695
0.229638
0.229638
0.229638
0.222522
0.222522
0.222522
0.111294
0.111294
0.111294
0.0573625
0.0573625
0.0573625
0.146219
0.146219
0.146219
0.181575
0.181575
0.181575
0.175075
0.175075
0.175075
0.170672
0.170672
0.170672
0.169709
0.169709
0.169709
0.202418
0.202418
0.202418
0.195256
0.195256
0.195256
0.180207
0.180207
0.180207
0.276646
0.276646
0.276646
0.219531
0.219531
0.219531
0.0380442
0.0380442
0.0380442
0.304549
0.304549
0.304549
0.270238
0.270238
0.270238
0.303968
0.303968
0.303968
0.0660396
0.0660396
0.0660396
0.0881714
0.0881714
0.0881714
0.098812
0.098812
0.098812
0.0836209
0.0836209
0.0836209
0.0855251
0.0855251
0.0855251
0.0895786
0.0895786
0.0895786
0.125335
0.125335
0.125335
0.122211
0.122211
0.122211
0.11199
0.11199
0.11199
0.111008
0.111008
0.111008
0.109229
0.109229
0.109229
0.105594
0.105594
0.105594
0.104801
0.104801
0.104801
0.10212
0.10212
0.10212
0.108371
0.108371
0.108371
0.109195
0.109195
0.109195
0.134475
0.134475
0.134475
0.142126
0.142126
0.142126
0.137948
0.137948
0.137948
0.136754
0.136754
0.136754
0.118338
0.118338
0.118338
0.128774
0.128774
0.128774
0.133399
0.133399
0.133399
0.137151
0.137151
0.137151
0.16557
0.16557
0.16557
0.159671
0.159671
0.159671
0.154982
0.154982
0.154982
0.168832
0.168832
0.168832
0.173855
0.173855
0.173855
0.172752
0.172752
0.172752
0.166614
0.166614
0.166614
0.169993
0.169993
0.169993
0.17239
0.17239
0.17239
0.21735
0.21735
0.21735
0.225134
0.225134
0.225134
0.185649
0.185649
0.185649
0.192395
0.192395
0.192395
0.13603
0.13603
0.13603
0.161842
0.161842
0.161842
0.166413
0.166413
0.166413
0.165205
0.165205
0.165205
0.159419
0.159419
0.159419
0.271803
0.271803
0.271803
0.279113
0.279113
0.279113
0.280718
0.280718
0.280718
0.275141
0.275141
0.275141
0.270894
0.270894
0.270894
0.136899
0.136899
0.136899
0.180876
0.180876
0.180876
0.202436
0.202436
0.202436
0.265098
0.265098
0.265098
0.275032
0.275032
0.275032
0.251227
0.251227
0.251227
0.233097
0.233097
0.233097
0.201356
0.201356
0.201356
0.308555
0.308555
0.308555
0.305468
0.305468
0.305468
0.305494
0.305494
0.305494
0.285564
0.285564
0.285564
0.299139
0.299139
0.299139
0.288417
0.288417
0.288417
0.293729
0.293729
0.293729
0.283598
0.283598
0.283598
0.289783
0.289783
0.289783
0.296332
0.296332
0.296332
0.250353
0.250353
0.250353
0.209368
0.209368
0.209368
0.215211
0.215211
0.215211
0.225541
0.225541
0.225541
0.2301
0.2301
0.2301
0.236269
0.236269
0.236269
0.237685
0.237685
0.237685
0.241059
0.241059
0.241059
0.258829
0.258829
0.258829
0.252388
0.252388
0.252388
0.247373
0.247373
0.247373
0.0388871
0.0388871
0.0388871
0.0391663
0.0391663
0.0391663
0.0446997
0.0446997
0.0446997
0.0412548
0.0412548
0.0412548
0.0430186
0.0430186
0.0430186
0.0917581
0.0917581
0.0917581
0.0899231
0.0899231
0.0899231
0.0926408
0.0926408
0.0926408
0.0915124
0.0915124
0.0915124
0.0835204
0.0835204
0.0835204
0.0788263
0.0788263
0.0788263
0.0816826
0.0816826
0.0816826
0.116584
0.116584
0.116584
0.118194
0.118194
0.118194
0.305312
0.305312
0.305312
0.29058
0.29058
0.29058
0.295399
0.295399
0.295399
0.198826
0.198826
0.198826
0.20222
0.20222
0.20222
0.252349
0.252349
0.252349
0.0547663
0.0547663
0.0547663
0.0790581
0.0790581
0.0790581
0.0730062
0.0730062
0.0730062
0.0752527
0.0752527
0.0752527
0.0694008
0.0694008
0.0694008
0.0714995
0.0714995
0.0714995
0.0721847
0.0721847
0.0721847
0.0707374
0.0707374
0.0707374
0.0686551
0.0686551
0.0686551
0.068003
0.068003
0.068003
0.0561938
0.0561938
0.0561938
0.0577861
0.0577861
0.0577861
0.0566464
0.0566464
0.0566464
0.0673114
0.0673114
0.0673114
0.058505
0.058505
0.058505
0.131047
0.131047
0.131047
0.136495
0.136495
0.136495
0.124588
0.124588
0.124588
0.1176
0.1176
0.1176
0.104742
0.104742
0.104742
0.102477
0.102477
0.102477
0.104827
0.104827
0.104827
0.108945
0.108945
0.108945
0.0844129
0.0844129
0.0844129
0.0834413
0.0834413
0.0834413
0.086085
0.086085
0.086085
0.0867721
0.0867721
0.0867721
0.0847818
0.0847818
0.0847818
0.0821709
0.0821709
0.0821709
0.0815167
0.0815167
0.0815167
0.116765
0.116765
0.116765
0.112758
0.112758
0.112758
0.0978726
0.0978726
0.0978726
0.0993393
0.0993393
0.0993393
0.103219
0.103219
0.103219
0.105561
0.105561
0.105561
0.107176
0.107176
0.107176
0.105532
0.105532
0.105532
0.113047
0.113047
0.113047
0.110973
0.110973
0.110973
0.100129
0.100129
0.100129
0.103937
0.103937
0.103937
0.120081
0.120081
0.120081
0.121039
0.121039
0.121039
0.117887
0.117887
0.117887
0.116006
0.116006
0.116006
0.112974
0.112974
0.112974
0.113898
0.113898
0.113898
0.12107
0.12107
0.12107
0.118904
0.118904
0.118904
0.115896
0.115896
0.115896
0.116963
0.116963
0.116963
0.110928
0.110928
0.110928
0.106151
0.106151
0.106151
0.107252
0.107252
0.107252
0.102909
0.102909
0.102909
0.101209
0.101209
0.101209
0.100356
0.100356
0.100356
0.10465
0.10465
0.10465
0.107303
0.107303
0.107303
0.106414
0.106414
0.106414
0.130899
0.130899
0.130899
0.132027
0.132027
0.132027
0.128612
0.128612
0.128612
0.126384
0.126384
0.126384
0.124204
0.124204
0.124204
0.123105
0.123105
0.123105
0.129782
0.129782
0.129782
0.126516
0.126516
0.126516
0.12772
0.12772
0.12772
0.13439
0.13439
0.13439
0.139324
0.139324
0.139324
0.140475
0.140475
0.140475
0.143223
0.143223
0.143223
0.148427
0.148427
0.148427
0.142879
0.142879
0.142879
0.123391
0.123391
0.123391
0.122504
0.122504
0.122504
0.125984
0.125984
0.125984
0.127786
0.127786
0.127786
0.143294
0.143294
0.143294
0.145187
0.145187
0.145187
0.148534
0.148534
0.148534
0.149489
0.149489
0.149489
0.134285
0.134285
0.134285
0.130482
0.130482
0.130482
0.131397
0.131397
0.131397
0.136138
0.136138
0.136138
0.140081
0.140081
0.140081
0.139143
0.139143
0.139143
0.15825
0.15825
0.15825
0.156025
0.156025
0.156025
0.162873
0.162873
0.162873
0.16176
0.16176
0.16176
0.152675
0.152675
0.152675
0.151565
0.151565
0.151565
0.181344
0.181344
0.181344
0.176155
0.176155
0.176155
0.177341
0.177341
0.177341
0.203388
0.203388
0.203388
0.205406
0.205406
0.205406
0.197239
0.197239
0.197239
0.198275
0.198275
0.198275
0.210763
0.210763
0.210763
0.211739
0.211739
0.211739
0.249028
0.249028
0.249028
0.24113
0.24113
0.24113
0.258243
0.258243
0.258243
0.24972
0.24972
0.24972
0.24266
0.24266
0.24266
0.219223
0.219223
0.219223
0.234639
0.234639
0.234639
0.226027
0.226027
0.226027
0.233804
0.233804
0.233804
0.184571
0.184571
0.184571
0.182525
0.182525
0.182525
0.189267
0.189267
0.189267
0.190276
0.190276
0.190276
0.176989
0.176989
0.176989
0.178023
0.178023
0.178023
0.14667
0.14667
0.14667
0.143969
0.143969
0.143969
0.139129
0.139129
0.139129
0.144217
0.144217
0.144217
0.139433
0.139433
0.139433
0.29485
0.29485
0.29485
0.292259
0.292259
0.292259
0.28535
0.28535
0.28535
0.141127
0.141127
0.141127
0.135041
0.135041
0.135041
0.116966
0.116966
0.116966
0.118899
0.118899
0.118899
0.177657
0.177657
0.177657
0.215881
0.215881
0.215881
0.185581
0.185581
0.185581
0.172443
0.172443
0.172443
0.177872
0.177872
0.177872
0.173672
0.173672
0.173672
0.260441
0.260441
0.260441
0.280223
0.280223
0.280223
0.280446
0.280446
0.280446
0.285461
0.285461
0.285461
0.264639
0.264639
0.264639
0.259416
0.259416
0.259416
0.263579
0.263579
0.263579
0.258833
0.258833
0.258833
0.23415
0.23415
0.23415
0.233251
0.233251
0.233251
0.235796
0.235796
0.235796
0.236547
0.236547
0.236547
0.232375
0.232375
0.232375
0.214831
0.214831
0.214831
0.25281
0.25281
0.25281
0.253521
0.253521
0.253521
0.229038
0.229038
0.229038
0.22431
0.22431
0.22431
0.214907
0.214907
0.214907
0.197047
0.197047
0.197047
0.308739
0.308739
0.308739
0.308527
0.308527
0.308527
0.270574
0.270574
0.270574
0.275595
0.275595
0.275595
0.302438
0.302438
0.302438
0.297476
0.297476
0.297476
0.188385
0.188385
0.188385
0.193691
0.193691
0.193691
0.197869
0.197869
0.197869
0.297359
0.297359
0.297359
0.233017
0.233017
0.233017
0.227041
0.227041
0.227041
0.260039
0.260039
0.260039
0.262235
0.262235
0.262235
0.0378393
0.0378393
0.0378393
0.038601
0.038601
0.038601
0.0409332
0.0409332
0.0409332
0.0399968
0.0399968
0.0399968
0.0399198
0.0399198
0.0399198
0.0871692
0.0871692
0.0871692
0.089027
0.089027
0.089027
0.0844464
0.0844464
0.0844464
0.0862662
0.0862662
0.0862662
0.0872068
0.0872068
0.0872068
0.0844475
0.0844475
0.0844475
0.0862893
0.0862893
0.0862893
0.0874502
0.0874502
0.0874502
0.0920371
0.0920371
0.0920371
0.0950208
0.0950208
0.0950208
0.0929588
0.0929588
0.0929588
0.0898445
0.0898445
0.0898445
0.0889309
0.0889309
0.0889309
0.089679
0.089679
0.089679
0.0871157
0.0871157
0.0871157
0.101464
0.101464
0.101464
0.16092
0.16092
0.16092
0.104268
0.104268
0.104268
0.153188
0.153188
0.153188
0.147904
0.147904
0.147904
0.150123
0.150123
0.150123
0.146247
0.146247
0.146247
0.149302
0.149302
0.149302
0.128577
0.128577
0.128577
0.140241
0.140241
0.140241
0.178959
0.178959
0.178959
0.159342
0.159342
0.159342
0.161858
0.161858
0.161858
0.111899
0.111899
0.111899
0.110912
0.110912
0.110912
0.113824
0.113824
0.113824
0.114762
0.114762
0.114762
0.117284
0.117284
0.117284
0.11733
0.11733
0.11733
0.119951
0.119951
0.119951
0.115887
0.115887
0.115887
0.117465
0.117465
0.117465
0.13612
0.13612
0.13612
0.13833
0.13833
0.13833
0.158547
0.158547
0.158547
0.142928
0.142928
0.142928
0.139148
0.139148
0.139148
0.136899
0.136899
0.136899
0.145573
0.145573
0.145573
0.14073
0.14073
0.14073
0.148611
0.148611
0.148611
0.145114
0.145114
0.145114
0.300755
0.300755
0.300755
0.300734
0.300734
0.300734
0.295416
0.295416
0.295416
0.290497
0.290497
0.290497
0.305172
0.305172
0.305172
0.300568
0.300568
0.300568
0.308033
0.308033
0.308033
0.304794
0.304794
0.304794
0.300436
0.300436
0.300436
0.195472
0.195472
0.195472
0.202272
0.202272
0.202272
0.198578
0.198578
0.198578
0.206508
0.206508
0.206508
0.215148
0.215148
0.215148
0.211543
0.211543
0.211543
0.207283
0.207283
0.207283
0.208717
0.208717
0.208717
0.216455
0.216455
0.216455
0.21223
0.21223
0.21223
0.217051
0.217051
0.217051
0.247536
0.247536
0.247536
0.237907
0.237907
0.237907
0.236052
0.236052
0.236052
0.231563
0.231563
0.231563
0.252759
0.252759
0.252759
0.303596
0.303596
0.303596
0.306057
0.306057
0.306057
0.302773
0.302773
0.302773
0.290566
0.290566
0.290566
0.295258
0.295258
0.295258
0.300057
0.300057
0.300057
0.299814
0.299814
0.299814
0.295129
0.295129
0.295129
0.290416
0.290416
0.290416
0.0413618
0.0413618
0.0413618
0.0408381
0.0408381
0.0408381
0.0412896
0.0412896
0.0412896
0.042282
0.042282
0.042282
0.0427556
0.0427556
0.0427556
0.0422484
0.0422484
0.0422484
0.0427713
0.0427713
0.0427713
0.0729536
0.0729536
0.0729536
0.0401545
0.0401545
0.0401545
0.0404766
0.0404766
0.0404766
0.0416078
0.0416078
0.0416078
0.0412059
0.0412059
0.0412059
0.0768783
0.0768783
0.0768783
0.079284
0.079284
0.079284
0.0810421
0.0810421
0.0810421
0.0803338
0.0803338
0.0803338
0.0712115
0.0712115
0.0712115
0.0723648
0.0723648
0.0723648
0.0759721
0.0759721
0.0759721
0.0775258
0.0775258
0.0775258
0.0751692
0.0751692
0.0751692
0.0744101
0.0744101
0.0744101
0.113508
0.113508
0.113508
0.106601
0.106601
0.106601
0.0849653
0.0849653
0.0849653
0.0891557
0.0891557
0.0891557
0.0906638
0.0906638
0.0906638
0.0894469
0.0894469
0.0894469
0.0864747
0.0864747
0.0864747
0.0868082
0.0868082
0.0868082
0.0853438
0.0853438
0.0853438
0.0903706
0.0903706
0.0903706
0.0934299
0.0934299
0.0934299
0.0991811
0.0991811
0.0991811
0.0843598
0.0843598
0.0843598
0.0909089
0.0909089
0.0909089
0.0831302
0.0831302
0.0831302
0.078457
0.078457
0.078457
0.103281
0.103281
0.103281
0.101766
0.101766
0.101766
0.0896278
0.0896278
0.0896278
0.0851597
0.0851597
0.0851597
0.0879709
0.0879709
0.0879709
0.0584221
0.0584221
0.0584221
0.0458538
0.0458538
0.0458538
0.0512965
0.0512965
0.0512965
0.0508017
0.0508017
0.0508017
0.0519722
0.0519722
0.0519722
0.0516164
0.0516164
0.0516164
0.0823715
0.0823715
0.0823715
0.0744454
0.0744454
0.0744454
0.0773973
0.0773973
0.0773973
0.0647406
0.0647406
0.0647406
0.065361
0.065361
0.065361
0.0822294
0.0822294
0.0822294
0.0786682
0.0786682
0.0786682
0.0776975
0.0776975
0.0776975
0.0794452
0.0794452
0.0794452
0.0797815
0.0797815
0.0797815
0.0944248
0.0944248
0.0944248
0.094219
0.094219
0.094219
0.0601366
0.0601366
0.0601366
0.0613613
0.0613613
0.0613613
0.0644184
0.0644184
0.0644184
0.0654596
0.0654596
0.0654596
0.0636094
0.0636094
0.0636094
0.0631018
0.0631018
0.0631018
0.067695
0.067695
0.067695
0.0696867
0.0696867
0.0696867
0.0702489
0.0702489
0.0702489
0.0687909
0.0687909
0.0687909
0.0668138
0.0668138
0.0668138
0.0662795
0.0662795
0.0662795
0.0963491
0.0963491
0.0963491
0.0971043
0.0971043
0.0971043
0.0947578
0.0947578
0.0947578
0.0932825
0.0932825
0.0932825
0.0917381
0.0917381
0.0917381
0.0910173
0.0910173
0.0910173
0.123789
0.123789
0.123789
0.131401
0.131401
0.131401
0.128717
0.128717
0.128717
0.121664
0.121664
0.121664
0.125816
0.125816
0.125816
0.128337
0.128337
0.128337
0.131474
0.131474
0.131474
0.130202
0.130202
0.130202
0.121167
0.121167
0.121167
0.124058
0.124058
0.124058
0.122811
0.122811
0.122811
0.118703
0.118703
0.118703
0.101384
0.101384
0.101384
0.103597
0.103597
0.103597
0.104816
0.104816
0.104816
0.105943
0.105943
0.105943
0.102653
0.102653
0.102653
0.100322
0.100322
0.100322
0.0970788
0.0970788
0.0970788
0.0991691
0.0991691
0.0991691
0.115085
0.115085
0.115085
0.117021
0.117021
0.117021
0.108271
0.108271
0.108271
0.110712
0.110712
0.110712
0.0783566
0.0783566
0.0783566
0.0808489
0.0808489
0.0808489
0.0908589
0.0908589
0.0908589
0.0825892
0.0825892
0.0825892
0.0800391
0.0800391
0.0800391
0.0791483
0.0791483
0.0791483
0.0783522
0.0783522
0.0783522
0.129074
0.129074
0.129074
0.124264
0.124264
0.124264
0.122137
0.122137
0.122137
0.124626
0.124626
0.124626
0.129318
0.129318
0.129318
0.131637
0.131637
0.131637
0.1366
0.1366
0.1366
0.139114
0.139114
0.139114
0.115655
0.115655
0.115655
0.111374
0.111374
0.111374
0.109598
0.109598
0.109598
0.111931
0.111931
0.111931
0.118708
0.118708
0.118708
0.116486
0.116486
0.116486
0.0986463
0.0986463
0.0986463
0.0957952
0.0957952
0.0957952
0.110603
0.110603
0.110603
0.106191
0.106191
0.106191
0.112389
0.112389
0.112389
0.110147
0.110147
0.110147
0.0917854
0.0917854
0.0917854
0.108234
0.108234
0.108234
0.111724
0.111724
0.111724
0.107545
0.107545
0.107545
0.111263
0.111263
0.111263
0.113574
0.113574
0.113574
0.117504
0.117504
0.117504
0.11921
0.11921
0.11921
0.120383
0.120383
0.120383
0.107617
0.107617
0.107617
0.108686
0.108686
0.108686
0.110259
0.110259
0.110259
0.112435
0.112435
0.112435
0.114086
0.114086
0.114086
0.115192
0.115192
0.115192
0.153269
0.153269
0.153269
0.145541
0.145541
0.145541
0.14675
0.14675
0.14675
0.149592
0.149592
0.149592
0.152018
0.152018
0.152018
0.15501
0.15501
0.15501
0.156224
0.156224
0.156224
0.266077
0.266077
0.266077
0.25882
0.25882
0.25882
0.227814
0.227814
0.227814
0.22017
0.22017
0.22017
0.175762
0.175762
0.175762
0.169268
0.169268
0.169268
0.163492
0.163492
0.163492
0.144429
0.144429
0.144429
0.138826
0.138826
0.138826
0.136274
0.136274
0.136274
0.139038
0.139038
0.139038
0.161949
0.161949
0.161949
0.138144
0.138144
0.138144
0.135618
0.135618
0.135618
0.133468
0.133468
0.133468
0.132214
0.132214
0.132214
0.146673
0.146673
0.146673
0.150524
0.150524
0.150524
0.149246
0.149246
0.149246
0.144123
0.144123
0.144123
0.140421
0.140421
0.140421
0.141691
0.141691
0.141691
0.147972
0.147972
0.147972
0.15312
0.15312
0.15312
0.156072
0.156072
0.156072
0.14428
0.14428
0.14428
0.163088
0.163088
0.163088
0.158723
0.158723
0.158723
0.165595
0.165595
0.165595
0.16524
0.16524
0.16524
0.162273
0.162273
0.162273
0.171583
0.171583
0.171583
0.172138
0.172138
0.172138
0.175155
0.175155
0.175155
0.264056
0.264056
0.264056
0.262783
0.262783
0.262783
0.276015
0.276015
0.276015
0.270617
0.270617
0.270617
0.272312
0.272312
0.272312
0.266855
0.266855
0.266855
0.274868
0.274868
0.274868
0.268196
0.268196
0.268196
0.187571
0.187571
0.187571
0.19743
0.19743
0.19743
0.18898
0.18898
0.18898
0.193838
0.193838
0.193838
0.156105
0.156105
0.156105
0.151393
0.151393
0.151393
0.14631
0.14631
0.14631
0.129461
0.129461
0.129461
0.131806
0.131806
0.131806
0.136517
0.136517
0.136517
0.131769
0.131769
0.131769
0.139004
0.139004
0.139004
0.136603
0.136603
0.136603
0.143249
0.143249
0.143249
0.138813
0.138813
0.138813
0.143645
0.143645
0.143645
0.145882
0.145882
0.145882
0.129513
0.129513
0.129513
0.125048
0.125048
0.125048
0.12294
0.12294
0.12294
0.137383
0.137383
0.137383
0.135448
0.135448
0.135448
0.137825
0.137825
0.137825
0.142283
0.142283
0.142283
0.173108
0.173108
0.173108
0.147187
0.147187
0.147187
0.151331
0.151331
0.151331
0.14471
0.14471
0.14471
0.186934
0.186934
0.186934
0.18096
0.18096
0.18096
0.170743
0.170743
0.170743
0.166674
0.166674
0.166674
0.163896
0.163896
0.163896
0.254792
0.254792
0.254792
0.255355
0.255355
0.255355
0.239302
0.239302
0.239302
0.243703
0.243703
0.243703
0.248943
0.248943
0.248943
0.249629
0.249629
0.249629
0.240081
0.240081
0.240081
0.24517
0.24517
0.24517
0.251398
0.251398
0.251398
0.247013
0.247013
0.247013
0.242131
0.242131
0.242131
0.241495
0.241495
0.241495
0.245831
0.245831
0.245831
0.250854
0.250854
0.250854
0.285132
0.285132
0.285132
0.284905
0.284905
0.284905
0.295329
0.295329
0.295329
0.290394
0.290394
0.290394
0.256778
0.256778
0.256778
0.262975
0.262975
0.262975
0.257517
0.257517
0.257517
0.255134
0.255134
0.255134
0.23079
0.23079
0.23079
0.220829
0.220829
0.220829
0.224872
0.224872
0.224872
0.229925
0.229925
0.229925
0.217835
0.217835
0.217835
0.227511
0.227511
0.227511
0.22177
0.22177
0.22177
0.226679
0.226679
0.226679
0.218741
0.218741
0.218741
0.22351
0.22351
0.22351
0.206075
0.206075
0.206075
0.209853
0.209853
0.209853
0.2037
0.2037
0.2037
0.208695
0.208695
0.208695
0.244729
0.244729
0.244729
0.240144
0.240144
0.240144
0.234622
0.234622
0.234622
0.233517
0.233517
0.233517
0.22794
0.22794
0.22794
0.212578
0.212578
0.212578
0.247421
0.247421
0.247421
0.236657
0.236657
0.236657
0.237591
0.237591
0.237591
0.242894
0.242894
0.242894
0.24658
0.24658
0.24658
0.241117
0.241117
0.241117
0.214434
0.214434
0.214434
0.210053
0.210053
0.210053
0.220414
0.220414
0.220414
0.215778
0.215778
0.215778
0.185126
0.185126
0.185126
0.193722
0.193722
0.193722
0.194636
0.194636
0.194636
0.191391
0.191391
0.191391
0.279649
0.279649
0.279649
0.274686
0.274686
0.274686
0.269432
0.269432
0.269432
0.268958
0.268958
0.268958
0.300686
0.300686
0.300686
0.295226
0.295226
0.295226
0.290063
0.290063
0.290063
0.260884
0.260884
0.260884
0.265877
0.265877
0.265877
0.256345
0.256345
0.256345
0.256772
0.256772
0.256772
0.280768
0.280768
0.280768
0.275811
0.275811
0.275811
0.292206
0.292206
0.292206
0.280562
0.280562
0.280562
0.284883
0.284883
0.284883
0.279351
0.279351
0.279351
0.191628
0.191628
0.191628
0.195294
0.195294
0.195294
0.189588
0.189588
0.189588
0.193162
0.193162
0.193162
0.198319
0.198319
0.198319
0.199747
0.199747
0.199747
0.196062
0.196062
0.196062
0.191059
0.191059
0.191059
0.195772
0.195772
0.195772
0.206914
0.206914
0.206914
0.205285
0.205285
0.205285
0.199624
0.199624
0.199624
0.202932
0.202932
0.202932
0.197447
0.197447
0.197447
0.306699
0.306699
0.306699
0.302484
0.302484
0.302484
0.301851
0.301851
0.301851
0.304917
0.304917
0.304917
0.295961
0.295961
0.295961
0.282721
0.282721
0.282721
0.303549