<VTKFile type="UnstructuredGrid" version="1.0">
<UnstructuredGrid>
<Piece NumberOfPoints="8859" NumberOfCells="2953">
<Points>
<DataArray type="Float64" NumberOfComponents="3" format="ascii">
0.5 3.01 13.49
0.512524 3.01 13.5125
0.487476 3.01 13.5125
0.17352 3.01 12.6125
0.160827 3.01 12.6342
0.148445 3.01 12.6125
0.122979 3.01 12.6559
0.110383 3.01 12.6342
0.135644 3.01 12.6342
0.135644 3.01 12.6342
0.110383 3.01 12.6342
0.123433 3.01 12.6125
0.123433 3.01 12.6125
0.148445 3.01 12.6125
0.135644 3.01 12.6342
0.135644 3.01 12.6342
0.148445 3.01 12.6125
0.160827 3.01 12.6342
0.17352 3.01 12.6125
0.198629 3.01 12.6125
0.185985 3.01 12.6342
0.185985 3.01 12.6342
0.160827 3.01 12.6342
0.17352 3.01 12.6125
0.0732297 3.01 12.6557
0.0586606 3.01 12.6338
0.0848754 3.01 12.6341
0.05 3.01 13.4453
0.05 3.01 13.4001
0.058509 3.01 13.4226
0.324276 3.01 12.6125
0.349395 3.01 12.6125
0.336827 3.01 12.6342
0.148138 3.01 12.6559
0.135644 3.01 12.6342
0.160827 3.01 12.6342
0.122979 3.01 12.6559
0.135644 3.01 12.6342
0.148138 3.01 12.6559
0.160827 3.01 12.6342
0.185985 3.01 12.6342
0.173316 3.01 12.6559
0.185806 3.01 12.6775
0.160572 3.01 12.6776
0.173316 3.01 12.6559
0.173316 3.01 12.6559
0.148138 3.01 12.6559
0.160827 3.01 12.6342
0.160572 3.01 12.6776
0.148138 3.01 12.6559
0.173316 3.01 12.6559
0.211137 3.01 12.6342
0.185985 3.01 12.6342
0.198629 3.01 12.6125
0.0979162 3.01 12.6558
0.110383 3.01 12.6342
0.122979 3.01 12.6559
0.122979 3.01 12.6559
0.109875 3.01 12.6775
0.0979162 3.01 12.6558
0.0732297 3.01 12.6557
0.0848754 3.01 12.6341
0.0979162 3.01 12.6558
0.0979162 3.01 12.6558
0.0848754 3.01 12.6341
0.110383 3.01 12.6342
0.0975729 3.01 12.699
0.109875 3.01 12.6775
0.122678 3.01 12.6991
0.0841718 3.01 12.6773
0.0577122 3.01 12.677
0.0732297 3.01 12.6557
0.0729308 3.01 12.6989
0.0577122 3.01 12.677
0.0841718 3.01 12.6773
0.0732297 3.01 12.6557
0.0979162 3.01 12.6558
0.0841718 3.01 12.6773
0.0841718 3.01 12.6773
0.0979162 3.01 12.6558
0.109875 3.01 12.6775
0.0975729 3.01 12.699
0.0729308 3.01 12.6989
0.0841718 3.01 12.6773
0.0841718 3.01 12.6773
0.109875 3.01 12.6775
0.0975729 3.01 12.699
0.073948 3.01 12.6125
0.0586606 3.01 12.6338
0.05 3.01 12.6125
0.073948 3.01 12.6125
0.0848754 3.01 12.6341
0.0586606 3.01 12.6338
0.05 3.01 13.4883
0.05 3.01 13.4453
0.0603641 3.01 13.467
0.0603641 3.01 13.467
0.0753197 3.01 13.489
0.05 3.01 13.4883
0.0709395 3.01 13.5125
0.05 3.01 13.5125
0.05 3.01 13.4883
0.05 3.01 13.4883
0.0753197 3.01 13.489
0.0709395 3.01 13.5125
0.0579641 3.01 13.1996
0.05 3.01 13.2217
0.05 3.01 13.1776
0.0841948 3.01 13.1118
0.097638 3.01 13.0899
0.109814 3.01 13.1118
0.0841948 3.01 13.1118
0.0730539 3.01 13.1337
0.0578646 3.01 13.1118
0.0580261 3.01 13.2438
0.05 3.01 13.2659
0.05 3.01 13.2217
0.942292 3.01 12.8074
0.95 3.01 12.7857
0.95 3.01 12.829
0.95 3.01 12.7423
0.95 3.01 12.7857
0.942332 3.01 12.764
0.73872 3.01 13.0245
0.726137 3.01 13.0028
0.75132 3.01 13.0028
0.751305 3.01 13.0463
0.726124 3.01 13.0463
0.73872 3.01 13.0245
0.713546 3.01 13.0245
0.726137 3.01 13.0028
0.73872 3.01 13.0245
0.73872 3.01 13.0245
0.726124 3.01 13.0463
0.713546 3.01 13.0245
0.814318 3.01 13.0681
0.789096 3.01 13.0681
0.801709 3.01 13.0463
0.7765 3.01 13.0463
0.789115 3.01 13.0245
0.801709 3.01 13.0463
0.801709 3.01 13.0463
0.789096 3.01 13.0681
0.7765 3.01 13.0463
0.7765 3.01 13.0463
0.789096 3.01 13.0681
0.763892 3.01 13.0681
0.763892 3.01 13.0681
0.751305 3.01 13.0463
0.7765 3.01 13.0463
0.95 3.01 13.5125
0.929061 3.01 13.5125
0.95 3.01 13.4883
0.95 3.01 13.3104
0.926844 3.01 13.3104
0.941913 3.01 13.2882
0.941913 3.01 13.2882
0.95 3.01 13.2659
0.95 3.01 13.3104
0.926866 3.01 13.2659
0.95 3.01 13.2659
0.941913 3.01 13.2882
0.941974 3.01 13.2438
0.95 3.01 13.2659
0.926866 3.01 13.2659
0.95 3.01 13.2217
0.95 3.01 13.2659
0.941974 3.01 13.2438
0.941974 3.01 13.2438
0.926895 3.01 13.2217
0.95 3.01 13.2217
0.6127 3.01 13.5125
0.625238 3.01 13.49
0.637734 3.01 13.5125
0.662757 3.01 13.5125
0.637734 3.01 13.5125
0.650275 3.01 13.49
0.650275 3.01 13.49
0.637734 3.01 13.5125
0.625238 3.01 13.49
0.600415 3.01 13.0464
0.587856 3.01 13.0682
0.575304 3.01 13.0464
0.575304 3.01 13.0464
0.587856 3.01 13.0682
0.562749 3.01 13.0682
0.336827 3.01 12.6342
0.349395 3.01 12.6125
0.361946 3.01 12.6342
0.223755 3.01 12.6125
0.211137 3.01 12.6342
0.198629 3.01 12.6125
0.185985 3.01 12.6342
0.211137 3.01 12.6342
0.198492 3.01 12.6559
0.185806 3.01 12.6775
0.173316 3.01 12.6559
0.198492 3.01 12.6559
0.198492 3.01 12.6559
0.173316 3.01 12.6559
0.185985 3.01 12.6342
0.0576202 3.01 12.7205
0.05 3.01 12.7423
0.05 3.01 12.6987
0.05 3.01 12.6987
0.0729308 3.01 12.6989
0.0576202 3.01 12.7205
0.05 3.01 12.6987
0.0577122 3.01 12.677
0.0729308 3.01 12.6989
0.135283 3.01 12.6775
0.109875 3.01 12.6775
0.122979 3.01 12.6559
0.135283 3.01 12.6775
0.122678 3.01 12.6991
0.109875 3.01 12.6775
0.122979 3.01 12.6559
0.148138 3.01 12.6559
0.135283 3.01 12.6775
0.135283 3.01 12.6775
0.148138 3.01 12.6559
0.160572 3.01 12.6776
0.123433 3.01 12.6125
0.110383 3.01 12.6342
0.0985513 3.01 12.6125
0.110383 3.01 12.6342
0.0848754 3.01 12.6341
0.0985513 3.01 12.6125
0.0848754 3.01 12.6341
0.073948 3.01 12.6125
0.0985513 3.01 12.6125
0.0603641 3.01 13.467
0.05 3.01 13.4453
0.0739464 3.01 13.4445
0.0739464 3.01 13.4445
0.05 3.01 13.4453
0.058509 3.01 13.4226
0.058509 3.01 13.4226
0.0849548 3.01 13.4221
0.0739464 3.01 13.4445
0.058509 3.01 13.4226
0.05 3.01 13.4001
0.0732725 3.01 13.3999
0.0732725 3.01 13.3999
0.0849548 3.01 13.4221
0.058509 3.01 13.4226
0.5 3.01 13.49
0.487476 3.01 13.5125
0.47495 3.01 13.49
0.097663 3.01 13.1337
0.0841948 3.01 13.1118
0.109814 3.01 13.1118
0.0730539 3.01 13.1337
0.0841948 3.01 13.1118
0.097663 3.01 13.1337
0.0578646 3.01 13.1118
0.0730539 3.01 13.1337
0.05 3.01 13.1337
0.05 3.01 13.1337
0.05 3.01 13.0899
0.0578646 3.01 13.1118
0.05 3.01 13.3104
0.05 3.01 13.2659
0.0580869 3.01 13.2882
0.05 3.01 13.2659
0.0580261 3.01 13.2438
0.073134 3.01 13.2659
0.073134 3.01 13.2659
0.0580869 3.01 13.2882
0.05 3.01 13.2659
0.942268 3.01 12.8507
0.95 3.01 12.829
0.95 3.01 12.8724
0.942292 3.01 12.8074
0.95 3.01 12.829
0.927025 3.01 12.829
0.927025 3.01 12.829
0.942268 3.01 12.8507
0.915919 3.01 12.8507
0.95 3.01 12.829
0.942268 3.01 12.8507
0.927025 3.01 12.829
0.927013 3.01 12.8724
0.942268 3.01 12.8507
0.95 3.01 12.8724
0.915919 3.01 12.8507
0.942268 3.01 12.8507
0.927013 3.01 12.8724
0.801738 3.01 12.9593
0.814364 3.01 12.9375
0.826957 3.01 12.9592
0.852174 3.01 12.9592
0.826957 3.01 12.9592
0.839609 3.01 12.9375
0.839609 3.01 12.9375
0.826957 3.01 12.9592
0.814364 3.01 12.9375
0.776516 3.01 13.0027
0.75132 3.01 13.0028
0.763923 3.01 12.981
0.776516 3.01 13.0027
0.801725 3.01 13.0027
0.789115 3.01 13.0245
0.738704 3.01 13.0681
0.751305 3.01 13.0463
0.763892 3.01 13.0681
0.726124 3.01 13.0463
0.751305 3.01 13.0463
0.738704 3.01 13.0681
0.915617 3.01 13.2881
0.902228 3.01 13.2659
0.926866 3.01 13.2659
0.926866 3.01 13.2659
0.941913 3.01 13.2882
0.915617 3.01 13.2881
0.915617 3.01 13.2881
0.941913 3.01 13.2882
0.926844 3.01 13.3104
0.915617 3.01 13.2881
0.926844 3.01 13.3104
0.902193 3.01 13.3104
0.926866 3.01 13.2659
0.902228 3.01 13.2659
0.915668 3.01 13.2438
0.902267 3.01 13.2217
0.926895 3.01 13.2217
0.915668 3.01 13.2438
0.915668 3.01 13.2438
0.941974 3.01 13.2438
0.926866 3.01 13.2659
0.926895 3.01 13.2217
0.941974 3.01 13.2438
0.915668 3.01 13.2438
0.902267 3.01 13.2217
0.915668 3.01 13.2438
0.890059 3.01 13.2438
0.890059 3.01 13.2438
0.915668 3.01 13.2438
0.902228 3.01 13.2659
0.826927 3.01 13.0463
0.814318 3.01 13.0681
0.801709 3.01 13.0463
0.864816 3.01 13.1118
0.877308 3.01 13.0899
0.890186 3.01 13.1118
0.877308 3.01 13.0899
0.864816 3.01 13.1118
0.852122 3.01 13.0899
0.890186 3.01 13.1118
0.877308 3.01 13.0899
0.902362 3.01 13.0899
0.902362 3.01 13.0899
0.915805 3.01 13.1118
0.890186 3.01 13.1118
0.902362 3.01 13.0899
0.926964 3.01 13.0899
0.915805 3.01 13.1118
0.915835 3.01 13.0681
0.926964 3.01 13.0899
0.902362 3.01 13.0899
0.942171 3.01 13.0681
0.926964 3.01 13.0899
0.915835 3.01 13.0681
0.915835 3.01 13.0681
0.926978 3.01 13.0463
0.942171 3.01 13.0681
0.942171 3.01 13.0681
0.926978 3.01 13.0463
0.95 3.01 13.0463
0.87737 3.01 12.9158
0.890277 3.01 12.8941
0.902417 3.01 12.9158
0.852144 3.01 13.0463
0.877329 3.01 13.0463
0.864842 3.01 13.0681
0.877308 3.01 13.0899
0.852122 3.01 13.0899
0.864842 3.01 13.0681
0.902396 3.01 13.0027
0.915858 3.01 13.0245
0.890234 3.01 13.0245
0.926997 3.01 12.9592
0.942237 3.01 12.9375
0.95 3.01 12.9592
0.91589 3.01 12.9375
0.942237 3.01 12.9375
0.926997 3.01 12.9592
0.942199 3.01 13.0245
0.95 3.01 13.0027
0.95 3.01 13.0463
0.95 3.01 13.0463
0.926978 3.01 13.0463
0.942199 3.01 13.0245
0.942199 3.01 13.0245
0.926978 3.01 13.0463
0.915858 3.01 13.0245
0.95 3.01 12.9592
0.95 3.01 13.0027
0.942221 3.01 12.981
0.942221 3.01 12.981
0.926997 3.01 12.9592
0.95 3.01 12.9592
0.915876 3.01 12.981
0.926997 3.01 12.9592
0.942221 3.01 12.981
0.926989 3.01 13.0027
0.915858 3.01 13.0245
0.902396 3.01 13.0027
0.902396 3.01 13.0027
0.915876 3.01 12.981
0.926989 3.01 13.0027
0.926989 3.01 13.0027
0.942199 3.01 13.0245
0.915858 3.01 13.0245
0.95 3.01 13.0027
0.942199 3.01 13.0245
0.926989 3.01 13.0027
0.915876 3.01 12.981
0.942221 3.01 12.981
0.926989 3.01 13.0027
0.926989 3.01 13.0027
0.942221 3.01 12.981
0.95 3.01 13.0027
0.91353 3.01 13.4669
0.926054 3.01 13.4445
0.939636 3.01 13.467
0.926728 3.01 13.3999
0.95 3.01 13.4001
0.941491 3.01 13.4226
0.926728 3.01 13.3999
0.941822 3.01 13.3775
0.95 3.01 13.4001
0.95 3.01 13.4453
0.95 3.01 13.4883
0.939636 3.01 13.467
0.95 3.01 13.4453
0.926054 3.01 13.4445
0.941491 3.01 13.4226
0.939636 3.01 13.467
0.926054 3.01 13.4445
0.95 3.01 13.4453
0.941491 3.01 13.4226
0.95 3.01 13.4001
0.95 3.01 13.4453
0.941869 3.01 13.3327
0.926844 3.01 13.3104
0.95 3.01 13.3104
0.762942 3.01 13.4673
0.75028 3.01 13.4899
0.737933 3.01 13.4673
0.71291 3.01 13.4674
0.725533 3.01 13.4449
0.737933 3.01 13.4673
0.71291 3.01 13.4674
0.737933 3.01 13.4673
0.725313 3.01 13.4899
0.725313 3.01 13.4899
0.737933 3.01 13.4673
[...]
<PointData Scalars="View Factor" >
<DataArray type="Float64" Name="View Factor" NumberOfComponents="1" format="ascii">
1.90972e-05
1.90972e-05
1.90972e-05
2.27369e-05
2.27369e-05
2.27369e-05
2.26396e-05
2.26396e-05
2.26396e-05
2.27052e-05
2.27052e-05
2.27052e-05
2.27377e-05
2.27377e-05
2.27377e-05
2.27044e-05
2.27044e-05
2.27044e-05
2.27359e-05
2.27359e-05
2.27359e-05
2.27035e-05
2.27035e-05
2.27035e-05
2.26417e-05
2.26417e-05
2.26417e-05
1.94236e-05
1.94236e-05
1.94236e-05
2.27271e-05
2.27271e-05
2.27271e-05
2.26388e-05
2.26388e-05
2.26388e-05
2.26065e-05
2.26065e-05
2.26065e-05
2.26379e-05
2.26379e-05
2.26379e-05
2.25076e-05
2.25076e-05
2.25076e-05
2.26057e-05
2.26057e-05
2.26057e-05
2.25405e-05
2.25405e-05
2.25405e-05
2.27025e-05
2.27025e-05
2.27025e-05
2.26073e-05
2.26073e-05
2.26073e-05
2.25422e-05
2.25422e-05
2.25422e-05
2.26083e-05
2.26083e-05
2.26083e-05
2.26404e-05
2.26404e-05
2.26404e-05
2.24129e-05
2.24129e-05
2.24129e-05
2.25118e-05
2.25118e-05
2.25118e-05
2.24471e-05
2.24471e-05
2.24471e-05
2.25433e-05
2.25433e-05
2.25433e-05
2.25103e-05
2.25103e-05
2.25103e-05
2.24141e-05
2.24141e-05
2.24141e-05
2.24457e-05
2.24457e-05
2.24457e-05
2.274e-05
2.274e-05
2.274e-05
2.2707e-05
2.2707e-05
2.2707e-05
1.92592e-05
1.92592e-05
1.92592e-05
1.92053e-05
1.92053e-05
1.92053e-05
1.91207e-05
1.91207e-05
1.91207e-05
1.91494e-05
1.91494e-05
1.91494e-05
2.02802e-05
2.02802e-05
2.02802e-05
2.06594e-05
2.06594e-05
2.06594e-05
2.0601e-05
2.0601e-05
2.0601e-05
2.01069e-05
2.01069e-05
2.01069e-05
2.181e-05
2.181e-05
2.181e-05
2.19983e-05
2.19983e-05
2.19983e-05
2.09917e-05
2.09917e-05
2.09917e-05
2.08726e-05
2.08726e-05
2.08726e-05
2.09637e-05
2.09637e-05
2.09637e-05
2.09041e-05
2.09041e-05
2.09041e-05
2.07742e-05
2.07742e-05
2.07742e-05
2.0865e-05
2.0865e-05
2.0865e-05
2.08057e-05
2.08057e-05
2.08057e-05
2.07781e-05
2.07781e-05
2.07781e-05
2.08095e-05
2.08095e-05
2.08095e-05
1.90439e-05
1.90439e-05
1.90439e-05
1.97967e-05
1.97967e-05
1.97967e-05
1.98521e-05
1.98521e-05
1.98521e-05
1.99104e-05
1.99104e-05
1.99104e-05
1.99675e-05
1.99675e-05
1.99675e-05
2.00233e-05
2.00233e-05
2.00233e-05
2.0082e-05
2.0082e-05
2.0082e-05
1.9085e-05
1.9085e-05
1.9085e-05
1.90823e-05
1.90823e-05
1.90823e-05
1.91111e-05
1.91111e-05
1.91111e-05
2.08328e-05
2.08328e-05
2.08328e-05
2.08046e-05
2.08046e-05
2.08046e-05
2.26933e-05
2.26933e-05
2.26933e-05
2.27348e-05
2.27348e-05
2.27348e-05
2.26369e-05
2.26369e-05
2.26369e-05
2.25396e-05
2.25396e-05
2.25396e-05
2.26048e-05
2.26048e-05
2.26048e-05
2.22864e-05
2.22864e-05
2.22864e-05
2.23507e-05
2.23507e-05
2.23507e-05
2.24154e-05
2.24154e-05
2.24154e-05
2.25094e-05
2.25094e-05
2.25094e-05
2.24447e-05
2.24447e-05
2.24447e-05
2.25414e-05
2.25414e-05
2.25414e-05
2.25085e-05
2.25085e-05
2.25085e-05
2.27384e-05
2.27384e-05
2.27384e-05
2.27059e-05
2.27059e-05
2.27059e-05
2.27391e-05
2.27391e-05
2.27391e-05
1.93132e-05
1.93132e-05
1.93132e-05
1.93683e-05
1.93683e-05
1.93683e-05
1.93969e-05
1.93969e-05
1.93969e-05
1.94802e-05
1.94802e-05
1.94802e-05
1.94525e-05
1.94525e-05
1.94525e-05
1.91258e-05
1.91258e-05
1.91258e-05
2.06006e-05
2.06006e-05
2.06006e-05
2.05714e-05
2.05714e-05
2.05714e-05
2.05718e-05
2.05718e-05
2.05718e-05
2.06306e-05
2.06306e-05
2.06306e-05
1.99346e-05
1.99346e-05
1.99346e-05
2.00493e-05
2.00493e-05
2.00493e-05
1.99919e-05
1.99919e-05
1.99919e-05
2.16238e-05
2.16238e-05
2.16238e-05
2.17492e-05
2.17492e-05
2.17492e-05
2.16584e-05
2.16584e-05
2.16584e-05
2.16871e-05
2.16871e-05
2.16871e-05
2.15636e-05
2.15636e-05
2.15636e-05
2.15967e-05
2.15967e-05
2.15967e-05
2.12203e-05
2.12203e-05
2.12203e-05
2.12161e-05
2.12161e-05
2.12161e-05
2.12485e-05
2.12485e-05
2.12485e-05
2.10478e-05
2.10478e-05
2.10478e-05
2.09841e-05
2.09841e-05
2.09841e-05
2.07818e-05
2.07818e-05
2.07818e-05
2.08132e-05
2.08132e-05
2.08132e-05
1.99147e-05
1.99147e-05
1.99147e-05
1.98839e-05
1.98839e-05
1.98839e-05
1.98271e-05
1.98271e-05
1.98271e-05
1.98009e-05
1.98009e-05
1.98009e-05
1.99718e-05
1.99718e-05
1.99718e-05
2.00863e-05
2.00863e-05
2.00863e-05
1.99981e-05
1.99981e-05
1.99981e-05
2.00553e-05
2.00553e-05
2.00553e-05
2.00597e-05
2.00597e-05
2.00597e-05
2.00024e-05
2.00024e-05
2.00024e-05
2.08018e-05
2.08018e-05
2.08018e-05
2.05854e-05
2.05854e-05
2.05854e-05
2.06168e-05
2.06168e-05
2.06168e-05
2.06125e-05
2.06125e-05
2.06125e-05
2.0581e-05
2.0581e-05
2.0581e-05
2.06081e-05
2.06081e-05
2.06081e-05
2.06668e-05
2.06668e-05
2.06668e-05
2.06939e-05
2.06939e-05
2.06939e-05
2.07528e-05
2.07528e-05
2.07528e-05
2.07802e-05
2.07802e-05
2.07802e-05
2.13893e-05
2.13893e-05
2.13893e-05
2.07935e-05
2.07935e-05
2.07935e-05
2.06755e-05
2.06755e-05
2.06755e-05
2.09352e-05
2.09352e-05
2.09352e-05
2.11981e-05
2.11981e-05
2.11981e-05
2.12304e-05
2.12304e-05
2.12304e-05
2.08973e-05
2.08973e-05
2.08973e-05
2.08394e-05
2.08394e-05
2.08394e-05
2.08711e-05
2.08711e-05
2.08711e-05
2.10763e-05
2.10763e-05
2.10763e-05
2.11378e-05
2.11378e-05
2.11378e-05
2.11099e-05
2.11099e-05
2.11099e-05
2.09628e-05
2.09628e-05
2.09628e-05
2.10225e-05
2.10225e-05
2.10225e-05
2.09306e-05
2.09306e-05
2.09306e-05
2.09582e-05
2.09582e-05
2.09582e-05
2.105e-05
2.105e-05
2.105e-05
2.10179e-05
2.10179e-05
2.10179e-05
1.92115e-05
1.92115e-05
1.92115e-05
1.94019e-05
1.94019e-05
1.94019e-05
1.94579e-05
1.94579e-05
1.94579e-05
1.91809e-05
1.91809e-05
1.91809e-05
1.92907e-05
1.92907e-05
1.92907e-05
1.9236e-05
1.9236e-05
1.9236e-05
1.93442e-05
1.93442e-05
1.93442e-05
1.974e-05
1.974e-05
1.974e-05
1.91806e-05
1.91806e-05
1.91806e-05
1.9239e-05
1.9239e-05
1.9239e-05
1.91837e-05
1.91837e-05
1.91837e-05
1.91545e-05
1.91545e-05
1.91545e-05
1.90734e-05
1.90734e-05
1.90734e-05
1.90994e-05
1.90994e-05
1.90994e-05
1.90702e-05
1.90702e-05
1.90702e-05
1.94412e-05
1.94412e-05
1.94412e-05
1.93502e-05
1.93502e-05
1.93502e-05
1.92683e-05
1.92683e-05
1.92683e-05
1.93238e-05
1.93238e-05
1.93238e-05
1.92741e-05
1.92741e-05
1.92741e-05
1.93296e-05
1.93296e-05
1.93296e-05
1.91689e-05
1.91689e-05
1.91689e-05
1.91138e-05
1.91138e-05
1.91138e-05
1.90877e-05
1.90877e-05
1.90877e-05
2.09363e-05
2.09363e-05
2.09363e-05
2.08017e-05
2.08017e-05
2.08017e-05
2.06302e-05
2.06302e-05
2.06302e-05
2.05687e-05
2.05687e-05
2.05687e-05
2.06275e-05
2.06275e-05
2.06275e-05
2.06583e-05
2.06583e-05
2.06583e-05
2.07454e-05
2.07454e-05
2.07454e-05
2.07173e-05
2.07173e-05
2.07173e-05
2.05715e-05
2.05715e-05
2.05715e-05
2.05408e-05
2.05408e-05
2.05408e-05
2.0222e-05
2.0222e-05
2.0222e-05
2.06154e-05
2.06154e-05
2.06154e-05
2.06464e-05
2.06464e-05
2.06464e-05
2.07152e-05
2.07152e-05
2.07152e-05
2.05976e-05
2.05976e-05
2.05976e-05
2.27306e-05
2.27306e-05
2.27306e-05
2.27322e-05
2.27322e-05
2.27322e-05
2.26986e-05
2.26986e-05
2.26986e-05
2.26331e-05
2.26331e-05
2.26331e-05
2.26519e-05
2.26519e-05
2.26519e-05
2.11641e-05
2.11641e-05
2.11641e-05
2.10439e-05
2.10439e-05
2.10439e-05
2.11359e-05
2.11359e-05
2.11359e-05
2.10758e-05
2.10758e-05
2.10758e-05
2.10797e-05
2.10797e-05
2.10797e-05
2.10516e-05
2.10516e-05
2.10516e-05
2.25996e-05
2.25996e-05
2.25996e-05
2.27251e-05
2.27251e-05
2.27251e-05
2.26941e-05
2.26941e-05
2.26941e-05
2.17376e-05
2.17376e-05
2.17376e-05
2.17696e-05
2.17696e-05
2.17696e-05
2.24808e-05
2.24808e-05
2.24808e-05
2.26755e-05
2.26755e-05
2.26755e-05
2.26103e-05
2.26103e-05
2.26103e-05
2.25453e-05
2.25453e-05
2.25453e-05
1.93696e-05
1.93696e-05
1.93696e-05
1.90993e-05
1.90993e-05
1.90993e-05
2.02223e-05
2.02223e-05
2.02223e-05
2.01645e-05
2.01645e-05
2.01645e-05
2.05128e-05
2.05128e-05
2.05128e-05
2.22165e-05
2.22165e-05
2.22165e-05
2.02215e-05
2.02215e-05
2.02215e-05
2.01637e-05
2.01637e-05
2.01637e-05
2.06886e-05
2.06886e-05
2.06886e-05
2.06588e-05
2.06588e-05
2.06588e-05
2.07481e-05
2.07481e-05
2.07481e-05
2.06891e-05
2.06891e-05
2.06891e-05
2.06894e-05
2.06894e-05
2.06894e-05
2.06598e-05
2.06598e-05
2.06598e-05
2.08078e-05
2.08078e-05
2.08078e-05
2.07485e-05
2.07485e-05
2.07485e-05
2.07779e-05
2.07779e-05
2.07779e-05
2.08372e-05
2.08372e-05
2.08372e-05
2.08671e-05
2.08671e-05
2.08671e-05
2.08527e-05
2.08527e-05
2.08527e-05
2.08802e-05
2.08802e-05
2.08802e-05
2.15684e-05
2.15684e-05
2.15684e-05
2.116e-05
2.116e-05
2.116e-05
2.11319e-05
2.11319e-05
2.11319e-05
2.10719e-05
2.10719e-05
2.10719e-05
2.12442e-05
2.12442e-05
2.12442e-05
2.12118e-05
2.12118e-05
2.12118e-05
2.14221e-05
2.14221e-05
2.14221e-05
2.17826e-05
2.17826e-05
2.17826e-05
2.15986e-05
2.15986e-05
2.15986e-05
2.0988e-05
2.0988e-05
2.0988e-05
2.08689e-05
2.08689e-05
2.08689e-05
2.08967e-05
2.08967e-05
2.08967e-05
2.09562e-05
2.09562e-05
2.09562e-05
2.096e-05
2.096e-05
2.096e-05
2.09005e-05
2.09005e-05
2.09005e-05
2.07227e-05
2.07227e-05
2.07227e-05
2.06951e-05
2.06951e-05
2.06951e-05
2.07854e-05
2.07854e-05
2.07854e-05
2.07263e-05
2.07263e-05
2.07263e-05
2.05534e-05
2.05534e-05
2.05534e-05
2.05224e-05
2.05224e-05
2.05224e-05
2.07053e-05
2.07053e-05
2.07053e-05
2.05225e-05
2.05225e-05
2.05225e-05
2.00905e-05
2.00905e-05
2.00905e-05
2.01521e-05
2.01521e-05
2.01521e-05
2.0148e-05
2.0148e-05
2.0148e-05
2.01788e-05
2.01788e-05
2.01788e-05
1.92622e-05
1.92622e-05
1.92622e-05
1.9236e-05
1.9236e-05
1.9236e-05
1.92653e-05
1.92653e-05
1.92653e-05
1.93208e-05
1.93208e-05
1.93208e-05
1.9571e-05
1.9571e-05
1.9571e-05
1.93932e-05
1.93932e-05
1.93932e-05
1.93375e-05
1.93375e-05
1.93375e-05
1.96435e-05
1.96435e-05
1.96435e-05
1.95908e-05
1.95908e-05
1.95908e-05
1.96697e-05
1.96697e-05
1.96697e-05
2.10399e-05
2.10399e-05
2.10399e-05
2.07702e-05
2.07702e-05
2.07702e-05
2.07977e-05
2.07977e-05
2.07977e-05
2.07661e-05
2.07661e-05
2.07661e-05
2.07071e-05
2.07071e-05
2.07071e-05
2.0531e-05
2.0531e-05
2.0531e-05
2.05896e-05
2.05896e-05
2.05896e-05
2.07847e-05
2.07847e-05
2.07847e-05
2.08484e-05
2.08484e-05
2.08484e-05
2.08439e-05
2.08439e-05
2.08439e-05
2.08758e-05
2.08758e-05
2.08758e-05
2.06624e-05
2.06624e-05
2.06624e-05
2.07198e-05
2.07198e-05
2.07198e-05
2.10547e-05
2.10547e-05
2.10547e-05
2.11515e-05
2.11515e-05
2.11515e-05
2.11192e-05
2.11192e-05
2.11192e-05
2.12957e-05
2.12957e-05
2.12957e-05
2.12398e-05
2.12398e-05
2.12398e-05
2.13284e-05
2.13284e-05
2.13284e-05
2.13003e-05
2.13003e-05
2.13003e-05
2.14174e-05
2.14174e-05
2.14174e-05
2.14786e-05
2.14786e-05
2.14786e-05
2.15069e-05
2.15069e-05
2.15069e-05
1.91678e-05
1.91678e-05
1.91678e-05
1.92265e-05
1.92265e-05
1.92265e-05
1.91288e-05
1.91288e-05
1.91288e-05
1.9157e-05
1.9157e-05
1.9157e-05
1.90739e-05
1.90739e-05
1.90739e-05
1.92413e-05
1.92413e-05
1.92413e-05
1.94071e-05
1.94071e-05
1.94071e-05
1.92964e-05
1.92964e-05
1.92964e-05
1.93212e-05
1.93212e-05
1.93212e-05
1.93765e-05
1.93765e-05
1.93765e-05
1.95049e-05
1.95049e-05
1.95049e-05
1.95872e-05
1.95872e-05
1.95872e-05
1.95609e-05
1.95609e-05
1.95609e-05
1.95572e-05
1.95572e-05
1.95572e-05
1.97442e-05
1.97442e-05
1.97442e-05
1.97136e-05
1.97136e-05
1.97136e-05
1.94882e-05
1.94882e-05
1.94882e-05
1.94627e-05
1.94627e-05
1.94627e-05
1.92449e-05
1.92449e-05
1.92449e-05
1.9242e-05
1.9242e-05
1.9242e-05
1.92712e-05
1.92712e-05
1.92712e-05
1.90764e-05
1.90764e-05
1.90764e-05
1.91024e-05
1.91024e-05
1.91024e-05
1.91575e-05
1.91575e-05
1.91575e-05
1.91867e-05
1.91867e-05
1.91867e-05
1.90864e-05
1.90864e-05
1.90864e-05
1.91711e-05
1.91711e-05
1.91711e-05
1.91418e-05
1.91418e-05
1.91418e-05
1.90603e-05
1.90603e-05
1.90603e-05
1.91514e-05
1.91514e-05
1.91514e-05
1.90962e-05
1.90962e-05
1.90962e-05
1.9406e-05
1.9406e-05
1.9406e-05
1.94354e-05
1.94354e-05
1.94354e-05
1.98334e-05
1.98334e-05
1.98334e-05
1.98603e-05
1.98603e-05
1.98603e-05
1.96837e-05
1.96837e-05
1.96837e-05
1.94914e-05
1.94914e-05
1.94914e-05
1.95179e-05
1.95179e-05
1.95179e-05
1.94973e-05
1.94973e-05
1.94973e-05
1.96571e-05
1.96571e-05
1.96571e-05
1.96007e-05
1.96007e-05
1.96007e-05
1.95741e-05
1.95741e-05
1.95741e-05
1.96038e-05
1.96038e-05
1.96038e-05
1.93531e-05
1.93531e-05
1.93531e-05
1.94119e-05
1.94119e-05
1.94119e-05
1.93561e-05
1.93561e-05
1.93561e-05
1.93268e-05
1.93268e-05
1.93268e-05
1.94384e-05
1.94384e-05
1.94384e-05
1.94089e-05
1.94089e-05
1.94089e-05
1.92477e-05
1.92477e-05
1.92477e-05
1.91924e-05
1.91924e-05
1.91924e-05
1.91662e-05
1.91662e-05
1.91662e-05
1.91951e-05
1.91951e-05
1.91951e-05
1.93589e-05
1.93589e-05
1.93589e-05
1.94147e-05
1.94147e-05
1.94147e-05
1.9444e-05
1.9444e-05
1.9444e-05
1.99591e-05
1.99591e-05
1.99591e-05
2.00164e-05
2.00164e-05
2.00164e-05
2.10996e-05
2.10996e-05
2.10996e-05
2.08604e-05
2.08604e-05
2.08604e-05
2.11303e-05
2.11303e-05
2.11303e-05
2.11009e-05
2.11009e-05
2.11009e-05
2.083e-05
2.083e-05
2.083e-05
2.09076e-05
2.09076e-05
2.09076e-05
2.09385e-05
2.09385e-05
2.09385e-05
2.06421e-05
2.06421e-05
2.06421e-05
2.06705e-05
2.06705e-05
2.06705e-05
2.07273e-05
2.07273e-05
2.07273e-05
2.05833e-05
2.05833e-05
2.05833e-05
2.0555e-05
2.0555e-05
2.0555e-05
2.04965e-05
2.04965e-05
2.04965e-05
2.04662e-05
2.04662e-05
2.04662e-05
2.08299e-05
2.08299e-05
2.08299e-05
2.07425e-05
2.07425e-05
2.07425e-05
2.07144e-05
2.07144e-05
2.07144e-05
2.06555e-05
2.06555e-05
2.06555e-05
2.06246e-05
2.06246e-05
2.06246e-05
2.03797e-05
2.03797e-05
2.03797e-05
2.04078e-05
2.04078e-05
2.04078e-05
2.05435e-05
2.05435e-05
2.05435e-05
2.04823e-05
2.04823e-05
2.04823e-05
2.064e-05
2.064e-05
2.064e-05
2.06683e-05
2.06683e-05
2.06683e-05
2.03732e-05
2.03732e-05
2.03732e-05
2.04011e-05
2.04011e-05
2.04011e-05
2.05599e-05
2.05599e-05
2.05599e-05
2.06186e-05
2.06186e-05
2.06186e-05
2.0539e-05
2.0539e-05
2.0539e-05
2.00791e-05
2.00791e-05
2.00791e-05
2.27336e-05
2.27336e-05
2.27336e-05
2.27e-05
2.27e-05
2.27e-05
2.27013e-05
2.27013e-05
2.27013e-05
2.20631e-05
2.20631e-05
2.20631e-05
2.2189e-05
2.2189e-05
2.2189e-05
2.21266e-05
2.21266e-05
2.21266e-05
2.26596e-05
2.26596e-05
2.26596e-05
2.26699e-05
2.26699e-05
2.26699e-05
2.26827e-05
2.26827e-05
2.26827e-05
2.1168e-05
2.1168e-05
2.1168e-05
2.11398e-05
2.11398e-05
2.11398e-05
2.11718e-05
2.11718e-05
2.11718e-05
2.12322e-05
2.12322e-05
2.12322e-05
2.10834e-05
2.10834e-05
2.10834e-05
2.11435e-05
2.11435e-05
2.11435e-05
2.2697e-05
2.2697e-05
2.2697e-05
2.26315e-05
2.26315e-05
2.26315e-05
2.27289e-05
2.27289e-05
2.27289e-05
2.26952e-05
2.26952e-05
2.26952e-05
2.26279e-05
2.26279e-05
2.26279e-05
2.25942e-05
2.25942e-05
2.25942e-05
2.25292e-05
2.25292e-05
2.25292e-05
2.25271e-05
2.25271e-05
2.25271e-05
2.24957e-05
2.24957e-05
2.24957e-05
2.23997e-05
2.23997e-05
2.23997e-05
2.2431e-05
2.2431e-05
2.2431e-05
2.27184e-05
2.27184e-05
2.27184e-05
2.26631e-05
2.26631e-05
2.26631e-05
2.16755e-05
2.16755e-05
2.16755e-05
2.1552e-05
2.1552e-05
2.1552e-05
2.25796e-05
2.25796e-05
2.25796e-05
2.26011e-05
2.26011e-05
2.26011e-05
2.2536e-05
2.2536e-05
2.2536e-05
2.26345e-05
2.26345e-05
2.26345e-05
1.97307e-05
1.97307e-05
1.97307e-05
1.96148e-05
1.96148e-05
1.96148e-05
1.94501e-05
1.94501e-05
1.94501e-05
1.94512e-05
1.94512e-05
1.94512e-05
1.94787e-05
1.94787e-05
1.94787e-05
1.96198e-05
1.96198e-05
1.96198e-05
1.95348e-05
1.95348e-05
1.95348e-05
1.95635e-05
1.95635e-05
1.95635e-05
1.94775e-05
1.94775e-05
1.94775e-05
1.93974e-05
1.93974e-05
1.93974e-05
1.95366e-05
1.95366e-05
1.95366e-05
1.9593e-05
1.9593e-05
1.9593e-05
1.91278e-05
1.91278e-05
1.91278e-05
1.92669e-05
1.92669e-05
1.92669e-05
1.92116e-05
1.92116e-05
1.92116e-05
1.91829e-05
1.91829e-05
1.91829e-05
1.93782e-05
1.93782e-05
1.93782e-05
1.92707e-05
1.92707e-05
1.92707e-05
1.92153e-05
1.92153e-05
1.92153e-05
2.02507e-05
2.02507e-05
2.02507e-05
2.02219e-05
2.02219e-05
2.02219e-05
2.02511e-05
2.02511e-05
2.02511e-05
2.00779e-05
2.00779e-05
2.00779e-05
2.01355e-05
2.01355e-05
2.01355e-05
2.0049e-05
2.0049e-05
2.0049e-05
2.00775e-05
2.00775e-05
2.00775e-05
2.01642e-05
2.01642e-05
2.01642e-05
2.01351e-05
2.01351e-05
2.01351e-05
2.04834e-05
2.04834e-05
2.04834e-05
2.04244e-05
2.04244e-05
2.04244e-05
2.04548e-05
2.04548e-05
2.04548e-05
2.05132e-05
2.05132e-05
2.05132e-05
2.04838e-05
2.04838e-05
2.04838e-05
2.2222e-05
2.2222e-05
2.2222e-05
2.17466e-05
2.17466e-05
2.17466e-05
2.18714e-05
2.18714e-05
2.18714e-05
2.15552e-05
2.15552e-05
2.15552e-05
2.14937e-05
2.14937e-05
2.14937e-05
2.15321e-05
2.15321e-05
2.15321e-05
2.13484e-05
2.13484e-05
2.13484e-05
2.12876e-05
2.12876e-05
2.12876e-05
2.17175e-05
2.17175e-05
2.17175e-05
2.17794e-05
2.17794e-05
2.17794e-05
2.18418e-05
2.18418e-05
2.18418e-05
2.17797e-05
2.17797e-05
2.17797e-05
2.17484e-05
2.17484e-05
2.17484e-05
2.17781e-05
2.17781e-05
2.17781e-05
2.18405e-05
2.18405e-05
2.18405e-05
2.19357e-05
2.19357e-05
2.19357e-05
2.18729e-05
2.18729e-05
2.18729e-05
2.18413e-05
2.18413e-05
2.18413e-05
2.18722e-05
2.18722e-05
2.18722e-05
2.21528e-05
2.21528e-05
2.21528e-05
2.00485e-05
2.00485e-05
2.00485e-05
1.99911e-05
1.99911e-05
1.99911e-05
2.05709e-05
2.05709e-05
2.05709e-05
2.06e-05
2.06e-05
2.06e-05
2.05123e-05
2.05123e-05
2.05123e-05
2.04828e-05
2.04828e-05
2.04828e-05
2.06879e-05
2.06879e-05
2.06879e-05
2.11666e-05
2.11666e-05
2.11666e-05
2.11965e-05
2.11965e-05
2.11965e-05
2.12269e-05
2.12269e-05
2.12269e-05
2.12266e-05
2.12266e-05
2.12266e-05
2.11961e-05
2.11961e-05
2.11961e-05
2.08667e-05
2.08667e-05
2.08667e-05
2.09262e-05
2.09262e-05
2.09262e-05
2.11345e-05
2.11345e-05
2.11345e-05
2.07476e-05
2.07476e-05
2.07476e-05
2.08662e-05
2.08662e-05
2.08662e-05
2.07775e-05
2.07775e-05
2.07775e-05
2.08368e-05
2.08368e-05
2.08368e-05
2.16932e-05
2.16932e-05
2.16932e-05
2.16313e-05
2.16313e-05
2.16313e-05
2.13091e-05
2.13091e-05
2.13091e-05
2.15116e-05
2.15116e-05
2.15116e-05
2.14832e-05
2.14832e-05
2.14832e-05
2.13329e-05
2.13329e-05
2.13329e-05
2.13938e-05
2.13938e-05
2.13938e-05
2.13048e-05
2.13048e-05
2.13048e-05
2.13373e-05
2.13373e-05
2.13373e-05
2.13416e-05
2.13416e-05
2.13416e-05
2.14025e-05
2.14025e-05
2.14025e-05
2.1692e-05
2.1692e-05
2.1692e-05
2.17541e-05
2.17541e-05
2.17541e-05
2.06914e-05
2.06914e-05
2.06914e-05
2.0719e-05
2.0719e-05
2.0719e-05
2.06876e-05
2.06876e-05
2.06876e-05
2.06288e-05
2.06288e-05
2.06288e-05
2.06014e-05
2.06014e-05
2.06014e-05
2.06326e-05
2.06326e-05
2.06326e-05
2.06986e-05
2.06986e-05
2.06986e-05
2.06397e-05
2.06397e-05
2.06397e-05
2.06431e-05
2.06431e-05
2.06431e-05
2.06121e-05
2.06121e-05
2.06121e-05
2.08168e-05
2.08168e-05
2.08168e-05
2.09076e-05
2.09076e-05
2.09076e-05
2.08762e-05
2.08762e-05
2.08762e-05
2.05567e-05
2.05567e-05
2.05567e-05
2.05258e-05
2.05258e-05
2.05258e-05
2.0529e-05
2.0529e-05
2.0529e-05
2.01672e-05
2.01672e-05
2.01672e-05
2.01096e-05
2.01096e-05
2.01096e-05
2.04144e-05
2.04144e-05
2.04144e-05
2.04912e-05
2.04912e-05
2.04912e-05
2.05269e-05
2.05269e-05
2.05269e-05
2.04955e-05
2.04955e-05
2.04955e-05
2.04998e-05
2.04998e-05
2.04998e-05
2.04415e-05
2.04415e-05
2.04415e-05
2.02322e-05
2.02322e-05
2.02322e-05
2.01437e-05
2.01437e-05
2.01437e-05
2.01746e-05
2.01746e-05
2.01746e-05
1.9976e-05
1.9976e-05
1.9976e-05
1.98314e-05
1.98314e-05
1.98314e-05
1.98883e-05
1.98883e-05
1.98883e-05
1.99189e-05
1.99189e-05
1.99189e-05
1.98925e-05
1.98925e-05
1.98925e-05
1.97262e-05
1.97262e-05
1.97262e-05
1.93146e-05
1.93146e-05
1.93146e-05
1.92559e-05
1.92559e-05
1.92559e-05
1.93114e-05
1.93114e-05
1.93114e-05
1.93408e-05
1.93408e-05
1.93408e-05
1.9344e-05
1.9344e-05
1.9344e-05
1.93471e-05
1.93471e-05
1.93471e-05
1.93178e-05
1.93178e-05
1.93178e-05
1.93998e-05
1.93998e-05
1.93998e-05
1.93081e-05
1.93081e-05
1.93081e-05
1.92232e-05
1.92232e-05
1.92232e-05
1.92526e-05
1.92526e-05
1.92526e-05
1.93341e-05
1.93341e-05
1.93341e-05
1.94786e-05
1.94786e-05
1.94786e-05
1.94228e-05
1.94228e-05
1.94228e-05
1.93965e-05
1.93965e-05
1.93965e-05
1.94261e-05
1.94261e-05
1.94261e-05
1.9718e-05
1.9718e-05
1.9718e-05
1.96615e-05
1.96615e-05
1.96615e-05
1.96396e-05
1.96396e-05
1.96396e-05
1.95834e-05
1.95834e-05
1.95834e-05
1.96355e-05
1.96355e-05
1.96355e-05
1.96657e-05
1.96657e-05
1.96657e-05
2.09801e-05
2.09801e-05
2.09801e-05
2.08611e-05
2.08611e-05
2.08611e-05
2.08928e-05
2.08928e-05
2.08928e-05
2.09523e-05
2.09523e-05
2.09523e-05
2.0857e-05
2.0857e-05
2.0857e-05
2.0976e-05
2.0976e-05
2.0976e-05
2.08887e-05
2.08887e-05
2.08887e-05
2.09482e-05
2.09482e-05
2.09482e-05
2.08845e-05
2.08845e-05
2.08845e-05
2.0944e-05
2.0944e-05
2.0944e-05
2.11278e-05
2.11278e-05
2.11278e-05
2.10678e-05
2.10678e-05
2.10678e-05
2.10357e-05
2.10357e-05
2.10357e-05