<VTKFile type="UnstructuredGrid" version="1.0">
<UnstructuredGrid>
<Piece NumberOfPoints="8859" NumberOfCells="2953">
<Points>
<DataArray type="Float64" NumberOfComponents="3" format="ascii">
2.75455 1.50245 18.6776
2.76986 1.48714 18.6896
2.75465 1.50235 18.7033
2.78515 1.47185 18.6267
2.78516 1.47184 18.6015
2.8005 1.4565 18.614
2.76981 1.48719 18.6394
2.78515 1.47185 18.6267
2.78514 1.47186 18.6519
2.72412 1.53288 18.7299
2.73952 1.51748 18.7375
2.70875 1.54825 18.7375
2.72412 1.53288 18.7299
2.73943 1.51757 18.7146
2.73952 1.51748 18.7375
2.75488 1.50212 18.7298
2.77036 1.48664 18.7375
2.73952 1.51748 18.7375
2.75488 1.50212 18.7298
2.73943 1.51757 18.7146
2.75465 1.50235 18.7033
2.73952 1.51748 18.7375
2.73943 1.51757 18.7146
2.75488 1.50212 18.7298
2.75465 1.50235 18.7033
2.76986 1.48714 18.6896
2.76997 1.48703 18.7143
2.76997 1.48703 18.7143
2.75488 1.50212 18.7298
2.75465 1.50235 18.7033
2.77036 1.48664 18.7375
2.75488 1.50212 18.7298
2.76997 1.48703 18.7143
2.76986 1.48714 18.6896
2.75455 1.50245 18.6776
2.76982 1.48718 18.6645
2.76981 1.48719 18.6394
2.78514 1.47186 18.6519
2.76982 1.48718 18.6645
2.7852 1.4718 18.7026
2.76997 1.48703 18.7143
2.76986 1.48714 18.6896
2.8005 1.4565 18.6889
2.8005 1.4565 18.7136
2.7852 1.4718 18.7026
2.8005 1.4565 18.5889
2.8005 1.4565 18.614
2.78516 1.47184 18.6015
2.78515 1.47185 18.6267
2.8005 1.4565 18.614
2.8005 1.4565 18.6391
2.8005 1.4565 18.6391
2.78514 1.47186 18.6519
2.78515 1.47185 18.6267
2.8005 1.4565 18.0615
2.8005 1.4565 18.0867
2.78518 1.47182 18.0741
2.78517 1.47183 18.5261
2.8005 1.4565 18.5386
2.78517 1.47183 18.5512
2.8005 1.4565 18.5135
2.8005 1.4565 18.5386
2.78517 1.47183 18.5261
2.78519 1.47181 18.4004
2.8005 1.4565 18.413
2.78519 1.47181 18.4256
2.32274 1.93426 17.8456
2.33845 1.91855 17.8375
2.33845 1.91855 17.8606
2.27541 1.98159 18.7375
2.24359 2.01341 18.7375
2.25954 1.99746 18.7293
2.78515 1.47185 18.6771
2.76982 1.48718 18.6645
2.78514 1.47186 18.6519
2.76986 1.48714 18.6896
2.76982 1.48718 18.6645
2.78515 1.47185 18.6771
2.78515 1.47185 18.6771
2.7852 1.4718 18.7026
2.76986 1.48714 18.6896
2.8005 1.4565 18.6889
2.7852 1.4718 18.7026
2.78515 1.47185 18.6771
2.78544 1.47156 18.7288
2.8005 1.4565 18.7136
2.8005 1.4565 18.7375
2.78544 1.47156 18.7288
2.7852 1.4718 18.7026
2.8005 1.4565 18.7136
2.8005 1.4565 18.7375
2.77036 1.48664 18.7375
2.78544 1.47156 18.7288
2.77036 1.48664 18.7375
2.76997 1.48703 18.7143
2.78544 1.47156 18.7288
2.76997 1.48703 18.7143
2.7852 1.4718 18.7026
2.78544 1.47156 18.7288
2.78517 1.47183 18.5512
2.8005 1.4565 18.5386
2.8005 1.4565 18.5637
2.78514 1.47186 18.6519
2.8005 1.4565 18.6391
2.8005 1.4565 18.6641
2.8005 1.4565 18.6889
2.78515 1.47185 18.6771
2.8005 1.4565 18.6641
2.8005 1.4565 18.6641
2.78515 1.47185 18.6771
2.78514 1.47186 18.6519
2.8005 1.4565 18.3879
2.8005 1.4565 18.413
2.78519 1.47181 18.4004
2.78518 1.47182 18.0741
2.8005 1.4565 18.0867
2.78518 1.47182 18.0992
2.76985 1.48715 18.5135
2.75454 1.50246 18.501
2.76986 1.48714 18.4884
2.78516 1.47184 18.5764
2.8005 1.4565 18.5889
2.78516 1.47184 18.6015
2.78516 1.47184 18.5764
2.8005 1.4565 18.5637
2.8005 1.4565 18.5889
2.78516 1.47184 18.5764
2.76984 1.48716 18.5638
2.78517 1.47183 18.5512
2.78517 1.47183 18.5512
2.8005 1.4565 18.5637
2.78516 1.47184 18.5764
2.76982 1.48718 18.6142
2.78515 1.47185 18.6267
2.76981 1.48719 18.6394
2.76982 1.48718 18.6142
2.78516 1.47184 18.6015
2.78515 1.47185 18.6267
2.75451 1.50249 18.5765
2.7392 1.5178 18.5891
2.73921 1.51779 18.5639
2.53996 1.71704 18.7034
2.52458 1.73242 18.6899
2.53996 1.71704 18.6777
2.49374 1.76326 18.5388
2.49375 1.76325 18.564
2.47832 1.77868 18.5514
2.8005 1.4565 17.8375
2.8005 1.4565 17.8614
2.78544 1.47156 17.8462
2.27543 1.98157 18.7143
2.27541 1.98159 18.7375
2.25954 1.99746 18.7293
2.33845 1.91855 18.6395
2.32276 1.93424 18.6521
2.32275 1.93425 18.6269
2.25954 1.99746 18.7293
2.24359 2.01341 18.7375
2.24374 2.01326 18.7142
2.76987 1.48713 18.162
2.75455 1.50245 18.1494
2.76987 1.48713 18.1369
2.8005 1.4565 18.3126
2.78519 1.47181 18.3
2.8005 1.4565 18.2875
2.78519 1.47181 18.3502
2.8005 1.4565 18.3377
2.8005 1.4565 18.3628
2.76988 1.48712 18.2624
2.75456 1.50244 18.275
2.75456 1.50244 18.2499
2.76988 1.48712 18.2875
2.75456 1.50244 18.275
2.76988 1.48712 18.2624
2.78519 1.47181 18.3
2.76988 1.48712 18.3126
2.76988 1.48712 18.2875
2.75455 1.50245 18.4256
2.76987 1.48713 18.4381
2.75455 1.50245 18.4507
2.72393 1.53307 18.4005
2.72392 1.53308 18.4256
2.70861 1.54839 18.413
2.75456 1.50244 18.4005
2.73924 1.51776 18.3879
2.75456 1.50244 18.3753
2.75456 1.50244 18.3753
2.76987 1.48713 18.3879
2.75456 1.50244 18.4005
2.73924 1.51776 18.3879
2.73925 1.51775 18.3628
2.75456 1.50244 18.3753
2.75456 1.50244 18.3753
2.73925 1.51775 18.3628
2.75456 1.50244 18.3502
2.8005 1.4565 18.3628
2.8005 1.4565 18.3879
2.78519 1.47181 18.3753
2.78519 1.47181 18.3753
2.78519 1.47181 18.3502
2.8005 1.4565 18.3628
2.78519 1.47181 18.3753
2.8005 1.4565 18.3879
2.78519 1.47181 18.4004
2.78519 1.47181 18.4004
2.76987 1.48713 18.3879
2.78519 1.47181 18.3753
2.75454 1.50246 18.4758
2.73923 1.51777 18.4633
2.75455 1.50245 18.4507
2.75454 1.50246 18.4758
2.76986 1.48714 18.4884
2.75454 1.50246 18.501
2.7086 1.5484 18.4633
2.72392 1.53308 18.4507
2.72392 1.53308 18.4759
2.72392 1.53308 18.4759
2.72392 1.53308 18.4507
2.73923 1.51777 18.4633
2.8005 1.4565 18.4381
2.78519 1.47181 18.4256
2.8005 1.4565 18.413
2.75455 1.50245 18.4507
2.76987 1.48713 18.4381
2.76986 1.48714 18.4632
2.76986 1.48714 18.4632
2.75454 1.50246 18.4758
2.75455 1.50245 18.4507
2.76986 1.48714 18.4884
2.75454 1.50246 18.4758
2.76986 1.48714 18.4632
2.78517 1.47183 18.5512
2.76984 1.48716 18.5638
2.76985 1.48715 18.5387
2.76985 1.48715 18.5387
2.78517 1.47183 18.5261
2.78517 1.47183 18.5512
2.76985 1.48715 18.5135
2.78517 1.47183 18.5261
2.76985 1.48715 18.5387
2.73921 1.51779 18.5639
2.73921 1.51779 18.5388
2.75452 1.50248 18.5513
2.75452 1.50248 18.5513
2.75451 1.50249 18.5765
2.73921 1.51779 18.5639
2.76984 1.48716 18.5638
2.75451 1.50249 18.5765
2.75452 1.50248 18.5513
2.75452 1.50248 18.5513
2.76985 1.48715 18.5387
2.76984 1.48716 18.5638
2.7239 1.5331 18.5514
2.73921 1.51779 18.5388
2.73921 1.51779 18.5639
2.7239 1.5331 18.5514
2.70859 1.54841 18.564
2.70859 1.54841 18.5388
2.76981 1.48719 18.6394
2.76982 1.48718 18.6645
2.75451 1.50249 18.6522
2.75451 1.50249 18.6522
2.76982 1.48718 18.6645
2.75455 1.50245 18.6776
2.7392 1.5178 18.5891
2.75451 1.50249 18.5765
2.75451 1.50249 18.6017
2.75451 1.50249 18.6017
2.7392 1.5178 18.6144
2.7392 1.5178 18.5891
2.67798 1.57902 18.4382
2.66266 1.59434 18.4507
2.66266 1.59434 18.4256
2.70859 1.54841 18.5388
2.70859 1.54841 18.5136
2.7239 1.5331 18.5262
2.7239 1.5331 18.5262
2.7239 1.5331 18.5514
2.70859 1.54841 18.5388
2.73921 1.51779 18.5388
2.7239 1.5331 18.5514
2.7239 1.5331 18.5262
2.73922 1.51778 18.5136
2.73921 1.51779 18.5388
2.7239 1.5331 18.5262
2.57068 1.68632 18.6778
2.57068 1.68632 18.7034
2.55533 1.70167 18.6899
2.55533 1.70167 18.6899
2.57068 1.68632 18.7034
2.55533 1.70167 18.7145
2.55533 1.70167 18.6899
2.55533 1.70167 18.7145
2.53996 1.71704 18.7034
2.53996 1.71704 18.7034
2.53996 1.71704 18.6777
2.55533 1.70167 18.6899
2.52458 1.73242 18.6648
2.53996 1.71704 18.6777
2.52458 1.73242 18.6899
2.50912 1.74788 18.3
2.50912 1.74788 18.3251
2.49371 1.76329 18.3126
2.41633 1.84067 18.4256
2.40077 1.85623 18.413
2.41632 1.84068 18.4004
2.41635 1.84065 18.4758
2.40081 1.85619 18.4884
2.40079 1.85621 18.4632
2.33845 1.91855 18.6395
2.32275 1.93425 18.6269
2.33843 1.91857 18.6142
2.33845 1.91855 18.6647
2.32276 1.93424 18.6521
2.33845 1.91855 18.6395
2.40087 1.85613 18.5891
2.40088 1.85612 18.6143
2.38531 1.87169 18.6017
2.30693 1.95007 18.5386
2.32265 1.93435 18.526
2.32267 1.93433 18.5512
2.30684 1.95016 18.438
2.29108 1.96592 18.4506
2.29106 1.96594 18.4255
2.32274 1.93426 18.7294
2.33845 1.91855 18.7375
2.30701 1.94999 18.7375
2.33845 1.91855 18.7144
2.33845 1.91855 18.7375
2.32274 1.93426 18.7294
2.35411 1.90289 18.7295
2.33845 1.91855 18.7375
2.33845 1.91855 18.7144
2.30704 1.94996 18.6646
2.30703 1.94997 18.6897
2.29128 1.96572 18.6775
2.55533 1.70167 18.7375
2.52458 1.73242 18.7375
2.53996 1.71704 18.7297
2.53996 1.71704 18.7034
2.55533 1.70167 18.7145
2.53996 1.71704 18.7297
2.53996 1.71704 18.7297
2.55533 1.70167 18.7145
2.55533 1.70167 18.7375
2.52458 1.73242 18.7145
2.52458 1.73242 18.6899
2.53996 1.71704 18.7034
2.53996 1.71704 18.7034
2.53996 1.71704 18.7297
2.52458 1.73242 18.7145
2.52458 1.73242 18.7145
2.53996 1.71704 18.7297
2.52458 1.73242 18.7375
2.41642 1.84058 18.6018
2.40088 1.85612 18.6143
2.40087 1.85613 18.5891
2.47831 1.77869 18.5262
2.49374 1.76326 18.5136
2.49374 1.76326 18.5388
2.49374 1.76326 18.5388
2.47832 1.77868 18.5514
2.47831 1.77869 18.5262
2.47833 1.77867 18.5766
2.47832 1.77868 18.5514
2.49375 1.76325 18.564
2.47833 1.77867 18.5766
2.49375 1.76325 18.564
2.49376 1.76324 18.5892
2.49376 1.76324 18.5892
2.47834 1.77866 18.6018
2.47833 1.77867 18.5766
2.47833 1.77867 18.5766
2.47834 1.77866 18.6018
2.46289 1.79411 18.5892
2.49377 1.76323 18.6144
2.47834 1.77866 18.6018
2.49376 1.76324 18.5892
2.49377 1.76323 18.6396
2.47835 1.77865 18.6523
2.47834 1.77866 18.6271
2.47834 1.77866 18.6271
2.49377 1.76323 18.6144
2.49377 1.76323 18.6396
2.47834 1.77866 18.6018
2.49377 1.76323 18.6144
2.47834 1.77866 18.6271
2.7852 1.4718 17.8724
2.78544 1.47156 17.8462
2.8005 1.4565 17.8614
2.76997 1.48703 17.8607
2.78544 1.47156 17.8462
2.7852 1.4718 17.8724
2.64739 1.60961 17.8605
2.64738 1.60962 17.8375
2.66272 1.59428 17.8452
2.70875 1.54825 17.8375
2.6934 1.5636 17.8452
2.67805 1.57895 17.8375
2.67805 1.57895 17.8375
2.66272 1.59428 17.8452
2.64738 1.60962 17.8375
2.19638 2.06062 17.874
2.1963 2.0607 17.8479
2.2122 2.0448 17.8614
2.2122 2.0448 17.8614
2.22771 2.02929 17.846
2.22802 2.02898 17.8725
2.18073 2.07627 17.8628
2.1963 2.0607 17.8479
2.19638 2.06062 17.874
2.18073 2.07627 17.8628
2.18123 2.07577 17.8375
2.1963 2.0607 17.8479
2.27543 1.98157 17.8607
2.27541 1.98159 17.8375
[...]
<PointData Scalars="View Factor" >
<DataArray type="Float64" Name="View Factor" NumberOfComponents="1" format="ascii">
0.0010363
0.0010363
0.0010363
0.0011223
0.0011223
0.0011223
0.001093
0.001093
0.001093
0.000964738
0.000964738
0.000964738
0.000982363
0.000982363
0.000982363
0.00100605
0.00100605
0.00100605
0.00100888
0.00100888
0.00100888
0.000996187
0.000996187
0.000996187
0.00103674
0.00103674
0.00103674
0.00102274
0.00102274
0.00102274
0.00102376
0.00102376
0.00102376
0.00105031
0.00105031
0.00105031
0.00107864
0.00107864
0.00107864
0.00105078
0.00105078
0.00105078
0.00107891
0.00107891
0.00107891
0.00113717
0.00113717
0.00113717
0.00112221
0.00112221
0.00112221
0.00110752
0.00110752
0.00110752
0.00151681
0.00151681
0.00151681
0.00116806
0.00116806
0.00116806
0.00118359
0.00118359
0.00118359
0.00124948
0.00124948
0.00124948
0.00090794
0.00090794
0.00090794
0.000568882
0.000568882
0.000568882
0.00107868
0.00107868
0.00107868
0.00106453
0.00106453
0.00106453
0.00106455
0.00106455
0.00106455
0.00107872
0.00107872
0.00107872
0.00106511
0.00106511
0.00106511
0.00106465
0.00106465
0.00106465
0.00104715
0.00104715
0.00104715
0.00103767
0.00103767
0.00103767
0.00105071
0.00105071
0.00105071
0.00116786
0.00116786
0.00116786
0.0011075
0.0011075
0.0011075
0.00109307
0.00109307
0.00109307
0.00109303
0.00109303
0.00109303
0.00126625
0.00126625
0.00126625
0.00149623
0.00149623
0.00149623
0.00115282
0.00115282
0.00115282
0.00113732
0.00113732
0.00113732
0.00115239
0.00115239
0.00115239
0.00113746
0.00113746
0.00113746
0.00115253
0.00115253
0.00115253
0.00109297
0.00109297
0.00109297
0.0011076
0.0011076
0.0011076
0.0010776
0.0010776
0.0010776
0.000729632
0.000729632
0.000729632
0.000717567
0.000717567
0.000717567
0.00172672
0.00172672
0.00172672
0.000570407
0.000570407
0.000570407
0.000593912
0.000593912
0.000593912
0.000571881
0.000571881
0.000571881
0.00139704
0.00139704
0.00139704
0.00133748
0.00133748
0.00133748
0.00130127
0.00130127
0.00130127
0.00130327
0.00130327
0.00130327
0.0013031
0.0013031
0.0013031
0.0013027
0.0013027
0.0013027
0.00118434
0.00118434
0.00118434
0.00113528
0.00113528
0.00113528
0.00120037
0.00120037
0.00120037
0.00121692
0.00121692
0.00121692
0.00120022
0.00120022
0.00120022
0.00121684
0.00121684
0.00121684
0.00128361
0.00128361
0.00128361
0.00128402
0.00128402
0.00128402
0.00126661
0.00126661
0.00126661
0.00125004
0.00125004
0.00125004
0.00115258
0.00115258
0.00115258
0.00115278
0.00115278
0.00115278
0.00110497
0.00110497
0.00110497
0.00112082
0.00112082
0.00112082
0.00124917
0.00124917
0.00124917
0.00118437
0.00118437
0.00118437
0.00116846
0.00116846
0.00116846
0.0011685
0.0011685
0.0011685
0.0011375
0.0011375
0.0011375
0.00115278
0.00115278
0.00115278
0.00115286
0.00115286
0.00115286
0.00109205
0.00109205
0.00109205
0.0010923
0.0010923
0.0010923
0.00110734
0.00110734
0.00110734
0.00112234
0.00112234
0.00112234
0.00107693
0.00107693
0.00107693
0.00104675
0.00104675
0.00104675
0.00106424
0.00106424
0.00106424
0.00105003
0.00105003
0.00105003
0.00107784
0.00107784
0.00107784
0.00106333
0.00106333
0.00106333
0.00103982
0.00103982
0.00103982
0.00106083
0.00106083
0.00106083
0.00106137
0.00106137
0.00106137
0.00107658
0.00107658
0.00107658
0.00109147
0.00109147
0.00109147
0.000771138
0.000771138
0.000771138
0.000759366
0.000759366
0.000759366
0.000745618
0.000745618
0.000745618
0.000743449
0.000743449
0.000743449
0.000727563
0.000727563
0.000727563
0.000840162
0.000840162
0.000840162
0.000669892
0.000669892
0.000669892
0.00064772
0.00064772
0.00064772
0.000597676
0.000597676
0.000597676
0.000590021
0.000590021
0.000590021
0.00060611
0.00060611
0.00060611
0.000625699
0.000625699
0.000625699
0.000659912
0.000659912
0.000659912
0.00056595
0.00056595
0.00056595
0.000567952
0.000567952
0.000567952
0.000567815
0.000567815
0.000567815
0.000583335
0.000583335
0.000583335
0.000719841
0.000719841
0.000719841
0.000733707
0.000733707
0.000733707
0.000736211
0.000736211
0.000736211
0.000718159
0.000718159
0.000718159
0.000720074
0.000720074
0.000720074
0.000709108
0.000709108
0.000709108
0.000606513
0.000606513
0.000606513
0.000727102
0.000727102
0.000727102
0.000714871
0.000714871
0.000714871
0.0007055
0.0007055
0.0007055
0.00070818
0.00070818
0.00070818
0.000696262
0.000696262
0.000696262
0.000681749
0.000681749
0.000681749
0.000698906
0.000698906
0.000698906
0.00067822
0.00067822
0.00067822
0.000689808
0.000689808
0.000689808
0.000687168
0.000687168
0.000687168
0.00170383
0.00170383
0.00170383
0.00168169
0.00168169
0.00168169
0.00141165
0.00141165
0.00141165
0.00150836
0.00150836
0.00150836
0.00144044
0.00144044
0.00144044
0.000910105
0.000910105
0.000910105
0.000907628
0.000907628
0.000907628
0.000911624
0.000911624
0.000911624
0.000918716
0.000918716
0.000918716
0.000908545
0.000908545
0.000908545
0.00091171
0.00091171
0.00091171
0.000912021
0.000912021
0.000912021
0.000834272
0.000834272
0.000834272
0.000827778
0.000827778
0.000827778
0.000568461
0.000568461
0.000568461
0.000579771
0.000579771
0.000579771
0.000575966
0.000575966
0.000575966
0.000664992
0.000664992
0.000664992
0.000660391
0.000660391
0.000660391
0.00061039
0.00061039
0.00061039
0.00151765
0.00151765
0.00151765
0.00137494
0.00137494
0.00137494
0.00135848
0.00135848
0.00135848
0.00133992
0.00133992
0.00133992
0.00137758
0.00137758
0.00137758
0.00135872
0.00135872
0.00135872
0.0013402
0.0013402
0.0013402
0.00134024
0.00134024
0.00134024
0.00135909
0.00135909
0.00135909
0.00137788
0.00137788
0.00137788
0.00118842
0.00118842
0.00118842
0.00116966
0.00116966
0.00116966
0.00117134
0.00117134
0.00117134
0.00135915
0.00135915
0.00135915
0.00149545
0.00149545
0.00149545
0.00103775
0.00103775
0.00103775
0.00100533
0.00100533
0.00100533
0.00110273
0.00110273
0.00110273
0.00104838
0.00104838
0.00104838
0.00111386
0.00111386
0.00111386
0.00111289
0.00111289
0.00111289
0.00109573
0.00109573
0.00109573
0.00107976
0.00107976
0.00107976
0.00128552
0.00128552
0.00128552
0.00135605
0.00135605
0.00135605
0.00133796
0.00133796
0.00133796
0.00132044
0.00132044
0.00132044
0.00132074
0.00132074
0.00132074
0.0013388
0.0013388
0.0013388
0.00135657
0.00135657
0.00135657
0.00099129
0.00099129
0.00099129
0.00100676
0.00100676
0.00100676
0.00110974
0.00110974
0.00110974
0.00111086
0.00111086
0.00111086
0.00109465
0.00109465
0.00109465
0.0010774
0.0010774
0.0010774
0.00102065
0.00102065
0.00102065
0.00101882
0.00101882
0.00101882
0.000987563
0.000987563
0.000987563
0.00100498
0.00100498
0.00100498
0.00109224
0.00109224
0.00109224
0.0010761
0.0010761
0.0010761
0.00121669
0.00121669
0.00121669
0.00120047
0.00120047
0.00120047
0.00120048
0.00120048
0.00120048
0.00123314
0.00123314
0.00123314
0.00123334
0.00123334
0.00123334
0.00121689
0.00121689
0.00121689
0.00115158
0.00115158
0.00115158
0.00118416
0.00118416
0.00118416
0.00118404
0.00118404
0.00118404
0.00116762
0.00116762
0.00116762
0.00113309
0.00113309
0.00113309
0.00116608
0.00116608
0.00116608
0.00114923
0.00114923
0.00114923
0.00126722
0.00126722
0.00126722
0.00125054
0.00125054
0.00125054
0.00126745
0.00126745
0.00126745
0.00123362
0.00123362
0.00123362
0.00123357
0.00123357
0.00123357
0.00125024
0.00125024
0.00125024
0.00115237
0.00115237
0.00115237
0.00113639
0.00113639
0.00113639
0.00113607
0.00113607
0.00113607
0.00116824
0.00116824
0.00116824
0.0011519
0.0011519
0.0011519
0.00116809
0.00116809
0.00116809
0.00112
0.00112
0.00112
0.00111952
0.00111952
0.00111952
0.00110335
0.00110335
0.00110335
0.00110447
0.00110447
0.00110447
0.00113694
0.00113694
0.00113694
0.00112118
0.00112118
0.00112118
0.00113712
0.00113712
0.00113712
0.00112173
0.00112173
0.00112173
0.00108972
0.00108972
0.00108972
0.00121659
0.00121659
0.00121659
0.00123271
0.00123271
0.00123271
0.00123237
0.00123237
0.00123237
0.00120037
0.00120037
0.00120037
0.00119959
0.00119959
0.00119959
0.00116839
0.00116839
0.00116839
0.00118382
0.00118382
0.00118382
0.00116834
0.00116834
0.00116834
0.00121584
0.00121584
0.00121584
0.00121608
0.00121608
0.00121608
0.00120019
0.00120019
0.00120019
0.00118428
0.00118428
0.00118428
0.00118417
0.00118417
0.00118417
0.00119985
0.00119985
0.00119985
0.0011068
0.0011068
0.0011068
0.0011375
0.0011375
0.0011375
0.00110702
0.00110702
0.00110702
0.00112226
0.00112226
0.00112226
0.00112197
0.00112197
0.00112197
0.00113743
0.00113743
0.00113743
0.00106268
0.00106268
0.00106268
0.00106225
0.00106225
0.00106225
0.00104725
0.00104725
0.00104725
0.00107839
0.00107839
0.00107839
0.00104932
0.00104932
0.00104932
0.00107826
0.00107826
0.00107826
0.00106361
0.00106361
0.00106361
0.00106405
0.00106405
0.00106405
0.0010496
0.0010496
0.0010496
0.00100881
0.00100881
0.00100881
0.00102225
0.00102225
0.00102225
0.000981148
0.000981148
0.000981148
0.000994871
0.000994871
0.000994871
0.00099417
0.00099417
0.00099417
0.0010355
0.0010355
0.0010355
0.00100786
0.00100786
0.00100786
0.00103578
0.00103578
0.00103578
0.00102198
0.00102198
0.00102198
0.00109268
0.00109268
0.00109268
0.00112243
0.00112243
0.00112243
0.00110759
0.00110759
0.00110759
0.00109282
0.00109282
0.00109282
0.00112245
0.00112245
0.00112245
0.00110748
0.00110748
0.00110748
0.000940668
0.000940668
0.000940668
0.000938924
0.000938924
0.000938924
0.000989139
0.000989139
0.000989139
0.00095681
0.00095681
0.00095681
0.00104079
0.00104079
0.00104079
0.000760389
0.000760389
0.000760389
0.000749783
0.000749783
0.000749783
0.000761009
0.000761009
0.000761009
0.000826056
0.000826056
0.000826056
0.000857091
0.000857091
0.000857091
0.000972174
0.000972174
0.000972174
0.000974122
0.000974122
0.000974122
0.000674057
0.000674057
0.000674057
0.000637843
0.000637843
0.000637843
0.00066512
0.00066512
0.00066512
0.000685789
0.000685789
0.000685789
0.000681086
0.000681086
0.000681086
0.000685641
0.000685641
0.000685641
0.000601621
0.000601621
0.000601621
0.000586288
0.000586288
0.000586288
0.00058653
0.00058653
0.00058653
0.00058297
0.00058297
0.00058297
0.000597569
0.000597569
0.000597569
0.000601404
0.000601404
0.000601404
0.000597594
0.000597594
0.000597594
0.000601427
0.000601427
0.000601427
0.000621369
0.000621369
0.000621369
0.00062155
0.00062155
0.00062155
0.000621273
0.000621273
0.000621273
0.000621355
0.000621355
0.000621355
0.000625483
0.000625483
0.000625483
0.00063805
0.00063805
0.00063805
0.00060555
0.00060555
0.00060555
0.000605398
0.000605398
0.000605398
0.000629919
0.000629919
0.000629919
0.000633891
0.000633891
0.000633891
0.000642008
0.000642008
0.000642008
0.000664047
0.000664047
0.000664047
0.000565584
0.000565584
0.000565584
0.000565854
0.000565854
0.000565854
0.000594149
0.000594149
0.000594149
0.000590489
0.000590489
0.000590489
0.000679344
0.000679344
0.000679344
0.000695573
0.000695573
0.000695573
0.000728356
0.000728356
0.000728356
0.000715794
0.000715794
0.000715794
0.000752055
0.000752055
0.000752055
0.000611444
0.000611444
0.000611444
0.000678954
0.000678954
0.000678954
0.000690786
0.000690786
0.000690786
0.000664095
0.000664095
0.000664095
0.000635903
0.000635903
0.000635903
0.00171248
0.00171248
0.00171248
0.00168219
0.00168219
0.00168219
0.00157033
0.00157033
0.00157033
0.00159205
0.00159205
0.00159205
0.00157649
0.00157649
0.00157649
0.000911779
0.000911779
0.000911779
0.00090645
0.00090645
0.00090645
0.000913831
0.000913831
0.000913831
0.000910763
0.000910763
0.000910763
0.000904464
0.000904464
0.000904464
0.00090913
0.00090913
0.00090913
0.000903653
0.000903653
0.000903653
0.000896637
0.000896637
0.000896637
0.000901548
0.000901548
0.000901548
0.00089731
0.00089731
0.00089731
0.000902813
0.000902813
0.000902813
0.000915489
0.000915489
0.000915489
0.000914277
0.000914277
0.000914277
0.000921235
0.000921235
0.000921235
0.000916983
0.000916983
0.000916983
0.000841186
0.000841186
0.000841186
0.000721999
0.000721999
0.000721999
0.000829211
0.000829211
0.000829211
0.000756697
0.000756697
0.000756697
0.000766863
0.000766863
0.000766863
0.000760862
0.000760862
0.000760862
0.000763437
0.000763437
0.000763437
0.000759159
0.000759159
0.000759159
0.000809207
0.000809207
0.000809207
0.000772209
0.000772209
0.000772209
0.000712097
0.000712097
0.000712097
0.000728304
0.000728304
0.000728304
0.000722962
0.000722962
0.000722962
0.00082731
0.00082731
0.00082731
0.000826319
0.000826319
0.000826319
0.000829691
0.000829691
0.000829691
0.000831081
0.000831081
0.000831081
0.000826181
0.000826181
0.000826181
0.000802404
0.000802404
0.000802404
0.000831394
0.000831394
0.000831394
0.000842731
0.000842731
0.000842731
0.000836083
0.000836083
0.000836083
0.000734647
0.000734647
0.000734647
0.000729998
0.000729998
0.000729998
0.000708791
0.000708791
0.000708791
0.000720857
0.000720857
0.000720857
0.000726143
0.000726143
0.000726143
0.000730706
0.000730706
0.000730706
0.000755706
0.000755706
0.000755706
0.000748952
0.000748952
0.000748952
0.00072826
0.00072826
0.00072826
0.000733051
0.000733051
0.000733051
0.000571358
0.000571358
0.000571358
0.000571606
0.000571606
0.000571606
0.000575599
0.000575599
0.000575599
0.000579046
0.000579046
0.000579046
0.000568831
0.000568831
0.000568831
0.000572337
0.000572337
0.000572337
0.000567084
0.000567084
0.000567084
0.000569796
0.000569796
0.000569796
0.000572824
0.000572824
0.000572824
0.000689979
0.000689979
0.000689979
0.000681051
0.000681051
0.000681051
0.00068468
0.00068468
0.00068468
0.000656367
0.000656367
0.000656367
0.000648475
0.000648475
0.000648475
0.00065306
0.00065306
0.00065306
0.000656996
0.000656996
0.000656996
0.000658541
0.000658541
0.000658541
0.000650037
0.000650037
0.000650037
0.000653837
0.000653837
0.000653837
0.000650959
0.000650959
0.000650959
0.000614134
0.000614134
0.000614134
0.000621792
0.000621792
0.000621792
0.000628148
0.000628148
0.000628148
0.000631854
0.000631854
0.000631854
0.000610882
0.000610882
0.000610882
0.000572763
0.000572763
0.000572763
0.000571476
0.000571476
0.000571476
0.000574764
0.000574764
0.000574764
0.00058026
0.00058026
0.00058026
0.000576942
0.000576942
0.000576942
0.000574049
0.000574049
0.000574049
0.000574787
0.000574787
0.000574787
0.000577557
0.000577557
0.000577557
0.000581512
0.000581512
0.000581512
0.00154789
0.00154789
0.00154789
0.00154685
0.00154685
0.00154685
0.00152424
0.00152424
0.00152424
0.00150301
0.00150301
0.00150301
0.00145659
0.00145659
0.00145659
0.00147912
0.00147912
0.00147912
0.00148061
0.00148061
0.00148061
0.00111731
0.00111731
0.00111731
0.00165764
0.00165764
0.00165764
0.00163565
0.00163565
0.00163565
0.00156928
0.00156928
0.00156928
0.00159144
0.00159144
0.00159144
0.00133969
0.00133969
0.00133969
0.00132144
0.00132144
0.00132144
0.00132128
0.00132128
0.00132128
0.00133916
0.00133916
0.00133916
0.00141372
0.00141372
0.00141372
0.00137689
0.00137689
0.00137689
0.00132166
0.00132166
0.00132166
0.00128518
0.00128518
0.00128518
0.00130333
0.00130333
0.00130333
0.00132171
0.00132171
0.00132171
0.00090794
0.00090794
0.00090794
0.00093862
0.00093862
0.00093862
0.00100632
0.00100632
0.00100632
0.000970389
0.000970389
0.000970389
0.000951153
0.000951153
0.000951153
0.000948171
0.000948171
0.000948171
0.00098692
0.00098692
0.00098692
0.000964608
0.000964608
0.000964608
0.000984124
0.000984124
0.000984124
0.000973182
0.000973182
0.000973182
0.000934973
0.000934973
0.000934973
0.00090321
0.00090321
0.00090321
0.000860364
0.000860364
0.000860364
0.000928826
0.000928826
0.000928826
0.000880731
0.000880731
0.000880731
0.00112838
0.00112838
0.00112838
0.0009542
0.0009542
0.0009542
0.00095166
0.00095166
0.00095166
0.00101629
0.00101629
0.00101629
0.00105197
0.00105197
0.00105197
0.0010352
0.0010352
0.0010352
0.00117171
0.00117171
0.00117171
0.00138921
0.00138921
0.00138921
0.00130343
0.00130343
0.00130343
0.00130234
0.00130234
0.00130234
0.00128017
0.00128017
0.00128017
0.00127741
0.00127741
0.00127741
0.00102321
0.00102321
0.00102321
0.00109739
0.00109739
0.00109739
0.00105762
0.00105762
0.00105762
0.00139733
0.00139733
0.00139733
0.00137827
0.00137827
0.00137827
0.00111267
0.00111267
0.00111267
0.00115045
0.00115045
0.00115045
0.00114904
0.00114904
0.00114904
0.00113002
0.00113002
0.00113002
0.00117291
0.00117291
0.00117291
0.0010868
0.0010868
0.0010868
0.00112625
0.00112625
0.00112625
0.00147527
0.00147527
0.00147527
0.00147448
0.00147448
0.00147448
0.00145386
0.00145386
0.00145386
0.00141598
0.00141598
0.00141598
0.00143545
0.00143545
0.00143545
0.00145454
0.00145454
0.00145454
0.00143362
0.00143362
0.00143362
0.00141435
0.00141435
0.00141435
0.0013958
0.0013958
0.0013958
0.00139625
0.00139625
0.00139625
0.00141549
0.00141549
0.00141549
0.0014343
0.0014343
0.0014343
0.00130167
0.00130167
0.00130167
0.00128463
0.00128463
0.00128463
0.00128489
0.00128489
0.00128489
0.00131922
0.00131922
0.00131922
0.00130239
0.00130239
0.00130239
0.00131967
0.00131967
0.00131967
0.00105187
0.00105187
0.00105187
0.0010203
0.0010203
0.0010203
0.00103662
0.00103662
0.00103662
0.00105075
0.00105075
0.00105075
0.00108647
0.00108647
0.00108647
0.00105398
0.00105398
0.00105398
0.00105494
0.00105494
0.00105494
0.00107107
0.00107107
0.00107107
0.00106832
0.00106832
0.00106832
0.00106929
0.00106929
0.00106929
0.00108565
0.00108565
0.00108565
0.00110126
0.00110126
0.00110126
0.00116507
0.00116507
0.00116507
0.00113092
0.00113092
0.00113092
0.00114863
0.00114863
0.00114863
0.00113168
0.00113168
0.00113168
0.0011826
0.0011826
0.0011826
0.00118217
0.00118217
0.00118217
0.00112827
0.00112827
0.00112827
0.0011292
0.0011292
0.0011292
0.00106516
0.00106516
0.00106516
0.00106626
0.00106626
0.00106626
0.00109782
0.00109782
0.00109782
0.0010809
0.0010809
0.0010809
0.00126694
0.00126694
0.00126694
0.00124913
0.00124913
0.00124913
0.00119748
0.00119748
0.00119748
0.0012855
0.0012855
0.0012855
0.00130343
0.00130343
0.00130343
0.00128532
0.00128532
0.00128532
0.00130344
0.00130344
0.00130344
0.00101902
0.00101902
0.00101902
0.0010342
0.0010342
0.0010342
0.00103295
0.00103295
0.00103295
0.00101631
0.00101631
0.00101631
0.00100115
0.00100115
0.00100115
0.0010026
0.0010026
0.0010026
0.000987685
0.000987685
0.000987685
0.000971407
0.000971407
0.000971407
0.00104707
0.00104707
0.00104707
0.00106274
0.00106274
0.00106274
0.00106149
0.00106149
0.00106149
0.00104437
0.00104437
0.00104437
0.000993092
0.000993092
0.000993092
0.00101017
0.00101017
0.00101017
0.00109097
0.00109097
0.00109097
0.00108828
0.00108828
0.00108828
0.00102407
0.00102407
0.00102407
0.00105874
0.00105874
0.00105874
0.00102569
0.00102569
0.00102569
0.00104291
0.00104291
0.00104291
0.00108376
0.00108376
0.00108376
0.00094112
0.00094112
0.00094112
0.000925751
0.000925751
0.000925751
0.00100116
0.00100116
0.00100116
0.00098558
0.00098558
0.00098558
0.00113371
0.00113371
0.00113371
0.00111775
0.00111775
0.00111775
0.00113479
0.00113479
0.00113479
0.0011184
0.0011184
0.0011184
0.00118329
0.00118329
0.00118329
0.00116653
0.00116653
0.00116653
0.00118357
0.00118357
0.00118357
0.00115034
0.00115034
0.00115034
0.0011673
0.0011673
0.0011673
0.00115078
0.00115078
0.00115078
0.00105964
0.00105964
0.00105964
0.00110587
0.00110587
0.00110587
0.00109024
0.00109024
0.00109024
0.00110619
0.00110619
0.00110619
0.00107515
0.00107515
0.00107515
0.00109105
0.00109105
0.00109105
0.00107563
0.00107563
0.00107563
0.000954768
0.000954768
0.000954768
0.000967301
0.000967301
0.000967301
0.00100735
0.00100735
0.00100735
0.00102118
0.00102118
0.00102118
0.000803736
0.000803736
0.000803736
0.000901788
0.000901788
0.000901788
0.000915709
0.000915709
0.000915709
0.000991857
0.000991857
0.000991857
0.00102382
0.00102382
0.00102382
0.0010227
0.0010227
0.0010227
0.00100661
0.00100661
0.00100661
0.000965544
0.000965544
0.000965544
0.00105669
0.00105669
0.00105669
0.00108853
0.00108853
0.00108853
0.00107186
0.00107186
0.00107186
0.0010879
0.0010879
0.0010879
0.00104256
0.00104256
0.00104256
0.00104338
0.00104338
0.00104338
0.00105898
0.00105898
0.00105898
0.00107399
0.00107399
0.00107399
0.00107332
0.00107332
0.00107332
0.0010575
0.0010575
0.0010575
0.00102687
0.00102687
0.00102687
0.00101223
0.00101223
0.00101223
0.000996664
0.000996664
0.000996664
0.00102591
0.00102591
0.00102591
0.00104553
0.00104553
0.00104553
0.00104484
0.00104484
0.00104484
0.000983387
0.000983387
0.000983387
0.000966816
0.000966816