<VTKFile type="UnstructuredGrid" version="1.0">
<UnstructuredGrid>
<Piece NumberOfPoints="8859" NumberOfCells="2953">
<Points>
<DataArray type="Float64" NumberOfComponents="3" format="ascii">
2.04744 2.20956 11.3626
2.06275 2.19425 11.3746
2.04754 2.20946 11.3883
2.07804 2.17896 11.3117
2.07805 2.17895 11.2865
2.0934 2.1636 11.299
2.06271 2.19429 11.3244
2.07804 2.17896 11.3117
2.07804 2.17896 11.3369
2.01701 2.23999 11.4149
2.03242 2.22458 11.4225
2.00164 2.25536 11.4225
2.01701 2.23999 11.4149
2.03232 2.22468 11.3996
2.03242 2.22458 11.4225
2.04777 2.20923 11.4148
2.06326 2.19374 11.4225
2.03242 2.22458 11.4225
2.04777 2.20923 11.4148
2.03232 2.22468 11.3996
2.04754 2.20946 11.3883
2.03242 2.22458 11.4225
2.03232 2.22468 11.3996
2.04777 2.20923 11.4148
2.04754 2.20946 11.3883
2.06275 2.19425 11.3746
2.06287 2.19413 11.3993
2.06287 2.19413 11.3993
2.04777 2.20923 11.4148
2.04754 2.20946 11.3883
2.06326 2.19374 11.4225
2.04777 2.20923 11.4148
2.06287 2.19413 11.3993
2.06275 2.19425 11.3746
2.04744 2.20956 11.3626
2.06271 2.19429 11.3495
2.06271 2.19429 11.3244
2.07804 2.17896 11.3369
2.06271 2.19429 11.3495
2.07809 2.17891 11.3876
2.06287 2.19413 11.3993
2.06275 2.19425 11.3746
2.0934 2.1636 11.3739
2.0934 2.1636 11.3986
2.07809 2.17891 11.3876
2.0934 2.1636 11.2739
2.0934 2.1636 11.299
2.07805 2.17895 11.2865
2.07804 2.17896 11.3117
2.0934 2.1636 11.299
2.0934 2.1636 11.3241
2.0934 2.1636 11.3241
2.07804 2.17896 11.3369
2.07804 2.17896 11.3117
2.0934 2.1636 10.7465
2.0934 2.1636 10.7717
2.07807 2.17893 10.7591
2.07807 2.17893 11.2111
2.0934 2.1636 11.2236
2.07806 2.17894 11.2362
2.0934 2.1636 11.1985
2.0934 2.1636 11.2236
2.07807 2.17893 11.2111
2.07808 2.17892 11.0854
2.0934 2.1636 11.098
2.07808 2.17892 11.1106
1.61564 2.64136 10.5306
1.63134 2.62566 10.5225
1.63134 2.62566 10.5456
1.5683 2.6887 11.4225
1.53648 2.72052 11.4225
1.55243 2.70457 11.4143
2.07804 2.17896 11.3621
2.06271 2.19429 11.3495
2.07804 2.17896 11.3369
2.06275 2.19425 11.3746
2.06271 2.19429 11.3495
2.07804 2.17896 11.3621
2.07804 2.17896 11.3621
2.07809 2.17891 11.3876
2.06275 2.19425 11.3746
2.0934 2.1636 11.3739
2.07809 2.17891 11.3876
2.07804 2.17896 11.3621
2.07833 2.17867 11.4138
2.0934 2.1636 11.3986
2.0934 2.1636 11.4225
2.07833 2.17867 11.4138
2.07809 2.17891 11.3876
2.0934 2.1636 11.3986
2.0934 2.1636 11.4225
2.06326 2.19374 11.4225
2.07833 2.17867 11.4138
2.06326 2.19374 11.4225
2.06287 2.19413 11.3993
2.07833 2.17867 11.4138
2.06287 2.19413 11.3993
2.07809 2.17891 11.3876
2.07833 2.17867 11.4138
2.07806 2.17894 11.2362
2.0934 2.1636 11.2236
2.0934 2.1636 11.2487
2.07804 2.17896 11.3369
2.0934 2.1636 11.3241
2.0934 2.1636 11.3491
2.0934 2.1636 11.3739
2.07804 2.17896 11.3621
2.0934 2.1636 11.3491
2.0934 2.1636 11.3491
2.07804 2.17896 11.3621
2.07804 2.17896 11.3369
2.0934 2.1636 11.0729
2.0934 2.1636 11.098
2.07808 2.17892 11.0854
2.07807 2.17893 10.7591
2.0934 2.1636 10.7717
2.07807 2.17893 10.7842
2.06275 2.19425 11.1985
2.04743 2.20957 11.186
2.06275 2.19425 11.1734
2.07806 2.17894 11.2614
2.0934 2.1636 11.2739
2.07805 2.17895 11.2865
2.07806 2.17894 11.2614
2.0934 2.1636 11.2487
2.0934 2.1636 11.2739
2.07806 2.17894 11.2614
2.06273 2.19427 11.2488
2.07806 2.17894 11.2362
2.07806 2.17894 11.2362
2.0934 2.1636 11.2487
2.07806 2.17894 11.2614
2.06271 2.19429 11.2992
2.07804 2.17896 11.3117
2.06271 2.19429 11.3244
2.06271 2.19429 11.2992
2.07805 2.17895 11.2865
2.07804 2.17896 11.3117
2.04741 2.20959 11.2615
2.03209 2.22491 11.2741
2.0321 2.2249 11.2489
1.83285 2.42415 11.3884
1.81747 2.43953 11.3749
1.83285 2.42415 11.3628
1.78664 2.47036 11.2238
1.78664 2.47036 11.249
1.77121 2.48579 11.2364
2.0934 2.1636 10.5225
2.0934 2.1636 10.5464
2.07833 2.17867 10.5312
1.56833 2.68867 11.3993
1.5683 2.6887 11.4225
1.55243 2.70457 11.4143
1.63134 2.62566 11.3245
1.61565 2.64135 11.3371
1.61564 2.64136 11.3119
1.55243 2.70457 11.4143
1.53648 2.72052 11.4225
1.53664 2.72036 11.3992
2.06276 2.19424 10.847
2.04745 2.20955 10.8344
2.06276 2.19424 10.8219
2.0934 2.1636 10.9976
2.07808 2.17892 10.985
2.0934 2.1636 10.9725
2.07808 2.17892 11.0352
2.0934 2.1636 11.0227
2.0934 2.1636 11.0478
2.06277 2.19423 10.9474
2.04745 2.20955 10.96
2.04745 2.20955 10.9349
2.06277 2.19423 10.9725
2.04745 2.20955 10.96
2.06277 2.19423 10.9474
2.07808 2.17892 10.985
2.06277 2.19423 10.9976
2.06277 2.19423 10.9725
2.04745 2.20955 11.1106
2.06276 2.19424 11.1231
2.04744 2.20956 11.1357
2.01682 2.24018 11.0855
2.01682 2.24018 11.1106
2.0015 2.2555 11.098
2.04745 2.20955 11.0855
2.03214 2.22486 11.0729
2.04745 2.20955 11.0603
2.04745 2.20955 11.0603
2.06277 2.19423 11.0729
2.04745 2.20955 11.0855
2.03214 2.22486 11.0729
2.03214 2.22486 11.0478
2.04745 2.20955 11.0603
2.04745 2.20955 11.0603
2.03214 2.22486 11.0478
2.04745 2.20955 11.0352
2.0934 2.1636 11.0478
2.0934 2.1636 11.0729
2.07808 2.17892 11.0603
2.07808 2.17892 11.0603
2.07808 2.17892 11.0352
2.0934 2.1636 11.0478
2.07808 2.17892 11.0603
2.0934 2.1636 11.0729
2.07808 2.17892 11.0854
2.07808 2.17892 11.0854
2.06277 2.19423 11.0729
2.07808 2.17892 11.0603
2.04744 2.20956 11.1608
2.03213 2.22487 11.1483
2.04744 2.20956 11.1357
2.04744 2.20956 11.1608
2.06275 2.19425 11.1734
2.04743 2.20957 11.186
2.0015 2.2555 11.1483
2.01681 2.24019 11.1357
2.01681 2.24019 11.1609
2.01681 2.24019 11.1609
2.01681 2.24019 11.1357
2.03213 2.22487 11.1483
2.0934 2.1636 11.1231
2.07808 2.17892 11.1106
2.0934 2.1636 11.098
2.04744 2.20956 11.1357
2.06276 2.19424 11.1231
2.06276 2.19424 11.1482
2.06276 2.19424 11.1482
2.04744 2.20956 11.1608
2.04744 2.20956 11.1357
2.06275 2.19425 11.1734
2.04744 2.20956 11.1608
2.06276 2.19424 11.1482
2.07806 2.17894 11.2362
2.06273 2.19427 11.2488
2.06274 2.19426 11.2237
2.06274 2.19426 11.2237
2.07807 2.17893 11.2111
2.07806 2.17894 11.2362
2.06275 2.19425 11.1985
2.07807 2.17893 11.2111
2.06274 2.19426 11.2237
2.0321 2.2249 11.2489
2.03211 2.22489 11.2238
2.04742 2.20958 11.2363
2.04742 2.20958 11.2363
2.04741 2.20959 11.2615
2.0321 2.2249 11.2489
2.06273 2.19427 11.2488
2.04741 2.20959 11.2615
2.04742 2.20958 11.2363
2.04742 2.20958 11.2363
2.06274 2.19426 11.2237
2.06273 2.19427 11.2488
2.01679 2.24021 11.2364
2.03211 2.22489 11.2238
2.0321 2.2249 11.2489
2.01679 2.24021 11.2364
2.00148 2.25552 11.249
2.00148 2.25552 11.2238
2.06271 2.19429 11.3244
2.06271 2.19429 11.3495
2.04741 2.20959 11.3372
2.04741 2.20959 11.3372
2.06271 2.19429 11.3495
2.04744 2.20956 11.3626
2.03209 2.22491 11.2741
2.04741 2.20959 11.2615
2.0474 2.2096 11.2867
2.0474 2.2096 11.2867
2.03209 2.22491 11.2994
2.03209 2.22491 11.2741
1.97087 2.28613 11.1232
1.95555 2.30145 11.1357
1.95555 2.30145 11.1106
2.00148 2.25552 11.2238
2.00149 2.25551 11.1986
2.0168 2.2402 11.2112
2.0168 2.2402 11.2112
2.01679 2.24021 11.2364
2.00148 2.25552 11.2238
2.03211 2.22489 11.2238
2.01679 2.24021 11.2364
2.0168 2.2402 11.2112
2.03211 2.22489 11.1986
2.03211 2.22489 11.2238
2.0168 2.2402 11.2112
1.86358 2.39342 11.3628
1.86358 2.39342 11.3884
1.84822 2.40878 11.3749
1.84822 2.40878 11.3749
1.86358 2.39342 11.3884
1.84822 2.40878 11.3995
1.84822 2.40878 11.3749
1.84822 2.40878 11.3995
1.83285 2.42415 11.3884
1.83285 2.42415 11.3884
1.83285 2.42415 11.3628
1.84822 2.40878 11.3749
1.81747 2.43953 11.3498
1.83285 2.42415 11.3628
1.81747 2.43953 11.3749
1.80202 2.45498 10.985
1.80202 2.45498 11.0101
1.7866 2.4704 10.9976
1.70922 2.54778 11.1106
1.69367 2.56333 11.098
1.70922 2.54778 11.0854
1.70924 2.54776 11.1608
1.6937 2.5633 11.1734
1.69369 2.56331 11.1482
1.63134 2.62566 11.3245
1.61564 2.64136 11.3119
1.63132 2.62568 11.2992
1.63135 2.62565 11.3497
1.61565 2.64135 11.3371
1.63134 2.62566 11.3245
1.69376 2.56324 11.2741
1.69378 2.56322 11.2993
1.6782 2.5788 11.2867
1.59983 2.65717 11.2236
1.61554 2.64146 11.211
1.61557 2.64143 11.2362
1.59973 2.65727 11.123
1.58397 2.67303 11.1356
1.58396 2.67304 11.1105
1.61564 2.64136 11.4144
1.63134 2.62566 11.4225
1.5999 2.6571 11.4225
1.63134 2.62566 11.3994
1.63134 2.62566 11.4225
1.61564 2.64136 11.4144
1.647 2.61 11.4145
1.63134 2.62566 11.4225
1.63134 2.62566 11.3994
1.59993 2.65707 11.3496
1.59992 2.65708 11.3747
1.58418 2.67282 11.3625
1.84822 2.40878 11.4225
1.81747 2.43953 11.4225
1.83285 2.42415 11.4147
1.83285 2.42415 11.3884
1.84822 2.40878 11.3995
1.83285 2.42415 11.4147
1.83285 2.42415 11.4147
1.84822 2.40878 11.3995
1.84822 2.40878 11.4225
1.81747 2.43953 11.3995
1.81747 2.43953 11.3749
1.83285 2.42415 11.3884
1.83285 2.42415 11.3884
1.83285 2.42415 11.4147
1.81747 2.43953 11.3995
1.81747 2.43953 11.3995
1.83285 2.42415 11.4147
1.81747 2.43953 11.4225
1.70931 2.54769 11.2868
1.69378 2.56322 11.2993
1.69376 2.56324 11.2741
1.7712 2.4858 11.2112
1.78663 2.47037 11.1986
1.78664 2.47036 11.2238
1.78664 2.47036 11.2238
1.77121 2.48579 11.2364
1.7712 2.4858 11.2112
1.77122 2.48578 11.2616
1.77121 2.48579 11.2364
1.78664 2.47036 11.249
1.77122 2.48578 11.2616
1.78664 2.47036 11.249
1.78665 2.47035 11.2742
1.78665 2.47035 11.2742
1.77123 2.48577 11.2868
1.77122 2.48578 11.2616
1.77122 2.48578 11.2616
1.77123 2.48577 11.2868
1.75578 2.50122 11.2742
1.78666 2.47034 11.2994
1.77123 2.48577 11.2868
1.78665 2.47035 11.2742
1.78666 2.47034 11.3246
1.77124 2.48576 11.3373
1.77124 2.48576 11.3121
1.77124 2.48576 11.3121
1.78666 2.47034 11.2994
1.78666 2.47034 11.3246
1.77123 2.48577 11.2868
1.78666 2.47034 11.2994
1.77124 2.48576 11.3121
2.07809 2.17891 10.5574
2.07833 2.17867 10.5312
2.0934 2.1636 10.5464
2.06287 2.19413 10.5457
2.07833 2.17867 10.5312
2.07809 2.17891 10.5574
1.94028 2.31672 10.5455
1.94028 2.31672 10.5225
1.95561 2.30139 10.5302
2.00164 2.25536 10.5225
1.98629 2.27071 10.5302
1.97095 2.28605 10.5225
1.97095 2.28605 10.5225
1.95561 2.30139 10.5302
1.94028 2.31672 10.5225
1.48928 2.76772 10.559
1.48919 2.76781 10.5329
1.50509 2.75191 10.5464
1.50509 2.75191 10.5464
1.5206 2.7364 10.531
1.52092 2.73608 10.5575
1.47362 2.78338 10.5478
1.48919 2.76781 10.5329
1.48928 2.76772 10.559
1.47362 2.78338 10.5478
1.47412 2.78288 10.5225
1.48919 2.76781 10.5329
1.56833 2.68867 10.5457
[...]
<PointData Scalars="View Factor" >
<DataArray type="Float64" Name="View Factor" NumberOfComponents="1" format="ascii">
0.00436398
0.00436398
0.00436398
0.0045697
0.0045697
0.0045697
0.00449913
0.00449913
0.00449913
0.00429676
0.00429676
0.00429676
0.00429678
0.00429678
0.00429678
0.00422262
0.00422262
0.00422262
0.00429865
0.00429865
0.00429865
0.00427188
0.00427188
0.00427188
0.00431038
0.00431038
0.00431038
0.00427573
0.00427573
0.00427573
0.00422609
0.00422609
0.00422609
0.00439767
0.00439767
0.00439767
0.00446483
0.00446483
0.00446483
0.00428947
0.00428947
0.00428947
0.00425132
0.00425132
0.00425132
0.00460594
0.00460594
0.00460594
0.00451376
0.00451376
0.00451376
0.00447835
0.00447835
0.00447835
0.00722574
0.00722574
0.00722574
0.00485809
0.00485809
0.00485809
0.00489717
0.00489717
0.00489717
0.00539091
0.00539091
0.00539091
0.0184733
0.0184733
0.0184733
0.00917753
0.00917753
0.00917753
0.00440923
0.00440923
0.00440923
0.00437597
0.00437597
0.00437597
0.00432148
0.00432148
0.00432148
0.0043021
0.0043021
0.0043021
0.00416836
0.00416836
0.00416836
0.00421607
0.00421607
0.00421607
0.00416059
0.00416059
0.00416059
0.00420597
0.00420597
0.00420597
0.00423481
0.00423481
0.00423481
0.00479759
0.00479759
0.00479759
0.00442395
0.00442395
0.00442395
0.0043365
0.0043365
0.0043365
0.00438914
0.00438914
0.00438914
0.0054354
0.0054354
0.0054354
0.00716177
0.00716177
0.00716177
0.00507406
0.00507406
0.00507406
0.00466339
0.00466339
0.00466339
0.00470053
0.00470053
0.00470053
0.00478211
0.00478211
0.00478211
0.0047595
0.0047595
0.0047595
0.00455594
0.00455594
0.00455594
0.00459111
0.00459111
0.00459111
0.00482294
0.00482294
0.00482294
0.00616647
0.00616647
0.00616647
0.00754261
0.00754261
0.00754261
0.00891688
0.00891688
0.00891688
0.00910902
0.00910902
0.00910902
0.00905179
0.00905179
0.00905179
0.00936186
0.00936186
0.00936186
0.00686116
0.00686116
0.00686116
0.00591979
0.00591979
0.00591979
0.00567115
0.00567115
0.00567115
0.00622891
0.00622891
0.00622891
0.00614367
0.00614367
0.00614367
0.00597907
0.00597907
0.00597907
0.00536102
0.00536102
0.00536102
0.00561241
0.00561241
0.00561241
0.00562517
0.00562517
0.00562517
0.00559266
0.00559266
0.00559266
0.0057026
0.0057026
0.0057026
0.00574662
0.00574662
0.00574662
0.00555172
0.00555172
0.00555172
0.00562421
0.00562421
0.00562421
0.00550602
0.00550602
0.00550602
0.00553308
0.00553308
0.00553308
0.00527969
0.00527969
0.00527969
0.00514113
0.00514113
0.00514113
0.00537965
0.00537965
0.00537965
0.00534469
0.00534469
0.00534469
0.0053221
0.0053221
0.0053221
0.00529039
0.00529039
0.00529039
0.00524965
0.00524965
0.00524965
0.00518083
0.00518083
0.00518083
0.0048434
0.0048434
0.0048434
0.0048813
0.0048813
0.0048813
0.00494418
0.00494418
0.00494418
0.00492331
0.00492331
0.00492331
0.00485875
0.00485875
0.00485875
0.00483173
0.00483173
0.00483173
0.00486854
0.00486854
0.00486854
0.00495293
0.00495293
0.00495293
0.00501655
0.00501655
0.00501655
0.00448727
0.00448727
0.00448727
0.00445352
0.00445352
0.00445352
0.00475998
0.00475998
0.00475998
0.00472503
0.00472503
0.00472503
0.00569899
0.00569899
0.00569899
0.00512218
0.00512218
0.00512218
0.00505232
0.00505232
0.00505232
0.00502004
0.00502004
0.00502004
0.00505666
0.00505666
0.00505666
0.00580261
0.00580261
0.00580261
0.00580467
0.00580467
0.00580467
0.0059245
0.0059245
0.0059245
0.00604479
0.00604479
0.00604479
0.00629319
0.00629319
0.00629319
0.00901655
0.00901655
0.00901655
0.00968797
0.00968797
0.00968797
0.00925055
0.00925055
0.00925055
0.00908018
0.00908018
0.00908018
0.00889085
0.00889085
0.00889085
0.00844728
0.00844728
0.00844728
0.0100046
0.0100046
0.0100046
0.0112336
0.0112336
0.0112336
0.00842742
0.00842742
0.00842742
0.00835598
0.00835598
0.00835598
0.00823129
0.00823129
0.00823129
0.00909759
0.00909759
0.00909759
0.00588791
0.00588791
0.00588791
0.00592046
0.00592046
0.00592046
0.00580711
0.00580711
0.00580711
0.00616546
0.00616546
0.00616546
0.00603956
0.00603956
0.00603956
0.00604307
0.00604307
0.00604307
0.00831049
0.00831049
0.00831049
0.00770536
0.00770536
0.00770536
0.00769393
0.00769393
0.00769393
0.0075321
0.0075321
0.0075321
0.00738418
0.00738418
0.00738418
0.00737407
0.00737407
0.00737407
0.00750944
0.00750944
0.00750944
0.00722995
0.00722995
0.00722995
0.00707027
0.00707027
0.00707027
0.00707949
0.00707949
0.00707949
0.00722008
0.00722008
0.00722008
0.00884089
0.00884089
0.00884089
0.00889096
0.00889096
0.00889096
0.0101325
0.0101325
0.0101325
0.00962335
0.00962335
0.00962335
0.00995249
0.00995249
0.00995249
0.0216624
0.0216624
0.0216624
0.0211436
0.0211436
0.0211436
0.0219221
0.0219221
0.0219221
0.0223183
0.0223183
0.0223183
0.0198677
0.0198677
0.0198677
0.0188969
0.0188969
0.0188969
0.0197403
0.0197403
0.0197403
0.0188376
0.0188376
0.0188376
0.0185007
0.0185007
0.0185007
0.00860574
0.00860574
0.00860574
0.00906627
0.00906627
0.00906627
0.00891072
0.00891072
0.00891072
0.011602
0.011602
0.011602
0.0113948
0.0113948
0.0113948
0.00986716
0.00986716
0.00986716
0.00732679
0.00732679
0.00732679
0.00618228
0.00618228
0.00618228
0.00656201
0.00656201
0.00656201
0.00650853
0.00650853
0.00650853
0.00670946
0.00670946
0.00670946
0.00665453
0.00665453
0.00665453
0.00669489
0.00669489
0.00669489
0.00679131
0.00679131
0.00679131
0.00684614
0.00684614
0.00684614
0.00680463
0.00680463
0.00680463
0.0127388
0.0127388
0.0127388
0.0127275
0.0127275
0.0127275
0.0131049
0.0131049
0.0131049
0.00694534
0.00694534
0.00694534
0.0070636
0.0070636
0.0070636
0.00596377
0.00596377
0.00596377
0.00626159
0.00626159
0.00626159
0.00569132
0.00569132
0.00569132
0.00653153
0.00653153
0.00653153
0.00625636
0.00625636
0.00625636
0.00635092
0.00635092
0.00635092
0.00650573
0.00650573
0.00650573
0.00651506
0.00651506
0.00651506
0.00626607
0.00626607
0.00626607
0.00604924
0.00604924
0.00604924
0.00599832
0.00599832
0.00599832
0.00602836
0.00602836
0.00602836
0.00611011
0.00611011
0.00611011
0.00616077
0.00616077
0.00616077
0.00612993
0.00612993
0.00612993
0.00766037
0.00766037
0.00766037
0.00766052
0.00766052
0.00766052
0.00680882
0.00680882
0.00680882
0.00665063
0.00665063
0.00665063
0.00665979
0.00665979
0.00665979
0.00682476
0.00682476
0.00682476
0.00783326
0.00783326
0.00783326
0.00800996
0.00800996
0.00800996
0.00800555
0.00800555
0.00800555
0.00783245
0.00783245
0.00783245
0.00697765
0.00697765
0.00697765
0.00698439
0.00698439
0.00698439
0.00537418
0.00537418
0.00537418
0.00540283
0.00540283
0.00540283
0.00547532
0.00547532
0.00547532
0.00541728
0.00541728
0.00541728
0.00548883
0.00548883
0.00548883
0.00551824
0.00551824
0.00551824
0.00557553
0.00557553
0.00557553
0.00550698
0.00550698
0.00550698
0.00558239
0.00558239
0.00558239
0.00561712
0.00561712
0.00561712
0.00594094
0.00594094
0.00594094
0.00594168
0.00594168
0.00594168
0.00598387
0.00598387
0.00598387
0.00565198
0.00565198
0.00565198
0.00575841
0.00575841
0.00575841
0.00572741
0.00572741
0.00572741
0.00571325
0.00571325
0.00571325
0.00563672
0.00563672
0.00563672
0.00560654
0.00560654
0.00560654
0.00535125
0.00535125
0.00535125
0.00538419
0.00538419
0.00538419
0.00545861
0.00545861
0.00545861
0.00539185
0.00539185
0.00539185
0.00549913
0.00549913
0.00549913
0.00546531
0.00546531
0.00546531
0.00549453
0.00549453
0.00549453
0.00557182
0.00557182
0.00557182
0.00561073
0.00561073
0.00561073
0.00545515
0.00545515
0.00545515
0.00524012
0.00524012
0.00524012
0.00527219
0.00527219
0.00527219
0.00517039
0.00517039
0.00517039
0.00513181
0.00513181
0.00513181
0.00534118
0.00534118
0.00534118
0.00530437
0.00530437
0.00530437
0.00527867
0.00527867
0.00527867
0.00521173
0.00521173
0.00521173
0.00526247
0.00526247
0.00526247
0.00499933
0.00499933
0.00499933
0.00504756
0.00504756
0.00504756
0.00495924
0.00495924
0.00495924
0.00498305
0.00498305
0.00498305
0.00510416
0.00510416
0.00510416
0.00516959
0.00516959
0.00516959
0.00519464
0.00519464
0.00519464
0.00515364
0.00515364
0.00515364
0.00508744
0.00508744
0.00508744
0.00506301
0.00506301
0.00506301
0.00502624
0.00502624
0.00502624
0.00497
0.00497
0.00497
0.00496001
0.00496001
0.00496001
0.00493225
0.00493225
0.00493225
0.00506386
0.00506386
0.00506386
0.00503536
0.00503536
0.00503536
0.00485177
0.00485177
0.00485177
0.0049172
0.0049172
0.0049172
0.00494864
0.00494864
0.00494864
0.00457907
0.00457907
0.00457907
0.00462943
0.00462943
0.00462943
0.00463805
0.00463805
0.00463805
0.00466363
0.00466363
0.00466363
0.00454461
0.00454461
0.00454461
0.00456947
0.00456947
0.00456947
0.00435681
0.00435681
0.00435681
0.00438746
0.00438746
0.00438746
0.00434888
0.00434888
0.00434888
0.00438211
0.00438211
0.00438211
0.00443864
0.00443864
0.00443864
0.00453635
0.00453635
0.00453635
0.00447121
0.00447121
0.00447121
0.00447766
0.00447766
0.00447766
0.00444531
0.00444531
0.00444531
0.00473369
0.00473369
0.00473369
0.00468541
0.00468541
0.00468541
0.00464935
0.00464935
0.00464935
0.00467317
0.00467317
0.00467317
0.00474515
0.00474515
0.00474515
0.00476963
0.00476963
0.00476963
0.0068647
0.0068647
0.0068647
0.00701659
0.00701659
0.00701659
0.00641142
0.00641142
0.00641142
0.00671301
0.00671301
0.00671301
0.00561645
0.00561645
0.00561645
0.00553835
0.00553835
0.00553835
0.00568978
0.00568978
0.00568978
0.0056834
0.0056834
0.0056834
0.00900183
0.00900183
0.00900183
0.00884484
0.00884484
0.00884484
0.0080027
0.0080027
0.0080027
0.00782951
0.00782951
0.00782951
0.00987682
0.00987682
0.00987682
0.00965252
0.00965252
0.00965252
0.00966219
0.00966219
0.00966219
0.0109731
0.0109731
0.0109731
0.0111055
0.0111055
0.0111055
0.0111439
0.0111439
0.0111439
0.00924558
0.00924558
0.00924558
0.00886319
0.00886319
0.00886319
0.00899493
0.00899493
0.00899493
0.0089669
0.0089669
0.0089669
0.00894449
0.00894449
0.00894449
0.00897136
0.00897136
0.00897136
0.00867399
0.00867399
0.00867399
0.0088346
0.0088346
0.0088346
0.00924583
0.00924583
0.00924583
0.00910185
0.00910185
0.00910185
0.00953473
0.00953473
0.00953473
0.00967965
0.00967965
0.00967965
0.00985763
0.00985763
0.00985763
0.00950201
0.00950201
0.00950201
0.00872179
0.00872179
0.00872179
0.00885962
0.00885962
0.00885962
0.0101872
0.0101872
0.0101872
0.0102226
0.0102226
0.0102226
0.0102928
0.0102928
0.0102928
0.0112759
0.0112759
0.0112759
0.00805584
0.00805584
0.00805584
0.00768715
0.00768715
0.00768715
0.0091864
0.0091864
0.0091864
0.00915703
0.00915703
0.00915703
0.00624163
0.00624163
0.00624163
0.00616161
0.00616161
0.00616161
0.00835737
0.00835737
0.00835737
0.00834233
0.00834233
0.00834233
0.0077265
0.0077265
0.0077265
0.00700614
0.00700614
0.00700614
0.00765812
0.00765812
0.00765812
0.00767049
0.00767049
0.00767049
0.00719982
0.00719982
0.00719982
0.0074602
0.0074602
0.0074602
0.00903224
0.00903224
0.00903224
0.00901566
0.00901566
0.00901566
0.00919044
0.00919044
0.00919044
0.0092579
0.0092579
0.0092579
0.00939576
0.00939576
0.00939576
0.0209821
0.0209821
0.0209821
0.0208756
0.0208756
0.0208756
0.0205845
0.0205845
0.0205845
0.0207051
0.0207051
0.0207051
0.0203307
0.0203307
0.0203307
0.0201469
0.0201469
0.0201469
0.0200556
0.0200556
0.0200556
0.0196569
0.0196569
0.0196569
0.0209958
0.0209958
0.0209958
0.0211235
0.0211235
0.0211235
0.0212542
0.0212542
0.0212542
0.0217921
0.0217921
0.0217921
0.0215321
0.0215321
0.0215321
0.0222363
0.0222363
0.0222363
0.0214273
0.0214273
0.0214273
0.0172303
0.0172303
0.0172303
0.0138212
0.0138212
0.0138212
0.0165819
0.0165819
0.0165819
0.0161087
0.0161087
0.0161087
0.0164826
0.0164826
0.0164826
0.016195
0.016195
0.016195
0.0160809
0.0160809
0.0160809
0.0159964
0.0159964
0.0159964
0.0180878
0.0180878
0.0180878
0.0162502
0.0162502
0.0162502
0.0144611
0.0144611
0.0144611
0.014262
0.014262
0.014262
0.014008
0.014008
0.014008
0.0176733
0.0176733
0.0176733
0.0174394
0.0174394
0.0174394
0.0181402
0.0181402
0.0181402
0.018373
0.018373
0.018373
0.0182708
0.0182708
0.0182708
0.016181
0.016181
0.016181
0.01896
0.01896
0.01896
0.019414
0.019414
0.019414
0.0190696
0.0190696
0.0190696
0.0117065
0.0117065
0.0117065
0.0114804
0.0114804
0.0114804
0.0120555
0.0120555
0.0120555
0.0110401
0.0110401
0.0110401
0.0110732
0.0110732
0.0110732
0.011293
0.011293
0.011293
0.00988344
0.00988344
0.00988344
0.0102862
0.0102862
0.0102862
0.0129936
0.0129936
0.0129936
0.0130461
0.0130461
0.0130461
0.00849795
0.00849795
0.00849795
0.00862415
0.00862415
0.00862415
0.0087827
0.0087827
0.0087827
0.00880748
0.00880748
0.00880748
0.00873118
0.00873118
0.00873118
0.00887748
0.00887748
0.00887748
0.00880101
0.00880101
0.00880101
0.00898279
0.00898279
0.00898279
0.0090044
0.0090044
0.0090044
0.0137641
0.0137641
0.0137641
0.0134646
0.0134646
0.0134646
0.0135301
0.0135301
0.0135301
0.0113507
0.0113507
0.0113507
0.0112619
0.0112619
0.0112619
0.0114645
0.0114645
0.0114645
0.0115105
0.0115105
0.0115105
0.0118303
0.0118303
0.0118303
0.011575
0.011575
0.011575
0.0116227
0.0116227
0.0116227
0.0117317
0.0117317
0.0117317
0.0099018
0.0099018
0.0099018
0.00997043
0.00997043
0.00997043
0.0107429
0.0107429
0.0107429
0.0107844
0.0107844
0.0107844
0.0100085
0.0100085
0.0100085
0.00948934
0.00948934
0.00948934
0.009556
0.009556
0.009556
0.00974354
0.00974354
0.00974354
0.00919586
0.00919586
0.00919586
0.00916731
0.00916731
0.00916731
0.00925883
0.00925883
0.00925883
0.00938639
0.00938639
0.00938639
0.00929596
0.00929596
0.00929596
0.00945584
0.00945584
0.00945584
0.00925957
0.00925957
0.00925957
0.0093981
0.0093981
0.0093981
0.00947326
0.00947326
0.00947326
0.00940779
0.00940779
0.00940779
0.0097189
0.0097189
0.0097189
0.00963368
0.00963368
0.00963368
0.00948694
0.00948694
0.00948694
0.0100697
0.0100697
0.0100697
0.00880584
0.00880584
0.00880584
0.00886034
0.00886034
0.00886034
0.00904074
0.00904074
0.00904074
0.00897744
0.00897744
0.00897744
0.00641868
0.00641868
0.00641868
0.00636678
0.00636678
0.00636678
0.00627928
0.00627928
0.00627928
0.00624479
0.00624479
0.00624479
0.00645965
0.00645965
0.00645965
0.00652561
0.00652561
0.00652561
0.00654776
0.00654776
0.00654776
0.00663304
0.00663304
0.00663304
0.00668479
0.00668479
0.00668479
0.00664162
0.00664162
0.00664162
0.00947612
0.00947612
0.00947612
0.00950448
0.00950448
0.00950448
0.0106728
0.0106728
0.0106728
0.0108653
0.0108653
0.0108653
0.0110777
0.0110777
0.0110777
0.0113167
0.0113167
0.0113167
0.0108868
0.0108868
0.0108868
0.0113423
0.0113423
0.0113423
0.0111247
0.0111247
0.0111247
0.0106339
0.0106339
0.0106339
0.0110536
0.0110536
0.0110536
0.0110039
0.0110039
0.0110039
0.0141349
0.0141349
0.0141349
0.0115327
0.0115327
0.0115327
0.0138928
0.0138928
0.0138928
0.00877993
0.00877993
0.00877993
0.00951781
0.00951781
0.00951781
0.00972461
0.00972461
0.00972461
0.00977891
0.00977891
0.00977891
0.0095875
0.0095875
0.0095875
0.0095772
0.0095772
0.0095772
0.0124326
0.0124326
0.0124326
0.0103882
0.0103882
0.0103882
0.0108952
0.0108952
0.0108952
0.0111664
0.0111664
0.0111664
0.0114241
0.0114241
0.0114241
0.0116839
0.0116839
0.0116839
0.0106916
0.0106916
0.0106916
0.0102881
0.0102881
0.0102881
0.0107273
0.0107273
0.0107273
0.00695909
0.00695909
0.00695909
0.00700178
0.00700178
0.00700178
0.00857925
0.00857925
0.00857925
0.00818984
0.00818984
0.00818984
0.00838301
0.00838301
0.00838301
0.00858002
0.00858002
0.00858002
0.00744839
0.00744839
0.00744839
0.00765233
0.00765233
0.00765233
0.00679966
0.00679966
0.00679966
0.00700137
0.00700137
0.00700137
0.0069061
0.0069061
0.0069061
0.00675302
0.00675302
0.00675302
0.00682269
0.00682269
0.00682269
0.00688116
0.00688116
0.00688116
0.00684586
0.00684586
0.00684586
0.00660426
0.00660426
0.00660426
0.00654729
0.00654729
0.00654729
0.00658072
0.00658072
0.00658072
0.00667204
0.00667204
0.00667204
0.00672875
0.00672875
0.00672875
0.00669439
0.00669439
0.00669439
0.00574559
0.00574559
0.00574559
0.00577409
0.00577409
0.00577409
0.00585155
0.00585155
0.00585155
0.0057938
0.0057938
0.0057938
0.0058995
0.0058995
0.0058995
0.00587025
0.00587025
0.00587025
0.00609386
0.00609386
0.00609386
0.00625402
0.00625402
0.00625402
0.00610344
0.00610344
0.00610344
0.006237
0.006237
0.006237
0.00573335
0.00573335
0.00573335
0.00582243
0.00582243
0.00582243
0.00573767
0.00573767
0.00573767
0.00569371
0.00569371
0.00569371
0.00594928
0.00594928
0.00594928
0.00586223
0.00586223
0.00586223
0.00581705
0.00581705
0.00581705
0.00585774
0.00585774
0.00585774
0.00611481
0.00611481
0.00611481
0.00620733
0.00620733
0.00620733
0.00607104
0.00607104
0.00607104
0.00611668
0.00611668
0.00611668
0.00598544
0.00598544
0.00598544
0.00607144
0.00607144
0.00607144
0.00649224
0.00649224
0.00649224
0.00639509
0.00639509
0.00639509
0.00637396
0.00637396
0.00637396
0.00622748
0.00622748
0.00622748
0.00621328
0.00621328
0.00621328
0.00636458
0.00636458
0.00636458
0.00667892
0.00667892
0.00667892
0.00662848
0.00662848
0.00662848
0.00638819
0.00638819
0.00638819
0.00635449
0.00635449
0.00635449
0.00640494
0.00640494
0.00640494
0.00653809
0.00653809
0.00653809
0.00649608
0.00649608
0.00649608
0.00639842
0.00639842
0.00639842
0.00639102
0.00639102
0.00639102
0.0065389
0.0065389
0.0065389
0.00669568
0.00669568
0.00669568
0.00670092
0.00670092
0.00670092
0.00655167
0.00655167
0.00655167
0.00655709
0.00655709
0.00655709
0.00670961
0.00670961
0.00670961
0.00668339
0.00668339
0.00668339
0.00667628
0.00667628
0.00667628
0.0068318
0.0068318
0.0068318
0.00699596
0.00699596
0.00699596
0.00749249
0.00749249
0.00749249
0.00732631
0.00732631
0.00732631
0.00714127
0.00714127
0.00714127
0.0074786
0.0074786
0.0074786
0.00749043
0.00749043
0.00749043
0.00715236
0.00715236
0.00715236
0.00732399
0.00732399
0.00732399
0.0071569
0.0071569
0.0071569
0.00801071
0.00801071
0.00801071
0.00930334
0.00930334
0.00930334
0.00929073
0.00929073
0.00929073
0.00818715
0.00818715
0.00818715
0.00818354
0.00818354
0.00818354
0.00585616
0.00585616
0.00585616
0.00581458
0.00581458
0.00581458
0.00569187
0.00569187
0.00569187
0.00573187
0.00573187
0.00573187
0.00581883
0.00581883
0.00581883
0.00585774
0.00585774
0.00585774
0.00573827
0.00573827
0.00573827
0.00581505
0.00581505
0.00581505
0.00569557
0.00569557
0.00569557
0.00573345
0.00573345
0.00573345
0.00526607
0.00526607
0.00526607
0.00523361
0.00523361
0.00523361
0.00526763
0.00526763
0.00526763
0.00516306
0.00516306
0.00516306
0.00523013
0.00523013
0.00523013
0.00512561
0.00512561
0.00512561
0.00515876
0.00515876
0.00515876
0.00435049
0.00435049
0.00435049
0.00437595
0.00437595
0.00437595
0.00453006
0.00453006
0.00453006
0.00456294
0.00456294
0.00456294
0.00776388
0.00776388
0.00776388
0.00657718
0.00657718
0.00657718
0.00657523
0.00657523
0.00657523
0.0061284
0.0061284
0.0061284
0.00583719
0.00583719
0.00583719
0.00597345
0.00597345
0.00597345
0.00612068
0.00612068
0.00612068
0.00587214
0.00587214
0.00587214
0.00557366
0.00557366
0.00557366
0.00549304
0.00549304
0.00549304
0.0056122
0.0056122
0.0056122
0.00557127
0.00557127
0.00557127
0.00545667
0.00545667
0.00545667
0.00537933
0.00537933
0.00537933
0.00534057
0.00534057
0.00534057
0.0053781
0.0053781
0.0053781
0.00545446
0.00545446
0.00545446
0.00549427
0.00549427
0.00549427
0.00549831
0.00549831
0.00549831
0.00546156
0.00546156
0.00546156
0.00559379
0.00559379
0.00559379
0.00557875
0.00557875
0.00557875
0.00515714
0.00515714
0.00515714
0.0052296
0.0052296
0.0052296
0.00547665
0.00547665
0.00547665
0.00574114
0.00574114
0.00574114
0.00560348
0.00560348
0.00560348
0.00574896
0.00574896
0.00574896
0.00548634
0.00548634
0.00548634
0.005621
0.005621
0.005621
0.00693294
0.00693294
0.00693294
0.00680536
0.00680536
0.00680536
0.0067903
0.0067903
0.0067903
0.00692394
0.00692394
0.00692394
0.00641686
0.00641686
0.00641686
0.00654587
0.00654587
0.00654587
0.00666545
0.00666545
0.00666545
0.00667144
0.00667144
0.00667144
0.00932118
0.00932118
0.00932118
0.00927444
0.00927444
0.00927444
0.00947858
0.00947858
0.00947858
0.00945373
0.00945373
0.00945373
0.00912105
0.00912105
0.00912105
0.00716998
0.00716998
0.00716998
0.00717093
0.00717093
0.00717093
0.00701129
0.00701129
0.00701129
0.00717002
0.00717002
0.00717002
0.00717084
0.00717084
0.00717084
0.00685696
0.00685696
0.00685696
0.00701541
0.00701541
0.00701541
0.00686023
0.00686023
0.00686023
0.00764638
0.00764638
0.00764638
0.00732871
0.00732871
0.00732871
0.00732746
0.00732746
0.00732746
0.00748449
0.00748449