<VTKFile type="UnstructuredGrid" version="1.0">
<UnstructuredGrid>
<Piece NumberOfPoints="8859" NumberOfCells="2953">
<Points>
<DataArray type="Float64" NumberOfComponents="3" format="ascii">
2.75455 1.50245 1.95763
2.76986 1.48714 1.96958
2.75465 1.50235 1.98333
2.78515 1.47185 1.90667
2.78516 1.47184 1.88151
2.8005 1.4565 1.89398
2.76981 1.48719 1.91936
2.78515 1.47185 1.90667
2.78514 1.47186 1.93186
2.72412 1.53288 2.00988
2.73952 1.51748 2.0175
2.70875 1.54825 2.0175
2.72412 1.53288 2.00988
2.73943 1.51757 1.99457
2.73952 1.51748 2.0175
2.75488 1.50212 2.00979
2.77036 1.48664 2.0175
2.73952 1.51748 2.0175
2.75488 1.50212 2.00979
2.73943 1.51757 1.99457
2.75465 1.50235 1.98333
2.73952 1.51748 2.0175
2.73943 1.51757 1.99457
2.75488 1.50212 2.00979
2.75465 1.50235 1.98333
2.76986 1.48714 1.96958
2.76997 1.48703 1.99427
2.76997 1.48703 1.99427
2.75488 1.50212 2.00979
2.75465 1.50235 1.98333
2.77036 1.48664 2.0175
2.75488 1.50212 2.00979
2.76997 1.48703 1.99427
2.76986 1.48714 1.96958
2.75455 1.50245 1.95763
2.76982 1.48718 1.94452
2.76981 1.48719 1.91936
2.78514 1.47186 1.93186
2.76982 1.48718 1.94452
2.7852 1.4718 1.98262
2.76997 1.48703 1.99427
2.76986 1.48714 1.96958
2.8005 1.4565 1.96895
2.8005 1.4565 1.99355
2.7852 1.4718 1.98262
2.8005 1.4565 1.86887
2.8005 1.4565 1.89398
2.78516 1.47184 1.88151
2.78515 1.47185 1.90667
2.8005 1.4565 1.89398
2.8005 1.4565 1.91906
2.8005 1.4565 1.91906
2.78514 1.47186 1.93186
2.78515 1.47185 1.90667
2.8005 1.4565 1.34152
2.8005 1.4565 1.36665
2.78518 1.47182 1.35407
2.78517 1.47183 1.80607
2.8005 1.4565 1.81861
2.78517 1.47183 1.83121
2.8005 1.4565 1.79348
2.8005 1.4565 1.81861
2.78517 1.47183 1.80607
2.78519 1.47181 1.68044
2.8005 1.4565 1.69299
2.78519 1.47181 1.70555
2.32274 1.93426 1.12559
2.33845 1.91855 1.1175
2.33845 1.91855 1.14063
2.27541 1.98159 2.0175
2.24359 2.01341 2.0175
2.25954 1.99746 2.00932
2.78515 1.47185 1.95712
2.76982 1.48718 1.94452
2.78514 1.47186 1.93186
2.76986 1.48714 1.96958
2.76982 1.48718 1.94452
2.78515 1.47185 1.95712
2.78515 1.47185 1.95712
2.7852 1.4718 1.98262
2.76986 1.48714 1.96958
2.8005 1.4565 1.96895
2.7852 1.4718 1.98262
2.78515 1.47185 1.95712
2.78544 1.47156 2.00884
2.8005 1.4565 1.99355
2.8005 1.4565 2.0175
2.78544 1.47156 2.00884
2.7852 1.4718 1.98262
2.8005 1.4565 1.99355
2.8005 1.4565 2.0175
2.77036 1.48664 2.0175
2.78544 1.47156 2.00884
2.77036 1.48664 2.0175
2.76997 1.48703 1.99427
2.78544 1.47156 2.00884
2.76997 1.48703 1.99427
2.7852 1.4718 1.98262
2.78544 1.47156 2.00884
2.78517 1.47183 1.83121
2.8005 1.4565 1.81861
2.8005 1.4565 1.84374
2.78514 1.47186 1.93186
2.8005 1.4565 1.91906
2.8005 1.4565 1.94407
2.8005 1.4565 1.96895
2.78515 1.47185 1.95712
2.8005 1.4565 1.94407
2.8005 1.4565 1.94407
2.78515 1.47185 1.95712
2.78514 1.47186 1.93186
2.8005 1.4565 1.66788
2.8005 1.4565 1.69299
2.78519 1.47181 1.68044
2.78518 1.47182 1.35407
2.8005 1.4565 1.36665
2.78518 1.47182 1.3792
2.76985 1.48715 1.79353
2.75454 1.50246 1.78098
2.76986 1.48714 1.76838
2.78516 1.47184 1.85636
2.8005 1.4565 1.86887
2.78516 1.47184 1.88151
2.78516 1.47184 1.85636
2.8005 1.4565 1.84374
2.8005 1.4565 1.86887
2.78516 1.47184 1.85636
2.76984 1.48716 1.84384
2.78517 1.47183 1.83121
2.78517 1.47183 1.83121
2.8005 1.4565 1.84374
2.78516 1.47184 1.85636
2.76982 1.48718 1.89418
2.78515 1.47185 1.90667
2.76981 1.48719 1.91936
2.76982 1.48718 1.89418
2.78516 1.47184 1.88151
2.78515 1.47185 1.90667
2.75451 1.50249 1.85649
2.7392 1.5178 1.86915
2.73921 1.51779 1.84394
2.53996 1.71704 1.98338
2.52458 1.73242 1.9699
2.53996 1.71704 1.95775
2.49374 1.76326 1.8188
2.49375 1.76325 1.844
2.47832 1.77868 1.83139
2.8005 1.4565 1.1175
2.8005 1.4565 1.14145
2.78544 1.47156 1.12616
2.27543 1.98157 1.99433
2.27541 1.98159 2.0175
2.25954 1.99746 2.00932
2.33845 1.91855 1.91946
2.32276 1.93424 1.93214
2.32275 1.93425 1.90685
2.25954 1.99746 2.00932
2.24359 2.01341 2.0175
2.24374 2.01326 1.99423
2.76987 1.48713 1.442
2.75455 1.50245 1.42943
2.76987 1.48713 1.41688
2.8005 1.4565 1.59259
2.78519 1.47181 1.58005
2.8005 1.4565 1.5675
2.78519 1.47181 1.63024
2.8005 1.4565 1.61769
2.8005 1.4565 1.64278
2.76988 1.48712 1.54241
2.75456 1.50244 1.55495
2.75456 1.50244 1.52986
2.76988 1.48712 1.5675
2.75456 1.50244 1.55495
2.76988 1.48712 1.54241
2.78519 1.47181 1.58005
2.76988 1.48712 1.59259
2.76988 1.48712 1.5675
2.75455 1.50245 1.70557
2.76987 1.48713 1.71812
2.75455 1.50245 1.7307
2.72393 1.53307 1.68047
2.72392 1.53308 1.70559
2.70861 1.54839 1.69303
2.75456 1.50244 1.68045
2.73924 1.51776 1.6679
2.75456 1.50244 1.65535
2.75456 1.50244 1.65535
2.76987 1.48713 1.66789
2.75456 1.50244 1.68045
2.73924 1.51776 1.6679
2.73925 1.51775 1.6428
2.75456 1.50244 1.65535
2.75456 1.50244 1.65535
2.73925 1.51775 1.6428
2.75456 1.50244 1.63024
2.8005 1.4565 1.64278
2.8005 1.4565 1.66788
2.78519 1.47181 1.65534
2.78519 1.47181 1.65534
2.78519 1.47181 1.63024
2.8005 1.4565 1.64278
2.78519 1.47181 1.65534
2.8005 1.4565 1.66788
2.78519 1.47181 1.68044
2.78519 1.47181 1.68044
2.76987 1.48713 1.66789
2.78519 1.47181 1.65534
2.75454 1.50246 1.75583
2.73923 1.51777 1.74328
2.75455 1.50245 1.7307
2.75454 1.50246 1.75583
2.76986 1.48714 1.76838
2.75454 1.50246 1.78098
2.7086 1.5484 1.7433
2.72392 1.53308 1.73072
2.72392 1.53308 1.75586
2.72392 1.53308 1.75586
2.72392 1.53308 1.73072
2.73923 1.51777 1.74328
2.8005 1.4565 1.7181
2.78519 1.47181 1.70555
2.8005 1.4565 1.69299
2.75455 1.50245 1.7307
2.76987 1.48713 1.71812
2.76986 1.48714 1.74325
2.76986 1.48714 1.74325
2.75454 1.50246 1.75583
2.75455 1.50245 1.7307
2.76986 1.48714 1.76838
2.75454 1.50246 1.75583
2.76986 1.48714 1.74325
2.78517 1.47183 1.83121
2.76984 1.48716 1.84384
2.76985 1.48715 1.81868
2.76985 1.48715 1.81868
2.78517 1.47183 1.80607
2.78517 1.47183 1.83121
2.76985 1.48715 1.79353
2.78517 1.47183 1.80607
2.76985 1.48715 1.81868
2.73921 1.51779 1.84394
2.73921 1.51779 1.81875
2.75452 1.50248 1.8313
2.75452 1.50248 1.8313
2.75451 1.50249 1.85649
2.73921 1.51779 1.84394
2.76984 1.48716 1.84384
2.75451 1.50249 1.85649
2.75452 1.50248 1.8313
2.75452 1.50248 1.8313
2.76985 1.48715 1.81868
2.76984 1.48716 1.84384
2.7239 1.5331 1.83138
2.73921 1.51779 1.81875
2.73921 1.51779 1.84394
2.7239 1.5331 1.83138
2.70859 1.54841 1.84401
2.70859 1.54841 1.81881
2.76981 1.48719 1.91936
2.76982 1.48718 1.94452
2.75451 1.50249 1.93222
2.75451 1.50249 1.93222
2.76982 1.48718 1.94452
2.75455 1.50245 1.95763
2.7392 1.5178 1.86915
2.75451 1.50249 1.85649
2.75451 1.50249 1.88169
2.75451 1.50249 1.88169
2.7392 1.5178 1.89437
2.7392 1.5178 1.86915
2.67798 1.57902 1.71817
2.66266 1.59434 1.73075
2.66266 1.59434 1.70561
2.70859 1.54841 1.81881
2.70859 1.54841 1.79362
2.7239 1.5331 1.80619
2.7239 1.5331 1.80619
2.7239 1.5331 1.83138
2.70859 1.54841 1.81881
2.73921 1.51779 1.81875
2.7239 1.5331 1.83138
2.7239 1.5331 1.80619
2.73922 1.51778 1.79358
2.73921 1.51779 1.81875
2.7239 1.5331 1.80619
2.57068 1.68632 1.95776
2.57068 1.68632 1.98339
2.55533 1.70167 1.96991
2.55533 1.70167 1.96991
2.57068 1.68632 1.98339
2.55533 1.70167 1.9945
2.55533 1.70167 1.96991
2.55533 1.70167 1.9945
2.53996 1.71704 1.98338
2.53996 1.71704 1.98338
2.53996 1.71704 1.95775
2.55533 1.70167 1.96991
2.52458 1.73242 1.94484
2.53996 1.71704 1.95775
2.52458 1.73242 1.9699
2.50912 1.74788 1.58005
2.50912 1.74788 1.60515
2.49371 1.76329 1.5926
2.41633 1.84067 1.70556
2.40077 1.85623 1.693
2.41632 1.84068 1.68045
2.41635 1.84065 1.75583
2.40081 1.85619 1.76839
2.40079 1.85621 1.74325
2.33845 1.91855 1.91946
2.32275 1.93425 1.90685
2.33843 1.91857 1.89424
2.33845 1.91855 1.94466
2.32276 1.93424 1.93214
2.33845 1.91855 1.91946
2.40087 1.85613 1.86912
2.40088 1.85612 1.89434
2.38531 1.87169 1.88172
2.30693 1.95007 1.81858
2.32265 1.93435 1.80603
2.32267 1.93433 1.8312
2.30684 1.95016 1.71803
2.29108 1.96592 1.73056
2.29106 1.96594 1.70546
2.32274 1.93426 2.00941
2.33845 1.91855 2.0175
2.30701 1.94999 2.0175
2.33845 1.91855 1.99437
2.33845 1.91855 2.0175
2.32274 1.93426 2.00941
2.35411 1.90289 2.00947
2.33845 1.91855 2.0175
2.33845 1.91855 1.99437
2.30704 1.94996 1.94461
2.30703 1.94997 1.96969
2.29128 1.96572 1.95746
2.55533 1.70167 2.0175
2.52458 1.73242 2.0175
2.53996 1.71704 2.00972
2.53996 1.71704 1.98338
2.55533 1.70167 1.9945
2.53996 1.71704 2.00972
2.53996 1.71704 2.00972
2.55533 1.70167 1.9945
2.55533 1.70167 2.0175
2.52458 1.73242 1.99449
2.52458 1.73242 1.9699
2.53996 1.71704 1.98338
2.53996 1.71704 1.98338
2.53996 1.71704 2.00972
2.52458 1.73242 1.99449
2.52458 1.73242 1.99449
2.53996 1.71704 2.00972
2.52458 1.73242 2.0175
2.41642 1.84058 1.88176
2.40088 1.85612 1.89434
2.40087 1.85613 1.86912
2.47831 1.77869 1.8062
2.49374 1.76326 1.79362
2.49374 1.76326 1.8188
2.49374 1.76326 1.8188
2.47832 1.77868 1.83139
2.47831 1.77869 1.8062
2.47833 1.77867 1.8566
2.47832 1.77868 1.83139
2.49375 1.76325 1.844
2.47833 1.77867 1.8566
2.49375 1.76325 1.844
2.49376 1.76324 1.86921
2.49376 1.76324 1.86921
2.47834 1.77866 1.88182
2.47833 1.77867 1.8566
2.47833 1.77867 1.8566
2.47834 1.77866 1.88182
2.46289 1.79411 1.86919
2.49377 1.76323 1.89443
2.47834 1.77866 1.88182
2.49376 1.76324 1.86921
2.49377 1.76323 1.91964
2.47835 1.77865 1.93234
2.47834 1.77866 1.90706
2.47834 1.77866 1.90706
2.49377 1.76323 1.89443
2.49377 1.76323 1.91964
2.47834 1.77866 1.88182
2.49377 1.76323 1.89443
2.47834 1.77866 1.90706
2.7852 1.4718 1.15238
2.78544 1.47156 1.12616
2.8005 1.4565 1.14145
2.76997 1.48703 1.14073
2.78544 1.47156 1.12616
2.7852 1.4718 1.15238
2.64739 1.60961 1.14048
2.64738 1.60962 1.1175
2.66272 1.59428 1.12521
2.70875 1.54825 1.1175
2.6934 1.5636 1.12517
2.67805 1.57895 1.1175
2.67805 1.57895 1.1175
2.66272 1.59428 1.12521
2.64738 1.60962 1.1175
2.19638 2.06062 1.15397
2.1963 2.0607 1.12786
2.2122 2.0448 1.14145
2.2122 2.0448 1.14145
2.22771 2.02929 1.12601
2.22802 2.02898 1.15245
2.18073 2.07627 1.14282
2.1963 2.0607 1.12786
2.19638 2.06062 1.15397
2.18073 2.07627 1.14282
2.18123 2.07577 1.1175
2.1963 2.0607 1.12786
2.27543 1.98157 1.14067
2.27541 1.98159 1.1175
2.29123 1.96577 1.12563
2.30701 1.94999 1.1175
[...]
<PointData Scalars="View Factor" >
<DataArray type="Float64" Name="View Factor" NumberOfComponents="1" format="ascii">
5.25522e-05
5.25522e-05
5.25522e-05
5.56568e-05
5.56568e-05
5.56568e-05
5.4607e-05
5.4607e-05
5.4607e-05
4.96141e-05
4.96141e-05
4.96141e-05
5.0389e-05
5.0389e-05
5.0389e-05
5.16447e-05
5.16447e-05
5.16447e-05
5.15428e-05
5.15428e-05
5.15428e-05
5.10668e-05
5.10668e-05
5.10668e-05
5.27301e-05
5.27301e-05
5.27301e-05
5.22191e-05
5.22191e-05
5.22191e-05
5.24147e-05
5.24147e-05
5.24147e-05
5.30615e-05
5.30615e-05
5.30615e-05
5.40915e-05
5.40915e-05
5.40915e-05
5.34105e-05
5.34105e-05
5.34105e-05
5.47731e-05
5.47731e-05
5.47731e-05
5.61852e-05
5.61852e-05
5.61852e-05
5.58268e-05
5.58268e-05
5.58268e-05
5.52998e-05
5.52998e-05
5.52998e-05
6.44152e-05
6.44152e-05
6.44152e-05
5.67397e-05
5.67397e-05
5.67397e-05
5.72784e-05
5.72784e-05
5.72784e-05
5.85996e-05
5.85996e-05
5.85996e-05
3.81808e-05
3.81808e-05
3.81808e-05
3.08654e-05
3.08654e-05
3.08654e-05
5.42622e-05
5.42622e-05
5.42622e-05
5.37465e-05
5.37465e-05
5.37465e-05
5.39158e-05
5.39158e-05
5.39158e-05
5.46003e-05
5.46003e-05
5.46003e-05
5.4434e-05
5.4434e-05
5.4434e-05
5.42577e-05
5.42577e-05
5.42577e-05
5.36563e-05
5.36563e-05
5.36563e-05
5.30919e-05
5.30919e-05
5.30919e-05
5.35798e-05
5.35798e-05
5.35798e-05
5.69111e-05
5.69111e-05
5.69111e-05
5.54716e-05
5.54716e-05
5.54716e-05
5.51201e-05
5.51201e-05
5.51201e-05
5.49511e-05
5.49511e-05
5.49511e-05
5.91587e-05
5.91587e-05
5.91587e-05
6.38016e-05
6.38016e-05
6.38016e-05
5.54981e-05
5.54981e-05
5.54981e-05
5.60167e-05
5.60167e-05
5.60167e-05
5.65466e-05
5.65466e-05
5.65466e-05
5.56692e-05
5.56692e-05
5.56692e-05
5.63741e-05
5.63741e-05
5.63741e-05
5.44353e-05
5.44353e-05
5.44353e-05
5.49601e-05
5.49601e-05
5.49601e-05
5.3037e-05
5.3037e-05
5.3037e-05
3.75825e-05
3.75825e-05
3.75825e-05
3.57557e-05
3.57557e-05
3.57557e-05
6.84013e-05
6.84013e-05
6.84013e-05
3.08512e-05
3.08512e-05
3.08512e-05
3.11449e-05
3.11449e-05
3.11449e-05
3.1002e-05
3.1002e-05
3.1002e-05
6.08015e-05
6.08015e-05
6.08015e-05
6.07169e-05
6.07169e-05
6.07169e-05
5.99316e-05
5.99316e-05
5.99316e-05
5.86513e-05
5.86513e-05
5.86513e-05
5.88374e-05
5.88374e-05
5.88374e-05
5.92119e-05
5.92119e-05
5.92119e-05
5.60424e-05
5.60424e-05
5.60424e-05
5.34831e-05
5.34831e-05
5.34831e-05
5.60371e-05
5.60371e-05
5.60371e-05
5.67734e-05
5.67734e-05
5.67734e-05
5.58482e-05
5.58482e-05
5.58482e-05
5.64021e-05
5.64021e-05
5.64021e-05
5.95437e-05
5.95437e-05
5.95437e-05
5.93685e-05
5.93685e-05
5.93685e-05
5.89825e-05
5.89825e-05
5.89825e-05
5.82461e-05
5.82461e-05
5.82461e-05
5.49608e-05
5.49608e-05
5.49608e-05
5.53205e-05
5.53205e-05
5.53205e-05
5.27918e-05
5.27918e-05
5.27918e-05
5.35135e-05
5.35135e-05
5.35135e-05
5.87767e-05
5.87767e-05
5.87767e-05
5.62254e-05
5.62254e-05
5.62254e-05
5.56828e-05
5.56828e-05
5.56828e-05
5.58631e-05
5.58631e-05
5.58631e-05
5.54953e-05
5.54953e-05
5.54953e-05
5.60306e-05
5.60306e-05
5.60306e-05
5.58576e-05
5.58576e-05
5.58576e-05
5.33763e-05
5.33763e-05
5.33763e-05
5.35564e-05
5.35564e-05
5.35564e-05
5.42604e-05
5.42604e-05
5.42604e-05
5.47887e-05
5.47887e-05
5.47887e-05
5.26706e-05
5.26706e-05
5.26706e-05
5.12632e-05
5.12632e-05
5.12632e-05
5.34021e-05
5.34021e-05
5.34021e-05
5.28844e-05
5.28844e-05
5.28844e-05
5.32145e-05
5.32145e-05
5.32145e-05
5.26953e-05
5.26953e-05
5.26953e-05
4.9506e-05
4.9506e-05
4.9506e-05
5.15931e-05
5.15931e-05
5.15931e-05
5.17824e-05
5.17824e-05
5.17824e-05
5.24901e-05
5.24901e-05
5.24901e-05
5.30147e-05
5.30147e-05
5.30147e-05
3.96241e-05
3.96241e-05
3.96241e-05
3.91601e-05
3.91601e-05
3.91601e-05
3.84821e-05
3.84821e-05
3.84821e-05
3.82625e-05
3.82625e-05
3.82625e-05
3.73657e-05
3.73657e-05
3.73657e-05
3.91408e-05
3.91408e-05
3.91408e-05
3.24553e-05
3.24553e-05
3.24553e-05
3.19668e-05
3.19668e-05
3.19668e-05
3.12103e-05
3.12103e-05
3.12103e-05
3.10121e-05
3.10121e-05
3.10121e-05
3.1019e-05
3.1019e-05
3.1019e-05
3.20205e-05
3.20205e-05
3.20205e-05
3.30009e-05
3.30009e-05
3.30009e-05
3.04383e-05
3.04383e-05
3.04383e-05
3.04305e-05
3.04305e-05
3.04305e-05
3.03643e-05
3.03643e-05
3.03643e-05
3.10221e-05
3.10221e-05
3.10221e-05
3.75022e-05
3.75022e-05
3.75022e-05
3.80156e-05
3.80156e-05
3.80156e-05
3.82447e-05
3.82447e-05
3.82447e-05
3.7126e-05
3.7126e-05
3.7126e-05
3.73399e-05
3.73399e-05
3.73399e-05
3.68971e-05
3.68971e-05
3.68971e-05
3.0958e-05
3.0958e-05
3.0958e-05
3.59843e-05
3.59843e-05
3.59843e-05
3.55174e-05
3.55174e-05
3.55174e-05
3.52908e-05
3.52908e-05
3.52908e-05
3.55287e-05
3.55287e-05
3.55287e-05
3.50645e-05
3.50645e-05
3.50645e-05
3.43652e-05
3.43652e-05
3.43652e-05
3.53e-05
3.53e-05
3.53e-05
3.46181e-05
3.46181e-05
3.46181e-05
3.50762e-05
3.50762e-05
3.50762e-05
3.484e-05
3.484e-05
3.484e-05
6.77638e-05
6.77638e-05
6.77638e-05
6.69241e-05
6.69241e-05
6.69241e-05
5.65228e-05
5.65228e-05
5.65228e-05
6.00455e-05
6.00455e-05
6.00455e-05
5.74852e-05
5.74852e-05
5.74852e-05
3.91732e-05
3.91732e-05
3.91732e-05
3.89894e-05
3.89894e-05
3.89894e-05
3.9268e-05
3.9268e-05
3.9268e-05
3.94431e-05
3.94431e-05
3.94431e-05
3.86042e-05
3.86042e-05
3.86042e-05
3.83413e-05
3.83413e-05
3.83413e-05
3.85922e-05
3.85922e-05
3.85922e-05
3.76719e-05
3.76719e-05
3.76719e-05
3.7501e-05
3.7501e-05
3.7501e-05
3.05671e-05
3.05671e-05
3.05671e-05
3.09577e-05
3.09577e-05
3.09577e-05
3.0827e-05
3.0827e-05
3.0827e-05
3.32207e-05
3.32207e-05
3.32207e-05
3.30769e-05
3.30769e-05
3.30769e-05
3.17564e-05
3.17564e-05
3.17564e-05
6.42275e-05
6.42275e-05
6.42275e-05
6.1515e-05
6.1515e-05
6.1515e-05
6.00057e-05
6.00057e-05
6.00057e-05
5.94239e-05
5.94239e-05
5.94239e-05
6.0401e-05
6.0401e-05
6.0401e-05
5.9815e-05
5.9815e-05
5.9815e-05
5.90391e-05
5.90391e-05
5.90391e-05
5.88423e-05
5.88423e-05
5.88423e-05
5.94303e-05
5.94303e-05
5.94303e-05
6.02112e-05
6.02112e-05
6.02112e-05
4.80432e-05
4.80432e-05
4.80432e-05
4.74764e-05
4.74764e-05
4.74764e-05
4.72871e-05
4.72871e-05
4.72871e-05
5.92307e-05
5.92307e-05
5.92307e-05
6.39903e-05
6.39903e-05
6.39903e-05
4.90985e-05
4.90985e-05
4.90985e-05
4.76362e-05
4.76362e-05
4.76362e-05
5.20211e-05
5.20211e-05
5.20211e-05
4.8787e-05
4.8787e-05
4.8787e-05
5.13473e-05
5.13473e-05
5.13473e-05
5.11365e-05
5.11365e-05
5.11365e-05
5.03866e-05
5.03866e-05
5.03866e-05
4.98493e-05
4.98493e-05
4.98493e-05
5.78907e-05
5.78907e-05
5.78907e-05
6.11143e-05
6.11143e-05
6.11143e-05
6.05372e-05
6.05372e-05
6.05372e-05
5.97813e-05
5.97813e-05
5.97813e-05
5.95957e-05
5.95957e-05
5.95957e-05
6.01729e-05
6.01729e-05
6.01729e-05
6.09338e-05
6.09338e-05
6.09338e-05
4.56617e-05
4.56617e-05
4.56617e-05
4.61894e-05
4.61894e-05
4.61894e-05
5.05027e-05
5.05027e-05
5.05027e-05
5.07173e-05
5.07173e-05
5.07173e-05
5.01778e-05
5.01778e-05
5.01778e-05
4.94255e-05
4.94255e-05
4.94255e-05
4.64913e-05
4.64913e-05
4.64913e-05
4.62594e-05
4.62594e-05
4.62594e-05
4.52058e-05
4.52058e-05
4.52058e-05
4.59629e-05
4.59629e-05
4.59629e-05
4.97455e-05
4.97455e-05
4.97455e-05
4.92079e-05
4.92079e-05
4.92079e-05
5.73162e-05
5.73162e-05
5.73162e-05
5.65869e-05
5.65869e-05
5.65869e-05
5.64047e-05
5.64047e-05
5.64047e-05
5.7868e-05
5.7868e-05
5.7868e-05
5.76905e-05
5.76905e-05
5.76905e-05
5.69566e-05
5.69566e-05
5.69566e-05
5.42142e-05
5.42142e-05
5.42142e-05
5.56733e-05
5.56733e-05
5.56733e-05
5.54906e-05
5.54906e-05
5.54906e-05
5.4757e-05
5.4757e-05
5.4757e-05
5.27003e-05
5.27003e-05
5.27003e-05
5.39827e-05
5.39827e-05
5.39827e-05
5.32397e-05
5.32397e-05
5.32397e-05
5.86273e-05
5.86273e-05
5.86273e-05
5.77026e-05
5.77026e-05
5.77026e-05
5.84462e-05
5.84462e-05
5.84462e-05
5.71431e-05
5.71431e-05
5.71431e-05
5.73272e-05
5.73272e-05
5.73272e-05
5.8066e-05
5.8066e-05
5.8066e-05
5.47732e-05
5.47732e-05
5.47732e-05
5.40488e-05
5.40488e-05
5.40488e-05
5.38625e-05
5.38625e-05
5.38625e-05
5.53158e-05
5.53158e-05
5.53158e-05
5.44033e-05
5.44033e-05
5.44033e-05
5.51324e-05
5.51324e-05
5.51324e-05
5.31362e-05
5.31362e-05
5.31362e-05
5.29441e-05
5.29441e-05
5.29441e-05
5.22156e-05
5.22156e-05
5.22156e-05
5.26009e-05
5.26009e-05
5.26009e-05
5.44218e-05
5.44218e-05
5.44218e-05
5.37021e-05
5.37021e-05
5.37021e-05
5.46032e-05
5.46032e-05
5.46032e-05
5.40696e-05
5.40696e-05
5.40696e-05
5.22653e-05
5.22653e-05
5.22653e-05
5.74999e-05
5.74999e-05
5.74999e-05
5.82271e-05
5.82271e-05
5.82271e-05
5.83979e-05
5.83979e-05
5.83979e-05
5.695e-05
5.695e-05
5.695e-05
5.76486e-05
5.76486e-05
5.76486e-05
5.62136e-05
5.62136e-05
5.62136e-05
5.71063e-05
5.71063e-05
5.71063e-05
5.63928e-05
5.63928e-05
5.63928e-05
5.80217e-05
5.80217e-05
5.80217e-05
5.78445e-05
5.78445e-05
5.78445e-05
5.71221e-05
5.71221e-05
5.71221e-05
5.65833e-05
5.65833e-05
5.65833e-05
5.67598e-05
5.67598e-05
5.67598e-05
5.74776e-05
5.74776e-05
5.74776e-05
5.37251e-05
5.37251e-05
5.37251e-05
5.51466e-05
5.51466e-05
5.51466e-05
5.39045e-05
5.39045e-05
5.39045e-05
5.4613e-05
5.4613e-05
5.4613e-05
5.42551e-05
5.42551e-05
5.42551e-05
5.49682e-05
5.49682e-05
5.49682e-05
5.23358e-05
5.23358e-05
5.23358e-05
5.21496e-05
5.21496e-05
5.21496e-05
5.14466e-05
5.14466e-05
5.14466e-05
5.37417e-05
5.37417e-05
5.37417e-05
5.23597e-05
5.23597e-05
5.23597e-05
5.357e-05
5.357e-05
5.357e-05
5.28751e-05
5.28751e-05
5.28751e-05
5.32274e-05
5.32274e-05
5.32274e-05
5.25369e-05
5.25369e-05
5.25369e-05
5.13729e-05
5.13729e-05
5.13729e-05
5.18713e-05
5.18713e-05
5.18713e-05
5.01885e-05
5.01885e-05
5.01885e-05
5.06945e-05
5.06945e-05
5.06945e-05
5.05087e-05
5.05087e-05
5.05087e-05
5.20226e-05
5.20226e-05
5.20226e-05
5.10109e-05
5.10109e-05
5.10109e-05
5.21987e-05
5.21987e-05
5.21987e-05
5.16934e-05
5.16934e-05
5.16934e-05
5.39138e-05
5.39138e-05
5.39138e-05
5.5316e-05
5.5316e-05
5.5316e-05
5.47877e-05
5.47877e-05
5.47877e-05
5.40896e-05
5.40896e-05
5.40896e-05
5.51428e-05
5.51428e-05
5.51428e-05
5.44404e-05
5.44404e-05
5.44404e-05
4.47151e-05
4.47151e-05
4.47151e-05
4.4495e-05
4.4495e-05
4.4495e-05
4.69057e-05
4.69057e-05
4.69057e-05
4.54452e-05
4.54452e-05
4.54452e-05
4.9708e-05
4.9708e-05
4.9708e-05
3.95197e-05
3.95197e-05
3.95197e-05
3.89186e-05
3.89186e-05
3.89186e-05
3.9367e-05
3.9367e-05
3.9367e-05
3.86373e-05
3.86373e-05
3.86373e-05
3.98913e-05
3.98913e-05
3.98913e-05
4.468e-05
4.468e-05
4.468e-05
4.49096e-05
4.49096e-05
4.49096e-05
3.25914e-05
3.25914e-05
3.25914e-05
3.2018e-05
3.2018e-05
3.2018e-05
3.23799e-05
3.23799e-05
3.23799e-05
3.32049e-05
3.32049e-05
3.32049e-05
3.32037e-05
3.32037e-05
3.32037e-05
3.32744e-05
3.32744e-05
3.32744e-05
3.13432e-05
3.13432e-05
3.13432e-05
3.0945e-05
3.0945e-05
3.0945e-05
3.10138e-05
3.10138e-05
3.10138e-05
3.09519e-05
3.09519e-05
3.09519e-05
3.11427e-05
3.11427e-05
3.11427e-05
3.12067e-05
3.12067e-05
3.12067e-05
3.10101e-05
3.10101e-05
3.10101e-05
3.11407e-05
3.11407e-05
3.11407e-05
3.16104e-05
3.16104e-05
3.16104e-05
3.15453e-05
3.15453e-05
3.15453e-05
3.17443e-05
3.17443e-05
3.17443e-05
3.18129e-05
3.18129e-05
3.18129e-05
3.19497e-05
3.19497e-05
3.19497e-05
3.19522e-05
3.19522e-05
3.19522e-05
3.11442e-05
3.11442e-05
3.11442e-05
3.12088e-05
3.12088e-05
3.12088e-05
3.2159e-05
3.2159e-05
3.2159e-05
3.2226e-05
3.2226e-05
3.2226e-05
3.23614e-05
3.23614e-05
3.23614e-05
3.30692e-05
3.30692e-05
3.30692e-05
3.0245e-05
3.0245e-05
3.0245e-05
3.00557e-05
3.00557e-05
3.00557e-05
3.12141e-05
3.12141e-05
3.12141e-05
3.1149e-05
3.1149e-05
3.1149e-05
3.5478e-05
3.5478e-05
3.5478e-05
3.6223e-05
3.6223e-05
3.6223e-05
3.54854e-05
3.54854e-05
3.54854e-05
3.50091e-05
3.50091e-05
3.50091e-05
3.69322e-05
3.69322e-05
3.69322e-05
3.193e-05
3.193e-05
3.193e-05
3.41254e-05
3.41254e-05
3.41254e-05
3.45867e-05
3.45867e-05
3.45867e-05
3.39278e-05
3.39278e-05
3.39278e-05
3.25487e-05
3.25487e-05
3.25487e-05
6.77156e-05
6.77156e-05
6.77156e-05
6.6725e-05
6.6725e-05
6.6725e-05
6.2709e-05
6.2709e-05
6.2709e-05
6.33237e-05
6.33237e-05
6.33237e-05
6.26054e-05
6.26054e-05
6.26054e-05
3.89695e-05
3.89695e-05
3.89695e-05
3.88962e-05
3.88962e-05
3.88962e-05
3.88652e-05
3.88652e-05
3.88652e-05
3.88762e-05
3.88762e-05
3.88762e-05
3.87122e-05
3.87122e-05
3.87122e-05
3.86937e-05
3.86937e-05
3.86937e-05
3.8621e-05
3.8621e-05
3.8621e-05
3.84396e-05
3.84396e-05
3.84396e-05
3.88983e-05
3.88983e-05
3.88983e-05
3.891e-05
3.891e-05
3.891e-05
3.89908e-05
3.89908e-05
3.89908e-05
3.92513e-05
3.92513e-05
3.92513e-05
3.91601e-05
3.91601e-05
3.91601e-05
3.94322e-05
3.94322e-05
3.94322e-05
3.91466e-05
3.91466e-05
3.91466e-05
3.71798e-05
3.71798e-05
3.71798e-05
3.47753e-05
3.47753e-05
3.47753e-05
3.68506e-05
3.68506e-05
3.68506e-05
3.60207e-05
3.60207e-05
3.60207e-05
3.62548e-05
3.62548e-05
3.62548e-05
3.60898e-05
3.60898e-05
3.60898e-05
3.60653e-05
3.60653e-05
3.60653e-05
3.59954e-05
3.59954e-05
3.59954e-05
3.72093e-05
3.72093e-05
3.72093e-05
3.62091e-05
3.62091e-05
3.62091e-05
3.4944e-05
3.4944e-05
3.4944e-05
3.50159e-05
3.50159e-05
3.50159e-05
3.48601e-05
3.48601e-05
3.48601e-05
3.72041e-05
3.72041e-05
3.72041e-05
3.71147e-05
3.71147e-05
3.71147e-05
3.7387e-05
3.7387e-05
3.7387e-05
3.74805e-05
3.74805e-05
3.74805e-05
3.74054e-05
3.74054e-05
3.74054e-05
3.64569e-05
3.64569e-05
3.64569e-05
3.76968e-05
3.76968e-05
3.76968e-05
3.79428e-05
3.79428e-05
3.79428e-05
3.777e-05
3.777e-05
3.777e-05
3.40905e-05
3.40905e-05
3.40905e-05
3.39467e-05
3.39467e-05
3.39467e-05
3.39242e-05
3.39242e-05
3.39242e-05
3.36609e-05
3.36609e-05
3.36609e-05
3.37383e-05
3.37383e-05
3.37383e-05
3.38814e-05
3.38814e-05
3.38814e-05
3.53805e-05
3.53805e-05
3.53805e-05
3.48544e-05
3.48544e-05
3.48544e-05
3.45169e-05
3.45169e-05
3.45169e-05
3.45896e-05
3.45896e-05
3.45896e-05
3.05527e-05
3.05527e-05
3.05527e-05
3.06207e-05
3.06207e-05
3.06207e-05
3.07571e-05
3.07571e-05
3.07571e-05
3.08186e-05
3.08186e-05
3.08186e-05
3.06366e-05
3.06366e-05
3.06366e-05
3.07592e-05
3.07592e-05
3.07592e-05
3.06495e-05
3.06495e-05
3.06495e-05
3.0778e-05
3.0778e-05
3.0778e-05
3.08306e-05
3.08306e-05
3.08306e-05
3.44336e-05
3.44336e-05
3.44336e-05
3.42141e-05
3.42141e-05
3.42141e-05
3.42782e-05
3.42782e-05
3.42782e-05
3.30095e-05
3.30095e-05
3.30095e-05
3.28742e-05
3.28742e-05
3.28742e-05
3.30188e-05
3.30188e-05
3.30188e-05
3.30873e-05
3.30873e-05
3.30873e-05
3.32457e-05
3.32457e-05
3.32457e-05
3.30338e-05
3.30338e-05
3.30338e-05
3.30983e-05
3.30983e-05
3.30983e-05
3.31149e-05
3.31149e-05
3.31149e-05
3.18215e-05
3.18215e-05
3.18215e-05
3.19541e-05
3.19541e-05
3.19541e-05
3.23927e-05
3.23927e-05
3.23927e-05
3.24555e-05
3.24555e-05
3.24555e-05
3.183e-05
3.183e-05
3.183e-05
3.10794e-05
3.10794e-05
3.10794e-05
3.10971e-05
3.10971e-05
3.10971e-05
3.12369e-05
3.12369e-05
3.12369e-05
3.10296e-05
3.10296e-05
3.10296e-05
3.09703e-05
3.09703e-05
3.09703e-05
3.09772e-05
3.09772e-05
3.09772e-05
3.10522e-05
3.10522e-05
3.10522e-05
3.10437e-05
3.10437e-05
3.10437e-05
3.11788e-05
3.11788e-05
3.11788e-05
6.18611e-05
6.18611e-05
6.18611e-05
6.16246e-05
6.16246e-05
6.16246e-05
6.07733e-05
6.07733e-05
6.07733e-05
6.01634e-05
6.01634e-05
6.01634e-05
5.82208e-05
5.82208e-05
5.82208e-05
5.90707e-05
5.90707e-05
5.90707e-05
5.93159e-05
5.93159e-05
5.93159e-05
4.77148e-05
4.77148e-05
4.77148e-05
6.62632e-05
6.62632e-05
6.62632e-05
6.54257e-05
6.54257e-05
6.54257e-05
6.29048e-05
6.29048e-05
6.29048e-05
6.37462e-05
6.37462e-05
6.37462e-05
5.96119e-05
5.96119e-05
5.96119e-05
5.90361e-05
5.90361e-05
5.90361e-05
5.92268e-05
5.92268e-05
5.92268e-05
5.99901e-05
5.99901e-05
5.99901e-05
6.23263e-05
6.23263e-05
6.23263e-05
6.07792e-05
6.07792e-05
6.07792e-05
5.86532e-05
5.86532e-05
5.86532e-05
5.71138e-05
5.71138e-05
5.71138e-05
5.76878e-05
5.76878e-05
5.76878e-05
5.8461e-05
5.8461e-05
5.8461e-05
4.11926e-05
4.11926e-05
4.11926e-05
4.22384e-05
4.22384e-05
4.22384e-05
4.36509e-05
4.36509e-05
4.36509e-05
4.23126e-05
4.23126e-05
4.23126e-05
4.1516e-05
4.1516e-05
4.1516e-05
4.1254e-05
4.1254e-05
4.1254e-05
4.28523e-05
4.28523e-05
4.28523e-05
4.17919e-05
4.17919e-05
4.17919e-05
4.25937e-05
4.25937e-05
4.25937e-05
4.2571e-05
4.2571e-05
4.2571e-05
4.09821e-05
4.09821e-05
4.09821e-05
3.99234e-05
3.99234e-05
3.99234e-05
3.66126e-05
3.66126e-05
3.66126e-05
4.04546e-05
4.04546e-05
4.04546e-05
3.74357e-05
3.74357e-05
3.74357e-05
4.91481e-05
4.91481e-05
4.91481e-05
4.27619e-05
4.27619e-05
4.27619e-05
4.25135e-05
4.25135e-05
4.25135e-05
4.46555e-05
4.46555e-05
4.46555e-05
4.59856e-05
4.59856e-05
4.59856e-05
4.54432e-05
4.54432e-05
4.54432e-05
4.77301e-05
4.77301e-05
4.77301e-05
5.56739e-05
5.56739e-05
5.56739e-05
5.27846e-05
5.27846e-05
5.27846e-05
5.25489e-05
5.25489e-05
5.25489e-05
5.17033e-05
5.17033e-05
5.17033e-05
5.14332e-05
5.14332e-05
5.14332e-05
4.41964e-05
4.41964e-05
4.41964e-05
4.69085e-05
4.69085e-05
4.69085e-05
4.52972e-05
4.52972e-05
4.52972e-05
6.06071e-05
6.06071e-05
6.06071e-05
5.9821e-05
5.9821e-05
5.9821e-05
4.88234e-05
4.88234e-05
4.88234e-05
5.03951e-05
5.03951e-05
5.03951e-05
5.01692e-05
5.01692e-05
5.01692e-05
4.93815e-05
4.93815e-05
4.93815e-05
5.18437e-05
5.18437e-05
5.18437e-05
4.88655e-05
4.88655e-05
4.88655e-05
5.10508e-05
5.10508e-05
5.10508e-05
6.33872e-05
6.33872e-05
6.33872e-05
6.35691e-05
6.35691e-05
6.35691e-05
6.31512e-05
6.31512e-05
6.31512e-05
6.15854e-05
6.15854e-05
6.15854e-05
6.21759e-05
6.21759e-05
6.21759e-05
6.29625e-05
6.29625e-05
6.29625e-05
6.27371e-05
6.27371e-05
6.27371e-05
6.21431e-05
6.21431e-05
6.21431e-05
6.1367e-05
6.1367e-05
6.1367e-05
6.11796e-05
6.11796e-05
6.11796e-05
6.17737e-05
6.17737e-05
6.17737e-05
6.2555e-05
6.2555e-05
6.2555e-05
5.97518e-05
5.97518e-05
5.97518e-05
5.90058e-05
5.90058e-05
5.90058e-05
5.88238e-05
5.88238e-05
5.88238e-05
6.03227e-05
6.03227e-05
6.03227e-05
5.9393e-05
5.9393e-05
5.9393e-05
6.01439e-05
6.01439e-05
6.01439e-05
4.94144e-05
4.94144e-05
4.94144e-05
4.8157e-05
4.8157e-05
4.8157e-05
4.88898e-05
4.88898e-05
4.88898e-05
4.9206e-05
4.9206e-05
4.9206e-05
5.12903e-05
5.12903e-05
5.12903e-05
4.98291e-05
4.98291e-05
4.98291e-05
5.00322e-05
5.00322e-05
5.00322e-05
5.07604e-05
5.07604e-05
5.07604e-05
5.01498e-05
5.01498e-05
5.01498e-05
5.03556e-05
5.03556e-05
5.03556e-05
5.10886e-05
5.10886e-05
5.10886e-05
5.16205e-05
5.16205e-05
5.16205e-05
5.35904e-05
5.35904e-05
5.35904e-05
5.2095e-05
5.2095e-05
5.2095e-05
5.3042e-05
5.3042e-05
5.3042e-05
5.22969e-05
5.22969e-05
5.22969e-05
5.45346e-05
5.45346e-05
5.45346e-05
5.43383e-05
5.43383e-05
5.43383e-05
5.14723e-05
5.14723e-05
5.14723e-05
5.16811e-05
5.16811e-05
5.16811e-05
4.95295e-05
4.95295e-05
4.95295e-05
4.97375e-05
4.97375e-05
4.97375e-05
5.08081e-05
5.08081e-05
5.08081e-05
5.00631e-05
5.00631e-05
5.00631e-05
5.63434e-05
5.63434e-05
5.63434e-05
5.57752e-05
5.57752e-05
5.57752e-05
5.42915e-05
5.42915e-05
5.42915e-05
5.76986e-05
5.76986e-05
5.76986e-05
5.82704e-05
5.82704e-05
5.82704e-05
5.73093e-05
5.73093e-05
5.73093e-05
5.80773e-05
5.80773e-05
5.80773e-05
4.79457e-05
4.79457e-05
4.79457e-05
4.84685e-05
4.84685e-05
4.84685e-05
4.82589e-05
4.82589e-05
4.82589e-05
4.75191e-05
4.75191e-05
4.75191e-05
4.69935e-05
4.69935e-05
4.69935e-05
4.72105e-05
4.72105e-05
4.72105e-05
4.669e-05
4.669e-05
4.669e-05
4.59573e-05
4.59573e-05
4.59573e-05
4.85703e-05
4.85703e-05
4.85703e-05
4.9102e-05
4.9102e-05
4.9102e-05
4.889e-05
4.889e-05
4.889e-05
4.81404e-05
4.81404e-05
4.81404e-05
4.58897e-05
4.58897e-05
4.58897e-05
4.66394e-05
4.66394e-05
4.66394e-05
4.95282e-05
4.95282e-05
4.95282e-05
4.90913e-05
4.90913e-05
4.90913e-05
4.6944e-05
4.6944e-05
4.6944e-05
4.84533e-05
4.84533e-05
4.84533e-05
4.71675e-05
4.71675e-05
4.71675e-05
4.79197e-05
4.79197e-05
4.79197e-05
4.84173e-05
4.84173e-05
4.84173e-05
4.24829e-05
4.24829e-05
4.24829e-05
4.19604e-05
4.19604e-05
4.19604e-05
4.54973e-05
4.54973e-05
4.54973e-05
4.49722e-05
4.49722e-05
4.49722e-05
5.28986e-05
5.28986e-05
5.28986e-05
5.23561e-05
5.23561e-05
5.23561e-05
5.32883e-05
5.32883e-05
5.32883e-05
5.25549e-05
5.25549e-05
5.25549e-05
5.49186e-05
5.49186e-05
5.49186e-05
5.41779e-05
5.41779e-05
5.41779e-05
5.51098e-05
5.51098e-05
5.51098e-05
5.36367e-05
5.36367e-05
5.36367e-05
5.45651e-05
5.45651e-05
5.45651e-05
5.38293e-05
5.38293e-05
5.38293e-05
5.12126e-05
5.12126e-05
5.12126e-05
5.31738e-05
5.31738e-05
5.31738e-05
5.24568e-05
5.24568e-05
5.24568e-05
5.33548e-05
5.33548e-05
5.33548e-05
5.1927e-05
5.1927e-05
5.1927e-05
5.28249e-05
5.28249e-05
5.28249e-05
5.21125e-05