<VTKFile type="UnstructuredGrid" version="1.0">
<UnstructuredGrid>
<Piece NumberOfPoints="8859" NumberOfCells="2953">
<Points>
<DataArray type="Float64" NumberOfComponents="3" format="ascii">
0.5 3.01 15.58
0.512524 3.01 15.6025
0.487476 3.01 15.6025
0.17352 3.01 14.7025
0.160827 3.01 14.7242
0.148445 3.01 14.7025
0.122979 3.01 14.7459
0.110383 3.01 14.7242
0.135644 3.01 14.7242
0.135644 3.01 14.7242
0.110383 3.01 14.7242
0.123433 3.01 14.7025
0.123433 3.01 14.7025
0.148445 3.01 14.7025
0.135644 3.01 14.7242
0.135644 3.01 14.7242
0.148445 3.01 14.7025
0.160827 3.01 14.7242
0.17352 3.01 14.7025
0.198629 3.01 14.7025
0.185985 3.01 14.7242
0.185985 3.01 14.7242
0.160827 3.01 14.7242
0.17352 3.01 14.7025
0.0732297 3.01 14.7457
0.0586606 3.01 14.7238
0.0848754 3.01 14.7241
0.05 3.01 15.5353
0.05 3.01 15.4901
0.058509 3.01 15.5126
0.324276 3.01 14.7025
0.349395 3.01 14.7025
0.336827 3.01 14.7242
0.148138 3.01 14.7459
0.135644 3.01 14.7242
0.160827 3.01 14.7242
0.122979 3.01 14.7459
0.135644 3.01 14.7242
0.148138 3.01 14.7459
0.160827 3.01 14.7242
0.185985 3.01 14.7242
0.173316 3.01 14.7459
0.185806 3.01 14.7675
0.160572 3.01 14.7676
0.173316 3.01 14.7459
0.173316 3.01 14.7459
0.148138 3.01 14.7459
0.160827 3.01 14.7242
0.160572 3.01 14.7676
0.148138 3.01 14.7459
0.173316 3.01 14.7459
0.211137 3.01 14.7242
0.185985 3.01 14.7242
0.198629 3.01 14.7025
0.0979162 3.01 14.7458
0.110383 3.01 14.7242
0.122979 3.01 14.7459
0.122979 3.01 14.7459
0.109875 3.01 14.7675
0.0979162 3.01 14.7458
0.0732297 3.01 14.7457
0.0848754 3.01 14.7241
0.0979162 3.01 14.7458
0.0979162 3.01 14.7458
0.0848754 3.01 14.7241
0.110383 3.01 14.7242
0.0975729 3.01 14.789
0.109875 3.01 14.7675
0.122678 3.01 14.7891
0.0841718 3.01 14.7673
0.0577122 3.01 14.767
0.0732297 3.01 14.7457
0.0729308 3.01 14.7889
0.0577122 3.01 14.767
0.0841718 3.01 14.7673
0.0732297 3.01 14.7457
0.0979162 3.01 14.7458
0.0841718 3.01 14.7673
0.0841718 3.01 14.7673
0.0979162 3.01 14.7458
0.109875 3.01 14.7675
0.0975729 3.01 14.789
0.0729308 3.01 14.7889
0.0841718 3.01 14.7673
0.0841718 3.01 14.7673
0.109875 3.01 14.7675
0.0975729 3.01 14.789
0.073948 3.01 14.7025
0.0586606 3.01 14.7238
0.05 3.01 14.7025
0.073948 3.01 14.7025
0.0848754 3.01 14.7241
0.0586606 3.01 14.7238
0.05 3.01 15.5783
0.05 3.01 15.5353
0.0603641 3.01 15.557
0.0603641 3.01 15.557
0.0753197 3.01 15.579
0.05 3.01 15.5783
0.0709395 3.01 15.6025
0.05 3.01 15.6025
0.05 3.01 15.5783
0.05 3.01 15.5783
0.0753197 3.01 15.579
0.0709395 3.01 15.6025
0.0579641 3.01 15.2896
0.05 3.01 15.3117
0.05 3.01 15.2676
0.0841948 3.01 15.2018
0.097638 3.01 15.1799
0.109814 3.01 15.2018
0.0841948 3.01 15.2018
0.0730539 3.01 15.2237
0.0578646 3.01 15.2018
0.0580261 3.01 15.3338
0.05 3.01 15.3559
0.05 3.01 15.3117
0.942292 3.01 14.8974
0.95 3.01 14.8757
0.95 3.01 14.919
0.95 3.01 14.8323
0.95 3.01 14.8757
0.942332 3.01 14.854
0.73872 3.01 15.1145
0.726137 3.01 15.0928
0.75132 3.01 15.0928
0.751305 3.01 15.1363
0.726124 3.01 15.1363
0.73872 3.01 15.1145
0.713546 3.01 15.1145
0.726137 3.01 15.0928
0.73872 3.01 15.1145
0.73872 3.01 15.1145
0.726124 3.01 15.1363
0.713546 3.01 15.1145
0.814318 3.01 15.1581
0.789096 3.01 15.1581
0.801709 3.01 15.1363
0.7765 3.01 15.1363
0.789115 3.01 15.1145
0.801709 3.01 15.1363
0.801709 3.01 15.1363
0.789096 3.01 15.1581
0.7765 3.01 15.1363
0.7765 3.01 15.1363
0.789096 3.01 15.1581
0.763892 3.01 15.1581
0.763892 3.01 15.1581
0.751305 3.01 15.1363
0.7765 3.01 15.1363
0.95 3.01 15.6025
0.929061 3.01 15.6025
0.95 3.01 15.5783
0.95 3.01 15.4004
0.926844 3.01 15.4004
0.941913 3.01 15.3782
0.941913 3.01 15.3782
0.95 3.01 15.3559
0.95 3.01 15.4004
0.926866 3.01 15.3559
0.95 3.01 15.3559
0.941913 3.01 15.3782
0.941974 3.01 15.3338
0.95 3.01 15.3559
0.926866 3.01 15.3559
0.95 3.01 15.3117
0.95 3.01 15.3559
0.941974 3.01 15.3338
0.941974 3.01 15.3338
0.926895 3.01 15.3117
0.95 3.01 15.3117
0.6127 3.01 15.6025
0.625238 3.01 15.58
0.637734 3.01 15.6025
0.662757 3.01 15.6025
0.637734 3.01 15.6025
0.650275 3.01 15.58
0.650275 3.01 15.58
0.637734 3.01 15.6025
0.625238 3.01 15.58
0.600415 3.01 15.1364
0.587856 3.01 15.1582
0.575304 3.01 15.1364
0.575304 3.01 15.1364
0.587856 3.01 15.1582
0.562749 3.01 15.1582
0.336827 3.01 14.7242
0.349395 3.01 14.7025
0.361946 3.01 14.7242
0.223755 3.01 14.7025
0.211137 3.01 14.7242
0.198629 3.01 14.7025
0.185985 3.01 14.7242
0.211137 3.01 14.7242
0.198492 3.01 14.7459
0.185806 3.01 14.7675
0.173316 3.01 14.7459
0.198492 3.01 14.7459
0.198492 3.01 14.7459
0.173316 3.01 14.7459
0.185985 3.01 14.7242
0.0576202 3.01 14.8105
0.05 3.01 14.8323
0.05 3.01 14.7887
0.05 3.01 14.7887
0.0729308 3.01 14.7889
0.0576202 3.01 14.8105
0.05 3.01 14.7887
0.0577122 3.01 14.767
0.0729308 3.01 14.7889
0.135283 3.01 14.7675
0.109875 3.01 14.7675
0.122979 3.01 14.7459
0.135283 3.01 14.7675
0.122678 3.01 14.7891
0.109875 3.01 14.7675
0.122979 3.01 14.7459
0.148138 3.01 14.7459
0.135283 3.01 14.7675
0.135283 3.01 14.7675
0.148138 3.01 14.7459
0.160572 3.01 14.7676
0.123433 3.01 14.7025
0.110383 3.01 14.7242
0.0985513 3.01 14.7025
0.110383 3.01 14.7242
0.0848754 3.01 14.7241
0.0985513 3.01 14.7025
0.0848754 3.01 14.7241
0.073948 3.01 14.7025
0.0985513 3.01 14.7025
0.0603641 3.01 15.557
0.05 3.01 15.5353
0.0739464 3.01 15.5345
0.0739464 3.01 15.5345
0.05 3.01 15.5353
0.058509 3.01 15.5126
0.058509 3.01 15.5126
0.0849548 3.01 15.5121
0.0739464 3.01 15.5345
0.058509 3.01 15.5126
0.05 3.01 15.4901
0.0732725 3.01 15.4899
0.0732725 3.01 15.4899
0.0849548 3.01 15.5121
0.058509 3.01 15.5126
0.5 3.01 15.58
0.487476 3.01 15.6025
0.47495 3.01 15.58
0.097663 3.01 15.2237
0.0841948 3.01 15.2018
0.109814 3.01 15.2018
0.0730539 3.01 15.2237
0.0841948 3.01 15.2018
0.097663 3.01 15.2237
0.0578646 3.01 15.2018
0.0730539 3.01 15.2237
0.05 3.01 15.2237
0.05 3.01 15.2237
0.05 3.01 15.1799
0.0578646 3.01 15.2018
0.05 3.01 15.4004
0.05 3.01 15.3559
0.0580869 3.01 15.3782
0.05 3.01 15.3559
0.0580261 3.01 15.3338
0.073134 3.01 15.3559
0.073134 3.01 15.3559
0.0580869 3.01 15.3782
0.05 3.01 15.3559
0.942268 3.01 14.9407
0.95 3.01 14.919
0.95 3.01 14.9624
0.942292 3.01 14.8974
0.95 3.01 14.919
0.927025 3.01 14.919
0.927025 3.01 14.919
0.942268 3.01 14.9407
0.915919 3.01 14.9407
0.95 3.01 14.919
0.942268 3.01 14.9407
0.927025 3.01 14.919
0.927013 3.01 14.9624
0.942268 3.01 14.9407
0.95 3.01 14.9624
0.915919 3.01 14.9407
0.942268 3.01 14.9407
0.927013 3.01 14.9624
0.801738 3.01 15.0493
0.814364 3.01 15.0275
0.826957 3.01 15.0492
0.852174 3.01 15.0492
0.826957 3.01 15.0492
0.839609 3.01 15.0275
0.839609 3.01 15.0275
0.826957 3.01 15.0492
0.814364 3.01 15.0275
0.776516 3.01 15.0927
0.75132 3.01 15.0928
0.763923 3.01 15.071
0.776516 3.01 15.0927
0.801725 3.01 15.0927
0.789115 3.01 15.1145
0.738704 3.01 15.1581
0.751305 3.01 15.1363
0.763892 3.01 15.1581
0.726124 3.01 15.1363
0.751305 3.01 15.1363
0.738704 3.01 15.1581
0.915617 3.01 15.3781
0.902228 3.01 15.3559
0.926866 3.01 15.3559
0.926866 3.01 15.3559
0.941913 3.01 15.3782
0.915617 3.01 15.3781
0.915617 3.01 15.3781
0.941913 3.01 15.3782
0.926844 3.01 15.4004
0.915617 3.01 15.3781
0.926844 3.01 15.4004
0.902193 3.01 15.4004
0.926866 3.01 15.3559
0.902228 3.01 15.3559
0.915668 3.01 15.3338
0.902267 3.01 15.3117
0.926895 3.01 15.3117
0.915668 3.01 15.3338
0.915668 3.01 15.3338
0.941974 3.01 15.3338
0.926866 3.01 15.3559
0.926895 3.01 15.3117
0.941974 3.01 15.3338
0.915668 3.01 15.3338
0.902267 3.01 15.3117
0.915668 3.01 15.3338
0.890059 3.01 15.3338
0.890059 3.01 15.3338
0.915668 3.01 15.3338
0.902228 3.01 15.3559
0.826927 3.01 15.1363
0.814318 3.01 15.1581
0.801709 3.01 15.1363
0.864816 3.01 15.2018
0.877308 3.01 15.1799
0.890186 3.01 15.2018
0.877308 3.01 15.1799
0.864816 3.01 15.2018
0.852122 3.01 15.1799
0.890186 3.01 15.2018
0.877308 3.01 15.1799
0.902362 3.01 15.1799
0.902362 3.01 15.1799
0.915805 3.01 15.2018
0.890186 3.01 15.2018
0.902362 3.01 15.1799
0.926964 3.01 15.1799
0.915805 3.01 15.2018
0.915835 3.01 15.1581
0.926964 3.01 15.1799
0.902362 3.01 15.1799
0.942171 3.01 15.1581
0.926964 3.01 15.1799
0.915835 3.01 15.1581
0.915835 3.01 15.1581
0.926978 3.01 15.1363
0.942171 3.01 15.1581
0.942171 3.01 15.1581
0.926978 3.01 15.1363
0.95 3.01 15.1363
0.87737 3.01 15.0058
0.890277 3.01 14.9841
0.902417 3.01 15.0058
0.852144 3.01 15.1363
0.877329 3.01 15.1363
0.864842 3.01 15.1581
0.877308 3.01 15.1799
0.852122 3.01 15.1799
0.864842 3.01 15.1581
0.902396 3.01 15.0927
0.915858 3.01 15.1145
0.890234 3.01 15.1145
0.926997 3.01 15.0492
0.942237 3.01 15.0275
0.95 3.01 15.0492
0.91589 3.01 15.0275
0.942237 3.01 15.0275
0.926997 3.01 15.0492
0.942199 3.01 15.1145
0.95 3.01 15.0927
0.95 3.01 15.1363
0.95 3.01 15.1363
0.926978 3.01 15.1363
0.942199 3.01 15.1145
0.942199 3.01 15.1145
0.926978 3.01 15.1363
0.915858 3.01 15.1145
0.95 3.01 15.0492
0.95 3.01 15.0927
0.942221 3.01 15.071
0.942221 3.01 15.071
0.926997 3.01 15.0492
0.95 3.01 15.0492
0.915876 3.01 15.071
0.926997 3.01 15.0492
0.942221 3.01 15.071
0.926989 3.01 15.0927
0.915858 3.01 15.1145
0.902396 3.01 15.0927
0.902396 3.01 15.0927
0.915876 3.01 15.071
0.926989 3.01 15.0927
0.926989 3.01 15.0927
0.942199 3.01 15.1145
0.915858 3.01 15.1145
0.95 3.01 15.0927
0.942199 3.01 15.1145
0.926989 3.01 15.0927
0.915876 3.01 15.071
0.942221 3.01 15.071
0.926989 3.01 15.0927
0.926989 3.01 15.0927
0.942221 3.01 15.071
0.95 3.01 15.0927
0.91353 3.01 15.5569
0.926054 3.01 15.5345
0.939636 3.01 15.557
0.926728 3.01 15.4899
0.95 3.01 15.4901
0.941491 3.01 15.5126
0.926728 3.01 15.4899
0.941822 3.01 15.4675
0.95 3.01 15.4901
0.95 3.01 15.5353
0.95 3.01 15.5783
0.939636 3.01 15.557
0.95 3.01 15.5353
0.926054 3.01 15.5345
0.941491 3.01 15.5126
0.939636 3.01 15.557
0.926054 3.01 15.5345
0.95 3.01 15.5353
0.941491 3.01 15.5126
0.95 3.01 15.4901
0.95 3.01 15.5353
0.941869 3.01 15.4227
0.926844 3.01 15.4004
0.95 3.01 15.4004
0.762942 3.01 15.5573
0.75028 3.01 15.5799
0.737933 3.01 15.5573
0.71291 3.01 15.5574
0.725533 3.01 15.5349
0.737933 3.01 15.5573
0.71291 3.01 15.5574
0.737933 3.01 15.5573
0.725313 3.01 15.5799
0.725313 3.01 15.5799
0.737933 3.01 15.5573
[...]
<PointData Scalars="View Factor" >
<DataArray type="Float64" Name="View Factor" NumberOfComponents="1" format="ascii">
0.0950494
0.0950494
0.0950494
0.0325378
0.0325378
0.0325378
0.033384
0.033384
0.033384
0.0328398
0.0328398
0.0328398
0.0325613
0.0325613
0.0325613
0.0328183
0.0328183
0.0328183
0.0325104
0.0325104
0.0325104
0.0327925
0.0327925
0.0327925
0.0334069
0.0334069
0.0334069
0.0874147
0.0874147
0.0874147
0.0322634
0.0322634
0.0322634
0.0333621
0.0333621
0.0333621
0.0336493
0.0336493
0.0336493
0.0333357
0.0333357
0.0333357
0.0344532
0.0344532
0.0344532
0.033625
0.033625
0.033625
0.0341839
0.0341839
0.0341839
0.0327626
0.0327626
0.0327626
0.0336686
0.0336686
0.0336686
0.0342275
0.0342275
0.0342275
0.0336808
0.0336808
0.0336808
0.0334003
0.0334003
0.0334003
0.0353773
0.0353773
0.0353773
0.0345238
0.0345238
0.0345238
0.0350986
0.0350986
0.0350986
0.0342391
0.0342391
0.0342391
0.0345176
0.0345176
0.0345176
0.0353887
0.0353887
0.0353887
0.0350923
0.0350923
0.0350923
0.0326023
0.0326023
0.0326023
0.0328651
0.0328651
0.0328651
0.092659
0.092659
0.092659
0.0944534
0.0944534
0.0944534
0.0973846
0.0973846
0.0973846
0.0963675
0.0963675
0.0963675
0.0655063
0.0655063
0.0655063
0.0580648
0.0580648
0.0580648
0.0591602
0.0591602
0.0591602
0.0693034
0.0693034
0.0693034
0.0369644
0.0369644
0.0369644
0.0351529
0.0351529
0.0351529
0.0488693
0.0488693
0.0488693
0.0506406
0.0506406
0.0506406
0.0494019
0.0494019
0.0494019
0.0502895
0.0502895
0.0502895
0.0514785
0.0514785
0.0514785
0.0502236
0.0502236
0.0502236
0.0511298
0.0511298
0.0511298
0.0517005
0.0517005
0.0517005
0.0513461
0.0513461
0.0513461
0.088502
0.088502
0.088502
0.0680284
0.0680284
0.0680284
0.0666323
0.0666323
0.0666323
0.0654857
0.0654857
0.0654857
0.0642577
0.0642577
0.0642577
0.0629545
0.0629545
0.0629545
0.0618853
0.0618853
0.0618853
0.0936474
0.0936474
0.0936474
0.0933271
0.0933271
0.0933271
0.0925603
0.0925603
0.0925603
0.0526602
0.0526602
0.0526602
0.0532173
0.0532173
0.0532173
0.032501
0.032501
0.032501
0.032479
0.032479
0.032479
0.0333051
0.0333051
0.0333051
0.0341547
0.0341547
0.0341547
0.0335962
0.0335962
0.0335962
0.036598
0.036598
0.036598
0.0359886
0.0359886
0.0359886
0.0353925
0.0353925
0.0353925
0.0345022
0.0345022
0.0345022
0.0350772
0.0350772
0.0350772
0.0342085
0.0342085
0.0342085
0.0344803
0.0344803
0.0344803
0.0325805
0.0325805
0.0325805
0.0328564
0.0328564
0.0328564
0.032595
0.032595
0.032595
0.0908813
0.0908813
0.0908813
0.0891253
0.0891253
0.0891253
0.0882101
0.0882101
0.0882101
0.0856869
0.0856869
0.0856869
0.0865027
0.0865027
0.0865027
0.0942277
0.0942277
0.0942277
0.0591346
0.0591346
0.0591346
0.0596917
0.0596917
0.0596917
0.0597133
0.0597133
0.0597133
0.0586367
0.0586367
0.0586367
0.0733686
0.0733686
0.0733686
0.0706203
0.0706203
0.0706203
0.0719749
0.0719749
0.0719749
0.0388873
0.0388873
0.0388873
0.03765
0.03765
0.03765
0.0387051
0.0387051
0.0387051
0.0382921
0.0382921
0.0382921
0.0396157
0.0396157
0.0396157
0.0393686
0.0393686
0.0393686
0.0449807
0.0449807
0.0449807
0.0447805
0.0447805
0.0447805
0.0444917
0.0444917
0.0444917
0.0478185
0.0478185
0.0478185
0.0484686
0.0484686
0.0484686
0.0519154
0.0519154
0.0519154
0.0515553
0.0515553
0.0515553
0.0658273
0.0658273
0.0658273
0.0662718
0.0662718
0.0662718
0.0675465
0.0675465
0.0675465
0.0683842
0.0683842
0.0683842
0.0645924
0.0645924
0.0645924
0.0622064
0.0622064
0.0622064
0.0638091
0.0638091
0.0638091
0.0626198
0.0626198
0.0626198
0.0629509
0.0629509
0.0629509
0.0641471
0.0641471
0.0641471
0.0509065
0.0509065
0.0509065
0.0535892
0.0535892
0.0535892
0.0532358
0.0532358
0.0532358
0.0529769
0.0529769
0.0529769
0.0533225
0.0533225
0.0533225
0.052712
0.052712
0.052712
0.0517698
0.0517698
0.0517698
0.0511678
0.0511678
0.0511678
0.0502588
0.0502588
0.0502588
0.0496947
0.0496947
0.0496947
0.0421144
0.0421144
0.0421144
0.050439
0.050439
0.050439
0.0522831
0.0522831
0.0522831
0.0478911
0.0478911
0.0478911
0.0439278
0.0439278
0.0439278
0.043648
0.043648
0.043648
0.0478821
0.0478821
0.0478821
0.048817
0.048817
0.048817
0.0484987
0.0484987
0.0484987
0.0454173
0.0454173
0.0454173
0.0447002
0.0447002
0.0447002
0.045197
0.045197
0.045197
0.0473541
0.0473541
0.0473541
0.0465265
0.0465265
0.0465265
0.0476467
0.0476467
0.0476467
0.0471176
0.0471176
0.0471176
0.0459963
0.0459963
0.0459963
0.0462946
0.0462946
0.0462946
0.0836817
0.0836817
0.0836817
0.0779339
0.0779339
0.0779339
0.0764154
0.0764154
0.0764154
0.0841352
0.0841352
0.0841352
0.0810638
0.0810638
0.0810638
0.0826728
0.0826728
0.0826728
0.0793623
0.0793623
0.0793623
0.0693452
0.0693452
0.0693452
0.0883047
0.0883047
0.0883047
0.0869217
0.0869217
0.0869217
0.0886691
0.0886691
0.0886691
0.0893763
0.0893763
0.0893763
0.0922856
0.0922856
0.0922856
0.0911819
0.0911819
0.0911819
0.0919117
0.0919117
0.0919117
0.0818954
0.0818954
0.0818954
0.0835447
0.0835447
0.0835447
0.0862354
0.0862354
0.0862354
0.084544
0.084544
0.084544
0.0868914
0.0868914
0.0868914
0.0851882
0.0851882
0.0851882
0.0910391
0.0910391
0.0910391
0.0928712
0.0928712
0.0928712
0.0939543
0.0939543
0.0939543
0.052029
0.052029
0.052029
0.0530529
0.0530529
0.0530529
0.0563552
0.0563552
0.0563552
0.0572234
0.0572234
0.0572234
0.0561886
0.0561886
0.0561886
0.0557632
0.0557632
0.0557632
0.0541862
0.0541862
0.0541862
0.0547604
0.0547604
0.0547604
0.0573933
0.0573933
0.0573933
0.0578362
0.0578362
0.0578362
0.0641317
0.0641317
0.0641317
0.0554455
0.0554455
0.0554455
0.0550425
0.0550425
0.0550425
0.0524124
0.0524124
0.0524124
0.0543427
0.0543427
0.0543427
0.0323614
0.0323614
0.0323614
0.0324045
0.0324045
0.0324045
0.0326495
0.0326495
0.0326495
0.0331893
0.0331893
0.0331893
0.0313445
0.0313445
0.0313445
0.0459725
0.0459725
0.0459725
0.0476188
0.0476188
0.0476188
0.0464752
0.0464752
0.0464752
0.0473003
0.0473003
0.0473003
0.0474948
0.0474948
0.0474948
0.0480116
0.0480116
0.0480116
0.0334402
0.0334402
0.0334402
0.0322085
0.0322085
0.0322085
0.0313504
0.0313504
0.0313504
0.041849
0.041849
0.041849
0.0415253
0.0415253
0.0415253
0.0348077
0.0348077
0.0348077
0.0331349
0.0331349
0.0331349
0.0336791
0.0336791
0.0336791
0.0342375
0.0342375
0.0342375
0.0890406
0.0890406
0.0890406
0.0952904
0.0952904
0.0952904
0.0667367
0.0667367
0.0667367
0.068002
0.068002
0.068002
0.0607977
0.0607977
0.0607977
0.0370779
0.0370779
0.0370779
0.0666794
0.0666794
0.0666794
0.0679435
0.0679435
0.0679435
0.0575234
0.0575234
0.0575234
0.0580326
0.0580326
0.0580326
0.0565159
0.0565159
0.0565159
0.0575515
0.0575515
0.0575515
0.0575722
0.0575722
0.0575722
0.05809
0.05809
0.05809
0.0555278
0.0555278
0.0555278
0.0565362
0.0565362
0.0565362
0.0560182
0.0560182
0.0560182
0.0550156
0.0550156
0.0550156
0.0545306
0.0545306
0.0545306
0.0495465
0.0495465
0.0495465
0.0489892
0.0489892
0.0489892
0.0398091
0.0398091
0.0398091
0.0457744
0.0457744
0.0457744
0.0462783
0.0462783
0.0462783
0.0470994
0.0470994
0.0470994
0.0442903
0.0442903
0.0442903
0.0445743
0.0445743
0.0445743
0.0418518
0.0418518
0.0418518
0.0374175
0.0374175
0.0374175
0.0410528
0.0410528
0.0410528
0.0486723
0.0486723
0.0486723
0.0504356
0.0504356
0.0504356
0.0498835
0.0498835
0.0498835
0.049004
0.049004
0.049004
0.0492063
0.0492063
0.0492063
0.05009
0.05009
0.05009
0.0528583
0.0528583
0.0528583
0.0534454
0.0534454
0.0534454
0.0521231
0.0521231
0.0521231
0.0530701
0.0530701
0.0530701
0.0562562
0.0562562
0.0562562
0.0566639
0.0566639
0.0566639
0.0540538
0.0540538
0.0540538
0.054299
0.054299
0.054299
0.0625245
0.0625245
0.0625245
0.0616702
0.0616702
0.0616702
0.0613654
0.0613654
0.0613654
0.0609466
0.0609466
0.0609466
0.0855239
0.0855239
0.0855239
0.0865629
0.0865629
0.0865629
0.0858867
0.0858867
0.0858867
0.0842014
0.0842014
0.0842014
0.0769196
0.0769196
0.0769196
0.0804767
0.0804767
0.0804767
0.0820788
0.0820788
0.0820788
0.0735389
0.0735389
0.0735389
0.0753331
0.0753331
0.0753331
0.072656
0.072656
0.072656
0.0474127
0.0474127
0.0474127
0.0512493
0.0512493
0.0512493
0.0506762
0.0506762
0.0506762
0.0510129
0.0510129
0.0510129
0.0519374
0.0519374
0.0519374
0.0548353
0.0548353
0.0548353
0.053848
0.053848
0.053848
0.049946
0.049946
0.049946
0.0493077
0.0493077
0.0493077
0.0490634
0.0490634
0.0490634
0.0487481
0.0487481
0.0487481
0.051508
0.051508
0.051508
0.0505106
0.0505106
0.0505106
0.0462311
0.0462311
0.0462311
0.0453598
0.0453598
0.0453598
0.0456496
0.0456496
0.0456496
0.0431141
0.0431141
0.0431141
0.0440828
0.0440828
0.0440828
0.0428483
0.0428483
0.0428483
0.0433237
0.0433237
0.0433237
0.0416504
0.0416504
0.0416504
0.0409409
0.0409409
0.0409409
0.0404953
0.0404953
0.0404953
0.0867043
0.0867043
0.0867043
0.0854014
0.0854014
0.0854014
0.0859329
0.0859329
0.0859329
0.0853482
0.0853482
0.0853482
0.0877476
0.0877476
0.0877476
0.0830804
0.0830804
0.0830804
0.0783191
0.0783191
0.0783191
0.0814536
0.0814536
0.0814536
0.0804465
0.0804465
0.0804465
0.0788858
0.0788858
0.0788858
0.0773839
0.0773839
0.0773839
0.0749779
0.0749779
0.0749779
0.0758905
0.0758905
0.0758905
0.0755266
0.0755266
0.0755266
0.0697079
0.0697079
0.0697079
0.0701867
0.0701867
0.0701867
0.075851
0.075851
0.075851
0.0768025
0.0768025
0.0768025
0.0875972
0.0875972
0.0875972
0.0872663
0.0872663
0.0872663
0.0865702
0.0865702
0.0865702
0.0926462
0.0926462
0.0926462
0.0915468
0.0915468
0.0915468
0.0897362
0.0897362
0.0897362
0.0890194
0.0890194
0.0890194
0.0895861
0.0895861
0.0895861
0.0871258
0.0871258
0.0871258
0.087794
0.087794
0.087794
0.0907123
0.0907123
0.0907123
0.0890022
0.0890022
0.0890022
0.0908033
0.0908033
0.0908033
0.0819135
0.0819135
0.0819135
0.0812751
0.0812751
0.0812751
0.0712205
0.0712205
0.0712205
0.0704068
0.0704068
0.0704068
0.0739906
0.0739906
0.0739906
0.079696
0.079696
0.079696
0.0787616
0.0787616
0.0787616
0.0803042
0.0803042
0.0803042
0.0748666
0.0748666
0.0748666
0.0763343
0.0763343
0.0763343
0.0772391
0.0772391
0.0772391
0.0766445
0.0766445
0.0766445
0.0838773
0.0838773
0.0838773
0.082553
0.082553
0.082553
0.0841964
0.0841964
0.0841964
0.0848728
0.0848728
0.0848728
0.0815917
0.0815917
0.0815917
0.0822398
0.0822398
0.0822398
0.0879144
0.0879144
0.0879144
0.0896787
0.0896787
0.0896787
0.0907335
0.0907335
0.0907335
0.0899882
0.0899882
0.0899882
0.0845023
0.0845023
0.0845023
0.0828531
0.0828531
0.0828531
0.0821864
0.0821864
0.0821864
0.0695037
0.0695037
0.0695037
0.0681949
0.0681949
0.0681949
0.0504428
0.0504428
0.0504428
0.0541806
0.0541806
0.0541806
0.0500297
0.0500297
0.0500297
0.050506
0.050506
0.050506
0.0546339
0.0546339
0.0546339
0.052557
0.052557
0.052557
0.0521461
0.0521461
0.0521461
0.0570741
0.0570741
0.0570741
0.056494
0.056494
0.056494
0.0553486
0.0553486
0.0553486
0.058126
0.058126
0.058126
0.0587239
0.0587239
0.0587239
0.0598125
0.0598125
0.0598125
0.0603009
0.0603009
0.0603009
0.0524939
0.0524939
0.0524939
0.0540186
0.0540186
0.0540186
0.0545949
0.0545949
0.0545949
0.0555944
0.0555944
0.0555944
0.0560144
0.0560144
0.0560144
0.0620638
0.0620638
0.0620638
0.0614252
0.0614252
0.0614252
0.0580038
0.0580038
0.0580038
0.0589076
0.0589076
0.0589076
0.0569455
0.0569455
0.0569455
0.0563628
0.0563628
0.0563628
0.0616313
0.0616313
0.0616313
0.0609844
0.0609844
0.0609844
0.0566668
0.0566668
0.0566668
0.0556428
0.0556428
0.0556428
0.0553402
0.0553402
0.0553402
0.0644608
0.0644608
0.0644608
0.0324437
0.0324437
0.0324437
0.0326911
0.0326911
0.0326911
0.0327289
0.0327289
0.0327289
0.0346246
0.0346246
0.0346246
0.0334438
0.0334438
0.0334438
0.0340541
0.0340541
0.0340541
0.031556
0.031556
0.031556
0.0306882
0.0306882
0.0306882
0.0310361
0.0310361
0.0310361
0.0461644
0.0461644
0.0461644
0.0466659
0.0466659
0.0466659
0.04635
0.04635
0.04635
0.0455451
0.0455451
0.0455451
0.0476828
0.0476828
0.0476828
0.0468502
0.0468502
0.0468502
0.0326039
0.0326039
0.0326039
0.0331428
0.0331428
0.0331428
0.0323143
0.0323143
0.0323143
0.0325544
0.0325544
0.0325544
0.0330378
0.0330378
0.0330378
0.0332811
0.0332811
0.0332811
0.0338333
0.0338333
0.0338333
0.0337711
0.0337711
0.0337711
0.0340825
0.0340825
0.0340825
0.0349706
0.0349706
0.0349706
0.0346506
0.0346506
0.0346506
0.0320207
0.0320207
0.0320207
0.031656
0.031656
0.031656
0.0425735
0.0425735
0.0425735
0.0440678
0.0440678
0.0440678
0.0328548
0.0328548
0.0328548
0.0334852
0.0334852
0.0334852
0.0340415
0.0340415
0.0340415
0.0332319
0.0332319
0.0332319
0.0781073
0.0781073
0.0781073
0.0810041
0.0810041
0.0810041
0.0861861
0.0861861
0.0861861
0.0862585
0.0862585
0.0862585
0.0853819
0.0853819
0.0853819
0.0813487
0.0813487
0.0813487
0.083727
0.083727
0.083727
0.0829484
0.0829484
0.0829484
0.0853047
0.0853047
0.0853047
0.0881461
0.0881461
0.0881461
0.0840179
0.0840179
0.0840179
0.0824003
0.0824003
0.0824003
0.09446
0.09446
0.09446
0.0899879
0.0899879
0.0899879
0.0917912
0.0917912
0.0917912
0.0925986
0.0925986
0.0925986
0.0864991
0.0864991
0.0864991
0.0903811
0.0903811
0.0903811
0.0921922
0.0921922
0.0921922
0.0660756
0.0660756
0.0660756
0.0667122
0.0667122
0.0667122
0.0661045
0.0661045
0.0661045
0.0699437
0.0699437
0.0699437
0.0686348
0.0686348
0.0686348
0.0705942
0.0705942
0.0705942
0.0699128
0.0699128
0.0699128
0.067977
0.067977
0.067977
0.0686047
0.0686047
0.0686047
0.0613462
0.0613462
0.0613462
0.0624546
0.0624546
0.0624546
0.061957
0.061957
0.061957
0.0608197
0.0608197
0.0608197
0.0613728
0.0613728
0.0613728
0.0372154
0.0372154
0.0372154
0.0421945
0.0421945
0.0421945
0.040776
0.040776
0.040776
0.0442005
0.0442005
0.0442005
0.0449734
0.0449734
0.0449734
0.0449049
0.0449049
0.0449049
0.0473157
0.0473157
0.0473157
0.0481488
0.0481488
0.0481488
0.0426378
0.0426378
0.0426378
0.0418937
0.0418937
0.0418937
0.0411829
0.0411829
0.0411829
0.0419086
0.0419086
0.0419086
0.0422631
0.0422631
0.0422631
0.0418488
0.0418488
0.0418488
0.0411393
0.0411393
0.0411393
0.0401348
0.0401348
0.0401348
0.0408242
0.0408242
0.0408242
0.0411636
0.0411636
0.0411636
0.0408025
0.0408025
0.0408025
0.0377049
0.0377049
0.0377049
0.0705591
0.0705591
0.0705591
0.0719122
0.0719122
0.0719122
0.0596625
0.0596625
0.0596625
0.0591018
0.0591018
0.0591018
0.0607679
0.0607679
0.0607679
0.0613122
0.0613122
0.0613122
0.0574881
0.0574881
0.0574881
0.0498814
0.0498814
0.0498814
0.0494307
0.0494307
0.0494307
0.0490038
0.0490038
0.0490038
0.0489863
0.0489863
0.0489863
0.0494095
0.0494095
0.0494095
0.054511
0.054511
0.054511
0.0535406
0.0535406
0.0535406
0.0502294
0.0502294
0.0502294
0.0564883
0.0564883
0.0564883
0.0544845
0.0544845
0.0544845
0.0559941
0.0559941
0.0559941
0.0549919
0.0549919
0.0549919
0.0400905
0.0400905
0.0400905
0.040781
0.040781
0.040781
0.0437245
0.0437245
0.0437245
0.0406913
0.0406913
0.0406913
0.0411384
0.0411384
0.0411384
0.0430518
0.0430518
0.0430518
0.0423139
0.0423139
0.0423139
0.043527
0.043527
0.043527
0.04325
0.04325
0.04325
0.0434425
0.0434425
0.0434425
0.042697
0.042697
0.042697
0.0384779
0.0384779
0.0384779
0.0378322
0.0378322
0.0378322
0.0532276
0.0532276
0.0532276
0.052639
0.052639
0.052639
0.0530024
0.0530024
0.0530024
0.0539699
0.0539699
0.0539699
0.0545787
0.0545787
0.0545787
0.0541997
0.0541997
0.0541997
0.0536557
0.0536557
0.0536557
0.0546364
0.0546364
0.0546364
0.0548433
0.0548433
0.0548433
0.0552404
0.0552404
0.0552404
0.0517573
0.0517573
0.0517573
0.0504821
0.0504821
0.0504821
0.0508386
0.0508386
0.0508386
0.0564654
0.0564654
0.0564654
0.0568793
0.0568793
0.0568793
0.0570866
0.0570866
0.0570866
0.0628055
0.0628055
0.0628055
0.0639945
0.0639945
0.0639945
0.0568769
0.0568769
0.0568769
0.0546597
0.0546597
0.0546597
0.0545712
0.0545712
0.0545712
0.0549356
0.0549356
0.0549356
0.0552053
0.0552053
0.0552053
0.0562233
0.0562233
0.0562233
0.0595219
0.0595219
0.0595219
0.0610537
0.0610537
0.0610537
0.060639
0.060639
0.060639
0.0649237
0.0649237
0.0649237
0.0679053
0.0679053
0.0679053
0.0666236
0.0666236
0.0666236
0.0661652
0.0661652
0.0661652
0.0669636
0.0669636
0.0669636
0.0712693
0.0712693
0.0712693
0.0834747
0.0834747
0.0834747
0.084756
0.084756
0.084756
0.083091
0.083091
0.083091
0.082465
0.082465
0.082465
0.0828385
0.0828385
0.0828385
0.0831984
0.0831984
0.0831984
0.083845
0.083845
0.083845
0.0812209
0.0812209
0.0812209
0.0826947
0.0826947
0.0826947
0.084987
0.084987
0.084987
0.0843519
0.0843519
0.0843519
0.0816812
0.0816812
0.0816812
0.078328
0.078328
0.078328
0.0798785
0.0798785
0.0798785
0.0808549
0.0808549
0.0808549
0.0802467
0.0802467
0.0802467
0.0705592
0.0705592
0.0705592
0.0719324
0.0719324
0.0719324
0.0731826
0.0731826
0.0731826
0.0746139
0.0746139
0.0746139
0.072819
0.072819
0.072819
0.0722987
0.0722987
0.0722987
0.0482583
0.0482583
0.0482583
0.0500047
0.0500047
0.0500047
0.0496703
0.0496703
0.0496703
0.0487949
0.0487949
0.0487949
0.049779
0.049779
0.049779
0.0480414
0.0480414
0.0480414
0.0494501
0.0494501
0.0494501
0.0485791
0.0485791
0.0485791
0.0492231
0.0492231
0.0492231
0.0483566
0.0483566
0.0483566
0.046075
0.046075
0.046075
0.0468921
0.0468921
0.0468921
0.0472001
0.0472001
0.0472001
0.0455701
0.0455701
0.0455701
0.0458655
0.0458655
0.0458655
0.0466783
0.0466783
0.0466783
0.0534878
0.0534878
0.0534878
0.0527699
0.0527699
0.0527699
0.0537326
0.0537326
0.0537326
0.0540992
0.0540992
0.0540992
0.0521785
0.0521785
0.0521785
0.0525301
0.0525301
0.0525301
0.0520293
0.0520293
0.0520293
0.0516889
0.0516889
0.0516889
0.0514327
0.0514327
0.0514327
0.0505184
0.0505184
0.0505184
0.0507694
0.0507694
0.0507694
0.0501953
0.0501953
0.0501953
0.0530467
0.0530467
0.0530467
0.0524449
0.0524449
0.0524449
0.0533166
0.0533166
0.0533166
0.0543814
0.0543814
0.0543814
0.0540175
0.0540175
0.0540175
0.0478181
0.0478181
0.0478181
0.0469813
0.0469813
0.0469813
0.0475888
0.0475888
0.0475888
0.0481274
0.0481274
0.0481274
0.0467564
0.0467564
0.0467564
0.0464581
0.0464581
0.0464581
0.044146
0.044146
0.044146
0.043869
0.043869
0.043869
0.0449229
0.0449229
0.0449229
0.0454271
0.0454271
0.0454271
0.0451438
0.0451438
0.0451438
0.0443626
0.0443626
0.0443626
0.0402979
0.0402979
0.0402979
0.0407369
0.0407369
0.0407369
0.0431039
0.0431039
0.0431039
0.0409307
0.0409307
0.0409307
0.0889656
0.0889656
0.0889656
0.0839363
0.0839363
0.0839363
0.082288
0.082288
0.082288
0.0792861
0.0792861
0.0792861
0.0808597
0.0808597
0.0808597
0.0796901
0.0796901
0.0796901
0.0787149
0.0787149
0.0787149
0.0812741
0.0812741
0.0812741
0.0818728
0.0818728
0.0818728
0.0779569
0.0779569
0.0779569
0.0791103
0.0791103
0.0791103
0.0775767
0.0775767
0.0775767
0.0770119
0.0770119
0.0770119
0.0800879
0.0800879
0.0800879
0.079499
0.079499
0.079499
0.0762447
0.0762447
0.0762447
0.0747752
0.0747752
0.0747752
0.0771901
0.0771901
0.0771901
0.0766315
0.0766315
0.0766315
0.0742431
0.0742431
0.0742431
0.0751543
0.0751543
0.0751543
0.0715538
0.0715538
0.0715538
0.0743859
0.0743859
0.0743859
0.0724488
0.0724488
0.0724488
0.0738673
0.0738673
0.0738673
0.0918982
0.0918982
0.0918982
0.092236
0.092236
0.092236
0.0929934
0.0929934
0.0929934
0.0904147
0.0904147
0.0904147
0.0893559
0.0893559
0.0893559
0.0900823
0.0900823
0.0900823
0.0915246
0.0915246
0.0915246
0.0879261
0.0879261
0.0879261
0.0861899
0.0861899
0.0861899
0.0858027
0.0858027
0.0858027
0.085147
0.085147
0.085147
0.0900053
0.0900053
0.0900053
0.088614
0.088614
0.088614
0.0911246
0.0911246
0.0911246
0.090411
0.090411
0.090411
0.0882113
0.0882113
0.0882113
0.0875332
0.0875332
0.0875332
0.0793728
0.0793728
0.0793728
0.0790369
0.0790369
0.0790369
0.0784354
0.0784354
0.0784354
0.0806025
0.0806025
0.0806025
0.0809454
0.0809454
0.0809454
0.0815739
0.0815739
0.0815739
0.0709458
0.0709458
0.0709458
0.0742971
0.0742971
0.0742971
0.0751704
0.0751704
0.0751704
0.0728759
0.0728759
0.0728759
0.0723218
0.0723218
0.0723218
0.0677285
0.0677285
0.0677285
0.0664553
0.0664553
0.0664553
0.0656882
0.0656882
0.0656882
0.0738866
0.0738866
0.0738866
0.0730047
0.0730047
0.0730047
0.0745511
0.0745511
0.0745511
0.0760121
0.0760121
0.0760121
0.075408
0.075408
0.075408
0.076012
0.076012
0.076012
0.0772288
0.0772288
0.0772288
0.0800064
0.0800064
0.0800064
0.0793763
0.0793763
0.0793763
0.0790752
0.0790752
0.0790752
0.0778415
0.0778415
0.0778415
0.0775464
0.0775464
0.0775464
0.0769426
0.0769426
0.0769426
0.0777659
0.0777659
0.0777659
0.076516
0.076516
0.076516
0.0762696
0.0762696
0.0762696
0.0756575
0.0756575
0.0756575
0.0808629
0.0808629
0.0808629
0.0783958
0.0783958
0.0783958
0.0775032
0.0775032
0.0775032
0.0781246
0.0781246
0.0781246