<VTKFile type="UnstructuredGrid" version="1.0">
<UnstructuredGrid>
<Piece NumberOfPoints="8859" NumberOfCells="2953">
<Points>
<DataArray type="Float64" NumberOfComponents="3" format="ascii">
3.01 0.5 13.49
3.01 0.487476 13.5125
3.01 0.512524 13.5125
3.01 0.17352 12.6125
3.01 0.148445 12.6125
3.01 0.160827 12.6342
3.01 0.122979 12.6559
3.01 0.135644 12.6342
3.01 0.110383 12.6342
3.01 0.135644 12.6342
3.01 0.123433 12.6125
3.01 0.110383 12.6342
3.01 0.123433 12.6125
3.01 0.135644 12.6342
3.01 0.148445 12.6125
3.01 0.135644 12.6342
3.01 0.160827 12.6342
3.01 0.148445 12.6125
3.01 0.17352 12.6125
3.01 0.185985 12.6342
3.01 0.198629 12.6125
3.01 0.185985 12.6342
3.01 0.17352 12.6125
3.01 0.160827 12.6342
3.01 0.0732297 12.6557
3.01 0.0848754 12.6341
3.01 0.0586606 12.6338
3.01 0.05 13.4453
3.01 0.058509 13.4226
3.01 0.05 13.4001
3.01 0.324276 12.6125
3.01 0.336827 12.6342
3.01 0.349395 12.6125
3.01 0.148138 12.6559
3.01 0.160827 12.6342
3.01 0.135644 12.6342
3.01 0.122979 12.6559
3.01 0.148138 12.6559
3.01 0.135644 12.6342
3.01 0.160827 12.6342
3.01 0.173316 12.6559
3.01 0.185985 12.6342
3.01 0.185806 12.6775
3.01 0.173316 12.6559
3.01 0.160572 12.6776
3.01 0.173316 12.6559
3.01 0.160827 12.6342
3.01 0.148138 12.6559
3.01 0.160572 12.6776
3.01 0.173316 12.6559
3.01 0.148138 12.6559
3.01 0.211137 12.6342
3.01 0.198629 12.6125
3.01 0.185985 12.6342
3.01 0.0979162 12.6558
3.01 0.122979 12.6559
3.01 0.110383 12.6342
3.01 0.122979 12.6559
3.01 0.0979162 12.6558
3.01 0.109875 12.6775
3.01 0.0732297 12.6557
3.01 0.0979162 12.6558
3.01 0.0848754 12.6341
3.01 0.0979162 12.6558
3.01 0.110383 12.6342
3.01 0.0848754 12.6341
3.01 0.0975729 12.699
3.01 0.122678 12.6991
3.01 0.109875 12.6775
3.01 0.0841718 12.6773
3.01 0.0732297 12.6557
3.01 0.0577122 12.677
3.01 0.0729308 12.6989
3.01 0.0841718 12.6773
3.01 0.0577122 12.677
3.01 0.0732297 12.6557
3.01 0.0841718 12.6773
3.01 0.0979162 12.6558
3.01 0.0841718 12.6773
3.01 0.109875 12.6775
3.01 0.0979162 12.6558
3.01 0.0975729 12.699
3.01 0.0841718 12.6773
3.01 0.0729308 12.6989
3.01 0.0841718 12.6773
3.01 0.0975729 12.699
3.01 0.109875 12.6775
3.01 0.073948 12.6125
3.01 0.05 12.6125
3.01 0.0586606 12.6338
3.01 0.073948 12.6125
3.01 0.0586606 12.6338
3.01 0.0848754 12.6341
3.01 0.05 13.4883
3.01 0.0603641 13.467
3.01 0.05 13.4453
3.01 0.0603641 13.467
3.01 0.05 13.4883
3.01 0.0753197 13.489
3.01 0.0709395 13.5125
3.01 0.05 13.4883
3.01 0.05 13.5125
3.01 0.05 13.4883
3.01 0.0709395 13.5125
3.01 0.0753197 13.489
3.01 0.0579641 13.1996
3.01 0.05 13.1776
3.01 0.05 13.2217
3.01 0.0841948 13.1118
3.01 0.109814 13.1118
3.01 0.097638 13.0899
3.01 0.0841948 13.1118
3.01 0.0578646 13.1118
3.01 0.0730539 13.1337
3.01 0.0580261 13.2438
3.01 0.05 13.2217
3.01 0.05 13.2659
3.01 0.942292 12.8074
3.01 0.95 12.829
3.01 0.95 12.7857
3.01 0.95 12.7423
3.01 0.942332 12.764
3.01 0.95 12.7857
3.01 0.73872 13.0245
3.01 0.75132 13.0028
3.01 0.726137 13.0028
3.01 0.751305 13.0463
3.01 0.73872 13.0245
3.01 0.726124 13.0463
3.01 0.713546 13.0245
3.01 0.73872 13.0245
3.01 0.726137 13.0028
3.01 0.73872 13.0245
3.01 0.713546 13.0245
3.01 0.726124 13.0463
3.01 0.814318 13.0681
3.01 0.801709 13.0463
3.01 0.789096 13.0681
3.01 0.7765 13.0463
3.01 0.801709 13.0463
3.01 0.789115 13.0245
3.01 0.801709 13.0463
3.01 0.7765 13.0463
3.01 0.789096 13.0681
3.01 0.7765 13.0463
3.01 0.763892 13.0681
3.01 0.789096 13.0681
3.01 0.763892 13.0681
3.01 0.7765 13.0463
3.01 0.751305 13.0463
3.01 0.95 13.5125
3.01 0.95 13.4883
3.01 0.929061 13.5125
3.01 0.95 13.3104
3.01 0.941913 13.2882
3.01 0.926844 13.3104
3.01 0.941913 13.2882
3.01 0.95 13.3104
3.01 0.95 13.2659
3.01 0.926866 13.2659
3.01 0.941913 13.2882
3.01 0.95 13.2659
3.01 0.941974 13.2438
3.01 0.926866 13.2659
3.01 0.95 13.2659
3.01 0.95 13.2217
3.01 0.941974 13.2438
3.01 0.95 13.2659
3.01 0.941974 13.2438
3.01 0.95 13.2217
3.01 0.926895 13.2217
3.01 0.6127 13.5125
3.01 0.637734 13.5125
3.01 0.625238 13.49
3.01 0.662757 13.5125
3.01 0.650275 13.49
3.01 0.637734 13.5125
3.01 0.650275 13.49
3.01 0.625238 13.49
3.01 0.637734 13.5125
3.01 0.600415 13.0464
3.01 0.575304 13.0464
3.01 0.587856 13.0682
3.01 0.575304 13.0464
3.01 0.562749 13.0682
3.01 0.587856 13.0682
3.01 0.336827 12.6342
3.01 0.361946 12.6342
3.01 0.349395 12.6125
3.01 0.223755 12.6125
3.01 0.198629 12.6125
3.01 0.211137 12.6342
3.01 0.185985 12.6342
3.01 0.198492 12.6559
3.01 0.211137 12.6342
3.01 0.185806 12.6775
3.01 0.198492 12.6559
3.01 0.173316 12.6559
3.01 0.198492 12.6559
3.01 0.185985 12.6342
3.01 0.173316 12.6559
3.01 0.0576202 12.7205
3.01 0.05 12.6987
3.01 0.05 12.7423
3.01 0.05 12.6987
3.01 0.0576202 12.7205
3.01 0.0729308 12.6989
3.01 0.05 12.6987
3.01 0.0729308 12.6989
3.01 0.0577122 12.677
3.01 0.135283 12.6775
3.01 0.122979 12.6559
3.01 0.109875 12.6775
3.01 0.135283 12.6775
3.01 0.109875 12.6775
3.01 0.122678 12.6991
3.01 0.122979 12.6559
3.01 0.135283 12.6775
3.01 0.148138 12.6559
3.01 0.135283 12.6775
3.01 0.160572 12.6776
3.01 0.148138 12.6559
3.01 0.123433 12.6125
3.01 0.0985513 12.6125
3.01 0.110383 12.6342
3.01 0.110383 12.6342
3.01 0.0985513 12.6125
3.01 0.0848754 12.6341
3.01 0.0848754 12.6341
3.01 0.0985513 12.6125
3.01 0.073948 12.6125
3.01 0.0603641 13.467
3.01 0.0739464 13.4445
3.01 0.05 13.4453
3.01 0.0739464 13.4445
3.01 0.058509 13.4226
3.01 0.05 13.4453
3.01 0.058509 13.4226
3.01 0.0739464 13.4445
3.01 0.0849548 13.4221
3.01 0.058509 13.4226
3.01 0.0732725 13.3999
3.01 0.05 13.4001
3.01 0.0732725 13.3999
3.01 0.058509 13.4226
3.01 0.0849548 13.4221
3.01 0.5 13.49
3.01 0.47495 13.49
3.01 0.487476 13.5125
3.01 0.097663 13.1337
3.01 0.109814 13.1118
3.01 0.0841948 13.1118
3.01 0.0730539 13.1337
3.01 0.097663 13.1337
3.01 0.0841948 13.1118
3.01 0.0578646 13.1118
3.01 0.05 13.1337
3.01 0.0730539 13.1337
3.01 0.05 13.1337
3.01 0.0578646 13.1118
3.01 0.05 13.0899
3.01 0.05 13.3104
3.01 0.0580869 13.2882
3.01 0.05 13.2659
3.01 0.05 13.2659
3.01 0.073134 13.2659
3.01 0.0580261 13.2438
3.01 0.073134 13.2659
3.01 0.05 13.2659
3.01 0.0580869 13.2882
3.01 0.942268 12.8507
3.01 0.95 12.8724
3.01 0.95 12.829
3.01 0.942292 12.8074
3.01 0.927025 12.829
3.01 0.95 12.829
3.01 0.927025 12.829
3.01 0.915919 12.8507
3.01 0.942268 12.8507
3.01 0.95 12.829
3.01 0.927025 12.829
3.01 0.942268 12.8507
3.01 0.927013 12.8724
3.01 0.95 12.8724
3.01 0.942268 12.8507
3.01 0.915919 12.8507
3.01 0.927013 12.8724
3.01 0.942268 12.8507
3.01 0.801738 12.9593
3.01 0.826957 12.9592
3.01 0.814364 12.9375
3.01 0.852174 12.9592
3.01 0.839609 12.9375
3.01 0.826957 12.9592
3.01 0.839609 12.9375
3.01 0.814364 12.9375
3.01 0.826957 12.9592
3.01 0.776516 13.0027
3.01 0.763923 12.981
3.01 0.75132 13.0028
3.01 0.776516 13.0027
3.01 0.789115 13.0245
3.01 0.801725 13.0027
3.01 0.738704 13.0681
3.01 0.763892 13.0681
3.01 0.751305 13.0463
3.01 0.726124 13.0463
3.01 0.738704 13.0681
3.01 0.751305 13.0463
3.01 0.915617 13.2881
3.01 0.926866 13.2659
3.01 0.902228 13.2659
3.01 0.926866 13.2659
3.01 0.915617 13.2881
3.01 0.941913 13.2882
3.01 0.915617 13.2881
3.01 0.926844 13.3104
3.01 0.941913 13.2882
3.01 0.915617 13.2881
3.01 0.902193 13.3104
3.01 0.926844 13.3104
3.01 0.926866 13.2659
3.01 0.915668 13.2438
3.01 0.902228 13.2659
3.01 0.902267 13.2217
3.01 0.915668 13.2438
3.01 0.926895 13.2217
3.01 0.915668 13.2438
3.01 0.926866 13.2659
3.01 0.941974 13.2438
3.01 0.926895 13.2217
3.01 0.915668 13.2438
3.01 0.941974 13.2438
3.01 0.902267 13.2217
3.01 0.890059 13.2438
3.01 0.915668 13.2438
3.01 0.890059 13.2438
3.01 0.902228 13.2659
3.01 0.915668 13.2438
3.01 0.826927 13.0463
3.01 0.801709 13.0463
3.01 0.814318 13.0681
3.01 0.864816 13.1118
3.01 0.890186 13.1118
3.01 0.877308 13.0899
3.01 0.877308 13.0899
3.01 0.852122 13.0899
3.01 0.864816 13.1118
3.01 0.890186 13.1118
3.01 0.902362 13.0899
3.01 0.877308 13.0899
3.01 0.902362 13.0899
3.01 0.890186 13.1118
3.01 0.915805 13.1118
3.01 0.902362 13.0899
3.01 0.915805 13.1118
3.01 0.926964 13.0899
3.01 0.915835 13.0681
3.01 0.902362 13.0899
3.01 0.926964 13.0899
3.01 0.942171 13.0681
3.01 0.915835 13.0681
3.01 0.926964 13.0899
3.01 0.915835 13.0681
3.01 0.942171 13.0681
3.01 0.926978 13.0463
3.01 0.942171 13.0681
3.01 0.95 13.0463
3.01 0.926978 13.0463
3.01 0.87737 12.9158
3.01 0.902417 12.9158
3.01 0.890277 12.8941
3.01 0.852144 13.0463
3.01 0.864842 13.0681
3.01 0.877329 13.0463
3.01 0.877308 13.0899
3.01 0.864842 13.0681
3.01 0.852122 13.0899
3.01 0.902396 13.0027
3.01 0.890234 13.0245
3.01 0.915858 13.0245
3.01 0.926997 12.9592
3.01 0.95 12.9592
3.01 0.942237 12.9375
3.01 0.91589 12.9375
3.01 0.926997 12.9592
3.01 0.942237 12.9375
3.01 0.942199 13.0245
3.01 0.95 13.0463
3.01 0.95 13.0027
3.01 0.95 13.0463
3.01 0.942199 13.0245
3.01 0.926978 13.0463
3.01 0.942199 13.0245
3.01 0.915858 13.0245
3.01 0.926978 13.0463
3.01 0.95 12.9592
3.01 0.942221 12.981
3.01 0.95 13.0027
3.01 0.942221 12.981
3.01 0.95 12.9592
3.01 0.926997 12.9592
3.01 0.915876 12.981
3.01 0.942221 12.981
3.01 0.926997 12.9592
3.01 0.926989 13.0027
3.01 0.902396 13.0027
3.01 0.915858 13.0245
3.01 0.902396 13.0027
3.01 0.926989 13.0027
3.01 0.915876 12.981
3.01 0.926989 13.0027
3.01 0.915858 13.0245
3.01 0.942199 13.0245
3.01 0.95 13.0027
3.01 0.926989 13.0027
3.01 0.942199 13.0245
3.01 0.915876 12.981
3.01 0.926989 13.0027
3.01 0.942221 12.981
3.01 0.926989 13.0027
3.01 0.95 13.0027
3.01 0.942221 12.981
3.01 0.91353 13.4669
3.01 0.939636 13.467
3.01 0.926054 13.4445
3.01 0.926728 13.3999
3.01 0.941491 13.4226
3.01 0.95 13.4001
3.01 0.926728 13.3999
3.01 0.95 13.4001
3.01 0.941822 13.3775
3.01 0.95 13.4453
3.01 0.939636 13.467
3.01 0.95 13.4883
3.01 0.95 13.4453
3.01 0.941491 13.4226
3.01 0.926054 13.4445
3.01 0.939636 13.467
3.01 0.95 13.4453
3.01 0.926054 13.4445
3.01 0.941491 13.4226
3.01 0.95 13.4453
3.01 0.95 13.4001
3.01 0.941869 13.3327
3.01 0.95 13.3104
3.01 0.926844 13.3104
3.01 0.762942 13.4673
3.01 0.737933 13.4673
3.01 0.75028 13.4899
3.01 0.71291 13.4674
3.01 0.737933 13.4673
3.01 0.725533 13.4449
3.01 0.71291 13.4674
3.01 0.725313 13.4899
3.01 0.737933 13.4673
3.01 0.725313 13.4899
3.01 0.75028 13.4899
[...]
<PointData Scalars="View Factor" >
<DataArray type="Float64" Name="View Factor" NumberOfComponents="1" format="ascii">
2.81002e-06
2.81002e-06
2.81002e-06
3.15336e-06
3.15336e-06
3.15336e-06
3.14444e-06
3.14444e-06
3.14444e-06
3.15043e-06
3.15043e-06
3.15043e-06
3.15341e-06
3.15341e-06
3.15341e-06
3.15038e-06
3.15038e-06
3.15038e-06
3.1533e-06
3.1533e-06
3.1533e-06
3.15033e-06
3.15033e-06
3.15033e-06
3.14461e-06
3.14461e-06
3.14461e-06
2.84123e-06
2.84123e-06
2.84123e-06
3.15277e-06
3.15277e-06
3.15277e-06
3.1444e-06
3.1444e-06
3.1444e-06
3.14143e-06
3.14143e-06
3.14143e-06
3.14435e-06
3.14435e-06
3.14435e-06
3.13243e-06
3.13243e-06
3.13243e-06
3.14139e-06
3.14139e-06
3.14139e-06
3.13543e-06
3.13543e-06
3.13543e-06
3.15027e-06
3.15027e-06
3.15027e-06
3.14149e-06
3.14149e-06
3.14149e-06
3.13554e-06
3.13554e-06
3.13554e-06
3.14156e-06
3.14156e-06
3.14156e-06
3.1445e-06
3.1445e-06
3.1445e-06
3.12369e-06
3.12369e-06
3.12369e-06
3.13273e-06
3.13273e-06
3.13273e-06
3.12681e-06
3.12681e-06
3.12681e-06
3.13562e-06
3.13562e-06
3.13562e-06
3.13261e-06
3.13261e-06
3.13261e-06
3.12378e-06
3.12378e-06
3.12378e-06
3.12669e-06
3.12669e-06
3.12669e-06
3.15357e-06
3.15357e-06
3.15357e-06
3.15057e-06
3.15057e-06
3.15057e-06
2.82519e-06
2.82519e-06
2.82519e-06
2.81992e-06
2.81992e-06
2.81992e-06
2.81164e-06
2.81164e-06
2.81164e-06
2.81445e-06
2.81445e-06
2.81445e-06
2.92393e-06
2.92393e-06
2.92393e-06
2.96009e-06
2.96009e-06
2.96009e-06
2.95453e-06
2.95453e-06
2.95453e-06
2.90732e-06
2.90732e-06
2.90732e-06
3.071e-06
3.071e-06
3.071e-06
3.08847e-06
3.08847e-06
3.08847e-06
2.99322e-06
2.99322e-06
2.99322e-06
2.98196e-06
2.98196e-06
2.98196e-06
2.99052e-06
2.99052e-06
2.99052e-06
2.98489e-06
2.98489e-06
2.98489e-06
2.97294e-06
2.97294e-06
2.97294e-06
2.98149e-06
2.98149e-06
2.98149e-06
2.97587e-06
2.97587e-06
2.97587e-06
2.97319e-06
2.97319e-06
2.97319e-06
2.97611e-06
2.97611e-06
2.97611e-06
2.80657e-06
2.80657e-06
2.80657e-06
2.88001e-06
2.88001e-06
2.88001e-06
2.88542e-06
2.88542e-06
2.88542e-06
2.89101e-06
2.89101e-06
2.89101e-06
2.89652e-06
2.89652e-06
2.89652e-06
2.90194e-06
2.90194e-06
2.90194e-06
2.90755e-06
2.90755e-06
2.90755e-06
2.80922e-06
2.80922e-06
2.80922e-06
2.80903e-06
2.80903e-06
2.80903e-06
2.81182e-06
2.81182e-06
2.81182e-06
2.97757e-06
2.97757e-06
2.97757e-06
2.97485e-06
2.97485e-06
2.97485e-06
3.14972e-06
3.14972e-06
3.14972e-06
3.15324e-06
3.15324e-06
3.15324e-06
3.14429e-06
3.14429e-06
3.14429e-06
3.13537e-06
3.13537e-06
3.13537e-06
3.14133e-06
3.14133e-06
3.14133e-06
3.11205e-06
3.11205e-06
3.11205e-06
3.11795e-06
3.11795e-06
3.11795e-06
3.12389e-06
3.12389e-06
3.12389e-06
3.13254e-06
3.13254e-06
3.13254e-06
3.12661e-06
3.12661e-06
3.12661e-06
3.13548e-06
3.13548e-06
3.13548e-06
3.13248e-06
3.13248e-06
3.13248e-06
3.15345e-06
3.15345e-06
3.15345e-06
3.15048e-06
3.15048e-06
3.15048e-06
3.1535e-06
3.1535e-06
3.1535e-06
2.83047e-06
2.83047e-06
2.83047e-06
2.83585e-06
2.83585e-06
2.83585e-06
2.83864e-06
2.83864e-06
2.83864e-06
2.84675e-06
2.84675e-06
2.84675e-06
2.84406e-06
2.84406e-06
2.84406e-06
2.81279e-06
2.81279e-06
2.81279e-06
2.9545e-06
2.9545e-06
2.9545e-06
2.95172e-06
2.95172e-06
2.95172e-06
2.95175e-06
2.95175e-06
2.95175e-06
2.95733e-06
2.95733e-06
2.95733e-06
2.89075e-06
2.89075e-06
2.89075e-06
2.90179e-06
2.90179e-06
2.90179e-06
2.89627e-06
2.89627e-06
2.89627e-06
3.05366e-06
3.05366e-06
3.05366e-06
3.0653e-06
3.0653e-06
3.0653e-06
3.05677e-06
3.05677e-06
3.05677e-06
3.05952e-06
3.05952e-06
3.05952e-06
3.048e-06
3.048e-06
3.048e-06
3.05101e-06
3.05101e-06
3.05101e-06
3.01513e-06
3.01513e-06
3.01513e-06
3.01486e-06
3.01486e-06
3.01486e-06
3.01784e-06
3.01784e-06
3.01784e-06
2.99863e-06
2.99863e-06
2.99863e-06
2.99274e-06
2.99274e-06
2.99274e-06
2.97342e-06
2.97342e-06
2.97342e-06
2.97634e-06
2.97634e-06
2.97634e-06
2.89129e-06
2.89129e-06
2.89129e-06
2.88839e-06
2.88839e-06
2.88839e-06
2.88289e-06
2.88289e-06
2.88289e-06
2.88029e-06
2.88029e-06
2.88029e-06
2.8968e-06
2.8968e-06
2.8968e-06
2.90783e-06
2.90783e-06
2.90783e-06
2.89941e-06
2.89941e-06
2.89941e-06
2.90492e-06
2.90492e-06
2.90492e-06
2.9052e-06
2.9052e-06
2.9052e-06
2.89969e-06
2.89969e-06
2.89969e-06
2.97562e-06
2.97562e-06
2.97562e-06
2.95539e-06
2.95539e-06
2.95539e-06
2.95832e-06
2.95832e-06
2.95832e-06
2.95805e-06
2.95805e-06
2.95805e-06
2.95512e-06
2.95512e-06
2.95512e-06
2.95777e-06
2.95777e-06
2.95777e-06
2.96335e-06
2.96335e-06
2.96335e-06
2.966e-06
2.966e-06
2.966e-06
2.97159e-06
2.97159e-06
2.97159e-06
2.97426e-06
2.97426e-06
2.97426e-06
3.0314e-06
3.0314e-06
3.0314e-06
2.9751e-06
2.9751e-06
2.9751e-06
2.9639e-06
2.9639e-06
2.9639e-06
2.98873e-06
2.98873e-06
2.98873e-06
3.01374e-06
3.01374e-06
3.01374e-06
3.01671e-06
3.01671e-06
3.01671e-06
2.9854e-06
2.9854e-06
2.9854e-06
2.97987e-06
2.97987e-06
2.97987e-06
2.98281e-06
2.98281e-06
2.98281e-06
3.00231e-06
3.00231e-06
3.00231e-06
3.00807e-06
3.00807e-06
3.00807e-06
3.00537e-06
3.00537e-06
3.00537e-06
2.99141e-06
2.99141e-06
2.99141e-06
2.99705e-06
2.99705e-06
2.99705e-06
2.98844e-06
2.98844e-06
2.98844e-06
2.99112e-06
2.99112e-06
2.99112e-06
2.99972e-06
2.99972e-06
2.99972e-06
2.99676e-06
2.99676e-06
2.99676e-06
2.82294e-06
2.82294e-06
2.82294e-06
2.84163e-06
2.84163e-06
2.84163e-06
2.8471e-06
2.8471e-06
2.8471e-06
2.82005e-06
2.82005e-06
2.82005e-06
2.83076e-06
2.83076e-06
2.83076e-06
2.82541e-06
2.82541e-06
2.82541e-06
2.83604e-06
2.83604e-06
2.83604e-06
2.87452e-06
2.87452e-06
2.87452e-06
2.81908e-06
2.81908e-06
2.81908e-06
2.8247e-06
2.8247e-06
2.8247e-06
2.81927e-06
2.81927e-06
2.81927e-06
2.81647e-06
2.81647e-06
2.81647e-06
2.80845e-06
2.80845e-06
2.80845e-06
2.81105e-06
2.81105e-06
2.81105e-06
2.80824e-06
2.80824e-06
2.80824e-06
2.8442e-06
2.8442e-06
2.8442e-06
2.83557e-06
2.83557e-06
2.83557e-06
2.82751e-06
2.82751e-06
2.82751e-06
2.83294e-06
2.83294e-06
2.83294e-06
2.82788e-06
2.82788e-06
2.82788e-06
2.83331e-06
2.83331e-06
2.83331e-06
2.8174e-06
2.8174e-06
2.8174e-06
2.812e-06
2.812e-06
2.812e-06
2.80939e-06
2.80939e-06
2.80939e-06
2.98691e-06
2.98691e-06
2.98691e-06
2.97467e-06
2.97467e-06
2.97467e-06
2.95822e-06
2.95822e-06
2.95822e-06
2.95246e-06
2.95246e-06
2.95246e-06
2.95805e-06
2.95805e-06
2.95805e-06
2.96093e-06
2.96093e-06
2.96093e-06
2.96924e-06
2.96924e-06
2.96924e-06
2.96653e-06
2.96653e-06
2.96653e-06
2.95263e-06
2.95263e-06
2.95263e-06
2.94976e-06
2.94976e-06
2.94976e-06
2.91926e-06
2.91926e-06
2.91926e-06
2.95729e-06
2.95729e-06
2.95729e-06
2.96018e-06
2.96018e-06
2.96018e-06
2.96734e-06
2.96734e-06
2.96734e-06
2.95616e-06
2.95616e-06
2.95616e-06
3.15298e-06
3.15298e-06
3.15298e-06
3.15308e-06
3.15308e-06
3.15308e-06
3.15004e-06
3.15004e-06
3.15004e-06
3.14406e-06
3.14406e-06
3.14406e-06
3.14722e-06
3.14722e-06
3.14722e-06
3.00971e-06
3.00971e-06
3.00971e-06
2.99839e-06
2.99839e-06
2.99839e-06
3.007e-06
3.007e-06
3.007e-06
3.00134e-06
3.00134e-06
3.00134e-06
3.00158e-06
3.00158e-06
3.00158e-06
2.99887e-06
2.99887e-06
2.99887e-06
3.14103e-06
3.14103e-06
3.14103e-06
3.15265e-06
3.15265e-06
3.15265e-06
3.15078e-06
3.15078e-06
3.15078e-06
3.06166e-06
3.06166e-06
3.06166e-06
3.0646e-06
3.0646e-06
3.0646e-06
3.12988e-06
3.12988e-06
3.12988e-06
3.14769e-06
3.14769e-06
3.14769e-06
3.14173e-06
3.14173e-06
3.14173e-06
3.13579e-06
3.13579e-06
3.13579e-06
2.83598e-06
2.83598e-06
2.83598e-06
2.81016e-06
2.81016e-06
2.81016e-06
2.91839e-06
2.91839e-06
2.91839e-06
2.91285e-06
2.91285e-06
2.91285e-06
2.94615e-06
2.94615e-06
2.94615e-06
3.10575e-06
3.10575e-06
3.10575e-06
2.91834e-06
2.91834e-06
2.91834e-06
2.9128e-06
2.9128e-06
2.9128e-06
2.96287e-06
2.96287e-06
2.96287e-06
2.96005e-06
2.96005e-06
2.96005e-06
2.9685e-06
2.9685e-06
2.9685e-06
2.9629e-06
2.9629e-06
2.9629e-06
2.96292e-06
2.96292e-06
2.96292e-06
2.96012e-06
2.96012e-06
2.96012e-06
2.97413e-06
2.97413e-06
2.97413e-06
2.96852e-06
2.96852e-06
2.96852e-06
2.97131e-06
2.97131e-06
2.97131e-06
2.97693e-06
2.97693e-06
2.97693e-06
2.97975e-06
2.97975e-06
2.97975e-06
2.98071e-06
2.98071e-06
2.98071e-06
2.98339e-06
2.98339e-06
2.98339e-06
3.04829e-06
3.04829e-06
3.04829e-06
3.00945e-06
3.00945e-06
3.00945e-06
3.00675e-06
3.00675e-06
3.00675e-06
3.00109e-06
3.00109e-06
3.00109e-06
3.01757e-06
3.01757e-06
3.01757e-06
3.01459e-06
3.01459e-06
3.01459e-06
3.03439e-06
3.03439e-06
3.03439e-06
3.06833e-06
3.06833e-06
3.06833e-06
3.05016e-06
3.05016e-06
3.05016e-06
2.99299e-06
2.99299e-06
2.99299e-06
2.98173e-06
2.98173e-06
2.98173e-06
2.98442e-06
2.98442e-06
2.98442e-06
2.99005e-06
2.99005e-06
2.99005e-06
2.99029e-06
2.99029e-06
2.99029e-06
2.98466e-06
2.98466e-06
2.98466e-06
2.96782e-06
2.96782e-06
2.96782e-06
2.96513e-06
2.96513e-06
2.96513e-06
2.97365e-06
2.97365e-06
2.97365e-06
2.96804e-06
2.96804e-06
2.96804e-06
2.95149e-06
2.95149e-06
2.95149e-06
2.9486e-06
2.9486e-06
2.9486e-06
2.96578e-06
2.96578e-06
2.96578e-06
2.94954e-06
2.94954e-06
2.94954e-06
2.9081e-06
2.9081e-06
2.9081e-06
2.91389e-06
2.91389e-06
2.91389e-06
2.91363e-06
2.91363e-06
2.91363e-06
2.91652e-06
2.91652e-06
2.91652e-06
2.82712e-06
2.82712e-06
2.82712e-06
2.82451e-06
2.82451e-06
2.82451e-06
2.82732e-06
2.82732e-06
2.82732e-06
2.83275e-06
2.83275e-06
2.83275e-06
2.85719e-06
2.85719e-06
2.85719e-06
2.84021e-06
2.84021e-06
2.84021e-06
2.83478e-06
2.83478e-06
2.83478e-06
2.86464e-06
2.86464e-06
2.86464e-06
2.8594e-06
2.8594e-06
2.8594e-06
2.86725e-06
2.86725e-06
2.86725e-06
2.99814e-06
2.99814e-06
2.99814e-06
2.97269e-06
2.97269e-06
2.97269e-06
2.97537e-06
2.97537e-06
2.97537e-06
2.97243e-06
2.97243e-06
2.97243e-06
2.96683e-06
2.96683e-06
2.96683e-06
2.95008e-06
2.95008e-06
2.95008e-06
2.95566e-06
2.95566e-06
2.95566e-06
2.97455e-06
2.97455e-06
2.97455e-06
2.98044e-06
2.98044e-06
2.98044e-06
2.98016e-06
2.98016e-06
2.98016e-06
2.98311e-06
2.98311e-06
2.98311e-06
2.96307e-06
2.96307e-06
2.96307e-06
2.96857e-06
2.96857e-06
2.96857e-06
3.00001e-06
3.00001e-06
3.00001e-06
3.00892e-06
3.00892e-06
3.00892e-06
3.00595e-06
3.00595e-06
3.00595e-06
3.0227e-06
3.0227e-06
3.0227e-06
3.01729e-06
3.01729e-06
3.01729e-06
3.02569e-06
3.02569e-06
3.02569e-06
3.02298e-06
3.02298e-06
3.02298e-06
3.03411e-06
3.03411e-06
3.03411e-06
3.03983e-06
3.03983e-06
3.03983e-06
3.04255e-06
3.04255e-06
3.04255e-06
2.81828e-06
2.81828e-06
2.81828e-06
2.82391e-06
2.82391e-06
2.82391e-06
2.81489e-06
2.81489e-06
2.81489e-06
2.81759e-06
2.81759e-06
2.81759e-06
2.80947e-06
2.80947e-06
2.80947e-06
2.8258e-06
2.8258e-06
2.8258e-06
2.84201e-06
2.84201e-06
2.84201e-06
2.83119e-06
2.83119e-06
2.83119e-06
2.83369e-06
2.83369e-06
2.83369e-06
2.83909e-06
2.83909e-06
2.83909e-06
2.8511e-06
2.8511e-06
2.8511e-06
2.85917e-06
2.85917e-06
2.85917e-06
2.85656e-06
2.85656e-06
2.85656e-06
2.85632e-06
2.85632e-06
2.85632e-06
2.8748e-06
2.8748e-06
2.8748e-06
2.8719e-06
2.8719e-06
2.8719e-06
2.84999e-06
2.84999e-06
2.84999e-06
2.84744e-06
2.84744e-06
2.84744e-06
2.82508e-06
2.82508e-06
2.82508e-06
2.82489e-06
2.82489e-06
2.82489e-06
2.8277e-06
2.8277e-06
2.8277e-06
2.80865e-06
2.80865e-06
2.80865e-06
2.81125e-06
2.81125e-06
2.81125e-06
2.81666e-06
2.81666e-06
2.81666e-06
2.81947e-06
2.81947e-06
2.81947e-06
2.81022e-06
2.81022e-06
2.81022e-06
2.81848e-06
2.81848e-06
2.81848e-06
2.81566e-06
2.81566e-06
2.81566e-06
2.8076e-06
2.8076e-06
2.8076e-06
2.81627e-06
2.81627e-06
2.81627e-06
2.81085e-06
2.81085e-06
2.81085e-06
2.84101e-06
2.84101e-06
2.84101e-06
2.84383e-06
2.84383e-06
2.84383e-06
2.88236e-06
2.88236e-06
2.88236e-06
2.88502e-06
2.88502e-06
2.88502e-06
2.86814e-06
2.86814e-06
2.86814e-06
2.84929e-06
2.84929e-06
2.84929e-06
2.85192e-06
2.85192e-06
2.85192e-06
2.84966e-06
2.84966e-06
2.84966e-06
2.8655e-06
2.8655e-06
2.8655e-06
2.86003e-06
2.86003e-06
2.86003e-06
2.85739e-06
2.85739e-06
2.85739e-06
2.86022e-06
2.86022e-06
2.86022e-06
2.83576e-06
2.83576e-06
2.83576e-06
2.84139e-06
2.84139e-06
2.84139e-06
2.83594e-06
2.83594e-06
2.83594e-06
2.83313e-06
2.83313e-06
2.83313e-06
2.84402e-06
2.84402e-06
2.84402e-06
2.8412e-06
2.8412e-06
2.8412e-06
2.82526e-06
2.82526e-06
2.82526e-06
2.81984e-06
2.81984e-06
2.81984e-06
2.81722e-06
2.81722e-06
2.81722e-06
2.82002e-06
2.82002e-06
2.82002e-06
2.83612e-06
2.83612e-06
2.83612e-06
2.84157e-06
2.84157e-06
2.84157e-06
2.84438e-06
2.84438e-06
2.84438e-06
2.89412e-06
2.89412e-06
2.89412e-06
2.89964e-06
2.89964e-06
2.89964e-06
3.00188e-06
3.00188e-06
3.00188e-06
2.97932e-06
2.97932e-06
2.97932e-06
3.00475e-06
3.00475e-06
3.00475e-06
3.00196e-06
3.00196e-06
3.00196e-06
2.97647e-06
2.97647e-06
2.97647e-06
2.98416e-06
2.98416e-06
2.98416e-06
2.98704e-06
2.98704e-06
2.98704e-06
2.95898e-06
2.95898e-06
2.95898e-06
2.96171e-06
2.96171e-06
2.96171e-06
2.96717e-06
2.96717e-06
2.96717e-06
2.95339e-06
2.95339e-06
2.95339e-06
2.95066e-06
2.95066e-06
2.95066e-06
2.94509e-06
2.94509e-06
2.94509e-06
2.94223e-06
2.94223e-06
2.94223e-06
2.97739e-06
2.97739e-06
2.97739e-06
2.96906e-06
2.96906e-06
2.96906e-06
2.96635e-06
2.96635e-06
2.96635e-06
2.96076e-06
2.96076e-06
2.96076e-06
2.95787e-06
2.95787e-06
2.95787e-06
2.93395e-06
2.93395e-06
2.93395e-06
2.93667e-06
2.93667e-06
2.93667e-06
2.94993e-06
2.94993e-06
2.94993e-06
2.94418e-06
2.94418e-06
2.94418e-06
2.95884e-06
2.95884e-06
2.95884e-06
2.96157e-06
2.96157e-06
2.96157e-06
2.93353e-06
2.93353e-06
2.93353e-06
2.93624e-06
2.93624e-06
2.93624e-06
2.9519e-06
2.9519e-06
2.9519e-06
2.95749e-06
2.95749e-06
2.95749e-06
2.95059e-06
2.95059e-06
2.95059e-06
2.90644e-06
2.90644e-06
2.90644e-06
3.15316e-06
3.15316e-06
3.15316e-06
3.15012e-06
3.15012e-06
3.15012e-06
3.1502e-06
3.1502e-06
3.1502e-06
3.09442e-06
3.09442e-06
3.09442e-06
3.10609e-06
3.10609e-06
3.10609e-06
3.10029e-06
3.10029e-06
3.10029e-06
3.14768e-06
3.14768e-06
3.14768e-06
3.14932e-06
3.14932e-06
3.14932e-06
3.15009e-06
3.15009e-06
3.15009e-06
3.00995e-06
3.00995e-06
3.00995e-06
3.00724e-06
3.00724e-06
3.00724e-06
3.01019e-06
3.01019e-06
3.01019e-06
3.01586e-06
3.01586e-06
3.01586e-06
3.00181e-06
3.00181e-06
3.00181e-06
3.00747e-06
3.00747e-06
3.00747e-06
3.14994e-06
3.14994e-06
3.14994e-06
3.14396e-06
3.14396e-06
3.14396e-06
3.15288e-06
3.15288e-06
3.15288e-06
3.14984e-06
3.14984e-06
3.14984e-06
3.14375e-06
3.14375e-06
3.14375e-06
3.1407e-06
3.1407e-06
3.1407e-06
3.13475e-06
3.13475e-06
3.13475e-06
3.13462e-06
3.13462e-06
3.13462e-06
3.13172e-06
3.13172e-06
3.13172e-06
3.12288e-06
3.12288e-06
3.12288e-06
3.12578e-06
3.12578e-06
3.12578e-06
3.15225e-06
3.15225e-06
3.15225e-06
3.1479e-06
3.1479e-06
3.1479e-06
3.05589e-06
3.05589e-06
3.05589e-06
3.04438e-06
3.04438e-06
3.04438e-06
3.13982e-06
3.13982e-06
3.13982e-06
3.14112e-06
3.14112e-06
3.14112e-06
3.13516e-06
3.13516e-06
3.13516e-06
3.14414e-06
3.14414e-06
3.14414e-06
2.87119e-06
2.87119e-06
2.87119e-06
2.86004e-06
2.86004e-06
2.86004e-06
2.84392e-06
2.84392e-06
2.84392e-06
2.84401e-06
2.84401e-06
2.84401e-06
2.84669e-06
2.84669e-06
2.84669e-06
2.86039e-06
2.86039e-06
2.86039e-06
2.85215e-06
2.85215e-06
2.85215e-06
2.85492e-06
2.85492e-06
2.85492e-06
2.84661e-06
2.84661e-06
2.84661e-06
2.8387e-06
2.8387e-06
2.8387e-06
2.85223e-06
2.85223e-06
2.85223e-06
2.85771e-06
2.85771e-06
2.85771e-06
2.81292e-06
2.81292e-06
2.81292e-06
2.82651e-06
2.82651e-06
2.82651e-06
2.82109e-06
2.82109e-06
2.82109e-06
2.81832e-06
2.81832e-06
2.81832e-06
2.83738e-06
2.83738e-06
2.83738e-06
2.82676e-06
2.82676e-06
2.82676e-06
2.82134e-06
2.82134e-06
2.82134e-06
2.92112e-06
2.92112e-06
2.92112e-06
2.91837e-06
2.91837e-06
2.91837e-06
2.92115e-06
2.92115e-06
2.92115e-06
2.90454e-06
2.90454e-06
2.90454e-06
2.91007e-06
2.91007e-06
2.91007e-06
2.90177e-06
2.90177e-06
2.90177e-06
2.90452e-06
2.90452e-06
2.90452e-06
2.91283e-06
2.91283e-06
2.91283e-06
2.91005e-06
2.91005e-06
2.91005e-06
2.94335e-06
2.94335e-06
2.94335e-06
2.93775e-06
2.93775e-06
2.93775e-06
2.9406e-06
2.9406e-06
2.9406e-06
2.94617e-06
2.94617e-06
2.94617e-06
2.94338e-06
2.94338e-06
2.94338e-06
3.10613e-06
3.10613e-06
3.10613e-06
3.06222e-06
3.06222e-06
3.06222e-06
3.0738e-06
3.0738e-06
3.0738e-06
3.04458e-06
3.04458e-06
3.04458e-06
3.03884e-06
3.03884e-06
3.03884e-06
3.04219e-06
3.04219e-06
3.04219e-06
3.02503e-06
3.02503e-06
3.02503e-06
3.01933e-06
3.01933e-06
3.01933e-06
3.05946e-06
3.05946e-06
3.05946e-06
3.06522e-06
3.06522e-06
3.06522e-06
3.07101e-06
3.07101e-06
3.07101e-06
3.06524e-06
3.06524e-06
3.06524e-06
3.06234e-06
3.06234e-06
3.06234e-06
3.06514e-06
3.06514e-06
3.06514e-06
3.07093e-06
3.07093e-06
3.07093e-06
3.07972e-06
3.07972e-06
3.07972e-06
3.0739e-06
3.0739e-06
3.0739e-06
3.07098e-06
3.07098e-06
3.07098e-06
3.07386e-06
3.07386e-06
3.07386e-06
3.09988e-06
3.09988e-06
3.09988e-06
2.90174e-06
2.90174e-06
2.90174e-06
2.89622e-06
2.89622e-06
2.89622e-06
2.95169e-06
2.95169e-06
2.95169e-06
2.95447e-06
2.95447e-06
2.95447e-06
2.94612e-06
2.94612e-06
2.94612e-06
2.94331e-06
2.94331e-06
2.94331e-06
2.96283e-06
2.96283e-06
2.96283e-06
3.00797e-06
3.00797e-06
3.00797e-06
3.01079e-06
3.01079e-06
3.01079e-06
3.01364e-06
3.01364e-06
3.01364e-06
3.01362e-06
3.01362e-06
3.01362e-06
3.01077e-06
3.01077e-06
3.01077e-06
2.97972e-06
2.97972e-06
2.97972e-06
2.98535e-06
2.98535e-06
2.98535e-06
3.00501e-06
3.00501e-06
3.00501e-06
2.96847e-06
2.96847e-06
2.96847e-06
2.97969e-06
2.97969e-06
2.97969e-06
2.97129e-06
2.97129e-06
2.97129e-06
2.9769e-06
2.9769e-06
2.9769e-06
3.05892e-06
3.05892e-06
3.05892e-06
3.05315e-06
3.05315e-06
3.05315e-06
3.02353e-06
3.02353e-06
3.02353e-06
3.04284e-06
3.04284e-06
3.04284e-06
3.04012e-06
3.04012e-06
3.04012e-06
3.02597e-06
3.02597e-06
3.02597e-06
3.03168e-06
3.03168e-06
3.03168e-06
3.02326e-06
3.02326e-06
3.02326e-06
3.02624e-06
3.02624e-06
3.02624e-06
3.02651e-06
3.02651e-06
3.02651e-06
3.03221e-06
3.03221e-06
3.03221e-06
3.05982e-06
3.05982e-06
3.05982e-06
3.0656e-06
3.0656e-06
3.0656e-06
2.9649e-06
2.9649e-06
2.9649e-06
2.96758e-06
2.96758e-06
2.96758e-06
2.96467e-06
2.96467e-06
2.96467e-06
2.95908e-06
2.95908e-06
2.95908e-06
2.9564e-06
2.9564e-06
2.9564e-06
2.95931e-06
2.95931e-06
2.95931e-06
2.96536e-06
2.96536e-06
2.96536e-06
2.95976e-06
2.95976e-06
2.95976e-06
2.95998e-06
2.95998e-06
2.95998e-06
2.95708e-06
2.95708e-06
2.95708e-06
2.97657e-06
2.97657e-06
2.97657e-06
2.98511e-06
2.98511e-06
2.98511e-06
2.98218e-06
2.98218e-06
2.98218e-06
2.9517e-06
2.9517e-06
2.9517e-06
2.94881e-06
2.94881e-06
2.94881e-06
2.94901e-06
2.94901e-06
2.94901e-06
2.91485e-06
2.91485e-06
2.91485e-06
2.90932e-06
2.90932e-06
2.90932e-06
2.93896e-06
2.93896e-06
2.93896e-06
2.94662e-06
2.94662e-06
2.94662e-06
2.94982e-06
2.94982e-06
2.94982e-06
2.9469e-06
2.9469e-06
2.9469e-06
2.94717e-06
2.94717e-06
2.94717e-06
2.94161e-06
2.94161e-06
2.94161e-06
2.92178e-06
2.92178e-06
2.92178e-06
2.91335e-06
2.91335e-06
2.91335e-06
2.91625e-06
2.91625e-06
2.91625e-06
2.89707e-06
2.89707e-06
2.89707e-06
2.88317e-06
2.88317e-06
2.88317e-06
2.88867e-06
2.88867e-06
2.88867e-06
2.89156e-06
2.89156e-06
2.89156e-06
2.88894e-06
2.88894e-06
2.88894e-06
2.87273e-06
2.87273e-06
2.87273e-06
2.83236e-06
2.83236e-06
2.83236e-06
2.82673e-06
2.82673e-06
2.82673e-06
2.83216e-06
2.83216e-06
2.83216e-06
2.83498e-06
2.83498e-06
2.83498e-06
2.83518e-06
2.83518e-06
2.83518e-06
2.83538e-06
2.83538e-06
2.83538e-06
2.83256e-06
2.83256e-06
2.83256e-06
2.84062e-06
2.84062e-06
2.84062e-06
2.83195e-06
2.83195e-06
2.83195e-06
2.82371e-06
2.82371e-06
2.82371e-06
2.82652e-06
2.82652e-06
2.82652e-06
2.83456e-06
2.83456e-06
2.83456e-06
2.84849e-06
2.84849e-06
2.84849e-06
2.84304e-06
2.84304e-06
2.84304e-06
2.84042e-06
2.84042e-06
2.84042e-06
2.84325e-06
2.84325e-06
2.84325e-06
2.87219e-06
2.87219e-06
2.87219e-06
2.86671e-06
2.86671e-06
2.86671e-06
2.86439e-06
2.86439e-06
2.86439e-06
2.85892e-06
2.85892e-06
2.85892e-06
2.86412e-06
2.86412e-06
2.86412e-06
2.86699e-06
2.86699e-06
2.86699e-06
2.99249e-06
2.99249e-06
2.99249e-06
2.98124e-06
2.98124e-06
2.98124e-06
2.98417e-06
2.98417e-06
2.98417e-06
2.9898e-06
2.9898e-06
2.9898e-06
2.98098e-06
2.98098e-06
2.98098e-06
2.99223e-06
2.99223e-06
2.99223e-06
2.98392e-06
2.98392e-06
2.98392e-06
2.98955e-06
2.98955e-06
2.98955e-06
2.98366e-06
2.98366e-06
2.98366e-06
2.98928e-06
2.98928e-06
2.98928e-06
3.00649e-06
3.00649e-06
3.00649e-06
3.00083e-06
3.00083e-06
3.00083e-06
2.99788e-06
2.99788e-06
2.99788e-06