<VTKFile type="UnstructuredGrid" version="1.0">
<UnstructuredGrid>
<Piece NumberOfPoints="8859" NumberOfCells="2953">
<Points>
<DataArray type="Float64" NumberOfComponents="3" format="ascii">
0.5 3.01 14.535
0.512524 3.01 14.5575
0.487476 3.01 14.5575
0.17352 3.01 13.6575
0.160827 3.01 13.6792
0.148445 3.01 13.6575
0.122979 3.01 13.7009
0.110383 3.01 13.6792
0.135644 3.01 13.6792
0.135644 3.01 13.6792
0.110383 3.01 13.6792
0.123433 3.01 13.6575
0.123433 3.01 13.6575
0.148445 3.01 13.6575
0.135644 3.01 13.6792
0.135644 3.01 13.6792
0.148445 3.01 13.6575
0.160827 3.01 13.6792
0.17352 3.01 13.6575
0.198629 3.01 13.6575
0.185985 3.01 13.6792
0.185985 3.01 13.6792
0.160827 3.01 13.6792
0.17352 3.01 13.6575
0.0732297 3.01 13.7007
0.0586606 3.01 13.6788
0.0848754 3.01 13.6791
0.05 3.01 14.4903
0.05 3.01 14.4451
0.058509 3.01 14.4676
0.324276 3.01 13.6575
0.349395 3.01 13.6575
0.336827 3.01 13.6792
0.148138 3.01 13.7009
0.135644 3.01 13.6792
0.160827 3.01 13.6792
0.122979 3.01 13.7009
0.135644 3.01 13.6792
0.148138 3.01 13.7009
0.160827 3.01 13.6792
0.185985 3.01 13.6792
0.173316 3.01 13.7009
0.185806 3.01 13.7225
0.160572 3.01 13.7226
0.173316 3.01 13.7009
0.173316 3.01 13.7009
0.148138 3.01 13.7009
0.160827 3.01 13.6792
0.160572 3.01 13.7226
0.148138 3.01 13.7009
0.173316 3.01 13.7009
0.211137 3.01 13.6792
0.185985 3.01 13.6792
0.198629 3.01 13.6575
0.0979162 3.01 13.7008
0.110383 3.01 13.6792
0.122979 3.01 13.7009
0.122979 3.01 13.7009
0.109875 3.01 13.7225
0.0979162 3.01 13.7008
0.0732297 3.01 13.7007
0.0848754 3.01 13.6791
0.0979162 3.01 13.7008
0.0979162 3.01 13.7008
0.0848754 3.01 13.6791
0.110383 3.01 13.6792
0.0975729 3.01 13.744
0.109875 3.01 13.7225
0.122678 3.01 13.7441
0.0841718 3.01 13.7223
0.0577122 3.01 13.722
0.0732297 3.01 13.7007
0.0729308 3.01 13.7439
0.0577122 3.01 13.722
0.0841718 3.01 13.7223
0.0732297 3.01 13.7007
0.0979162 3.01 13.7008
0.0841718 3.01 13.7223
0.0841718 3.01 13.7223
0.0979162 3.01 13.7008
0.109875 3.01 13.7225
0.0975729 3.01 13.744
0.0729308 3.01 13.7439
0.0841718 3.01 13.7223
0.0841718 3.01 13.7223
0.109875 3.01 13.7225
0.0975729 3.01 13.744
0.073948 3.01 13.6575
0.0586606 3.01 13.6788
0.05 3.01 13.6575
0.073948 3.01 13.6575
0.0848754 3.01 13.6791
0.0586606 3.01 13.6788
0.05 3.01 14.5333
0.05 3.01 14.4903
0.0603641 3.01 14.512
0.0603641 3.01 14.512
0.0753197 3.01 14.534
0.05 3.01 14.5333
0.0709395 3.01 14.5575
0.05 3.01 14.5575
0.05 3.01 14.5333
0.05 3.01 14.5333
0.0753197 3.01 14.534
0.0709395 3.01 14.5575
0.0579641 3.01 14.2446
0.05 3.01 14.2667
0.05 3.01 14.2226
0.0841948 3.01 14.1568
0.097638 3.01 14.1349
0.109814 3.01 14.1568
0.0841948 3.01 14.1568
0.0730539 3.01 14.1787
0.0578646 3.01 14.1568
0.0580261 3.01 14.2888
0.05 3.01 14.3109
0.05 3.01 14.2667
0.942292 3.01 13.8524
0.95 3.01 13.8307
0.95 3.01 13.874
0.95 3.01 13.7873
0.95 3.01 13.8307
0.942332 3.01 13.809
0.73872 3.01 14.0695
0.726137 3.01 14.0478
0.75132 3.01 14.0478
0.751305 3.01 14.0913
0.726124 3.01 14.0913
0.73872 3.01 14.0695
0.713546 3.01 14.0695
0.726137 3.01 14.0478
0.73872 3.01 14.0695
0.73872 3.01 14.0695
0.726124 3.01 14.0913
0.713546 3.01 14.0695
0.814318 3.01 14.1131
0.789096 3.01 14.1131
0.801709 3.01 14.0913
0.7765 3.01 14.0913
0.789115 3.01 14.0695
0.801709 3.01 14.0913
0.801709 3.01 14.0913
0.789096 3.01 14.1131
0.7765 3.01 14.0913
0.7765 3.01 14.0913
0.789096 3.01 14.1131
0.763892 3.01 14.1131
0.763892 3.01 14.1131
0.751305 3.01 14.0913
0.7765 3.01 14.0913
0.95 3.01 14.5575
0.929061 3.01 14.5575
0.95 3.01 14.5333
0.95 3.01 14.3554
0.926844 3.01 14.3554
0.941913 3.01 14.3332
0.941913 3.01 14.3332
0.95 3.01 14.3109
0.95 3.01 14.3554
0.926866 3.01 14.3109
0.95 3.01 14.3109
0.941913 3.01 14.3332
0.941974 3.01 14.2888
0.95 3.01 14.3109
0.926866 3.01 14.3109
0.95 3.01 14.2667
0.95 3.01 14.3109
0.941974 3.01 14.2888
0.941974 3.01 14.2888
0.926895 3.01 14.2667
0.95 3.01 14.2667
0.6127 3.01 14.5575
0.625238 3.01 14.535
0.637734 3.01 14.5575
0.662757 3.01 14.5575
0.637734 3.01 14.5575
0.650275 3.01 14.535
0.650275 3.01 14.535
0.637734 3.01 14.5575
0.625238 3.01 14.535
0.600415 3.01 14.0914
0.587856 3.01 14.1132
0.575304 3.01 14.0914
0.575304 3.01 14.0914
0.587856 3.01 14.1132
0.562749 3.01 14.1132
0.336827 3.01 13.6792
0.349395 3.01 13.6575
0.361946 3.01 13.6792
0.223755 3.01 13.6575
0.211137 3.01 13.6792
0.198629 3.01 13.6575
0.185985 3.01 13.6792
0.211137 3.01 13.6792
0.198492 3.01 13.7009
0.185806 3.01 13.7225
0.173316 3.01 13.7009
0.198492 3.01 13.7009
0.198492 3.01 13.7009
0.173316 3.01 13.7009
0.185985 3.01 13.6792
0.0576202 3.01 13.7655
0.05 3.01 13.7873
0.05 3.01 13.7437
0.05 3.01 13.7437
0.0729308 3.01 13.7439
0.0576202 3.01 13.7655
0.05 3.01 13.7437
0.0577122 3.01 13.722
0.0729308 3.01 13.7439
0.135283 3.01 13.7225
0.109875 3.01 13.7225
0.122979 3.01 13.7009
0.135283 3.01 13.7225
0.122678 3.01 13.7441
0.109875 3.01 13.7225
0.122979 3.01 13.7009
0.148138 3.01 13.7009
0.135283 3.01 13.7225
0.135283 3.01 13.7225
0.148138 3.01 13.7009
0.160572 3.01 13.7226
0.123433 3.01 13.6575
0.110383 3.01 13.6792
0.0985513 3.01 13.6575
0.110383 3.01 13.6792
0.0848754 3.01 13.6791
0.0985513 3.01 13.6575
0.0848754 3.01 13.6791
0.073948 3.01 13.6575
0.0985513 3.01 13.6575
0.0603641 3.01 14.512
0.05 3.01 14.4903
0.0739464 3.01 14.4895
0.0739464 3.01 14.4895
0.05 3.01 14.4903
0.058509 3.01 14.4676
0.058509 3.01 14.4676
0.0849548 3.01 14.4671
0.0739464 3.01 14.4895
0.058509 3.01 14.4676
0.05 3.01 14.4451
0.0732725 3.01 14.4449
0.0732725 3.01 14.4449
0.0849548 3.01 14.4671
0.058509 3.01 14.4676
0.5 3.01 14.535
0.487476 3.01 14.5575
0.47495 3.01 14.535
0.097663 3.01 14.1787
0.0841948 3.01 14.1568
0.109814 3.01 14.1568
0.0730539 3.01 14.1787
0.0841948 3.01 14.1568
0.097663 3.01 14.1787
0.0578646 3.01 14.1568
0.0730539 3.01 14.1787
0.05 3.01 14.1787
0.05 3.01 14.1787
0.05 3.01 14.1349
0.0578646 3.01 14.1568
0.05 3.01 14.3554
0.05 3.01 14.3109
0.0580869 3.01 14.3332
0.05 3.01 14.3109
0.0580261 3.01 14.2888
0.073134 3.01 14.3109
0.073134 3.01 14.3109
0.0580869 3.01 14.3332
0.05 3.01 14.3109
0.942268 3.01 13.8957
0.95 3.01 13.874
0.95 3.01 13.9174
0.942292 3.01 13.8524
0.95 3.01 13.874
0.927025 3.01 13.874
0.927025 3.01 13.874
0.942268 3.01 13.8957
0.915919 3.01 13.8957
0.95 3.01 13.874
0.942268 3.01 13.8957
0.927025 3.01 13.874
0.927013 3.01 13.9174
0.942268 3.01 13.8957
0.95 3.01 13.9174
0.915919 3.01 13.8957
0.942268 3.01 13.8957
0.927013 3.01 13.9174
0.801738 3.01 14.0043
0.814364 3.01 13.9825
0.826957 3.01 14.0042
0.852174 3.01 14.0042
0.826957 3.01 14.0042
0.839609 3.01 13.9825
0.839609 3.01 13.9825
0.826957 3.01 14.0042
0.814364 3.01 13.9825
0.776516 3.01 14.0477
0.75132 3.01 14.0478
0.763923 3.01 14.026
0.776516 3.01 14.0477
0.801725 3.01 14.0477
0.789115 3.01 14.0695
0.738704 3.01 14.1131
0.751305 3.01 14.0913
0.763892 3.01 14.1131
0.726124 3.01 14.0913
0.751305 3.01 14.0913
0.738704 3.01 14.1131
0.915617 3.01 14.3331
0.902228 3.01 14.3109
0.926866 3.01 14.3109
0.926866 3.01 14.3109
0.941913 3.01 14.3332
0.915617 3.01 14.3331
0.915617 3.01 14.3331
0.941913 3.01 14.3332
0.926844 3.01 14.3554
0.915617 3.01 14.3331
0.926844 3.01 14.3554
0.902193 3.01 14.3554
0.926866 3.01 14.3109
0.902228 3.01 14.3109
0.915668 3.01 14.2888
0.902267 3.01 14.2667
0.926895 3.01 14.2667
0.915668 3.01 14.2888
0.915668 3.01 14.2888
0.941974 3.01 14.2888
0.926866 3.01 14.3109
0.926895 3.01 14.2667
0.941974 3.01 14.2888
0.915668 3.01 14.2888
0.902267 3.01 14.2667
0.915668 3.01 14.2888
0.890059 3.01 14.2888
0.890059 3.01 14.2888
0.915668 3.01 14.2888
0.902228 3.01 14.3109
0.826927 3.01 14.0913
0.814318 3.01 14.1131
0.801709 3.01 14.0913
0.864816 3.01 14.1568
0.877308 3.01 14.1349
0.890186 3.01 14.1568
0.877308 3.01 14.1349
0.864816 3.01 14.1568
0.852122 3.01 14.1349
0.890186 3.01 14.1568
0.877308 3.01 14.1349
0.902362 3.01 14.1349
0.902362 3.01 14.1349
0.915805 3.01 14.1568
0.890186 3.01 14.1568
0.902362 3.01 14.1349
0.926964 3.01 14.1349
0.915805 3.01 14.1568
0.915835 3.01 14.1131
0.926964 3.01 14.1349
0.902362 3.01 14.1349
0.942171 3.01 14.1131
0.926964 3.01 14.1349
0.915835 3.01 14.1131
0.915835 3.01 14.1131
0.926978 3.01 14.0913
0.942171 3.01 14.1131
0.942171 3.01 14.1131
0.926978 3.01 14.0913
0.95 3.01 14.0913
0.87737 3.01 13.9608
0.890277 3.01 13.9391
0.902417 3.01 13.9608
0.852144 3.01 14.0913
0.877329 3.01 14.0913
0.864842 3.01 14.1131
0.877308 3.01 14.1349
0.852122 3.01 14.1349
0.864842 3.01 14.1131
0.902396 3.01 14.0477
0.915858 3.01 14.0695
0.890234 3.01 14.0695
0.926997 3.01 14.0042
0.942237 3.01 13.9825
0.95 3.01 14.0042
0.91589 3.01 13.9825
0.942237 3.01 13.9825
0.926997 3.01 14.0042
0.942199 3.01 14.0695
0.95 3.01 14.0477
0.95 3.01 14.0913
0.95 3.01 14.0913
0.926978 3.01 14.0913
0.942199 3.01 14.0695
0.942199 3.01 14.0695
0.926978 3.01 14.0913
0.915858 3.01 14.0695
0.95 3.01 14.0042
0.95 3.01 14.0477
0.942221 3.01 14.026
0.942221 3.01 14.026
0.926997 3.01 14.0042
0.95 3.01 14.0042
0.915876 3.01 14.026
0.926997 3.01 14.0042
0.942221 3.01 14.026
0.926989 3.01 14.0477
0.915858 3.01 14.0695
0.902396 3.01 14.0477
0.902396 3.01 14.0477
0.915876 3.01 14.026
0.926989 3.01 14.0477
0.926989 3.01 14.0477
0.942199 3.01 14.0695
0.915858 3.01 14.0695
0.95 3.01 14.0477
0.942199 3.01 14.0695
0.926989 3.01 14.0477
0.915876 3.01 14.026
0.942221 3.01 14.026
0.926989 3.01 14.0477
0.926989 3.01 14.0477
0.942221 3.01 14.026
0.95 3.01 14.0477
0.91353 3.01 14.5119
0.926054 3.01 14.4895
0.939636 3.01 14.512
0.926728 3.01 14.4449
0.95 3.01 14.4451
0.941491 3.01 14.4676
0.926728 3.01 14.4449
0.941822 3.01 14.4225
0.95 3.01 14.4451
0.95 3.01 14.4903
0.95 3.01 14.5333
0.939636 3.01 14.512
0.95 3.01 14.4903
0.926054 3.01 14.4895
0.941491 3.01 14.4676
0.939636 3.01 14.512
0.926054 3.01 14.4895
0.95 3.01 14.4903
0.941491 3.01 14.4676
0.95 3.01 14.4451
0.95 3.01 14.4903
0.941869 3.01 14.3777
0.926844 3.01 14.3554
0.95 3.01 14.3554
0.762942 3.01 14.5123
0.75028 3.01 14.5349
0.737933 3.01 14.5123
0.71291 3.01 14.5124
0.725533 3.01 14.4899
0.737933 3.01 14.5123
0.71291 3.01 14.5124
0.737933 3.01 14.5123
0.725313 3.01 14.5349
0.725313 3.01 14.5349
[...]
<PointData Scalars="View Factor" >
<DataArray type="Float64" Name="View Factor" NumberOfComponents="1" format="ascii">
0.412744
0.412744
0.412744
0.609885
0.609885
0.609885
0.609492
0.609492
0.609492
0.61008
0.61008
0.61008
0.610201
0.610201
0.610201
0.60979
0.60979
0.60979
0.609514
0.609514
0.609514
0.609446
0.609446
0.609446
0.609921
0.609921
0.609921
0.449438
0.449438
0.449438
0.606084
0.606084
0.606084
0.609203
0.609203
0.609203
0.609026
0.609026
0.609026
0.608859
0.608859
0.608859
0.607415
0.607415
0.607415
0.60871
0.60871
0.60871
0.607988
0.607988
0.607988
0.609047
0.609047
0.609047
0.609289
0.609289
0.609289
0.608568
0.608568
0.608568
0.609501
0.609501
0.609501
0.60973
0.60973
0.60973
0.606857
0.606857
0.606857
0.608483
0.608483
0.608483
0.607629
0.607629
0.607629
0.608781
0.608781
0.608781
0.608289
0.608289
0.608289
0.607072
0.607072
0.607072
0.607434
0.607434
0.607434
0.610829
0.610829
0.610829
0.610504
0.610504
0.610504
0.434208
0.434208
0.434208
0.429084
0.429084
0.429084
0.420997
0.420997
0.420997
0.423733
0.423733
0.423733
0.518867
0.518867
0.518867
0.543254
0.543254
0.543254
0.539864
0.539864
0.539864
0.506312
0.506312
0.506312
0.551865
0.551865
0.551865
0.556146
0.556146
0.556146
0.540438
0.540438
0.540438
0.534616
0.534616
0.534616
0.53992
0.53992
0.53992
0.537004
0.537004
0.537004
0.525233
0.525233
0.525233
0.530799
0.530799
0.530799
0.527779
0.527779
0.527779
0.527219
0.527219
0.527219
0.529723
0.529723
0.529723
0.388437
0.388437
0.388437
0.45179
0.45179
0.45179
0.45534
0.45534
0.45534
0.46026
0.46026
0.46026
0.464387
0.464387
0.464387
0.467706
0.467706
0.467706
0.472426
0.472426
0.472426
0.407802
0.407802
0.407802
0.406647
0.406647
0.406647
0.409816
0.409816
0.409816
0.540922
0.540922
0.540922
0.539996
0.539996
0.539996
0.605444
0.605444
0.605444
0.609086
0.609086
0.609086
0.60846
0.60846
0.60846
0.607617
0.607617
0.607617
0.608339
0.608339
0.608339
0.60519
0.60519
0.60519
0.606239
0.606239
0.606239
0.607235
0.607235
0.607235
0.608049
0.608049
0.608049
0.607193
0.607193
0.607193
0.608305
0.608305
0.608305
0.607759
0.607759
0.607759
0.610463
0.610463
0.610463
0.610316
0.610316
0.610316
0.610671
0.610671
0.610671
0.439247
0.439247
0.439247
0.444352
0.444352
0.444352
0.446946
0.446946
0.446946
0.454536
0.454536
0.454536
0.452006
0.452006
0.452006
0.415779
0.415779
0.415779
0.5397
0.5397
0.5397
0.537976
0.537976
0.537976
0.538111
0.538111
0.538111
0.54174
0.54174
0.54174
0.493051
0.493051
0.493051
0.501941
0.501941
0.501941
0.497521
0.497521
0.497521
0.546828
0.546828
0.546828
0.551124
0.551124
0.551124
0.549811
0.549811
0.549811
0.549443
0.549443
0.549443
0.545826
0.545826
0.545826
0.547998
0.547998
0.547998
0.545005
0.545005
0.545005
0.542793
0.542793
0.542793
0.545124
0.545124
0.545124
0.541329
0.541329
0.541329
0.536582
0.536582
0.536582
0.529111
0.529111
0.529111
0.531575
0.531575
0.531575
0.462513
0.462513
0.462513
0.459221
0.459221
0.459221
0.454978
0.454978
0.454978
0.454007
0.454007
0.454007
0.466659
0.466659
0.466659
0.474733
0.474733
0.474733
0.467493
0.467493
0.467493
0.471521
0.471521
0.471521
0.473849
0.473849
0.473849
0.469803
0.469803
0.469803
0.525741
0.525741
0.525741
0.509124
0.509124
0.509124
0.511913
0.511913
0.511913
0.509616
0.509616
0.509616
0.506768
0.506768
0.506768
0.507225
0.507225
0.507225
0.510432
0.510432
0.510432
0.510685
0.510685
0.510685
0.51376
0.51376
0.51376
0.514101
0.514101
0.514101
0.544937
0.544937
0.544937
0.521368
0.521368
0.521368
0.515148
0.515148
0.515148
0.525052
0.525052
0.525052
0.532951
0.532951
0.532951
0.535349
0.535349
0.535349
0.519097
0.519097
0.519097
0.517044
0.517044
0.517044
0.51966
0.51966
0.51966
0.527165
0.527165
0.527165
0.53051
0.53051
0.53051
0.530456
0.530456
0.530456
0.525219
0.525219
0.525219
0.527925
0.527925
0.527925
0.522486
0.522486
0.522486
0.522682
0.522682
0.522682
0.527883
0.527883
0.527883
0.525375
0.525375
0.525375
0.404537
0.404537
0.404537
0.420101
0.420101
0.420101
0.4248
0.4248
0.4248
0.40048
0.40048
0.40048
0.410598
0.410598
0.410598
0.405878
0.405878
0.405878
0.414647
0.414647
0.414647
0.447453
0.447453
0.447453
0.411624
0.411624
0.411624
0.418089
0.418089
0.418089
0.41304
0.41304
0.41304
0.409804
0.409804
0.409804
0.402828
0.402828
0.402828
0.404703
0.404703
0.404703
0.401435
0.401435
0.401435
0.438838
0.438838
0.438838
0.428059
0.428059
0.428059
0.421294
0.421294
0.421294
0.426286
0.426286
0.426286
0.423921
0.423921
0.423921
0.428939
0.428939
0.428939
0.416102
0.416102
0.416102
0.410947
0.410947
0.410947
0.408899
0.408899
0.408899
0.551815
0.551815
0.551815
0.538675
0.538675
0.538675
0.53129
0.53129
0.53129
0.526578
0.526578
0.526578
0.530062
0.530062
0.530062
0.532396
0.532396
0.532396
0.536771
0.536771
0.536771
0.535754
0.535754
0.535754
0.5278
0.5278
0.5278
0.525422
0.525422
0.525422
0.505089
0.505089
0.505089
0.524423
0.524423
0.524423
0.52689
0.52689
0.52689
0.522092
0.522092
0.522092
0.515557
0.515557
0.515557
0.607462
0.607462
0.607462
0.608061
0.608061
0.608061
0.60751
0.60751
0.60751
0.606924
0.606924
0.606924
0.587635
0.587635
0.587635
0.544612
0.544612
0.544612
0.539344
0.539344
0.539344
0.544338
0.544338
0.544338
0.5417
0.5417
0.5417
0.543642
0.543642
0.543642
0.54322
0.54322
0.54322
0.606292
0.606292
0.606292
0.605304
0.605304
0.605304
0.592195
0.592195
0.592195
0.588005
0.588005
0.588005
0.58928
0.58928
0.58928
0.608182
0.608182
0.608182
0.610334
0.610334
0.610334
0.609669
0.609669
0.609669
0.608951
0.608951
0.608951
0.444384
0.444384
0.444384
0.413575
0.413575
0.413575
0.514734
0.514734
0.514734
0.510549
0.510549
0.510549
0.534292
0.534292
0.534292
0.602235
0.602235
0.602235
0.514426
0.514426
0.514426
0.510243
0.510243
0.510243
0.544897
0.544897
0.544897
0.54304
0.54304
0.54304
0.548508
0.548508
0.548508
0.545084
0.545084
0.545084
0.545221
0.545221
0.545221
0.543419
0.543419
0.543419
0.552014
0.552014
0.552014
0.548646
0.548646
0.548646
0.550267
0.550267
0.550267
0.553559
0.553559
0.553559
0.555231
0.555231
0.555231
0.524352
0.524352
0.524352
0.524638
0.524638
0.524638
0.548472
0.548472
0.548472
0.54251
0.54251
0.54251
0.542291
0.542291
0.542291
0.539662
0.539662
0.539662
0.542853
0.542853
0.542853
0.540477
0.540477
0.540477
0.547242
0.547242
0.547242
0.55318
0.55318
0.55318
0.564346
0.564346
0.564346
0.538557
0.538557
0.538557
0.532754
0.532754
0.532754
0.533268
0.533268
0.533268
0.536165
0.536165
0.536165
0.538088
0.538088
0.538088
0.535182
0.535182
0.535182
0.525947
0.525947
0.525947
0.525238
0.525238
0.525238
0.530913
0.530913
0.530913
0.527739
0.527739
0.527739
0.519382
0.519382
0.519382
0.516806
0.516806
0.516806
0.530216
0.530216
0.530216
0.50343
0.50343
0.50343
0.476979
0.476979
0.476979
0.483095
0.483095
0.483095
0.480921
0.480921
0.480921
0.483959
0.483959
0.483959
0.418417
0.418417
0.418417
0.416659
0.416659
0.416659
0.419887
0.419887
0.419887
0.424865
0.424865
0.424865
0.445879
0.445879
0.445879
0.426628
0.426628
0.426628
0.421791
0.421791
0.421791
0.446825
0.446825
0.446825
0.444053
0.444053
0.444053
0.448138
0.448138
0.448138
0.537263
0.537263
0.537263
0.523151
0.523151
0.523151
0.523605
0.523605
0.523605
0.52097
0.52097
0.52097
0.517853
0.517853
0.517853
0.508003
0.508003
0.508003
0.511369
0.511369
0.511369
0.516597
0.516597
0.516597
0.522001
0.522001
0.522001
0.519555
0.519555
0.519555
0.522213
0.522213
0.522213
0.507964
0.507964
0.507964
0.510278
0.510278
0.510278
0.530476
0.530476
0.530476
0.538002
0.538002
0.538002
0.535535
0.535535
0.535535
0.540308
0.540308
0.540308
0.540474
0.540474
0.540474
0.542728
0.542728
0.542728
0.542815
0.542815
0.542815
0.544715
0.544715
0.544715
0.546791
0.546791
0.546791
0.546529
0.546529
0.546529
0.405316
0.405316
0.405316
0.411975
0.411975
0.411975
0.396411
0.396411
0.396411
0.399729
0.399729
0.399729
0.391699
0.391699
0.391699
0.408011
0.408011
0.408011
0.422275
0.422275
0.422275
0.412798
0.412798
0.412798
0.414042
0.414042
0.414042
0.418765
0.418765
0.418765
0.436151
0.436151
0.436151
0.442236
0.442236
0.442236
0.440835
0.440835
0.440835
0.438979
0.438979
0.438979
0.449652
0.449652
0.449652
0.446286
0.446286
0.446286
0.428145
0.428145
0.428145
0.426958
0.426958
0.426958
0.420765
0.420765
0.420765
0.419458
0.419458
0.419458
0.422638
0.422638
0.422638
0.404161
0.404161
0.404161
0.406071
0.406071
0.406071
0.411183
0.411183
0.411183
0.414396
0.414396
0.414396
0.398622
0.398622
0.398622
0.406995
0.406995
0.406995
0.403665
0.403665
0.403665
0.396889
0.396889
0.396889
0.408363
0.408363
0.408363
0.403274
0.403274
0.403274
0.432974
0.432974
0.432974
0.43613
0.43613
0.43613
0.470309
0.470309
0.470309
0.471795
0.471795
0.471795
0.455183
0.455183
0.455183
0.440976
0.440976
0.440976
0.44265
0.44265
0.44265
0.443711
0.443711
0.443711
0.453664
0.453664
0.453664
0.449004
0.449004
0.449004
0.447406
0.447406
0.447406
0.450503
0.450503
0.450503
0.429455
0.429455
0.429455
0.435732
0.435732
0.435732
0.430789
0.430789
0.430789
0.427644
0.427644
0.427644
0.437516
0.437516
0.437516
0.434385
0.434385
0.434385
0.422011
0.422011
0.422011
0.416925
0.416925
0.416925
0.414961
0.414961
0.414961
0.418101
0.418101
0.418101
0.43206
0.43206
0.43206
0.437015
0.437015
0.437015
0.440096
0.440096
0.440096
0.484428
0.484428
0.484428
0.488756
0.488756
0.488756
0.56474
0.56474
0.56474
0.552678
0.552678
0.552678
0.566409
0.566409
0.566409
0.565249
0.565249
0.565249
0.550801
0.550801
0.550801
0.550758
0.550758
0.550758
0.552746
0.552746
0.552746
0.536451
0.536451
0.536451
0.537731
0.537731
0.537731
0.540174
0.540174
0.540174
0.532931
0.532931
0.532931
0.531566
0.531566
0.531566
0.527914
0.527914
0.527914
0.525633
0.525633
0.525633
0.539561
0.539561
0.539561
0.535457
0.535457
0.535457
0.53448
0.53448
0.53448
0.531129
0.531129
0.531129
0.528763
0.528763
0.528763
0.520357
0.520357
0.520357
0.521856
0.521856
0.521856
0.526606
0.526606
0.526606
0.521807
0.521807
0.521807
0.535544
0.535544
0.535544
0.536791
0.536791
0.536791
0.517617
0.517617
0.517617
0.519019
0.519019
0.519019
0.522488
0.522488
0.522488
0.525946
0.525946
0.525946
0.512164
0.512164
0.512164
0.483921
0.483921
0.483921
0.608603
0.608603
0.608603
0.60808
0.60808
0.60808
0.608592
0.608592
0.608592
0.558268
0.558268
0.558268
0.559673
0.559673
0.559673
0.559444
0.559444
0.559444
0.591124
0.591124
0.591124
0.580872
0.580872
0.580872
0.586956
0.586956
0.586956
0.546615
0.546615
0.546615
0.54629
0.54629
0.54629
0.548524
0.548524
0.548524
0.551045
0.551045
0.551045
0.545492
0.545492
0.545492
0.548148
0.548148
0.548148
0.606881
0.606881
0.606881
0.606296
0.606296
0.606296
0.606803
0.606803
0.606803
0.606193
0.606193
0.606193
0.60486
0.60486
0.60486
0.604138
0.604138
0.604138
0.60342
0.60342
0.60342
0.602579
0.602579
0.602579
0.602616
0.602616
0.602616
0.601717
0.601717
0.601717
0.601765
0.601765
0.601765
0.60258
0.60258
0.60258
0.592738
0.592738
0.592738
0.586073
0.586073
0.586073
0.581938
0.581938
0.581938
0.598092
0.598092
0.598092
0.60689
0.60689
0.60689
0.606169
0.606169
0.606169
0.607494
0.607494
0.607494
0.475107
0.475107
0.475107
0.464557
0.464557
0.464557
0.450927
0.450927
0.450927
0.451265
0.451265
0.451265
0.453623
0.453623
0.453623
0.466183
0.466183
0.466183
0.458625
0.458625
0.458625
0.461267
0.461267
0.461267
0.453262
0.453262
0.453262
0.446878
0.446878
0.446878
0.459572
0.459572
0.459572
0.46456
0.46456
0.46456
0.416589
0.416589
0.416589
0.429949
0.429949
0.429949
0.424786
0.424786
0.424786
0.4218
0.4218
0.4218
0.440151
0.440151
0.440151
0.431414
0.431414
0.431414
0.426236
0.426236
0.426236
0.516585
0.516585
0.516585
0.514605
0.514605
0.514605
0.516742
0.516742
0.516742
0.504069
0.504069
0.504069
0.508373
0.508373
0.508373
0.501815
0.501815
0.501815
0.503916
0.503916
0.503916
0.510421
0.510421
0.510421
0.508218
0.508218
0.508218
0.532333
0.532333
0.532333
0.528312
0.528312
0.528312
0.530685
0.530685
0.530685
0.534426
0.534426
0.534426
0.532495
0.532495
0.532495
0.603975
0.603975
0.603975
0.591515
0.591515
0.591515
0.595129
0.595129
0.595129
0.583209
0.583209
0.583209
0.581003
0.581003
0.581003
0.585097
0.585097
0.585097
0.57804
0.57804
0.57804
0.575474
0.575474
0.575474
0.59134
0.59134
0.59134
0.593059
0.593059
0.593059
0.594868
0.594868
0.594868
0.593205
0.593205
0.593205
0.592205
0.592205
0.592205
0.592601
0.592601
0.592601
0.594408
0.594408
0.594408
0.597319
0.597319
0.597319
0.595646
0.595646
0.595646
0.594665
0.594665
0.594665
0.595414
0.595414
0.595414
0.600974
0.600974
0.600974
0.50164
0.50164
0.50164
0.497223
0.497223
0.497223
0.53779
0.53779
0.53779
0.539487
0.539487
0.539487
0.534107
0.534107
0.534107
0.532123
0.532123
0.532123
0.544658
0.544658
0.544658
0.570172
0.570172
0.570172
0.571446
0.571446
0.571446
0.572851
0.572851
0.572851
0.572708
0.572708
0.572708
0.571274
0.571274
0.571274
0.555092
0.555092
0.555092
0.558251
0.558251
0.558251
0.568023
0.568023
0.568023
0.548319
0.548319
0.548319
0.554901
0.554901
0.554901
0.550101
0.550101
0.550101
0.553392
0.553392
0.553392
0.56813
0.56813
0.56813
0.566259
0.566259
0.566259
0.547485
0.547485
0.547485
0.549099
0.549099
0.549099
0.549327
0.549327
0.549327
0.54517
0.54517
0.54517
0.547388
0.547388
0.547388
0.545205
0.545205
0.545205
0.547505
0.547505
0.547505
0.549736
0.549736
0.549736
0.551972
0.551972
0.551972
0.552106
0.552106
0.552106
0.553795
0.553795
0.553795
0.523407
0.523407
0.523407
0.524066
0.524066
0.524066
0.521486
0.521486
0.521486
0.518212
0.518212
0.518212
0.517507
0.517507
0.517507
0.520122
0.520122
0.520122
0.526981
0.526981
0.526981
0.523674
0.523674
0.523674
0.525322
0.525322
0.525322
0.522821
0.522821
0.522821
0.533339
0.533339
0.533339
0.538738
0.538738
0.538738
0.536389
0.536389
0.536389
0.520974
0.520974
0.520974
0.518434
0.518434
0.518434
0.519982
0.519982
0.519982
0.490859
0.490859
0.490859
0.486841
0.486841
0.486841
0.501024
0.501024
0.501024
0.500565
0.500565
0.500565
0.505771
0.505771
0.505771
0.502926
0.502926
0.502926
0.505194
0.505194
0.505194
0.501711
0.501711
0.501711
0.485531
0.485531
0.485531
0.478656
0.478656
0.478656
0.481713
0.481713
0.481713
0.468871
0.468871
0.468871
0.457232
0.457232
0.457232
0.461494
0.461494
0.461494
0.464708
0.464708
0.464708
0.463654
0.463654
0.463654
0.452628
0.452628
0.452628
0.421824
0.421824
0.421824
0.415277
0.415277
0.415277
0.420198
0.420198
0.420198
0.423468
0.423468
0.423468
0.425068
0.425068
0.425068
0.426597
0.426597
0.426597
0.423379
0.423379
0.423379
0.429949
0.429949
0.429949
0.418492
0.418492
0.418492
0.410268
0.410268
0.410268
0.413597
0.413597
0.413597
0.420028
0.420028
0.420028
0.434667
0.434667
0.434667
0.429894
0.429894
0.429894
0.428328
0.428328
0.428328
0.431564
0.431564
0.431564
0.448507
0.448507
0.448507
0.444048
0.444048
0.444048
0.444894
0.444894
0.444894
0.440324
0.440324
0.440324
0.442865
0.442865
0.442865
0.446145
0.446145
0.446145
0.53451
0.53451
0.53451
0.528749
0.528749
0.528749
0.531261
0.531261
0.531261
0.534147
0.534147
0.534147
0.526601
0.526601
0.526601
0.532339
0.532339
0.532339
0.529156
0.529156
0.529156
0.532031
0.532031
0.532031
0.52695
0.52695
0.52695
0.529813
0.529813
0.529813
0.540144
0.540144
0.540144
0.537525
0.537525
0.537525
0.535081
0.535081
0.535081
0.540308
0.540308
0.540308
0.537893
0.537893
0.537893
0.535285
0.535285
0.535285
0.51411
0.51411
0.51411
0.519471
0.519471
0.519471
0.516209
0.516209
0.516209
0.513512
0.513512
0.513512
0.520022
0.520022
0.520022
0.517359
0.517359
0.517359
0.512837
0.512837
0.512837
0.51558
0.51558
0.51558
0.513195
0.513195
0.513195
0.516285
0.516285
0.516285
0.518683
0.518683
0.518683
0.51903
0.51903
0.51903
0.504288
0.504288
0.504288
0.504772
0.504772
0.504772
0.500715
0.500715
0.500715
0.498141
0.498141
0.498141
0.500966
0.500966
0.500966
0.530067
0.530067
0.530067
0.532797
0.532797
0.532797
0.527691
0.527691
0.527691
0.52749
0.52749
0.52749
0.530409
0.530409
0.530409
0.532938
0.532938
0.532938
0.535536
0.535536
0.535536
0.537977
0.537977
0.537977
0.533084
0.533084
0.533084
0.533061
0.533061
0.533061
0.535592
0.535592
0.535592
0.538056
0.538056
0.538056
0.543892
0.543892
0.543892
0.544121
0.544121
0.544121
0.534477
0.534477
0.534477
0.541032
0.541032
0.541032
0.39014
0.39014
0.39014
0.411832
0.411832
0.411832
0.416698
0.416698
0.416698
0.420941
0.420941
0.420941
0.416187
0.416187
0.416187
0.42295
0.42295
0.42295
0.424342
0.424342
0.424342
0.418166
0.418166
0.418166
0.414804
0.414804
0.414804
0.432891
0.432891
0.432891
0.426292
0.426292
0.426292
0.43102
0.43102
0.43102
0.434317
0.434317
0.434317
0.424839
0.424839
0.424839
0.42814
0.42814
0.42814
0.430328
0.430328
0.430328
0.434952
0.434952
0.434952
0.429046
0.429046
0.429046
0.43238
0.43238
0.43238
0.438312
0.438312
0.438312
0.437022
0.437022
0.437022
0.441841
0.441841
0.441841
0.432766
0.432766
0.432766
0.440746
0.440746
0.440746
0.436204
0.436204
0.436204
0.407379
0.407379
0.407379
0.408627
0.408627
0.408627
0.405434
0.405434
0.405434
0.413761
0.413761
0.413761
0.41569
0.41569
0.41569
0.412502
0.412502
0.412502
0.399979
0.399979
0.399979
0.410145
0.410145
0.410145
0.415165
0.415165
0.415165
0.413605
0.413605
0.413605
0.416882
0.416882
0.416882
0.400232
0.400232
0.400232
0.40686
0.40686
0.40686
0.398464
0.398464
0.398464
0.401783
0.401783
0.401783
0.405295
0.405295
0.405295
0.408603
0.408603
0.408603
0.439508
0.439508
0.439508
0.43797
0.43797
0.43797
0.441139
0.441139
0.441139
0.433157
0.433157
0.433157
0.434678
0.434678
0.434678
0.431496
0.431496
0.431496
0.468825
0.468825
0.468825
0.456741
0.456741
0.456741
0.455178
0.455178
0.455178
0.461316
0.461316
0.461316
0.464342
0.464342
0.464342
0.474332
0.474332
0.474332
0.478576
0.478576
0.478576
0.479796
0.479796
0.479796
0.448661
0.448661
0.448661
0.450031
0.450031
0.450031
0.452076
0.452076
0.452076
0.447432
0.447432
0.447432
0.462271
0.462271
0.462271
0.459304
0.459304
0.459304
0.453293
0.453293
0.453293
0.442376
0.442376
0.442376
0.445465
0.445465
0.445465
0.444091
0.444091
0.444091
0.45025
0.45025
0.45025
0.448862
0.448862
0.448862
0.451932
0.451932
0.451932
0.455821
0.455821
0.455821
0.461728
0.461728
0.461728
0.460547
0.460547
0.460547
0.463488
0.463488
0.463488
0.446192
0.446192
0.446192
0.45283
0.45283
0.45283
0.454589
0.454589
0.454589
0.451572
0.451572
0.451572
0.446775
0.446775
0.446775
0.444982
0.444982
0.444982
0.448021
0.448021
0.448021
0.41922
0.41922
0.41922
0.420112
0.420112
0.420112
0.414918
0.414918
0.414918
0.411862
0.411862
0.411862
0.561297
0.561297
0.561297
0.555827
0.555827
0.555827
0.557096
0.557096
0.557096
0.560111
0.560111
0.560111
0.561858
0.561858
0.561858
0.553626
0.553626
0.553626
0.547055
0.547055
0.547055
0.548934
0.548934
0.548934
0.552221
0.552221
0.552221
0.562365
0.562365
0.562365
0.556329
0.556329
0.556329
0.560643
0.560643
0.560643
0.557627
0.557627
0.557627
0.569642
0.569642
0.569642
0.566892
0.566892
0.566892
0.567322
0.567322
0.567322
0.565704
0.565704
0.565704
0.556779
0.556779
0.556779
0.558104
0.558104
0.558104
0.561122
0.561122
0.561122
0.562818
0.562818
0.562818
0.55574
0.55574
0.55574
0.544309
0.544309
0.544309
0.549588
0.549588
0.549588
0.546314
0.546314
0.546314
0.540904
0.540904
0.540904
0.538823
0.538823
0.538823
0.538611
0.538611
0.538611
0.532378
0.532378
0.532378
0.533774
0.533774
0.533774
0.53456
0.53456
0.53456
0.537299
0.537299
0.537299
0.541119
0.541119
0.541119
0.542314
0.542314
0.542314
0.547633
0.547633
0.547633
0.545569
0.545569
0.545569
0.542211
0.542211
0.542211
0.539167
0.539167
0.539167
0.541336
0.541336
0.541336
0.540294
0.540294
0.540294
0.527049
0.527049
0.527049
0.529766
0.529766
0.529766
0.530696
0.530696
0.530696
0.532028
0.532028
0.532028
0.521155
0.521155
0.521155
0.522685
0.522685
0.522685
0.528722
0.528722
0.528722
0.526466
0.526466
0.526466
0.53728
0.53728
0.53728
0.532607
0.532607
0.532607
0.535809
0.535809
0.535809
0.538125
0.538125
0.538125
0.464643
0.464643
0.464643
0.46929
0.46929
0.46929
0.472151
0.472151
0.472151
0.482825
0.482825
0.482825
0.478383
0.478383
0.478383
0.476702
0.476702
0.476702
0.49149
0.49149
0.49149
0.496867
0.496867
0.496867
0.503624
0.503624
0.503624
0.499509
0.499509
0.499509
0.466736
0.466736
0.466736
0.515603
0.515603
0.515603
0.519502
0.519502
0.519502
0.524094
0.524094
0.524094
0.525141
0.525141
0.525141
0.522778
0.522778