<VTKFile type="UnstructuredGrid" version="1.0">
<UnstructuredGrid>
<Piece NumberOfPoints="8859" NumberOfCells="2953">
<Points>
<DataArray type="Float64" NumberOfComponents="3" format="ascii">
0.5 3.01 5.13
0.512524 3.01 5.1525
0.487476 3.01 5.1525
0.17352 3.01 4.2525
0.160827 3.01 4.27422
0.148445 3.01 4.2525
0.122979 3.01 4.29589
0.110383 3.01 4.27421
0.135644 3.01 4.27422
0.135644 3.01 4.27422
0.110383 3.01 4.27421
0.123433 3.01 4.2525
0.123433 3.01 4.2525
0.148445 3.01 4.2525
0.135644 3.01 4.27422
0.135644 3.01 4.27422
0.148445 3.01 4.2525
0.160827 3.01 4.27422
0.17352 3.01 4.2525
0.198629 3.01 4.2525
0.185985 3.01 4.2742
0.185985 3.01 4.2742
0.160827 3.01 4.27422
0.17352 3.01 4.2525
0.0732297 3.01 4.29567
0.0586606 3.01 4.27381
0.0848754 3.01 4.27414
0.05 3.01 5.08527
0.05 3.01 5.0401
0.058509 3.01 5.06256
0.324276 3.01 4.2525
0.349395 3.01 4.2525
0.336827 3.01 4.27416
0.148138 3.01 4.2959
0.135644 3.01 4.27422
0.160827 3.01 4.27422
0.122979 3.01 4.29589
0.135644 3.01 4.27422
0.148138 3.01 4.2959
0.160827 3.01 4.27422
0.185985 3.01 4.2742
0.173316 3.01 4.29589
0.185806 3.01 4.31755
0.160572 3.01 4.31755
0.173316 3.01 4.29589
0.173316 3.01 4.29589
0.148138 3.01 4.2959
0.160827 3.01 4.27422
0.160572 3.01 4.31755
0.148138 3.01 4.2959
0.173316 3.01 4.29589
0.211137 3.01 4.27419
0.185985 3.01 4.2742
0.198629 3.01 4.2525
0.0979162 3.01 4.29584
0.110383 3.01 4.27421
0.122979 3.01 4.29589
0.122979 3.01 4.29589
0.109875 3.01 4.31749
0.0979162 3.01 4.29584
0.0732297 3.01 4.29567
0.0848754 3.01 4.27414
0.0979162 3.01 4.29584
0.0979162 3.01 4.29584
0.0848754 3.01 4.27414
0.110383 3.01 4.27421
0.0975729 3.01 4.33904
0.109875 3.01 4.31749
0.122678 3.01 4.33914
0.0841718 3.01 4.31735
0.0577122 3.01 4.31702
0.0732297 3.01 4.29567
0.0729308 3.01 4.33888
0.0577122 3.01 4.31702
0.0841718 3.01 4.31735
0.0732297 3.01 4.29567
0.0979162 3.01 4.29584
0.0841718 3.01 4.31735
0.0841718 3.01 4.31735
0.0979162 3.01 4.29584
0.109875 3.01 4.31749
0.0975729 3.01 4.33904
0.0729308 3.01 4.33888
0.0841718 3.01 4.31735
0.0841718 3.01 4.31735
0.109875 3.01 4.31749
0.0975729 3.01 4.33904
0.073948 3.01 4.2525
0.0586606 3.01 4.27381
0.05 3.01 4.2525
0.073948 3.01 4.2525
0.0848754 3.01 4.27414
0.0586606 3.01 4.27381
0.05 3.01 5.12829
0.05 3.01 5.08527
0.0603641 3.01 5.10697
0.0603641 3.01 5.10697
0.0753197 3.01 5.12899
0.05 3.01 5.12829
0.0709395 3.01 5.1525
0.05 3.01 5.1525
0.05 3.01 5.12829
0.05 3.01 5.12829
0.0753197 3.01 5.12899
0.0709395 3.01 5.1525
0.0579641 3.01 4.83963
0.05 3.01 4.86169
0.05 3.01 4.81761
0.0841948 3.01 4.7518
0.097638 3.01 4.72993
0.109814 3.01 4.7518
0.0841948 3.01 4.7518
0.0730539 3.01 4.7737
0.0578646 3.01 4.7518
0.0580261 3.01 4.8838
0.05 3.01 4.90595
0.05 3.01 4.86169
0.942292 3.01 4.44736
0.95 3.01 4.42567
0.95 3.01 4.46904
0.95 3.01 4.38226
0.95 3.01 4.42567
0.942332 3.01 4.40397
0.73872 3.01 4.66453
0.726137 3.01 4.64276
0.75132 3.01 4.64276
0.751305 3.01 4.68632
0.726124 3.01 4.68633
0.73872 3.01 4.66453
0.713546 3.01 4.66454
0.726137 3.01 4.64276
0.73872 3.01 4.66453
0.73872 3.01 4.66453
0.726124 3.01 4.68633
0.713546 3.01 4.66454
0.814318 3.01 4.70811
0.789096 3.01 4.70812
0.801709 3.01 4.6863
0.7765 3.01 4.68631
0.789115 3.01 4.66451
0.801709 3.01 4.6863
0.801709 3.01 4.6863
0.789096 3.01 4.70812
0.7765 3.01 4.68631
0.7765 3.01 4.68631
0.789096 3.01 4.70812
0.763892 3.01 4.70814
0.763892 3.01 4.70814
0.751305 3.01 4.68632
0.7765 3.01 4.68631
0.95 3.01 5.1525
0.929061 3.01 5.1525
0.95 3.01 5.12829
0.95 3.01 4.9504
0.926844 3.01 4.9504
0.941913 3.01 4.92815
0.941913 3.01 4.92815
0.95 3.01 4.90595
0.95 3.01 4.9504
0.926866 3.01 4.90594
0.95 3.01 4.90595
0.941913 3.01 4.92815
0.941974 3.01 4.8838
0.95 3.01 4.90595
0.926866 3.01 4.90594
0.95 3.01 4.86169
0.95 3.01 4.90595
0.941974 3.01 4.8838
0.941974 3.01 4.8838
0.926895 3.01 4.86169
0.95 3.01 4.86169
0.6127 3.01 5.1525
0.625238 3.01 5.12998
0.637734 3.01 5.1525
0.662757 3.01 5.1525
0.637734 3.01 5.1525
0.650275 3.01 5.12997
0.650275 3.01 5.12997
0.637734 3.01 5.1525
0.625238 3.01 5.12998
0.600415 3.01 4.68637
0.587856 3.01 4.7082
0.575304 3.01 4.68637
0.575304 3.01 4.68637
0.587856 3.01 4.7082
0.562749 3.01 4.7082
0.336827 3.01 4.27416
0.349395 3.01 4.2525
0.361946 3.01 4.27416
0.223755 3.01 4.2525
0.211137 3.01 4.27419
0.198629 3.01 4.2525
0.185985 3.01 4.2742
0.211137 3.01 4.27419
0.198492 3.01 4.29588
0.185806 3.01 4.31755
0.173316 3.01 4.29589
0.198492 3.01 4.29588
0.198492 3.01 4.29588
0.173316 3.01 4.29589
0.185985 3.01 4.2742
0.0576202 3.01 4.36053
0.05 3.01 4.38226
0.05 3.01 4.33874
0.05 3.01 4.33874
0.0729308 3.01 4.33888
0.0576202 3.01 4.36053
0.05 3.01 4.33874
0.0577122 3.01 4.31702
0.0729308 3.01 4.33888
0.135283 3.01 4.31754
0.109875 3.01 4.31749
0.122979 3.01 4.29589
0.135283 3.01 4.31754
0.122678 3.01 4.33914
0.109875 3.01 4.31749
0.122979 3.01 4.29589
0.148138 3.01 4.2959
0.135283 3.01 4.31754
0.135283 3.01 4.31754
0.148138 3.01 4.2959
0.160572 3.01 4.31755
0.123433 3.01 4.2525
0.110383 3.01 4.27421
0.0985513 3.01 4.2525
0.110383 3.01 4.27421
0.0848754 3.01 4.27414
0.0985513 3.01 4.2525
0.0848754 3.01 4.27414
0.073948 3.01 4.2525
0.0985513 3.01 4.2525
0.0603641 3.01 5.10697
0.05 3.01 5.08527
0.0739464 3.01 5.08449
0.0739464 3.01 5.08449
0.05 3.01 5.08527
0.058509 3.01 5.06256
0.058509 3.01 5.06256
0.0849548 3.01 5.06211
0.0739464 3.01 5.08449
0.058509 3.01 5.06256
0.05 3.01 5.0401
0.0732725 3.01 5.03988
0.0732725 3.01 5.03988
0.0849548 3.01 5.06211
0.058509 3.01 5.06256
0.5 3.01 5.13
0.487476 3.01 5.1525
0.47495 3.01 5.13
0.097663 3.01 4.7737
0.0841948 3.01 4.7518
0.109814 3.01 4.7518
0.0730539 3.01 4.7737
0.0841948 3.01 4.7518
0.097663 3.01 4.7737
0.0578646 3.01 4.7518
0.0730539 3.01 4.7737
0.05 3.01 4.7737
0.05 3.01 4.7737
0.05 3.01 4.72992
0.0578646 3.01 4.7518
0.05 3.01 4.9504
0.05 3.01 4.90595
0.0580869 3.01 4.92815
0.05 3.01 4.90595
0.0580261 3.01 4.8838
0.073134 3.01 4.90594
0.073134 3.01 4.90594
0.0580869 3.01 4.92815
0.05 3.01 4.90595
0.942268 3.01 4.49073
0.95 3.01 4.46904
0.95 3.01 4.51241
0.942292 3.01 4.44736
0.95 3.01 4.46904
0.927025 3.01 4.46904
0.927025 3.01 4.46904
0.942268 3.01 4.49073
0.915919 3.01 4.49072
0.95 3.01 4.46904
0.942268 3.01 4.49073
0.927025 3.01 4.46904
0.927013 3.01 4.51241
0.942268 3.01 4.49073
0.95 3.01 4.51241
0.915919 3.01 4.49072
0.942268 3.01 4.49073
0.927013 3.01 4.51241
0.801738 3.01 4.59925
0.814364 3.01 4.57753
0.826957 3.01 4.59925
0.852174 3.01 4.59924
0.826957 3.01 4.59925
0.839609 3.01 4.57752
0.839609 3.01 4.57752
0.826957 3.01 4.59925
0.814364 3.01 4.57753
0.776516 3.01 4.64275
0.75132 3.01 4.64276
0.763923 3.01 4.621
0.776516 3.01 4.64275
0.801725 3.01 4.64274
0.789115 3.01 4.66451
0.738704 3.01 4.70815
0.751305 3.01 4.68632
0.763892 3.01 4.70814
0.726124 3.01 4.68633
0.751305 3.01 4.68632
0.738704 3.01 4.70815
0.915617 3.01 4.92814
0.902228 3.01 4.90594
0.926866 3.01 4.90594
0.926866 3.01 4.90594
0.941913 3.01 4.92815
0.915617 3.01 4.92814
0.915617 3.01 4.92814
0.941913 3.01 4.92815
0.926844 3.01 4.9504
0.915617 3.01 4.92814
0.926844 3.01 4.9504
0.902193 3.01 4.95038
0.926866 3.01 4.90594
0.902228 3.01 4.90594
0.915668 3.01 4.88379
0.902267 3.01 4.86168
0.926895 3.01 4.86169
0.915668 3.01 4.88379
0.915668 3.01 4.88379
0.941974 3.01 4.8838
0.926866 3.01 4.90594
0.926895 3.01 4.86169
0.941974 3.01 4.8838
0.915668 3.01 4.88379
0.902267 3.01 4.86168
0.915668 3.01 4.88379
0.890059 3.01 4.88379
0.890059 3.01 4.88379
0.915668 3.01 4.88379
0.902228 3.01 4.90594
0.826927 3.01 4.68629
0.814318 3.01 4.70811
0.801709 3.01 4.6863
0.864816 3.01 4.7518
0.877308 3.01 4.72993
0.890186 3.01 4.7518
0.877308 3.01 4.72993
0.864816 3.01 4.7518
0.852122 3.01 4.72994
0.890186 3.01 4.7518
0.877308 3.01 4.72993
0.902362 3.01 4.72993
0.902362 3.01 4.72993
0.915805 3.01 4.7518
0.890186 3.01 4.7518
0.902362 3.01 4.72993
0.926964 3.01 4.72992
0.915805 3.01 4.7518
0.915835 3.01 4.70809
0.926964 3.01 4.72992
0.902362 3.01 4.72993
0.942171 3.01 4.70809
0.926964 3.01 4.72992
0.915835 3.01 4.70809
0.915835 3.01 4.70809
0.926978 3.01 4.68627
0.942171 3.01 4.70809
0.942171 3.01 4.70809
0.926978 3.01 4.68627
0.95 3.01 4.68627
0.87737 3.01 4.55581
0.890277 3.01 4.53411
0.902417 3.01 4.5558
0.852144 3.01 4.68628
0.877329 3.01 4.68628
0.864842 3.01 4.70809
0.877308 3.01 4.72993
0.852122 3.01 4.72994
0.864842 3.01 4.70809
0.902396 3.01 4.64272
0.915858 3.01 4.66448
0.890234 3.01 4.66449
0.926997 3.01 4.59923
0.942237 3.01 4.57751
0.95 3.01 4.59923
0.91589 3.01 4.57751
0.942237 3.01 4.57751
0.926997 3.01 4.59923
0.942199 3.01 4.66448
0.95 3.01 4.64271
0.95 3.01 4.68627
0.95 3.01 4.68627
0.926978 3.01 4.68627
0.942199 3.01 4.66448
0.942199 3.01 4.66448
0.926978 3.01 4.68627
0.915858 3.01 4.66448
0.95 3.01 4.59923
0.95 3.01 4.64271
0.942221 3.01 4.62097
0.942221 3.01 4.62097
0.926997 3.01 4.59923
0.95 3.01 4.59923
0.915876 3.01 4.62097
0.926997 3.01 4.59923
0.942221 3.01 4.62097
0.926989 3.01 4.64271
0.915858 3.01 4.66448
0.902396 3.01 4.64272
0.902396 3.01 4.64272
0.915876 3.01 4.62097
0.926989 3.01 4.64271
0.926989 3.01 4.64271
0.942199 3.01 4.66448
0.915858 3.01 4.66448
0.95 3.01 4.64271
0.942199 3.01 4.66448
0.926989 3.01 4.64271
0.915876 3.01 4.62097
0.942221 3.01 4.62097
0.926989 3.01 4.64271
0.926989 3.01 4.64271
0.942221 3.01 4.62097
0.95 3.01 4.64271
0.91353 3.01 5.10685
0.926054 3.01 5.08449
0.939636 3.01 5.10697
0.926728 3.01 5.03988
0.95 3.01 5.0401
0.941491 3.01 5.06256
0.926728 3.01 5.03988
0.941822 3.01 5.01754
0.95 3.01 5.0401
0.95 3.01 5.08527
0.95 3.01 5.12829
0.939636 3.01 5.10697
0.95 3.01 5.08527
0.926054 3.01 5.08449
0.941491 3.01 5.06256
0.939636 3.01 5.10697
0.926054 3.01 5.08449
0.95 3.01 5.08527
0.941491 3.01 5.06256
0.95 3.01 5.0401
0.95 3.01 5.08527
0.941869 3.01 4.97272
0.926844 3.01 4.9504
0.95 3.01 4.9504
0.762942 3.01 5.10729
0.75028 3.01 5.12989
0.737933 3.01 5.10734
0.71291 3.01 5.10739
0.725533 3.01 5.08485
0.737933 3.01 5.10734
0.71291 3.01 5.10739
0.737933 3.01 5.10734
0.725313 3.01 5.12992
0.725313 3.01 5.12992
0.737933 3.01 5.10734
0.75028 3.01 5.12989
0.737693 3.01 5.1525
0.712746 3.01 5.1525
[...]
<PointData Scalars="View Factor" >
<DataArray type="Float64" Name="View Factor" NumberOfComponents="1" format="ascii">
0.117759
0.117759
0.117759
0.362693
0.362693
0.362693
0.355162
0.355162
0.355162
0.360379
0.360379
0.360379
0.362901
0.362901
0.362901
0.360188
0.360188
0.360188
0.362449
0.362449
0.362449
0.359965
0.359965
0.359965
0.355519
0.355519
0.355519
0.134828
0.134828
0.134828
0.360202
0.360202
0.360202
0.354972
0.354972
0.354972
0.352469
0.352469
0.352469
0.354752
0.354752
0.354752
0.344373
0.344373
0.344373
0.352265
0.352265
0.352265
0.347074
0.347074
0.347074
0.359706
0.359706
0.359706
0.352647
0.352647
0.352647
0.34746
0.34746
0.34746
0.352816
0.352816
0.352816
0.355332
0.355332
0.355332
0.337143
0.337143
0.337143
0.345157
0.345157
0.345157
0.339998
0.339998
0.339998
0.347636
0.347636
0.347636
0.344965
0.344965
0.344965
0.33732
0.33732
0.33732
0.339808
0.339808
0.339808
0.363363
0.363363
0.363363
0.360713
0.360713
0.360713
0.127044
0.127044
0.127044
0.124568
0.124568
0.124568
0.120782
0.120782
0.120782
0.122048
0.122048
0.122048
0.181719
0.181719
0.181719
0.205764
0.205764
0.205764
0.20197
0.20197
0.20197
0.171367
0.171367
0.171367
0.272426
0.272426
0.272426
0.286344
0.286344
0.286344
0.220794
0.220794
0.220794
0.212727
0.212727
0.212727
0.219173
0.219173
0.219173
0.215133
0.215133
0.215133
0.20471
0.20471
0.20471
0.211016
0.211016
0.211016
0.207092
0.207092
0.207092
0.20558
0.20558
0.20558
0.20795
0.20795
0.20795
0.109838
0.109838
0.109838
0.144369
0.144369
0.144369
0.147035
0.147035
0.147035
0.150262
0.150262
0.150262
0.153286
0.153286
0.153286
0.156093
0.156093
0.156093
0.159491
0.159491
0.159491
0.116044
0.116044
0.116044
0.115651
0.115651
0.115651
0.117028
0.117028
0.117028
0.213018
0.213018
0.213018
0.211327
0.211327
0.211327
0.35736
0.35736
0.35736
0.362169
0.362169
0.362169
0.354497
0.354497
0.354497
0.34684
0.34684
0.34684
0.352029
0.352029
0.352029
0.327214
0.327214
0.327214
0.332322
0.332322
0.332322
0.337489
0.337489
0.337489
0.344785
0.344785
0.344785
0.339625
0.339625
0.339625
0.347278
0.347278
0.347278
0.344592
0.344592
0.344592
0.363075
0.363075
0.363075
0.360544
0.360544
0.360544
0.363221
0.363221
0.363221
0.129552
0.129552
0.129552
0.132159
0.132159
0.132159
0.133519
0.133519
0.133519
0.137589
0.137589
0.137589
0.136218
0.136218
0.136218
0.119105
0.119105
0.119105
0.201893
0.201893
0.201893
0.200019
0.200019
0.200019
0.200082
0.200082
0.200082
0.20394
0.20394
0.20394
0.161514
0.161514
0.161514
0.168017
0.168017
0.168017
0.164733
0.164733
0.164733
0.258843
0.258843
0.258843
0.268299
0.268299
0.268299
0.262139
0.262139
0.262139
0.263764
0.263764
0.263764
0.254816
0.254816
0.254816
0.257655
0.257655
0.257655
0.234666
0.234666
0.234666
0.233619
0.233619
0.233619
0.236273
0.236273
0.236273
0.224027
0.224027
0.224027
0.219025
0.219025
0.219025
0.206414
0.206414
0.206414
0.208774
0.208774
0.208774
0.151068
0.151068
0.151068
0.149143
0.149143
0.149143
0.146189
0.146189
0.146189
0.145145
0.145145
0.145145
0.154108
0.154108
0.154108
0.160344
0.160344
0.160344
0.155205
0.155205
0.155205
0.158315
0.158315
0.158315
0.159175
0.159175
0.159175
0.156049
0.156049
0.156049
0.206197
0.206197
0.206197
0.190681
0.190681
0.190681
0.19299
0.19299
0.19299
0.192036
0.192036
0.192036
0.189711
0.189711
0.189711
0.191049
0.191049
0.191049
0.19473
0.19473
0.19473
0.196039
0.196039
0.196039
0.19979
0.19979
0.19979
0.201192
0.201192
0.201192
0.2442
0.2442
0.2442
0.204297
0.204297
0.204297
0.196705
0.196705
0.196705
0.212486
0.212486
0.212486
0.229034
0.229034
0.229034
0.231679
0.231679
0.231679
0.208538
0.208538
0.208538
0.205014
0.205014
0.205014
0.207451
0.207451
0.207451
0.220455
0.220455
0.220455
0.224904
0.224904
0.224904
0.2234
0.2234
0.2234
0.213931
0.213931
0.213931
0.217929
0.217929
0.217929
0.211361
0.211361
0.211361
0.212815
0.212815
0.212815
0.219335
0.219335
0.219335
0.216794
0.216794
0.216794
0.117149
0.117149
0.117149
0.125324
0.125324
0.125324
0.127894
0.127894
0.127894
0.115469
0.115469
0.115469
0.120352
0.120352
0.120352
0.117981
0.117981
0.117981
0.12257
0.12257
0.12257
0.141498
0.141498
0.141498
0.11864
0.11864
0.11864
0.121554
0.121554
0.121554
0.119113
0.119113
0.119113
0.117678
0.117678
0.117678
0.114374
0.114374
0.114374
0.115312
0.115312
0.115312
0.113916
0.113916
0.113916
0.131689
0.131689
0.131689
0.126582
0.126582
0.126582
0.123029
0.123029
0.123029
0.125547
0.125547
0.125547
0.123932
0.123932
0.123932
0.126467
0.126467
0.126467
0.119816
0.119816
0.119816
0.117415
0.117415
0.117415
0.116419
0.116419
0.116419
0.222067
0.222067
0.222067
0.210719
0.210719
0.210719
0.200207
0.200207
0.200207
0.195876
0.195876
0.195876
0.199656
0.199656
0.199656
0.201848
0.201848
0.201848
0.207381
0.207381
0.207381
0.205715
0.205715
0.205715
0.196418
0.196418
0.196418
0.194279
0.194279
0.194279
0.174855
0.174855
0.174855
0.197166
0.197166
0.197166
0.199396
0.199396
0.199396
0.200875
0.200875
0.200875
0.193365
0.193365
0.193365
0.361104
0.361104
0.361104
0.361497
0.361497
0.361497
0.358705
0.358705
0.358705
0.353511
0.353511
0.353511
0.345983
0.345983
0.345983
0.231432
0.231432
0.231432
0.223109
0.223109
0.223109
0.229807
0.229807
0.229807
0.225638
0.225638
0.225638
0.226544
0.226544
0.226544
0.224907
0.224907
0.224907
0.350723
0.350723
0.350723
0.359692
0.359692
0.359692
0.351243
0.351243
0.351243
0.282369
0.282369
0.282369
0.284963
0.284963
0.284963
0.342728
0.342728
0.342728
0.358255
0.358255
0.358255
0.35304
0.35304
0.35304
0.347857
0.347857
0.347857
0.132191
0.132191
0.132191
0.118054
0.118054
0.118054
0.178201
0.178201
0.178201
0.174751
0.174751
0.174751
0.196232
0.196232
0.196232
0.320932
0.320932
0.320932
0.178064
0.178064
0.178064
0.174616
0.174616
0.174616
0.207671
0.207671
0.207671
0.205661
0.205661
0.205661
0.211717
0.211717
0.211717
0.207761
0.207761
0.207761
0.207827
0.207827
0.207827
0.205842
0.205842
0.205842
0.215811
0.215811
0.215811
0.211784
0.211784
0.211784
0.213755
0.213755
0.213755
0.217795
0.217795
0.217795
0.219865
0.219865
0.219865
0.208173
0.208173
0.208173
0.209616
0.209616
0.209616
0.256132
0.256132
0.256132
0.230444
0.230444
0.230444
0.228847
0.228847
0.228847
0.224693
0.224693
0.224693
0.235196
0.235196
0.235196
0.23253
0.23253
0.23253
0.246975
0.246975
0.246975
0.271228
0.271228
0.271228
0.264178
0.264178
0.264178
0.219928
0.219928
0.219928
0.211889
0.211889
0.211889
0.213443
0.213443
0.213443
0.217455
0.217455
0.217455
0.218332
0.218332
0.218332
0.214306
0.214306
0.214306
0.202549
0.202549
0.202549
0.201031
0.201031
0.201031
0.207213
0.207213
0.207213
0.203335
0.203335
0.203335
0.192743
0.192743
0.192743
0.19055
0.19055
0.19055
0.203223
0.203223
0.203223
0.186103
0.186103
0.186103
0.161182
0.161182
0.161182
0.16522
0.16522
0.16522
0.164395
0.164395
0.164395
0.166439
0.166439
0.166439
0.122059
0.122059
0.122059
0.121073
0.121073
0.121073
0.122552
0.122552
0.122552
0.125062
0.125062
0.125062
0.136699
0.136699
0.136699
0.127014
0.127014
0.127014
0.124472
0.124472
0.124472
0.138753
0.138753
0.138753
0.136619
0.136619
0.136619
0.139818
0.139818
0.139818
0.222152
0.222152
0.222152
0.203805
0.203805
0.203805
0.205265
0.205265
0.205265
0.202862
0.202862
0.202862
0.199058
0.199058
0.199058
0.18797
0.18797
0.18797
0.191612
0.191612
0.191612
0.202251
0.202251
0.202251
0.20715
0.20715
0.20715
0.206092
0.206092
0.206092
0.208558
0.208558
0.208558
0.193707
0.193707
0.193707
0.19709
0.19709
0.19709
0.2205
0.2205
0.2205
0.228342
0.228342
0.228342
0.225717
0.225717
0.225717
0.237137
0.237137
0.237137
0.234074
0.234074
0.234074
0.239885
0.239885
0.239885
0.238326
0.238326
0.238326
0.245747
0.245747
0.245747
0.250121
0.250121
0.250121
0.2517
0.2517
0.2517
0.116591
0.116591
0.116591
0.119531
0.119531
0.119531
0.113428
0.113428
0.113428
0.114834
0.114834
0.114834
0.111213
0.111213
0.111213
0.118675
0.118675
0.118675
0.126051
0.126051
0.126051
0.121082
0.121082
0.121082
0.121928
0.121928
0.121928
0.124402
0.124402
0.124402
0.132248
0.132248
0.132248
0.135989
0.135989
0.135989
0.134941
0.134941
0.134941
0.134303
0.134303
0.134303
0.142261
0.142261
0.142261
0.140436
0.140436
0.140436
0.129538
0.129538
0.129538
0.128617
0.128617
0.128617
0.122465
0.122465
0.122465
0.122018
0.122018
0.122018
0.123489
0.123489
0.123489
0.114816
0.114816
0.114816
0.115766
0.115766
0.115766
0.118138
0.118138
0.118138
0.119569
0.119569
0.119569
0.113345
0.113345
0.113345
0.117128
0.117128
0.117128
0.115681
0.115681
0.115681
0.112449
0.112449
0.112449
0.117202
0.117202
0.117202
0.114843
0.114843
0.114843
0.129171
0.129171
0.129171
0.130734
0.130734
0.130734
0.151071
0.151071
0.151071
0.152309
0.152309
0.152309
0.142316
0.142316
0.142316
0.133404
0.133404
0.133404
0.1345
0.1345
0.1345
0.134377
0.134377
0.134377
0.141174
0.141174
0.141174
0.13836
0.13836
0.13836
0.137241
0.137241
0.137241
0.138897
0.138897
0.138897
0.127064
0.127064
0.127064
0.130135
0.130135
0.130135
0.127528
0.127528
0.127528
0.126016
0.126016
0.126016
0.131221
0.131221
0.131221
0.129662
0.129662
0.129662
0.122896
0.122896
0.122896
0.120432
0.120432
0.120432
0.119422
0.119422
0.119422
0.120838
0.120838
0.120838
0.127975
0.127975
0.127975
0.13059
0.13059
0.13059
0.132139
0.132139
0.132139
0.159305
0.159305
0.159305
0.162499
0.162499
0.162499
0.235359
0.235359
0.235359
0.218604
0.218604
0.218604
0.237648
0.237648
0.237648
0.235618
0.235618
0.235618
0.21644
0.21644
0.21644
0.220239
0.220239
0.220239
0.222517
0.222517
0.222517
0.202557
0.202557
0.202557
0.204283
0.204283
0.204283
0.207749
0.207749
0.207749
0.198731
0.198731
0.198731
0.197034
0.197034
0.197034
0.19329
0.19329
0.19329
0.191248
0.191248
0.191248
0.21239
0.21239
0.21239
0.206783
0.206783
0.206783
0.205136
0.205136
0.205136
0.201278
0.201278
0.201278
0.199077
0.199077
0.199077
0.185969
0.185969
0.185969
0.187591
0.187591
0.187591
0.194803
0.194803
0.194803
0.190578
0.190578
0.190578
0.202139
0.202139
0.202139
0.203849
0.203849
0.203849
0.184765
0.184765
0.184765
0.186342
0.186342
0.186342
0.194083
0.194083
0.194083
0.197833
0.197833
0.197833
0.189693
0.189693
0.189693
0.162975
0.162975
0.162975
0.361852
0.361852
0.361852
0.359076
0.359076
0.359076
0.359409
0.359409
0.359409
0.291522
0.291522
0.291522
0.30056
0.30056
0.30056
0.296266
0.296266
0.296266
0.348184
0.348184
0.348184
0.344099
0.344099
0.344099
0.347922
0.347922
0.347922
0.23238
0.23238
0.23238
0.230728
0.230728
0.230728
0.233289
0.233289
0.233289
0.237557
0.237557
0.237557
0.227412
0.227412
0.227412
0.23161
0.23161
0.23161
0.358295
0.358295
0.358295
0.353107
0.353107
0.353107
0.360672
0.360672
0.360672
0.357847
0.357847
0.357847
0.352184
0.352184
0.352184
0.349346
0.349346
0.349346
0.344189
0.344189
0.344189
0.343659
0.343659
0.343659
0.341358
0.341358
0.341358
0.333923
0.333923
0.333923
0.336227
0.336227
0.336227
0.357918
0.357918
0.357918
0.349206
0.349206
0.349206
0.277597
0.277597
0.277597
0.268183
0.268183
0.268183
0.345507
0.345507
0.345507
0.351105
0.351105
0.351105
0.345927
0.345927
0.345927
0.353877
0.353877
0.353877
0.149966
0.149966
0.149966
0.143712
0.143712
0.143712
0.135803
0.135803
0.135803
0.135939
0.135939
0.135939
0.137247
0.137247
0.137247
0.144378
0.144378
0.144378
0.140033
0.140033
0.140033
0.141512
0.141512
0.141512
0.137101
0.137101
0.137101
0.133503
0.133503
0.133503
0.140395
0.140395
0.140395
0.143254
0.143254
0.143254
0.119394
0.119394
0.119394
0.125726
0.125726
0.125726
0.123211
0.123211
0.123211
0.121831
0.121831
0.121831
0.13091
0.13091
0.13091
0.126266
0.126266
0.126266
0.123741
0.123741
0.123741
0.179853
0.179853
0.179853
0.178144
0.178144
0.178144
0.179923
0.179923
0.179923
0.169656
0.169656
0.169656
0.173023
0.173023
0.173023
0.167963
0.167963
0.167963
0.16959
0.16959
0.16959
0.174695
0.174695
0.174695
0.172956
0.172956
0.172956
0.194321
0.194321
0.194321
0.190523
0.190523
0.190523
0.192576
0.192576
0.192576
0.196295
0.196295
0.196295
0.194396
0.194396
0.194396
0.322069
0.322069
0.322069
0.284354
0.284354
0.284354
0.294074
0.294074
0.294074
0.268875
0.268875
0.268875
0.264228
0.264228
0.264228
0.26818
0.26818
0.26818
0.254387
0.254387
0.254387
0.249871
0.249871
0.249871
0.282396
0.282396
0.282396
0.287121
0.287121
0.287121
0.291988
0.291988
0.291988
0.287204
0.287204
0.287204
0.284751
0.284751
0.284751
0.286855
0.286855
0.286855
0.291717
0.291717
0.291717
0.299307
0.299307
0.299307
0.294382
0.294382
0.294382
0.291869
0.291869
0.291869
0.294244
0.294244
0.294244
0.315877
0.315877
0.315877
0.167888
0.167888
0.167888
0.164607
0.164607
0.164607
0.199931
0.199931
0.199931
0.201792
0.201792
0.201792
0.196146
0.196146
0.196146
0.194223
0.194223
0.194223
0.207556
0.207556
0.207556
0.241047
0.241047
0.241047
0.24319
0.24319
0.24319
0.245425
0.245425
0.245425
0.24535
0.24535
0.24535
0.243101
0.243101
0.243101
0.219796
0.219796
0.219796
0.223919
0.223919
0.223919
0.238479
0.238479
0.238479
0.211625
0.211625
0.211625
0.219702
0.219702
0.219702
0.213674
0.213674
0.213674
0.217713
0.217713
0.217713
0.271587
0.271587
0.271587
0.266963
0.266963
0.266963
0.240561
0.240561
0.240561
0.252969
0.252969
0.252969
0.251369
0.251369
0.251369
0.241054
0.241054
0.241054
0.245387
0.245387
0.245387
0.239467
0.239467
0.239467
0.242178
0.242178
0.242178
0.243258
0.243258
0.243258
0.247627
0.247627
0.247627
0.265122
0.265122
0.265122
0.269678
0.269678
0.269678
0.200235
0.200235
0.200235
0.201729
0.201729
0.201729
0.199405
0.199405
0.199405
0.195643
0.195643
0.195643
0.194191
0.194191
0.194191
0.196458
0.196458
0.196458
0.201793
0.201793
0.201793
0.197991
0.197991
0.197991
0.198709
0.198709
0.198709
0.19647
0.19647
0.19647
0.209563
0.209563
0.209563
0.215924
0.215924
0.215924
0.213529
0.213529
0.213529
0.193428
0.193428
0.193428
0.191244
0.191244
0.191244
0.191908
0.191908
0.191908
0.16822
0.16822
0.16822
0.164936
0.164936
0.164936
0.180849
0.180849
0.180849
0.18385
0.18385
0.18385
0.187055
0.187055
0.187055
0.184802
0.184802
0.184802
0.185722
0.185722
0.185722
0.18217
0.18217
0.18217
0.16887
0.16887
0.16887
0.163542
0.163542
0.163542
0.165585
0.165585
0.165585
0.154915
0.154915
0.154915
0.146987
0.146987
0.146987
0.149956
0.149956
0.149956
0.151861
0.151861
0.151861
0.150734
0.150734
0.150734
0.142655
0.142655
0.142655
0.124038
0.124038
0.124038
0.12102
0.12102
0.12102
0.123497
0.123497
0.123497
0.125029
0.125029
0.125029
0.125566
0.125566
0.125566
0.126083
0.126083
0.126083
0.124559
0.124559
0.124559
0.128133
0.128133
0.128133
0.122936
0.122936
0.122936
0.118979
0.118979
0.118979
0.120472
0.120472
0.120472
0.123891
0.123891
0.123891
0.131219
0.131219
0.131219
0.128596
0.128596
0.128596
0.127585
0.127585
0.127585
0.129161
0.129161
0.129161
0.141207
0.141207
0.141207
0.138395
0.138395
0.138395
0.13808
0.13808
0.13808
0.135329
0.135329
0.135329
0.137377
0.137377
0.137377
0.139123
0.139123
0.139123
0.218084
0.218084
0.218084
0.210106
0.210106
0.210106
0.212544
0.212544
0.212544
0.216541
0.216541
0.216541
0.209158
0.209158
0.209158
0.217104
0.217104
0.217104
0.211607
0.211607
0.211607
0.215588
0.215588
0.215588
0.210632
0.210632
0.210632
0.214596
0.214596
0.214596
0.227846
0.227846
0.227846
0.223708
0.223708
0.223708
0.221156
0.221156
0.221156
0.229414
0.229414
0.229414
0.226803
0.226803
0.226803
0.222682
0.222682
0.222682
0.193909
0.193909
0.193909
0.19854
0.19854
0.19854
0.194793
0.194793
0.194793
0.192506
0.192506
0.192506
0.199985
0.199985
0.199985
0.197641
0.197641
0.197641
0.195734
0.195734
0.195734
0.198094
0.198094
0.198094
0.197089
0.197089
0.197089
0.200859
0.200859
0.200859
0.201881
0.201881
0.201881
0.203291
0.203291
0.203291
0.188698
0.188698
0.188698
0.190045
0.190045
0.190045
0.186119
0.186119
0.186119
0.18288
0.18288
0.18288
0.185107
0.185107
0.185107
0.216084
0.216084
0.216084
0.220119
0.220119
0.220119
0.215026
0.215026
0.215026
0.213563
0.213563
0.213563
0.219042
0.219042
0.219042
0.221614
0.221614
0.221614
0.230228
0.230228
0.230228
0.232903
0.232903
0.232903
0.226078
0.226078
0.226078
0.224584
0.224584
0.224584
0.227229
0.227229
0.227229
0.231399
0.231399
0.231399
0.250405
0.250405
0.250405
0.248815
0.248815
0.248815
0.232826
0.232826
0.232826
0.245631
0.245631
0.245631
0.110348
0.110348
0.110348
0.119902
0.119902
0.119902
0.122349
0.122349
0.122349
0.125127
0.125127
0.125127
0.122633
0.122633
0.122633
0.125792
0.125792
0.125792
0.12674
0.12674
0.12674
0.12328
0.12328
0.12328
0.121733
0.121733
0.121733
0.130616
0.130616
0.130616
0.127389
0.127389
0.127389
0.129984
0.129984
0.129984
0.131624
0.131624
0.131624
0.126418
0.126418
0.126418
0.128006
0.128006
0.128006
0.130274
0.130274
0.130274
0.132927
0.132927
0.132927
0.12932
0.12932
0.12932
0.130968
0.130968
0.130968
0.134639
0.134639
0.134639
0.133633
0.133633
0.133633
0.137635
0.137635
0.137635
0.132185
0.132185
0.132185
0.136647
0.136647
0.136647
0.133918
0.133918
0.133918
0.116203
0.116203
0.116203
0.116624
0.116624
0.116624
0.115242
0.115242
0.115242
0.11901
0.11901
0.11901
0.120009
0.120009
0.120009
0.118583
0.118583
0.118583
0.113441
0.113441
0.113441
0.118152
0.118152
0.118152
0.120576
0.120576
0.120576
0.120062
0.120062
0.120062
0.121548
0.121548
0.121548
0.113859
0.113859
0.113859
0.11671
0.11671
0.11671
0.112952
0.112952
0.112952
0.114358
0.114358
0.114358
0.116203
0.116203
0.116203
0.117648
0.117648
0.117648
0.132888
0.132888
0.132888
0.132353
0.132353
0.132353
0.133969
0.133969
0.133969
0.129705
0.129705
0.129705
0.130229
0.130229
0.130229
0.128661
0.128661
0.128661
0.150513
0.150513
0.150513
0.14288
0.14288
0.14288
0.141722
0.141722
0.141722
0.145778
0.145778
0.145778
0.14753
0.14753
0.14753
0.15541
0.15541
0.15541
0.158531
0.158531
0.158531
0.159779
0.159779
0.159779
0.139396
0.139396
0.139396
0.140483
0.140483
0.140483
0.140605
0.140605
0.140605
0.137803
0.137803
0.137803
0.144923
0.144923
0.144923
0.143239
0.143239
0.143239
0.139909
0.139909
0.139909
0.1339
0.1339
0.1339
0.135502
0.135502
0.135502
0.135011
0.135011
0.135011
0.138264
0.138264
0.138264
0.137762
0.137762
0.137762
0.139413
0.139413
0.139413
0.140842
0.140842
0.140842
0.144149
0.144149
0.144149
0.143704
0.143704
0.143704
0.145382
0.145382
0.145382
0.135276
0.135276
0.135276
0.139207
0.139207
0.139207
0.140385
0.140385
0.140385
0.138745
0.138745
0.138745
0.135975
0.135975
0.135975
0.134836
0.134836
0.134836
0.136428
0.136428
0.136428
0.121227
0.121227
0.121227
0.121226
0.121226
0.121226
0.1188
0.1188
0.1188
0.117449
0.117449
0.117449
0.230807
0.230807
0.230807
0.222711
0.222711
0.222711
0.22465
0.22465
0.22465
0.228837
0.228837
0.228837
0.231089
0.231089
0.231089
0.21907
0.21907
0.21907
0.211011
0.211011
0.211011
0.213104
0.213104
0.213104
0.217135
0.217135
0.217135
0.231345
0.231345
0.231345
0.22296
0.22296
0.22296
0.229104
0.229104
0.229104
0.224913
0.224913
0.224913
0.242251
0.242251
0.242251
0.237896
0.237896
0.237896
0.238117
0.238117
0.238117
0.235851
0.235851
0.235851
0.223184
0.223184
0.223184
0.225151
0.225151
0.225151
0.229345
0.229345
0.229345
0.231574
0.231574
0.231574
0.226674
0.226674
0.226674
0.209692
0.209692
0.209692
0.215851
0.215851
0.215851
0.211838
0.211838
0.211838
0.205764
0.205764
0.205764
0.203659
0.203659
0.203659
0.204691
0.204691
0.204691
0.197405
0.197405
0.197405
0.199117
0.199117
0.199117
0.199479
0.199479
0.199479
0.202949
0.202949
0.202949
0.208189
0.208189
0.208189
0.209944
0.209944
0.209944
0.216167
0.216167
0.216167
0.21393
0.21393
0.21393
0.213615
0.213615
0.213615
0.207281
0.207281
0.207281
0.209487
0.209487
0.209487
0.209003
0.209003
0.209003
0.1929
0.1929
0.1929
0.196218
0.196218
0.196218
0.196639
0.196639
0.196639
0.19832
0.19832
0.19832
0.186323
0.186323
0.186323
0.187959
0.187959
0.187959
0.193655
0.193655
0.193655
0.191623
0.191623
0.191623
0.210081
0.210081
0.210081
0.205497
0.205497
0.205497
0.209412
0.209412
0.209412
0.211731
0.211731
0.211731
0.145821
0.145821
0.145821
0.148775
0.148775
0.148775
0.15049
0.15049
0.15049
0.157962
0.157962
0.157962
0.154845
0.154845
0.154845
0.153529
0.153529
0.153529
0.164358
0.164358
0.164358
0.168112
0.168112
0.168112
0.173383
0.173383
0.173383
0.170008
0.170008
0.170008
0.145058
0.145058
0.145058
0.182021
0.182021
0.182021
0.185591
0.185591
0.185591
0.191583
0.191583
0.191583
0.192047
0.192047
0.192047
0.189979