<VTKFile type="UnstructuredGrid" version="1.0">
<UnstructuredGrid>
<Piece NumberOfPoints="8859" NumberOfCells="2953">
<Points>
<DataArray type="Float64" NumberOfComponents="3" format="ascii">
2.75455 1.50245 9.27262
2.76986 1.48714 9.28458
2.75465 1.50235 9.29833
2.78515 1.47185 9.22167
2.78516 1.47184 9.19652
2.8005 1.4565 9.20898
2.76981 1.48719 9.23436
2.78515 1.47185 9.22167
2.78514 1.47186 9.24686
2.72412 1.53288 9.32488
2.73952 1.51748 9.3325
2.70875 1.54825 9.3325
2.72412 1.53288 9.32488
2.73943 1.51757 9.30957
2.73952 1.51748 9.3325
2.75488 1.50212 9.32479
2.77036 1.48664 9.3325
2.73952 1.51748 9.3325
2.75488 1.50212 9.32479
2.73943 1.51757 9.30957
2.75465 1.50235 9.29833
2.73952 1.51748 9.3325
2.73943 1.51757 9.30957
2.75488 1.50212 9.32479
2.75465 1.50235 9.29833
2.76986 1.48714 9.28458
2.76997 1.48703 9.30927
2.76997 1.48703 9.30927
2.75488 1.50212 9.32479
2.75465 1.50235 9.29833
2.77036 1.48664 9.3325
2.75488 1.50212 9.32479
2.76997 1.48703 9.30927
2.76986 1.48714 9.28458
2.75455 1.50245 9.27262
2.76982 1.48718 9.25952
2.76981 1.48719 9.23436
2.78514 1.47186 9.24686
2.76982 1.48718 9.25952
2.7852 1.4718 9.29762
2.76997 1.48703 9.30927
2.76986 1.48714 9.28458
2.8005 1.4565 9.28395
2.8005 1.4565 9.30855
2.7852 1.4718 9.29762
2.8005 1.4565 9.18387
2.8005 1.4565 9.20898
2.78516 1.47184 9.19652
2.78515 1.47185 9.22167
2.8005 1.4565 9.20898
2.8005 1.4565 9.23406
2.8005 1.4565 9.23406
2.78514 1.47186 9.24686
2.78515 1.47185 9.22167
2.8005 1.4565 8.65652
2.8005 1.4565 8.68165
2.78518 1.47182 8.66907
2.78517 1.47183 9.12107
2.8005 1.4565 9.13361
2.78517 1.47183 9.14621
2.8005 1.4565 9.10848
2.8005 1.4565 9.13361
2.78517 1.47183 9.12107
2.78519 1.47181 8.99544
2.8005 1.4565 9.00799
2.78519 1.47181 9.02055
2.32274 1.93426 8.44059
2.33845 1.91855 8.4325
2.33845 1.91855 8.45563
2.27541 1.98159 9.3325
2.24359 2.01341 9.3325
2.25954 1.99746 9.32432
2.78515 1.47185 9.27212
2.76982 1.48718 9.25952
2.78514 1.47186 9.24686
2.76986 1.48714 9.28458
2.76982 1.48718 9.25952
2.78515 1.47185 9.27212
2.78515 1.47185 9.27212
2.7852 1.4718 9.29762
2.76986 1.48714 9.28458
2.8005 1.4565 9.28395
2.7852 1.4718 9.29762
2.78515 1.47185 9.27212
2.78544 1.47156 9.32384
2.8005 1.4565 9.30855
2.8005 1.4565 9.3325
2.78544 1.47156 9.32384
2.7852 1.4718 9.29762
2.8005 1.4565 9.30855
2.8005 1.4565 9.3325
2.77036 1.48664 9.3325
2.78544 1.47156 9.32384
2.77036 1.48664 9.3325
2.76997 1.48703 9.30927
2.78544 1.47156 9.32384
2.76997 1.48703 9.30927
2.7852 1.4718 9.29762
2.78544 1.47156 9.32384
2.78517 1.47183 9.14621
2.8005 1.4565 9.13361
2.8005 1.4565 9.15874
2.78514 1.47186 9.24686
2.8005 1.4565 9.23406
2.8005 1.4565 9.25907
2.8005 1.4565 9.28395
2.78515 1.47185 9.27212
2.8005 1.4565 9.25907
2.8005 1.4565 9.25907
2.78515 1.47185 9.27212
2.78514 1.47186 9.24686
2.8005 1.4565 8.98289
2.8005 1.4565 9.00799
2.78519 1.47181 8.99544
2.78518 1.47182 8.66907
2.8005 1.4565 8.68165
2.78518 1.47182 8.6942
2.76985 1.48715 9.10853
2.75454 1.50246 9.09598
2.76986 1.48714 9.08338
2.78516 1.47184 9.17136
2.8005 1.4565 9.18387
2.78516 1.47184 9.19652
2.78516 1.47184 9.17136
2.8005 1.4565 9.15874
2.8005 1.4565 9.18387
2.78516 1.47184 9.17136
2.76984 1.48716 9.15884
2.78517 1.47183 9.14621
2.78517 1.47183 9.14621
2.8005 1.4565 9.15874
2.78516 1.47184 9.17136
2.76982 1.48718 9.20918
2.78515 1.47185 9.22167
2.76981 1.48719 9.23436
2.76982 1.48718 9.20918
2.78516 1.47184 9.19652
2.78515 1.47185 9.22167
2.75451 1.50249 9.17149
2.7392 1.5178 9.18415
2.73921 1.51779 9.15894
2.53996 1.71704 9.29838
2.52458 1.73242 9.2849
2.53996 1.71704 9.27275
2.49374 1.76326 9.1338
2.49375 1.76325 9.159
2.47832 1.77868 9.14639
2.8005 1.4565 8.4325
2.8005 1.4565 8.45645
2.78544 1.47156 8.44116
2.27543 1.98157 9.30933
2.27541 1.98159 9.3325
2.25954 1.99746 9.32432
2.33845 1.91855 9.23446
2.32276 1.93424 9.24714
2.32275 1.93425 9.22185
2.25954 1.99746 9.32432
2.24359 2.01341 9.3325
2.24374 2.01326 9.30923
2.76987 1.48713 8.757
2.75455 1.50245 8.74443
2.76987 1.48713 8.73188
2.8005 1.4565 8.90759
2.78519 1.47181 8.89505
2.8005 1.4565 8.8825
2.78519 1.47181 8.94524
2.8005 1.4565 8.93269
2.8005 1.4565 8.95778
2.76988 1.48712 8.85741
2.75456 1.50244 8.86995
2.75456 1.50244 8.84486
2.76988 1.48712 8.8825
2.75456 1.50244 8.86995
2.76988 1.48712 8.85741
2.78519 1.47181 8.89505
2.76988 1.48712 8.90759
2.76988 1.48712 8.8825
2.75455 1.50245 9.02057
2.76987 1.48713 9.03312
2.75455 1.50245 9.0457
2.72393 1.53307 8.99547
2.72392 1.53308 9.02059
2.70861 1.54839 9.00803
2.75456 1.50244 8.99545
2.73924 1.51776 8.9829
2.75456 1.50244 8.97035
2.75456 1.50244 8.97035
2.76987 1.48713 8.98289
2.75456 1.50244 8.99545
2.73924 1.51776 8.9829
2.73925 1.51775 8.9578
2.75456 1.50244 8.97035
2.75456 1.50244 8.97035
2.73925 1.51775 8.9578
2.75456 1.50244 8.94524
2.8005 1.4565 8.95778
2.8005 1.4565 8.98289
2.78519 1.47181 8.97034
2.78519 1.47181 8.97034
2.78519 1.47181 8.94524
2.8005 1.4565 8.95778
2.78519 1.47181 8.97034
2.8005 1.4565 8.98289
2.78519 1.47181 8.99544
2.78519 1.47181 8.99544
2.76987 1.48713 8.98289
2.78519 1.47181 8.97034
2.75454 1.50246 9.07083
2.73923 1.51777 9.05828
2.75455 1.50245 9.0457
2.75454 1.50246 9.07083
2.76986 1.48714 9.08338
2.75454 1.50246 9.09598
2.7086 1.5484 9.0583
2.72392 1.53308 9.04572
2.72392 1.53308 9.07086
2.72392 1.53308 9.07086
2.72392 1.53308 9.04572
2.73923 1.51777 9.05828
2.8005 1.4565 9.0331
2.78519 1.47181 9.02055
2.8005 1.4565 9.00799
2.75455 1.50245 9.0457
2.76987 1.48713 9.03312
2.76986 1.48714 9.05825
2.76986 1.48714 9.05825
2.75454 1.50246 9.07083
2.75455 1.50245 9.0457
2.76986 1.48714 9.08338
2.75454 1.50246 9.07083
2.76986 1.48714 9.05825
2.78517 1.47183 9.14621
2.76984 1.48716 9.15884
2.76985 1.48715 9.13368
2.76985 1.48715 9.13368
2.78517 1.47183 9.12107
2.78517 1.47183 9.14621
2.76985 1.48715 9.10853
2.78517 1.47183 9.12107
2.76985 1.48715 9.13368
2.73921 1.51779 9.15894
2.73921 1.51779 9.13375
2.75452 1.50248 9.1463
2.75452 1.50248 9.1463
2.75451 1.50249 9.17149
2.73921 1.51779 9.15894
2.76984 1.48716 9.15884
2.75451 1.50249 9.17149
2.75452 1.50248 9.1463
2.75452 1.50248 9.1463
2.76985 1.48715 9.13368
2.76984 1.48716 9.15884
2.7239 1.5331 9.14638
2.73921 1.51779 9.13375
2.73921 1.51779 9.15894
2.7239 1.5331 9.14638
2.70859 1.54841 9.15901
2.70859 1.54841 9.13381
2.76981 1.48719 9.23436
2.76982 1.48718 9.25952
2.75451 1.50249 9.24722
2.75451 1.50249 9.24722
2.76982 1.48718 9.25952
2.75455 1.50245 9.27262
2.7392 1.5178 9.18415
2.75451 1.50249 9.17149
2.75451 1.50249 9.19669
2.75451 1.50249 9.19669
2.7392 1.5178 9.20937
2.7392 1.5178 9.18415
2.67798 1.57902 9.03317
2.66266 1.59434 9.04575
2.66266 1.59434 9.02061
2.70859 1.54841 9.13381
2.70859 1.54841 9.10862
2.7239 1.5331 9.12119
2.7239 1.5331 9.12119
2.7239 1.5331 9.14638
2.70859 1.54841 9.13381
2.73921 1.51779 9.13375
2.7239 1.5331 9.14638
2.7239 1.5331 9.12119
2.73922 1.51778 9.10858
2.73921 1.51779 9.13375
2.7239 1.5331 9.12119
2.57068 1.68632 9.27276
2.57068 1.68632 9.29839
2.55533 1.70167 9.28491
2.55533 1.70167 9.28491
2.57068 1.68632 9.29839
2.55533 1.70167 9.3095
2.55533 1.70167 9.28491
2.55533 1.70167 9.3095
2.53996 1.71704 9.29838
2.53996 1.71704 9.29838
2.53996 1.71704 9.27275
2.55533 1.70167 9.28491
2.52458 1.73242 9.25984
2.53996 1.71704 9.27275
2.52458 1.73242 9.2849
2.50912 1.74788 8.89505
2.50912 1.74788 8.92015
2.49371 1.76329 8.9076
2.41633 1.84067 9.02056
2.40077 1.85623 9.008
2.41632 1.84068 8.99545
2.41635 1.84065 9.07083
2.40081 1.85619 9.08339
2.40079 1.85621 9.05825
2.33845 1.91855 9.23446
2.32275 1.93425 9.22185
2.33843 1.91857 9.20924
2.33845 1.91855 9.25966
2.32276 1.93424 9.24714
2.33845 1.91855 9.23446
2.40087 1.85613 9.18412
2.40088 1.85612 9.20934
2.38531 1.87169 9.19672
2.30693 1.95007 9.13358
2.32265 1.93435 9.12103
2.32267 1.93433 9.1462
2.30684 1.95016 9.03303
2.29108 1.96592 9.04556
2.29106 1.96594 9.02046
2.32274 1.93426 9.32441
2.33845 1.91855 9.3325
2.30701 1.94999 9.3325
2.33845 1.91855 9.30937
2.33845 1.91855 9.3325
2.32274 1.93426 9.32441
2.35411 1.90289 9.32447
2.33845 1.91855 9.3325
2.33845 1.91855 9.30937
2.30704 1.94996 9.25961
2.30703 1.94997 9.28469
2.29128 1.96572 9.27246
2.55533 1.70167 9.3325
2.52458 1.73242 9.3325
2.53996 1.71704 9.32472
2.53996 1.71704 9.29838
2.55533 1.70167 9.3095
2.53996 1.71704 9.32472
2.53996 1.71704 9.32472
2.55533 1.70167 9.3095
2.55533 1.70167 9.3325
2.52458 1.73242 9.30949
2.52458 1.73242 9.2849
2.53996 1.71704 9.29838
2.53996 1.71704 9.29838
2.53996 1.71704 9.32472
2.52458 1.73242 9.30949
2.52458 1.73242 9.30949
2.53996 1.71704 9.32472
2.52458 1.73242 9.3325
2.41642 1.84058 9.19676
2.40088 1.85612 9.20934
2.40087 1.85613 9.18412
2.47831 1.77869 9.1212
2.49374 1.76326 9.10862
2.49374 1.76326 9.1338
2.49374 1.76326 9.1338
2.47832 1.77868 9.14639
2.47831 1.77869 9.1212
2.47833 1.77867 9.1716
2.47832 1.77868 9.14639
2.49375 1.76325 9.159
2.47833 1.77867 9.1716
2.49375 1.76325 9.159
2.49376 1.76324 9.18421
2.49376 1.76324 9.18421
2.47834 1.77866 9.19682
2.47833 1.77867 9.1716
2.47833 1.77867 9.1716
2.47834 1.77866 9.19682
2.46289 1.79411 9.18419
2.49377 1.76323 9.20943
2.47834 1.77866 9.19682
2.49376 1.76324 9.18421
2.49377 1.76323 9.23464
2.47835 1.77865 9.24734
2.47834 1.77866 9.22206
2.47834 1.77866 9.22206
2.49377 1.76323 9.20943
2.49377 1.76323 9.23464
2.47834 1.77866 9.19682
2.49377 1.76323 9.20943
2.47834 1.77866 9.22206
2.7852 1.4718 8.46738
2.78544 1.47156 8.44116
2.8005 1.4565 8.45645
2.76997 1.48703 8.45573
2.78544 1.47156 8.44116
2.7852 1.4718 8.46738
2.64739 1.60961 8.45548
2.64738 1.60962 8.4325
2.66272 1.59428 8.44021
2.70875 1.54825 8.4325
2.6934 1.5636 8.44017
2.67805 1.57895 8.4325
2.67805 1.57895 8.4325
2.66272 1.59428 8.44021
2.64738 1.60962 8.4325
2.19638 2.06062 8.46897
2.1963 2.0607 8.44286
2.2122 2.0448 8.45645
2.2122 2.0448 8.45645
2.22771 2.02929 8.44101
2.22802 2.02898 8.46745
2.18073 2.07627 8.45782
2.1963 2.0607 8.44286
2.19638 2.06062 8.46897
2.18073 2.07627 8.45782
2.18123 2.07577 8.4325
2.1963 2.0607 8.44286
2.27543 1.98157 8.45567
2.27541 1.98159 8.4325
2.29123 1.96577 8.44063
2.30701 1.94999 8.4325
[...]
<PointData Scalars="View Factor" >
<DataArray type="Float64" Name="View Factor" NumberOfComponents="1" format="ascii">
1.67161e-05
1.67161e-05
1.67161e-05
1.76148e-05
1.76148e-05
1.76148e-05
1.73112e-05
1.73112e-05
1.73112e-05
1.58301e-05
1.58301e-05
1.58301e-05
1.60687e-05
1.60687e-05
1.60687e-05
1.64738e-05
1.64738e-05
1.64738e-05
1.64223e-05
1.64223e-05
1.64223e-05
1.62834e-05
1.62834e-05
1.62834e-05
1.67846e-05
1.67846e-05
1.67846e-05
1.66363e-05
1.66363e-05
1.66363e-05
1.67098e-05
1.67098e-05
1.67098e-05
1.68636e-05
1.68636e-05
1.68636e-05
1.71624e-05
1.71624e-05
1.71624e-05
1.69995e-05
1.69995e-05
1.69995e-05
1.743e-05
1.743e-05
1.743e-05
1.77671e-05
1.77671e-05
1.77671e-05
1.76818e-05
1.76818e-05
1.76818e-05
1.75293e-05
1.75293e-05
1.75293e-05
1.96831e-05
1.96831e-05
1.96831e-05
1.78719e-05
1.78719e-05
1.78719e-05
1.80265e-05
1.80265e-05
1.80265e-05
1.83097e-05
1.83097e-05
1.83097e-05
1.15782e-05
1.15782e-05
1.15782e-05
9.92247e-06
9.92247e-06
9.92247e-06
1.72295e-05
1.72295e-05
1.72295e-05
1.70797e-05
1.70797e-05
1.70797e-05
1.71464e-05
1.71464e-05
1.71464e-05
1.73625e-05
1.73625e-05
1.73625e-05
1.7349e-05
1.7349e-05
1.7349e-05
1.72812e-05
1.72812e-05
1.72812e-05
1.71104e-05
1.71104e-05
1.71104e-05
1.69239e-05
1.69239e-05
1.69239e-05
1.70668e-05
1.70668e-05
1.70668e-05
1.79395e-05
1.79395e-05
1.79395e-05
1.7597e-05
1.7597e-05
1.7597e-05
1.7513e-05
1.7513e-05
1.7513e-05
1.74467e-05
1.74467e-05
1.74467e-05
1.84689e-05
1.84689e-05
1.84689e-05
1.95127e-05
1.95127e-05
1.95127e-05
1.74422e-05
1.74422e-05
1.74422e-05
1.77007e-05
1.77007e-05
1.77007e-05
1.7853e-05
1.7853e-05
1.7853e-05
1.7564e-05
1.7564e-05
1.7564e-05
1.77849e-05
1.77849e-05
1.77849e-05
1.72438e-05
1.72438e-05
1.72438e-05
1.73957e-05
1.73957e-05
1.73957e-05
1.67523e-05
1.67523e-05
1.67523e-05
1.19805e-05
1.19805e-05
1.19805e-05
1.13056e-05
1.13056e-05
1.13056e-05
2.05837e-05
2.05837e-05
2.05837e-05
9.91163e-06
9.91163e-06
9.91163e-06
9.94068e-06
9.94068e-06
9.94068e-06
9.96333e-06
9.96333e-06
9.96333e-06
1.86776e-05
1.86776e-05
1.86776e-05
1.88323e-05
1.88323e-05
1.88323e-05
1.86495e-05
1.86495e-05
1.86495e-05
1.81523e-05
1.81523e-05
1.81523e-05
1.82239e-05
1.82239e-05
1.82239e-05
1.83687e-05
1.83687e-05
1.83687e-05
1.75437e-05
1.75437e-05
1.75437e-05
1.67217e-05
1.67217e-05
1.67217e-05
1.74869e-05
1.74869e-05
1.74869e-05
1.77151e-05
1.77151e-05
1.77151e-05
1.74144e-05
1.74144e-05
1.74144e-05
1.75722e-05
1.75722e-05
1.75722e-05
1.85589e-05
1.85589e-05
1.85589e-05
1.84903e-05
1.84903e-05
1.84903e-05
1.83997e-05
1.83997e-05
1.83997e-05
1.81715e-05
1.81715e-05
1.81715e-05
1.72345e-05
1.72345e-05
1.72345e-05
1.73734e-05
1.73734e-05
1.73734e-05
1.65585e-05
1.65585e-05
1.65585e-05
1.67833e-05
1.67833e-05
1.67833e-05
1.83794e-05
1.83794e-05
1.83794e-05
1.76146e-05
1.76146e-05
1.76146e-05
1.74594e-05
1.74594e-05
1.74594e-05
1.75293e-05
1.75293e-05
1.75293e-05
1.74959e-05
1.74959e-05
1.74959e-05
1.765e-05
1.765e-05
1.765e-05
1.75824e-05
1.75824e-05
1.75824e-05
1.68323e-05
1.68323e-05
1.68323e-05
1.69018e-05
1.69018e-05
1.69018e-05
1.71225e-05
1.71225e-05
1.71225e-05
1.72746e-05
1.72746e-05
1.72746e-05
1.66112e-05
1.66112e-05
1.66112e-05
1.61706e-05
1.61706e-05
1.61706e-05
1.69452e-05
1.69452e-05
1.69452e-05
1.67947e-05
1.67947e-05
1.67947e-05
1.68208e-05
1.68208e-05
1.68208e-05
1.66707e-05
1.66707e-05
1.66707e-05
1.55106e-05
1.55106e-05
1.55106e-05
1.62485e-05
1.62485e-05
1.62485e-05
1.63206e-05
1.63206e-05
1.63206e-05
1.65421e-05
1.65421e-05
1.65421e-05
1.66934e-05
1.66934e-05
1.66934e-05
1.26272e-05
1.26272e-05
1.26272e-05
1.24892e-05
1.24892e-05
1.24892e-05
1.22744e-05
1.22744e-05
1.22744e-05
1.21959e-05
1.21959e-05
1.21959e-05
1.19028e-05
1.19028e-05
1.19028e-05
1.21866e-05
1.21866e-05
1.21866e-05
1.01859e-05
1.01859e-05
1.01859e-05
1.00745e-05
1.00745e-05
1.00745e-05
9.95245e-06
9.95245e-06
9.95245e-06
9.90468e-06
9.90468e-06
9.90468e-06
9.8571e-06
9.8571e-06
9.8571e-06
1.01589e-05
1.01589e-05
1.01589e-05
1.04091e-05
1.04091e-05
1.04091e-05
9.77321e-06
9.77321e-06
9.77321e-06
9.76362e-06
9.76362e-06
9.76362e-06
9.73974e-06
9.73974e-06
9.73974e-06
9.93044e-06
9.93044e-06
9.93044e-06
1.19877e-05
1.19877e-05
1.19877e-05
1.21362e-05
1.21362e-05
1.21362e-05
1.22174e-05
1.22174e-05
1.22174e-05
1.18445e-05
1.18445e-05
1.18445e-05
1.19219e-05
1.19219e-05
1.19219e-05
1.17896e-05
1.17896e-05
1.17896e-05
9.83403e-06
9.83403e-06
9.83403e-06
1.13597e-05
1.13597e-05
1.13597e-05
1.12222e-05
1.12222e-05
1.12222e-05
1.11683e-05
1.11683e-05
1.11683e-05
1.12518e-05
1.12518e-05
1.12518e-05
1.11141e-05
1.11141e-05
1.11141e-05
1.08938e-05
1.08938e-05
1.08938e-05
1.11968e-05
1.11968e-05
1.11968e-05
1.10072e-05
1.10072e-05
1.10072e-05
1.11435e-05
1.11435e-05
1.11435e-05
1.10603e-05
1.10603e-05
1.10603e-05
2.04089e-05
2.04089e-05
2.04089e-05
2.01575e-05
2.01575e-05
2.01575e-05
1.70323e-05
1.70323e-05
1.70323e-05
1.80766e-05
1.80766e-05
1.80766e-05
1.73109e-05
1.73109e-05
1.73109e-05
1.19187e-05
1.19187e-05
1.19187e-05
1.18595e-05
1.18595e-05
1.18595e-05
1.19489e-05
1.19489e-05
1.19489e-05
1.19928e-05
1.19928e-05
1.19928e-05
1.1722e-05
1.1722e-05
1.1722e-05
1.16243e-05
1.16243e-05
1.16243e-05
1.17093e-05
1.17093e-05
1.17093e-05
1.15881e-05
1.15881e-05
1.15881e-05
1.15446e-05
1.15446e-05
1.15446e-05
9.81246e-06
9.81246e-06
9.81246e-06
9.91871e-06
9.91871e-06
9.91871e-06
9.88321e-06
9.88321e-06
9.88321e-06
1.04734e-05
1.04734e-05
1.04734e-05
1.04354e-05
1.04354e-05
1.04354e-05
1.01113e-05
1.01113e-05
1.01113e-05
1.96101e-05
1.96101e-05
1.96101e-05
1.90172e-05
1.90172e-05
1.90172e-05
1.84942e-05
1.84942e-05
1.84942e-05
1.83309e-05
1.83309e-05
1.83309e-05
1.85852e-05
1.85852e-05
1.85852e-05
1.8421e-05
1.8421e-05
1.8421e-05
1.81837e-05
1.81837e-05
1.81837e-05
1.81087e-05
1.81087e-05
1.81087e-05
1.8274e-05
1.8274e-05
1.8274e-05
1.85125e-05
1.85125e-05
1.85125e-05
1.44949e-05
1.44949e-05
1.44949e-05
1.43362e-05
1.43362e-05
1.43362e-05
1.42607e-05
1.42607e-05
1.42607e-05
1.81979e-05
1.81979e-05
1.81979e-05
1.95862e-05
1.95862e-05
1.95862e-05
1.53598e-05
1.53598e-05
1.53598e-05
1.49053e-05
1.49053e-05
1.49053e-05
1.62677e-05
1.62677e-05
1.62677e-05
1.52031e-05
1.52031e-05
1.52031e-05
1.597e-05
1.597e-05
1.597e-05
1.58919e-05
1.58919e-05
1.58919e-05
1.56605e-05
1.56605e-05
1.56605e-05
1.55069e-05
1.55069e-05
1.55069e-05
1.79185e-05
1.79185e-05
1.79185e-05
1.89245e-05
1.89245e-05
1.89245e-05
1.87619e-05
1.87619e-05
1.87619e-05
1.85292e-05
1.85292e-05
1.85292e-05
1.84571e-05
1.84571e-05
1.84571e-05
1.862e-05
1.862e-05
1.862e-05
1.88538e-05
1.88538e-05
1.88538e-05
1.41904e-05
1.41904e-05
1.41904e-05
1.4342e-05
1.4342e-05
1.4342e-05
1.56589e-05
1.56589e-05
1.56589e-05
1.57377e-05
1.57377e-05
1.57377e-05
1.5584e-05
1.5584e-05
1.5584e-05
1.5352e-05
1.5352e-05
1.5352e-05
1.44122e-05
1.44122e-05
1.44122e-05
1.43291e-05
1.43291e-05
1.43291e-05
1.40277e-05
1.40277e-05
1.40277e-05
1.4261e-05
1.4261e-05
1.4261e-05
1.54258e-05
1.54258e-05
1.54258e-05
1.52725e-05
1.52725e-05
1.52725e-05
1.79255e-05
1.79255e-05
1.79255e-05
1.76989e-05
1.76989e-05
1.76989e-05
1.76284e-05
1.76284e-05
1.76284e-05
1.80826e-05
1.80826e-05
1.80826e-05
1.80136e-05
1.80136e-05
1.80136e-05
1.77859e-05
1.77859e-05
1.77859e-05
1.69487e-05
1.69487e-05
1.69487e-05
1.74013e-05
1.74013e-05
1.74013e-05
1.73314e-05
1.73314e-05
1.73314e-05
1.71037e-05
1.71037e-05
1.71037e-05
1.64267e-05
1.64267e-05
1.64267e-05
1.681e-05
1.681e-05
1.681e-05
1.65802e-05
1.65802e-05
1.65802e-05
1.82609e-05
1.82609e-05
1.82609e-05
1.79606e-05
1.79606e-05
1.79606e-05
1.81905e-05
1.81905e-05
1.81905e-05
1.78015e-05
1.78015e-05
1.78015e-05
1.78726e-05
1.78726e-05
1.78726e-05
1.81014e-05
1.81014e-05
1.81014e-05
1.71623e-05
1.71623e-05
1.71623e-05
1.69368e-05
1.69368e-05
1.69368e-05
1.68658e-05
1.68658e-05
1.68658e-05
1.73177e-05
1.73177e-05
1.73177e-05
1.70208e-05
1.70208e-05
1.70208e-05
1.72473e-05
1.72473e-05
1.72473e-05
1.66399e-05
1.66399e-05
1.66399e-05
1.65671e-05
1.65671e-05
1.65671e-05
1.63407e-05
1.63407e-05
1.63407e-05
1.64861e-05
1.64861e-05
1.64861e-05
1.70798e-05
1.70798e-05
1.70798e-05
1.68555e-05
1.68555e-05
1.68555e-05
1.71496e-05
1.71496e-05
1.71496e-05
1.69964e-05
1.69964e-05
1.69964e-05
1.64077e-05
1.64077e-05
1.64077e-05
1.79973e-05
1.79973e-05
1.79973e-05
1.82233e-05
1.82233e-05
1.82233e-05
1.82904e-05
1.82904e-05
1.82904e-05
1.78401e-05
1.78401e-05
1.78401e-05
1.81139e-05
1.81139e-05
1.81139e-05
1.76656e-05
1.76656e-05
1.76656e-05
1.79587e-05
1.79587e-05
1.79587e-05
1.77357e-05
1.77357e-05
1.77357e-05
1.82019e-05
1.82019e-05
1.82019e-05
1.8132e-05
1.8132e-05
1.8132e-05
1.79071e-05
1.79071e-05
1.79071e-05
1.77538e-05
1.77538e-05
1.77538e-05
1.78227e-05
1.78227e-05
1.78227e-05
1.80466e-05
1.80466e-05
1.80466e-05
1.69155e-05
1.69155e-05
1.69155e-05
1.73601e-05
1.73601e-05
1.73601e-05
1.69847e-05
1.69847e-05
1.69847e-05
1.72064e-05
1.72064e-05
1.72064e-05
1.7068e-05
1.7068e-05
1.7068e-05
1.72908e-05
1.72908e-05
1.72908e-05
1.65323e-05
1.65323e-05
1.65323e-05
1.64608e-05
1.64608e-05
1.64608e-05
1.62403e-05
1.62403e-05
1.62403e-05
1.70256e-05
1.70256e-05
1.70256e-05
1.65911e-05
1.65911e-05
1.65911e-05
1.69589e-05
1.69589e-05
1.69589e-05
1.67404e-05
1.67404e-05
1.67404e-05
1.68772e-05
1.68772e-05
1.68772e-05
1.66597e-05
1.66597e-05
1.66597e-05
1.63555e-05
1.63555e-05
1.63555e-05
1.6501e-05
1.6501e-05
1.6501e-05
1.59938e-05
1.59938e-05
1.59938e-05
1.6141e-05
1.6141e-05
1.6141e-05
1.60702e-05
1.60702e-05
1.60702e-05
1.65101e-05
1.65101e-05
1.65101e-05
1.6216e-05
1.6216e-05
1.6216e-05
1.65784e-05
1.65784e-05
1.65784e-05
1.64315e-05
1.64315e-05
1.64315e-05
1.70404e-05
1.70404e-05
1.70404e-05
1.74808e-05
1.74808e-05
1.74808e-05
1.73281e-05
1.73281e-05
1.73281e-05
1.71088e-05
1.71088e-05
1.71088e-05
1.74129e-05
1.74129e-05
1.74129e-05
1.71926e-05
1.71926e-05
1.71926e-05
1.39973e-05
1.39973e-05
1.39973e-05
1.39181e-05
1.39181e-05
1.39181e-05
1.46783e-05
1.46783e-05
1.46783e-05
1.42243e-05
1.42243e-05
1.42243e-05
1.55856e-05
1.55856e-05
1.55856e-05
1.26284e-05
1.26284e-05
1.26284e-05
1.24313e-05
1.24313e-05
1.24313e-05
1.25648e-05
1.25648e-05
1.25648e-05
1.20401e-05
1.20401e-05
1.20401e-05
1.24187e-05
1.24187e-05
1.24187e-05
1.38766e-05
1.38766e-05
1.38766e-05
1.39583e-05
1.39583e-05
1.39583e-05
1.02224e-05
1.02224e-05
1.02224e-05
1.01211e-05
1.01211e-05
1.01211e-05
1.01721e-05
1.01721e-05
1.01721e-05
1.04065e-05
1.04065e-05
1.04065e-05
1.04194e-05
1.04194e-05
1.04194e-05
1.04316e-05
1.04316e-05
1.04316e-05
9.98827e-06
9.98827e-06
9.98827e-06
9.89208e-06
9.89208e-06
9.89208e-06
9.91657e-06
9.91657e-06
9.91657e-06
9.90569e-06
9.90569e-06
9.90569e-06
9.92817e-06
9.92817e-06
9.92817e-06
9.93914e-06
9.93914e-06
9.93914e-06
9.87983e-06
9.87983e-06
9.87983e-06
9.91515e-06
9.91515e-06
9.91515e-06
1.00238e-05
1.00238e-05
1.00238e-05
9.99987e-06
9.99987e-06
9.99987e-06
1.00724e-05
1.00724e-05
1.00724e-05
1.0097e-05
1.0097e-05
1.0097e-05
1.01338e-05
1.01338e-05
1.01338e-05
1.00969e-05
1.00969e-05
1.00969e-05
9.90382e-06
9.90382e-06
9.90382e-06
9.92757e-06
9.92757e-06
9.92757e-06
1.01961e-05
1.01961e-05
1.01961e-05
1.0208e-05
1.0208e-05
1.0208e-05
1.02321e-05
1.02321e-05
1.02321e-05
1.04213e-05
1.04213e-05
1.04213e-05
9.70366e-06
9.70366e-06
9.70366e-06
9.63354e-06
9.63354e-06
9.63354e-06
9.96528e-06
9.96528e-06
9.96528e-06
9.95332e-06
9.95332e-06
9.95332e-06
1.1344e-05
1.1344e-05
1.1344e-05
1.15756e-05
1.15756e-05
1.15756e-05
1.116e-05
1.116e-05
1.116e-05
1.10195e-05
1.10195e-05
1.10195e-05
1.16391e-05
1.16391e-05
1.16391e-05
1.02048e-05
1.02048e-05
1.02048e-05
1.08101e-05
1.08101e-05
1.08101e-05
1.09469e-05
1.09469e-05
1.09469e-05
1.07891e-05
1.07891e-05
1.07891e-05
1.03534e-05
1.03534e-05
1.03534e-05
2.03687e-05
2.03687e-05
2.03687e-05
2.00828e-05
2.00828e-05
2.00828e-05
1.88962e-05
1.88962e-05
1.88962e-05
1.90652e-05
1.90652e-05
1.90652e-05
1.88414e-05
1.88414e-05
1.88414e-05
1.18416e-05
1.18416e-05
1.18416e-05
1.18294e-05
1.18294e-05
1.18294e-05
1.18e-05
1.18e-05
1.18e-05
1.18113e-05
1.18113e-05
1.18113e-05
1.17697e-05
1.17697e-05
1.17697e-05
1.17517e-05
1.17517e-05
1.17517e-05
1.17398e-05
1.17398e-05
1.17398e-05
1.16937e-05
1.16937e-05
1.16937e-05
1.18431e-05
1.18431e-05
1.18431e-05
1.18588e-05
1.18588e-05
1.18588e-05
1.18729e-05
1.18729e-05
1.18729e-05
1.19323e-05
1.19323e-05
1.19323e-05
1.19028e-05
1.19028e-05
1.19028e-05
1.19819e-05
1.19819e-05
1.19819e-05
1.18909e-05
1.18909e-05
1.18909e-05
1.13927e-05
1.13927e-05
1.13927e-05
1.0865e-05
1.0865e-05
1.0865e-05
1.13078e-05
1.13078e-05
1.13078e-05
1.12169e-05
1.12169e-05
1.12169e-05
1.12716e-05
1.12716e-05
1.12716e-05
1.12291e-05
1.12291e-05
1.12291e-05
1.12116e-05
1.12116e-05
1.12116e-05
1.11992e-05
1.11992e-05
1.11992e-05
1.14935e-05
1.14935e-05
1.14935e-05
1.12374e-05
1.12374e-05
1.12374e-05
1.096e-05
1.096e-05
1.096e-05
1.09337e-05
1.09337e-05
1.09337e-05
1.08931e-05
1.08931e-05
1.08931e-05
1.1438e-05
1.1438e-05
1.1438e-05
1.14087e-05
1.14087e-05
1.14087e-05
1.14973e-05
1.14973e-05
1.14973e-05
1.15273e-05
1.15273e-05
1.15273e-05
1.15142e-05
1.15142e-05
1.15142e-05
1.12394e-05
1.12394e-05
1.12394e-05
1.16062e-05
1.16062e-05
1.16062e-05
1.16629e-05
1.16629e-05
1.16629e-05
1.1619e-05
1.1619e-05
1.1619e-05
1.05871e-05
1.05871e-05
1.05871e-05
1.0549e-05
1.0549e-05
1.0549e-05
1.05975e-05
1.05975e-05
1.05975e-05
1.04729e-05
1.04729e-05
1.04729e-05
1.04863e-05
1.04863e-05
1.04863e-05
1.05245e-05
1.05245e-05
1.05245e-05
1.10228e-05
1.10228e-05
1.10228e-05
1.08429e-05
1.08429e-05
1.08429e-05
1.07538e-05
1.07538e-05
1.07538e-05
1.07662e-05
1.07662e-05
1.07662e-05
9.79736e-06
9.79736e-06
9.79736e-06
9.82161e-06
9.82161e-06
9.82161e-06
9.85855e-06
9.85855e-06
9.85855e-06
9.86972e-06
9.86972e-06
9.86972e-06
9.83701e-06
9.83701e-06
9.83701e-06
9.87042e-06
9.87042e-06
9.87042e-06
9.84804e-06
9.84804e-06
9.84804e-06
9.88635e-06
9.88635e-06
9.88635e-06
9.89536e-06
9.89536e-06
9.89536e-06
1.0843e-05
1.0843e-05
1.0843e-05
1.07909e-05
1.07909e-05
1.07909e-05
1.08024e-05
1.08024e-05
1.08024e-05
1.04234e-05
1.04234e-05
1.04234e-05
1.03987e-05
1.03987e-05
1.03987e-05
1.04372e-05
1.04372e-05
1.04372e-05
1.04499e-05
1.04499e-05
1.04499e-05
1.05032e-05
1.05032e-05
1.05032e-05
1.04527e-05
1.04527e-05
1.04527e-05
1.0464e-05
1.0464e-05
1.0464e-05
1.04799e-05
1.04799e-05
1.04799e-05
1.0123e-05
1.0123e-05
1.0123e-05
1.0147e-05
1.0147e-05
1.0147e-05
1.02877e-05
1.02877e-05
1.02877e-05
1.02985e-05
1.02985e-05
1.02985e-05
1.01368e-05
1.01368e-05
1.01368e-05
9.98949e-06
9.98949e-06
9.98949e-06
1.00011e-05
1.00011e-05
1.00011e-05
1.00423e-05
1.00423e-05
1.00423e-05
9.94376e-06
9.94376e-06
9.94376e-06
9.93319e-06
9.93319e-06
9.93319e-06
9.94599e-06
9.94599e-06
9.94599e-06
9.97164e-06
9.97164e-06
9.97164e-06
9.95855e-06
9.95855e-06
9.95855e-06
9.9954e-06
9.9954e-06
9.9954e-06
1.86426e-05
1.86426e-05
1.86426e-05
1.85578e-05
1.85578e-05
1.85578e-05
1.83034e-05
1.83034e-05
1.83034e-05
1.81345e-05
1.81345e-05
1.81345e-05
1.75401e-05
1.75401e-05
1.75401e-05
1.77942e-05
1.77942e-05
1.77942e-05
1.7881e-05
1.7881e-05
1.7881e-05
1.45755e-05
1.45755e-05
1.45755e-05
1.99775e-05
1.99775e-05
1.99775e-05
1.97265e-05
1.97265e-05
1.97265e-05
1.89715e-05
1.89715e-05
1.89715e-05
1.92235e-05
1.92235e-05
1.92235e-05
1.84031e-05
1.84031e-05
1.84031e-05
1.82414e-05
1.82414e-05
1.82414e-05
1.83147e-05
1.83147e-05
1.83147e-05
1.85491e-05
1.85491e-05
1.85491e-05
1.92045e-05
1.92045e-05
1.92045e-05
1.8731e-05
1.8731e-05
1.8731e-05
1.80948e-05
1.80948e-05
1.80948e-05
1.76233e-05
1.76233e-05
1.76233e-05
1.77849e-05
1.77849e-05
1.77849e-05
1.80216e-05
1.80216e-05
1.80216e-05
1.27497e-05
1.27497e-05
1.27497e-05
1.30505e-05
1.30505e-05
1.30505e-05
1.33754e-05
1.33754e-05
1.33754e-05
1.29786e-05
1.29786e-05
1.29786e-05
1.2736e-05
1.2736e-05
1.2736e-05
1.26459e-05
1.26459e-05
1.26459e-05
1.31323e-05
1.31323e-05
1.31323e-05
1.27992e-05
1.27992e-05
1.27992e-05
1.3043e-05
1.3043e-05
1.3043e-05
1.30681e-05
1.30681e-05
1.30681e-05
1.25835e-05
1.25835e-05
1.25835e-05
1.22805e-05
1.22805e-05
1.22805e-05
1.1159e-05
1.1159e-05
1.1159e-05
1.24025e-05
1.24025e-05
1.24025e-05
1.14082e-05
1.14082e-05
1.14082e-05
1.50838e-05
1.50838e-05
1.50838e-05
1.32003e-05
1.32003e-05
1.32003e-05
1.31136e-05
1.31136e-05
1.31136e-05
1.37256e-05
1.37256e-05
1.37256e-05
1.41197e-05
1.41197e-05
1.41197e-05
1.3966e-05
1.3966e-05
1.3966e-05
1.44249e-05
1.44249e-05
1.44249e-05
1.67785e-05
1.67785e-05
1.67785e-05
1.59405e-05
1.59405e-05
1.59405e-05
1.58559e-05
1.58559e-05
1.58559e-05
1.56026e-05
1.56026e-05
1.56026e-05
1.55097e-05
1.55097e-05
1.55097e-05
1.35303e-05
1.35303e-05
1.35303e-05
1.43309e-05
1.43309e-05
1.43309e-05
1.38423e-05
1.38423e-05
1.38423e-05
1.86029e-05
1.86029e-05
1.86029e-05
1.83633e-05
1.83633e-05
1.83633e-05
1.50089e-05
1.50089e-05
1.50089e-05
1.54888e-05
1.54888e-05
1.54888e-05
1.54075e-05
1.54075e-05
1.54075e-05
1.51673e-05
1.51673e-05
1.51673e-05
1.59694e-05
1.59694e-05
1.59694e-05
1.51065e-05
1.51065e-05
1.51065e-05
1.58154e-05
1.58154e-05
1.58154e-05
1.94191e-05
1.94191e-05
1.94191e-05
1.94899e-05
1.94899e-05
1.94899e-05
1.93941e-05
1.93941e-05
1.93941e-05
1.89167e-05
1.89167e-05
1.89167e-05
1.90807e-05
1.90807e-05
1.90807e-05
1.93204e-05
1.93204e-05
1.93204e-05
1.9299e-05
1.9299e-05
1.9299e-05
1.9133e-05
1.9133e-05
1.9133e-05
1.88957e-05
1.88957e-05
1.88957e-05
1.88231e-05
1.88231e-05
1.88231e-05
1.89895e-05
1.89895e-05
1.89895e-05
1.9228e-05
1.9228e-05
1.9228e-05
1.8579e-05
1.8579e-05
1.8579e-05
1.83485e-05
1.83485e-05
1.83485e-05
1.82778e-05
1.82778e-05
1.82778e-05
1.87406e-05
1.87406e-05
1.87406e-05
1.8439e-05
1.8439e-05
1.8439e-05
1.86706e-05
1.86706e-05
1.86706e-05
1.54333e-05
1.54333e-05
1.54333e-05
1.50553e-05
1.50553e-05
1.50553e-05
1.52828e-05
1.52828e-05
1.52828e-05
1.53566e-05
1.53566e-05
1.53566e-05
1.60407e-05
1.60407e-05
1.60407e-05
1.55868e-05
1.55868e-05
1.55868e-05
1.56622e-05
1.56622e-05
1.56622e-05
1.58885e-05
1.58885e-05
1.58885e-05
1.56614e-05
1.56614e-05
1.56614e-05
1.57378e-05
1.57378e-05
1.57378e-05
1.59653e-05
1.59653e-05
1.59653e-05
1.61175e-05
1.61175e-05
1.61175e-05
1.66627e-05
1.66627e-05
1.66627e-05
1.62009e-05
1.62009e-05
1.62009e-05
1.65062e-05
1.65062e-05
1.65062e-05
1.62759e-05
1.62759e-05
1.62759e-05
1.69676e-05
1.69676e-05
1.69676e-05
1.68936e-05
1.68936e-05
1.68936e-05
1.59703e-05
1.59703e-05
1.59703e-05
1.60474e-05
1.60474e-05
1.60474e-05
1.54328e-05
1.54328e-05
1.54328e-05
1.55093e-05
1.55093e-05
1.55093e-05
1.58159e-05
1.58159e-05
1.58159e-05
1.55856e-05
1.55856e-05
1.55856e-05
1.73872e-05
1.73872e-05
1.73872e-05
1.7227e-05
1.7227e-05
1.7227e-05
1.68254e-05
1.68254e-05
1.68254e-05
1.78452e-05
1.78452e-05
1.78452e-05
1.80064e-05
1.80064e-05
1.80064e-05
1.76972e-05
1.76972e-05
1.76972e-05
1.79327e-05
1.79327e-05
1.79327e-05
1.49779e-05
1.49779e-05
1.49779e-05
1.5128e-05
1.5128e-05
1.5128e-05
1.50515e-05
1.50515e-05
1.50515e-05
1.48223e-05
1.48223e-05
1.48223e-05
1.46707e-05
1.46707e-05
1.46707e-05
1.47498e-05
1.47498e-05
1.47498e-05
1.45996e-05
1.45996e-05
1.45996e-05
1.4372e-05
1.4372e-05
1.4372e-05
1.51237e-05
1.51237e-05
1.51237e-05
1.5276e-05
1.5276e-05
1.5276e-05
1.51989e-05
1.51989e-05
1.51989e-05
1.49674e-05
1.49674e-05
1.49674e-05
1.42722e-05
1.42722e-05
1.42722e-05
1.45038e-05
1.45038e-05
1.45038e-05
1.53467e-05
1.53467e-05
1.53467e-05
1.51883e-05
1.51883e-05
1.51883e-05
1.45747e-05
1.45747e-05
1.45747e-05
1.504e-05
1.504e-05
1.504e-05
1.46552e-05
1.46552e-05
1.46552e-05
1.48873e-05
1.48873e-05
1.48873e-05
1.49453e-05
1.49453e-05
1.49453e-05
1.31357e-05
1.31357e-05
1.31357e-05
1.29857e-05
1.29857e-05
1.29857e-05
1.40946e-05
1.40946e-05
1.40946e-05
1.39445e-05
1.39445e-05
1.39445e-05
1.65011e-05
1.65011e-05
1.65011e-05
1.63456e-05
1.63456e-05
1.63456e-05
1.66479e-05
1.66479e-05
1.66479e-05
1.64203e-05
1.64203e-05
1.64203e-05
1.7113e-05
1.7113e-05
1.7113e-05
1.68837e-05
1.68837e-05
1.68837e-05
1.71857e-05
1.71857e-05
1.71857e-05
1.67298e-05
1.67298e-05
1.67298e-05
1.70306e-05
1.70306e-05
1.70306e-05
1.68025e-05
1.68025e-05
1.68025e-05
1.61044e-05
1.61044e-05
1.61044e-05
1.67042e-05
1.67042e-05
1.67042e-05
1.64804e-05
1.64804e-05
1.64804e-05
1.67732e-05
1.67732e-05
1.67732e-05
1.63275e-05
1.63275e-05
1.63275e-05
1.66205e-05
1.66205e-05