<VTKFile type="UnstructuredGrid" version="1.0">
<UnstructuredGrid>
<Piece NumberOfPoints="8859" NumberOfCells="2953">
<Points>
<DataArray type="Float64" NumberOfComponents="3" format="ascii">
2.04744 2.20956 7.18263
2.06275 2.19425 7.19458
2.04754 2.20946 7.20833
2.07804 2.17896 7.13167
2.07805 2.17895 7.10651
2.0934 2.1636 7.11898
2.06271 2.19429 7.14436
2.07804 2.17896 7.13167
2.07804 2.17896 7.15686
2.01701 2.23999 7.23488
2.03242 2.22458 7.2425
2.00164 2.25536 7.2425
2.01701 2.23999 7.23488
2.03232 2.22468 7.21957
2.03242 2.22458 7.2425
2.04777 2.20923 7.23479
2.06326 2.19374 7.2425
2.03242 2.22458 7.2425
2.04777 2.20923 7.23479
2.03232 2.22468 7.21957
2.04754 2.20946 7.20833
2.03242 2.22458 7.2425
2.03232 2.22468 7.21957
2.04777 2.20923 7.23479
2.04754 2.20946 7.20833
2.06275 2.19425 7.19458
2.06287 2.19413 7.21927
2.06287 2.19413 7.21927
2.04777 2.20923 7.23479
2.04754 2.20946 7.20833
2.06326 2.19374 7.2425
2.04777 2.20923 7.23479
2.06287 2.19413 7.21927
2.06275 2.19425 7.19458
2.04744 2.20956 7.18263
2.06271 2.19429 7.16952
2.06271 2.19429 7.14436
2.07804 2.17896 7.15686
2.06271 2.19429 7.16952
2.07809 2.17891 7.20762
2.06287 2.19413 7.21927
2.06275 2.19425 7.19458
2.0934 2.1636 7.19395
2.0934 2.1636 7.21855
2.07809 2.17891 7.20762
2.0934 2.1636 7.09387
2.0934 2.1636 7.11898
2.07805 2.17895 7.10651
2.07804 2.17896 7.13167
2.0934 2.1636 7.11898
2.0934 2.1636 7.14406
2.0934 2.1636 7.14406
2.07804 2.17896 7.15686
2.07804 2.17896 7.13167
2.0934 2.1636 6.56652
2.0934 2.1636 6.59165
2.07807 2.17893 6.57907
2.07807 2.17893 7.03107
2.0934 2.1636 7.04361
2.07806 2.17894 7.05621
2.0934 2.1636 7.01848
2.0934 2.1636 7.04361
2.07807 2.17893 7.03107
2.07808 2.17892 6.90544
2.0934 2.1636 6.91799
2.07808 2.17892 6.93055
1.61564 2.64136 6.35059
1.63134 2.62566 6.3425
1.63134 2.62566 6.36563
1.5683 2.6887 7.2425
1.53648 2.72052 7.2425
1.55243 2.70457 7.23432
2.07804 2.17896 7.18212
2.06271 2.19429 7.16952
2.07804 2.17896 7.15686
2.06275 2.19425 7.19458
2.06271 2.19429 7.16952
2.07804 2.17896 7.18212
2.07804 2.17896 7.18212
2.07809 2.17891 7.20762
2.06275 2.19425 7.19458
2.0934 2.1636 7.19395
2.07809 2.17891 7.20762
2.07804 2.17896 7.18212
2.07833 2.17867 7.23384
2.0934 2.1636 7.21855
2.0934 2.1636 7.2425
2.07833 2.17867 7.23384
2.07809 2.17891 7.20762
2.0934 2.1636 7.21855
2.0934 2.1636 7.2425
2.06326 2.19374 7.2425
2.07833 2.17867 7.23384
2.06326 2.19374 7.2425
2.06287 2.19413 7.21927
2.07833 2.17867 7.23384
2.06287 2.19413 7.21927
2.07809 2.17891 7.20762
2.07833 2.17867 7.23384
2.07806 2.17894 7.05621
2.0934 2.1636 7.04361
2.0934 2.1636 7.06875
2.07804 2.17896 7.15686
2.0934 2.1636 7.14406
2.0934 2.1636 7.16907
2.0934 2.1636 7.19395
2.07804 2.17896 7.18212
2.0934 2.1636 7.16907
2.0934 2.1636 7.16907
2.07804 2.17896 7.18212
2.07804 2.17896 7.15686
2.0934 2.1636 6.89288
2.0934 2.1636 6.91799
2.07808 2.17892 6.90544
2.07807 2.17893 6.57907
2.0934 2.1636 6.59165
2.07807 2.17893 6.6042
2.06275 2.19425 7.01853
2.04743 2.20957 7.00598
2.06275 2.19425 6.99338
2.07806 2.17894 7.08136
2.0934 2.1636 7.09387
2.07805 2.17895 7.10651
2.07806 2.17894 7.08136
2.0934 2.1636 7.06875
2.0934 2.1636 7.09387
2.07806 2.17894 7.08136
2.06273 2.19427 7.06884
2.07806 2.17894 7.05621
2.07806 2.17894 7.05621
2.0934 2.1636 7.06875
2.07806 2.17894 7.08136
2.06271 2.19429 7.11918
2.07804 2.17896 7.13167
2.06271 2.19429 7.14436
2.06271 2.19429 7.11918
2.07805 2.17895 7.10651
2.07804 2.17896 7.13167
2.04741 2.20959 7.08149
2.03209 2.22491 7.09415
2.0321 2.2249 7.06894
1.83285 2.42415 7.20838
1.81747 2.43953 7.1949
1.83285 2.42415 7.18275
1.78664 2.47036 7.0438
1.78664 2.47036 7.069
1.77121 2.48579 7.05639
2.0934 2.1636 6.3425
2.0934 2.1636 6.36645
2.07833 2.17867 6.35116
1.56833 2.68867 7.21933
1.5683 2.6887 7.2425
1.55243 2.70457 7.23432
1.63134 2.62566 7.14446
1.61565 2.64135 7.15714
1.61564 2.64136 7.13185
1.55243 2.70457 7.23432
1.53648 2.72052 7.2425
1.53664 2.72036 7.21923
2.06276 2.19424 6.667
2.04745 2.20955 6.65443
2.06276 2.19424 6.64188
2.0934 2.1636 6.81759
2.07808 2.17892 6.80505
2.0934 2.1636 6.7925
2.07808 2.17892 6.85524
2.0934 2.1636 6.84269
2.0934 2.1636 6.86778
2.06277 2.19423 6.76741
2.04745 2.20955 6.77995
2.04745 2.20955 6.75486
2.06277 2.19423 6.7925
2.04745 2.20955 6.77995
2.06277 2.19423 6.76741
2.07808 2.17892 6.80505
2.06277 2.19423 6.81759
2.06277 2.19423 6.7925
2.04745 2.20955 6.93057
2.06276 2.19424 6.94312
2.04744 2.20956 6.9557
2.01682 2.24018 6.90547
2.01682 2.24018 6.93059
2.0015 2.2555 6.91803
2.04745 2.20955 6.90545
2.03214 2.22486 6.8929
2.04745 2.20955 6.88035
2.04745 2.20955 6.88035
2.06277 2.19423 6.89289
2.04745 2.20955 6.90545
2.03214 2.22486 6.8929
2.03214 2.22486 6.8678
2.04745 2.20955 6.88035
2.04745 2.20955 6.88035
2.03214 2.22486 6.8678
2.04745 2.20955 6.85524
2.0934 2.1636 6.86778
2.0934 2.1636 6.89288
2.07808 2.17892 6.88034
2.07808 2.17892 6.88034
2.07808 2.17892 6.85524
2.0934 2.1636 6.86778
2.07808 2.17892 6.88034
2.0934 2.1636 6.89288
2.07808 2.17892 6.90544
2.07808 2.17892 6.90544
2.06277 2.19423 6.89289
2.07808 2.17892 6.88034
2.04744 2.20956 6.98083
2.03213 2.22487 6.96828
2.04744 2.20956 6.9557
2.04744 2.20956 6.98083
2.06275 2.19425 6.99338
2.04743 2.20957 7.00598
2.0015 2.2555 6.9683
2.01681 2.24019 6.95572
2.01681 2.24019 6.98086
2.01681 2.24019 6.98086
2.01681 2.24019 6.95572
2.03213 2.22487 6.96828
2.0934 2.1636 6.9431
2.07808 2.17892 6.93055
2.0934 2.1636 6.91799
2.04744 2.20956 6.9557
2.06276 2.19424 6.94312
2.06276 2.19424 6.96825
2.06276 2.19424 6.96825
2.04744 2.20956 6.98083
2.04744 2.20956 6.9557
2.06275 2.19425 6.99338
2.04744 2.20956 6.98083
2.06276 2.19424 6.96825
2.07806 2.17894 7.05621
2.06273 2.19427 7.06884
2.06274 2.19426 7.04368
2.06274 2.19426 7.04368
2.07807 2.17893 7.03107
2.07806 2.17894 7.05621
2.06275 2.19425 7.01853
2.07807 2.17893 7.03107
2.06274 2.19426 7.04368
2.0321 2.2249 7.06894
2.03211 2.22489 7.04375
2.04742 2.20958 7.0563
2.04742 2.20958 7.0563
2.04741 2.20959 7.08149
2.0321 2.2249 7.06894
2.06273 2.19427 7.06884
2.04741 2.20959 7.08149
2.04742 2.20958 7.0563
2.04742 2.20958 7.0563
2.06274 2.19426 7.04368
2.06273 2.19427 7.06884
2.01679 2.24021 7.05638
2.03211 2.22489 7.04375
2.0321 2.2249 7.06894
2.01679 2.24021 7.05638
2.00148 2.25552 7.06901
2.00148 2.25552 7.04381
2.06271 2.19429 7.14436
2.06271 2.19429 7.16952
2.04741 2.20959 7.15722
2.04741 2.20959 7.15722
2.06271 2.19429 7.16952
2.04744 2.20956 7.18263
2.03209 2.22491 7.09415
2.04741 2.20959 7.08149
2.0474 2.2096 7.10669
2.0474 2.2096 7.10669
2.03209 2.22491 7.11937
2.03209 2.22491 7.09415
1.97087 2.28613 6.94317
1.95555 2.30145 6.95575
1.95555 2.30145 6.93061
2.00148 2.25552 7.04381
2.00149 2.25551 7.01862
2.0168 2.2402 7.03119
2.0168 2.2402 7.03119
2.01679 2.24021 7.05638
2.00148 2.25552 7.04381
2.03211 2.22489 7.04375
2.01679 2.24021 7.05638
2.0168 2.2402 7.03119
2.03211 2.22489 7.01858
2.03211 2.22489 7.04375
2.0168 2.2402 7.03119
1.86358 2.39342 7.18276
1.86358 2.39342 7.20839
1.84822 2.40878 7.19491
1.84822 2.40878 7.19491
1.86358 2.39342 7.20839
1.84822 2.40878 7.2195
1.84822 2.40878 7.19491
1.84822 2.40878 7.2195
1.83285 2.42415 7.20838
1.83285 2.42415 7.20838
1.83285 2.42415 7.18275
1.84822 2.40878 7.19491
1.81747 2.43953 7.16985
1.83285 2.42415 7.18275
1.81747 2.43953 7.1949
1.80202 2.45498 6.80505
1.80202 2.45498 6.83015
1.7866 2.4704 6.8176
1.70922 2.54778 6.93056
1.69367 2.56333 6.918
1.70922 2.54778 6.90545
1.70924 2.54776 6.98083
1.6937 2.5633 6.99339
1.69369 2.56331 6.96825
1.63134 2.62566 7.14446
1.61564 2.64136 7.13185
1.63132 2.62568 7.11924
1.63135 2.62565 7.16966
1.61565 2.64135 7.15714
1.63134 2.62566 7.14446
1.69376 2.56324 7.09412
1.69378 2.56322 7.11934
1.6782 2.5788 7.10672
1.59983 2.65717 7.04358
1.61554 2.64146 7.03103
1.61557 2.64143 7.0562
1.59973 2.65727 6.94303
1.58397 2.67303 6.95556
1.58396 2.67304 6.93046
1.61564 2.64136 7.23441
1.63134 2.62566 7.2425
1.5999 2.6571 7.2425
1.63134 2.62566 7.21937
1.63134 2.62566 7.2425
1.61564 2.64136 7.23441
1.647 2.61 7.23447
1.63134 2.62566 7.2425
1.63134 2.62566 7.21937
1.59993 2.65707 7.16961
1.59992 2.65708 7.19469
1.58418 2.67282 7.18246
1.84822 2.40878 7.2425
1.81747 2.43953 7.2425
1.83285 2.42415 7.23472
1.83285 2.42415 7.20838
1.84822 2.40878 7.2195
1.83285 2.42415 7.23472
1.83285 2.42415 7.23472
1.84822 2.40878 7.2195
1.84822 2.40878 7.2425
1.81747 2.43953 7.21949
1.81747 2.43953 7.1949
1.83285 2.42415 7.20838
1.83285 2.42415 7.20838
1.83285 2.42415 7.23472
1.81747 2.43953 7.21949
1.81747 2.43953 7.21949
1.83285 2.42415 7.23472
1.81747 2.43953 7.2425
1.70931 2.54769 7.10676
1.69378 2.56322 7.11934
1.69376 2.56324 7.09412
1.7712 2.4858 7.0312
1.78663 2.47037 7.01862
1.78664 2.47036 7.0438
1.78664 2.47036 7.0438
1.77121 2.48579 7.05639
1.7712 2.4858 7.0312
1.77122 2.48578 7.0816
1.77121 2.48579 7.05639
1.78664 2.47036 7.069
1.77122 2.48578 7.0816
1.78664 2.47036 7.069
1.78665 2.47035 7.09421
1.78665 2.47035 7.09421
1.77123 2.48577 7.10682
1.77122 2.48578 7.0816
1.77122 2.48578 7.0816
1.77123 2.48577 7.10682
1.75578 2.50122 7.09419
1.78666 2.47034 7.11943
1.77123 2.48577 7.10682
1.78665 2.47035 7.09421
1.78666 2.47034 7.14464
1.77124 2.48576 7.15734
1.77124 2.48576 7.13206
1.77124 2.48576 7.13206
1.78666 2.47034 7.11943
1.78666 2.47034 7.14464
1.77123 2.48577 7.10682
1.78666 2.47034 7.11943
1.77124 2.48576 7.13206
2.07809 2.17891 6.37738
2.07833 2.17867 6.35116
2.0934 2.1636 6.36645
2.06287 2.19413 6.36573
2.07833 2.17867 6.35116
2.07809 2.17891 6.37738
1.94028 2.31672 6.36548
1.94028 2.31672 6.3425
1.95561 2.30139 6.35021
2.00164 2.25536 6.3425
1.98629 2.27071 6.35017
1.97095 2.28605 6.3425
1.97095 2.28605 6.3425
1.95561 2.30139 6.35021
1.94028 2.31672 6.3425
1.48928 2.76772 6.37897
1.48919 2.76781 6.35286
1.50509 2.75191 6.36645
1.50509 2.75191 6.36645
1.5206 2.7364 6.35101
1.52092 2.73608 6.37745
1.47362 2.78338 6.36782
1.48919 2.76781 6.35286
1.48928 2.76772 6.37897
1.47362 2.78338 6.36782
1.47412 2.78288 6.3425
1.48919 2.76781 6.35286
1.56833 2.68867 6.36567
1.5683 2.6887 6.3425
1.58412 2.67288 6.35063
[...]
<PointData Scalars="View Factor" >
<DataArray type="Float64" Name="View Factor" NumberOfComponents="1" format="ascii">
1.60156e-05
1.60156e-05
1.60156e-05
1.61427e-05
1.61427e-05
1.61427e-05
1.61005e-05
1.61005e-05
1.61005e-05
1.60169e-05
1.60169e-05
1.60169e-05
1.59988e-05
1.59988e-05
1.59988e-05
1.5888e-05
1.5888e-05
1.5888e-05
1.59712e-05
1.59712e-05
1.59712e-05
1.59545e-05
1.59545e-05
1.59545e-05
1.59525e-05
1.59525e-05
1.59525e-05
1.59278e-05
1.59278e-05
1.59278e-05
1.58686e-05
1.58686e-05
1.58686e-05
1.60376e-05
1.60376e-05
1.60376e-05
1.60796e-05
1.60796e-05
1.60796e-05
1.591e-05
1.591e-05
1.591e-05
1.58258e-05
1.58258e-05
1.58258e-05
1.61638e-05
1.61638e-05
1.61638e-05
1.60783e-05
1.60783e-05
1.60783e-05
1.60573e-05
1.60573e-05
1.60573e-05
1.80977e-05
1.80977e-05
1.80977e-05
1.64023e-05
1.64023e-05
1.64023e-05
1.6424e-05
1.6424e-05
1.6424e-05
1.68466e-05
1.68466e-05
1.68466e-05
3.41317e-05
3.41317e-05
3.41317e-05
3.08296e-05
3.08296e-05
3.08296e-05
1.6014e-05
1.6014e-05
1.6014e-05
1.59945e-05
1.59945e-05
1.59945e-05
1.59312e-05
1.59312e-05
1.59312e-05
1.58889e-05
1.58889e-05
1.58889e-05
1.57428e-05
1.57428e-05
1.57428e-05
1.58025e-05
1.58025e-05
1.58025e-05
1.57582e-05
1.57582e-05
1.57582e-05
1.58266e-05
1.58266e-05
1.58266e-05
1.58444e-05
1.58444e-05
1.58444e-05
1.63367e-05
1.63367e-05
1.63367e-05
1.59935e-05
1.59935e-05
1.59935e-05
1.59093e-05
1.59093e-05
1.59093e-05
1.59712e-05
1.59712e-05
1.59712e-05
1.6869e-05
1.6869e-05
1.6869e-05
1.80729e-05
1.80729e-05
1.80729e-05
1.66468e-05
1.66468e-05
1.66468e-05
1.62286e-05
1.62286e-05
1.62286e-05
1.625e-05
1.625e-05
1.625e-05
1.63594e-05
1.63594e-05
1.63594e-05
1.63152e-05
1.63152e-05
1.63152e-05
1.61652e-05
1.61652e-05
1.61652e-05
1.61863e-05
1.61863e-05
1.61863e-05
1.64726e-05
1.64726e-05
1.64726e-05
2.11786e-05
2.11786e-05
2.11786e-05
2.3525e-05
2.3525e-05
2.3525e-05
1.90127e-05
1.90127e-05
1.90127e-05
3.04951e-05
3.04951e-05
3.04951e-05
2.89488e-05
2.89488e-05
2.89488e-05
3.12535e-05
3.12535e-05
3.12535e-05
1.79504e-05
1.79504e-05
1.79504e-05
1.72356e-05
1.72356e-05
1.72356e-05
1.70511e-05
1.70511e-05
1.70511e-05
1.75433e-05
1.75433e-05
1.75433e-05
1.74707e-05
1.74707e-05
1.74707e-05
1.73294e-05
1.73294e-05
1.73294e-05
1.68941e-05
1.68941e-05
1.68941e-05
1.71742e-05
1.71742e-05
1.71742e-05
1.71232e-05
1.71232e-05
1.71232e-05
1.70762e-05
1.70762e-05
1.70762e-05
1.7193e-05
1.7193e-05
1.7193e-05
1.72167e-05
1.72167e-05
1.72167e-05
1.69598e-05
1.69598e-05
1.69598e-05
1.70284e-05
1.70284e-05
1.70284e-05
1.69372e-05
1.69372e-05
1.69372e-05
1.69832e-05
1.69832e-05
1.69832e-05
1.68501e-05
1.68501e-05
1.68501e-05
1.67142e-05
1.67142e-05
1.67142e-05
1.69911e-05
1.69911e-05
1.69911e-05
1.69437e-05
1.69437e-05
1.69437e-05
1.67789e-05
1.67789e-05
1.67789e-05
1.68258e-05
1.68258e-05
1.68258e-05
1.68039e-05
1.68039e-05
1.68039e-05
1.6736e-05
1.6736e-05
1.6736e-05
1.64253e-05
1.64253e-05
1.64253e-05
1.64468e-05
1.64468e-05
1.64468e-05
1.65131e-05
1.65131e-05
1.65131e-05
1.65607e-05
1.65607e-05
1.65607e-05
1.64939e-05
1.64939e-05
1.64939e-05
1.64487e-05
1.64487e-05
1.64487e-05
1.64701e-05
1.64701e-05
1.64701e-05
1.66066e-05
1.66066e-05
1.66066e-05
1.66981e-05
1.66981e-05
1.66981e-05
1.61231e-05
1.61231e-05
1.61231e-05
1.6103e-05
1.6103e-05
1.6103e-05
1.64062e-05
1.64062e-05
1.64062e-05
1.6385e-05
1.6385e-05
1.6385e-05
1.73259e-05
1.73259e-05
1.73259e-05
1.67901e-05
1.67901e-05
1.67901e-05
1.67206e-05
1.67206e-05
1.67206e-05
1.66741e-05
1.66741e-05
1.66741e-05
1.66955e-05
1.66955e-05
1.66955e-05
2.00728e-05
2.00728e-05
2.00728e-05
2.02032e-05
2.02032e-05
2.02032e-05
2.05707e-05
2.05707e-05
2.05707e-05
2.08099e-05
2.08099e-05
2.08099e-05
2.14196e-05
2.14196e-05
2.14196e-05
2.41572e-05
2.41572e-05
2.41572e-05
2.71931e-05
2.71931e-05
2.71931e-05
2.70271e-05
2.70271e-05
2.70271e-05
2.88351e-05
2.88351e-05
2.88351e-05
2.86841e-05
2.86841e-05
2.86841e-05
2.66909e-05
2.66909e-05
2.66909e-05
2.99716e-05
2.99716e-05
2.99716e-05
3.14271e-05
3.14271e-05
3.14271e-05
2.8562e-05
2.8562e-05
2.8562e-05
2.82323e-05
2.82323e-05
2.82323e-05
2.78574e-05
2.78574e-05
2.78574e-05
2.96677e-05
2.96677e-05
2.96677e-05
2.07942e-05
2.07942e-05
2.07942e-05
2.06995e-05
2.06995e-05
2.06995e-05
2.04656e-05
2.04656e-05
2.04656e-05
2.1308e-05
2.1308e-05
2.1308e-05
2.10665e-05
2.10665e-05
2.10665e-05
2.11985e-05
2.11985e-05
2.11985e-05
2.63093e-05
2.63093e-05
2.63093e-05
2.36542e-05
2.36542e-05
2.36542e-05
2.37796e-05
2.37796e-05
2.37796e-05
2.36548e-05
2.36548e-05
2.36548e-05
2.33989e-05
2.33989e-05
2.33989e-05
2.35264e-05
2.35264e-05
2.35264e-05
2.39055e-05
2.39055e-05
2.39055e-05
2.32755e-05
2.32755e-05
2.32755e-05
2.32765e-05
2.32765e-05
2.32765e-05
2.31504e-05
2.31504e-05
2.31504e-05
2.3399e-05
2.3399e-05
2.3399e-05
1.89898e-05
1.89898e-05
1.89898e-05
1.90424e-05
1.90424e-05
1.90424e-05
2.03236e-05
2.03236e-05
2.03236e-05
1.95832e-05
1.95832e-05
1.95832e-05
1.99166e-05
1.99166e-05
1.99166e-05
3.97322e-05
3.97322e-05
3.97322e-05
3.88315e-05
3.88315e-05
3.88315e-05
4.01826e-05
4.01826e-05
4.01826e-05
4.05073e-05
4.05073e-05
4.05073e-05
3.64112e-05
3.64112e-05
3.64112e-05
3.46449e-05
3.46449e-05
3.46449e-05
3.6017e-05
3.6017e-05
3.6017e-05
3.9002e-05
3.9002e-05
3.9002e-05
3.86736e-05
3.86736e-05
3.86736e-05
2.89814e-05
2.89814e-05
2.89814e-05
2.97787e-05
2.97787e-05
2.97787e-05
2.95135e-05
2.95135e-05
2.95135e-05
3.2116e-05
3.2116e-05
3.2116e-05
3.18285e-05
3.18285e-05
3.18285e-05
3.04271e-05
3.04271e-05
3.04271e-05
1.81718e-05
1.81718e-05
1.81718e-05
1.74226e-05
1.74226e-05
1.74226e-05
1.77565e-05
1.77565e-05
1.77565e-05
1.77316e-05
1.77316e-05
1.77316e-05
1.78531e-05
1.78531e-05
1.78531e-05
1.78292e-05
1.78292e-05
1.78292e-05
1.78784e-05
1.78784e-05
1.78784e-05
1.79519e-05
1.79519e-05
1.79519e-05
1.79758e-05
1.79758e-05
1.79758e-05
1.79263e-05
1.79263e-05
1.79263e-05
2.47364e-05
2.47364e-05
2.47364e-05
2.48936e-05
2.48936e-05
2.48936e-05
2.52262e-05
2.52262e-05
2.52262e-05
1.80497e-05
1.80497e-05
1.80497e-05
1.79992e-05
1.79992e-05
1.79992e-05
1.77852e-05
1.77852e-05
1.77852e-05
1.85636e-05
1.85636e-05
1.85636e-05
1.72711e-05
1.72711e-05
1.72711e-05
1.86164e-05
1.86164e-05
1.86164e-05
1.77242e-05
1.77242e-05
1.77242e-05
1.77989e-05
1.77989e-05
1.77989e-05
1.81735e-05
1.81735e-05
1.81735e-05
1.83227e-05
1.83227e-05
1.83227e-05
1.75918e-05
1.75918e-05
1.75918e-05
1.73288e-05
1.73288e-05
1.73288e-05
1.73055e-05
1.73055e-05
1.73055e-05
1.73525e-05
1.73525e-05
1.73525e-05
1.7423e-05
1.7423e-05
1.7423e-05
1.74464e-05
1.74464e-05
1.74464e-05
1.73991e-05
1.73991e-05
1.73991e-05
2.08166e-05
2.08166e-05
2.08166e-05
2.06711e-05
2.06711e-05
2.06711e-05
1.85215e-05
1.85215e-05
1.85215e-05
1.82712e-05
1.82712e-05
1.82712e-05
1.84204e-05
1.84204e-05
1.84204e-05
1.88189e-05
1.88189e-05
1.88189e-05
2.07831e-05
2.07831e-05
2.07831e-05
2.1043e-05
2.1043e-05
2.1043e-05
2.13285e-05
2.13285e-05
2.13285e-05
2.09264e-05
2.09264e-05
2.09264e-05
1.89222e-05
1.89222e-05
1.89222e-05
1.90703e-05
1.90703e-05
1.90703e-05
1.687e-05
1.687e-05
1.687e-05
1.69162e-05
1.69162e-05
1.69162e-05
1.69848e-05
1.69848e-05
1.69848e-05
1.68923e-05
1.68923e-05
1.68923e-05
1.69607e-05
1.69607e-05
1.69607e-05
1.70071e-05
1.70071e-05
1.70071e-05
1.71263e-05
1.71263e-05
1.71263e-05
1.70316e-05
1.70316e-05
1.70316e-05
1.7101e-05
1.7101e-05
1.7101e-05
1.71484e-05
1.71484e-05
1.71484e-05
1.74564e-05
1.74564e-05
1.74564e-05
1.74322e-05
1.74322e-05
1.74322e-05
1.74812e-05
1.74812e-05
1.74812e-05
1.70746e-05
1.70746e-05
1.70746e-05
1.71908e-05
1.71908e-05
1.71908e-05
1.71438e-05
1.71438e-05
1.71438e-05
1.71694e-05
1.71694e-05
1.71694e-05
1.70986e-05
1.70986e-05
1.70986e-05
1.7052e-05
1.7052e-05
1.7052e-05
1.69186e-05
1.69186e-05
1.69186e-05
1.69656e-05
1.69656e-05
1.69656e-05
1.70347e-05
1.70347e-05
1.70347e-05
1.69406e-05
1.69406e-05
1.69406e-05
1.70567e-05
1.70567e-05
1.70567e-05
1.70095e-05
1.70095e-05
1.70095e-05
1.70824e-05
1.70824e-05
1.70824e-05
1.7151e-05
1.7151e-05
1.7151e-05
1.71992e-05
1.71992e-05
1.71992e-05
1.70618e-05
1.70618e-05
1.70618e-05
1.68283e-05
1.68283e-05
1.68283e-05
1.6875e-05
1.6875e-05
1.6875e-05
1.67602e-05
1.67602e-05
1.67602e-05
1.67386e-05
1.67386e-05
1.67386e-05
1.69694e-05
1.69694e-05
1.69694e-05
1.68008e-05
1.68008e-05
1.68008e-05
1.67554e-05
1.67554e-05
1.67554e-05
1.66893e-05
1.66893e-05
1.66893e-05
1.67799e-05
1.67799e-05
1.67799e-05
1.65118e-05
1.65118e-05
1.65118e-05
1.66015e-05
1.66015e-05
1.66015e-05
1.64901e-05
1.64901e-05
1.64901e-05
1.65347e-05
1.65347e-05
1.65347e-05
1.66003e-05
1.66003e-05
1.66003e-05
1.66684e-05
1.66684e-05
1.66684e-05
1.67136e-05
1.67136e-05
1.67136e-05
1.66904e-05
1.66904e-05
1.66904e-05
1.66233e-05
1.66233e-05
1.66233e-05
1.65783e-05
1.65783e-05
1.65783e-05
1.66494e-05
1.66494e-05
1.66494e-05
1.65582e-05
1.65582e-05
1.65582e-05
1.65821e-05
1.65821e-05
1.65821e-05
1.65367e-05
1.65367e-05
1.65367e-05
1.66709e-05
1.66709e-05
1.66709e-05
1.66252e-05
1.66252e-05
1.66252e-05
1.65182e-05
1.65182e-05
1.65182e-05
1.65853e-05
1.65853e-05
1.65853e-05
1.66316e-05
1.66316e-05
1.66316e-05
1.62091e-05
1.62091e-05
1.62091e-05
1.62967e-05
1.62967e-05
1.62967e-05
1.62744e-05
1.62744e-05
1.62744e-05
1.63189e-05
1.63189e-05
1.63189e-05
1.61867e-05
1.61867e-05
1.61867e-05
1.6231e-05
1.6231e-05
1.6231e-05
1.60394e-05
1.60394e-05
1.60394e-05
1.60592e-05
1.60592e-05
1.60592e-05
1.60607e-05
1.60607e-05
1.60607e-05
1.60836e-05
1.60836e-05
1.60836e-05
1.61477e-05
1.61477e-05
1.61477e-05
1.62124e-05
1.62124e-05
1.62124e-05
1.61694e-05
1.61694e-05
1.61694e-05
1.61468e-05
1.61468e-05
1.61468e-05
1.6125e-05
1.6125e-05
1.6125e-05
1.63613e-05
1.63613e-05
1.63613e-05
1.62725e-05
1.62725e-05
1.62725e-05
1.62513e-05
1.62513e-05
1.62513e-05
1.62956e-05
1.62956e-05
1.62956e-05
1.6338e-05
1.6338e-05
1.6338e-05
1.63826e-05
1.63826e-05
1.63826e-05
2.01214e-05
2.01214e-05
2.01214e-05
2.03726e-05
2.03726e-05
2.03726e-05
1.89526e-05
1.89526e-05
1.89526e-05
1.97316e-05
1.97316e-05
1.97316e-05
1.72548e-05
1.72548e-05
1.72548e-05
1.97019e-05
1.97019e-05
1.97019e-05
2.01001e-05
2.01001e-05
2.01001e-05
1.99652e-05
1.99652e-05
1.99652e-05
2.42914e-05
2.42914e-05
2.42914e-05
2.37561e-05
2.37561e-05
2.37561e-05
2.14729e-05
2.14729e-05
2.14729e-05
2.12165e-05
2.12165e-05
2.12165e-05
2.74697e-05
2.74697e-05
2.74697e-05
2.84453e-05
2.84453e-05
2.84453e-05
2.73179e-05
2.73179e-05
2.73179e-05
2.95053e-05
2.95053e-05
2.95053e-05
3.00301e-05
3.00301e-05
3.00301e-05
2.99099e-05
2.99099e-05
2.99099e-05
2.91058e-05
2.91058e-05
2.91058e-05
2.87972e-05
2.87972e-05
2.87972e-05
2.91777e-05
2.91777e-05
2.91777e-05
2.92874e-05
2.92874e-05
2.92874e-05
2.84524e-05
2.84524e-05
2.84524e-05
2.83403e-05
2.83403e-05
2.83403e-05
2.76895e-05
2.76895e-05
2.76895e-05
2.79573e-05
2.79573e-05
2.79573e-05
2.81402e-05
2.81402e-05
2.81402e-05
2.77528e-05
2.77528e-05
2.77528e-05
2.89158e-05
2.89158e-05
2.89158e-05
2.93049e-05
2.93049e-05
2.93049e-05
2.95805e-05
2.95805e-05
2.95805e-05
2.80536e-05
2.80536e-05
2.80536e-05
2.74545e-05
2.74545e-05
2.74545e-05
2.78378e-05
2.78378e-05
2.78378e-05
3.02478e-05
3.02478e-05
3.02478e-05
3.01338e-05
3.01338e-05
3.01338e-05
2.99016e-05
2.99016e-05
2.99016e-05
3.13099e-05
3.13099e-05
3.13099e-05
2.74361e-05
2.74361e-05
2.74361e-05
2.63204e-05
2.63204e-05
2.63204e-05
2.93313e-05
2.93313e-05
2.93313e-05
2.9445e-05
2.9445e-05
2.9445e-05
2.18981e-05
2.18981e-05
2.18981e-05
2.15649e-05
2.15649e-05
2.15649e-05
2.45565e-05
2.45565e-05
2.45565e-05
2.46832e-05
2.46832e-05
2.46832e-05
2.33942e-05
2.33942e-05
2.33942e-05
2.40127e-05
2.40127e-05
2.40127e-05
2.41617e-05
2.41617e-05
2.41617e-05
2.4036e-05
2.4036e-05
2.4036e-05
2.36514e-05
2.36514e-05
2.36514e-05
2.44034e-05
2.44034e-05
2.44034e-05
1.9097e-05
1.9097e-05
1.9097e-05
1.91164e-05
1.91164e-05
1.91164e-05
1.93104e-05
1.93104e-05
1.93104e-05
1.93327e-05
1.93327e-05
1.93327e-05
1.94204e-05
1.94204e-05
1.94204e-05
3.82503e-05
3.82503e-05
3.82503e-05
3.83779e-05
3.83779e-05
3.83779e-05
3.739e-05
3.739e-05
3.739e-05
3.77903e-05
3.77903e-05
3.77903e-05
3.74651e-05
3.74651e-05
3.74651e-05
3.68699e-05
3.68699e-05
3.68699e-05
3.70077e-05
3.70077e-05
3.70077e-05
3.66664e-05
3.66664e-05
3.66664e-05
3.89387e-05
3.89387e-05
3.89387e-05
3.95059e-05
3.95059e-05
3.95059e-05
3.93899e-05
3.93899e-05
3.93899e-05
3.96155e-05
3.96155e-05
3.96155e-05
3.91662e-05
3.91662e-05
3.91662e-05
4.01328e-05
4.01328e-05
4.01328e-05
3.87776e-05
3.87776e-05
3.87776e-05
3.50952e-05
3.50952e-05
3.50952e-05
3.44249e-05
3.44249e-05
3.44249e-05
3.44659e-05
3.44659e-05
3.44659e-05
3.80804e-05
3.80804e-05
3.80804e-05
3.82881e-05
3.82881e-05
3.82881e-05
3.79695e-05
3.79695e-05
3.79695e-05
3.74328e-05
3.74328e-05
3.74328e-05
3.7543e-05
3.7543e-05
3.7543e-05
3.91317e-05
3.91317e-05
3.91317e-05
3.72059e-05
3.72059e-05
3.72059e-05
3.69556e-05
3.69556e-05
3.69556e-05
3.51482e-05
3.51482e-05
3.51482e-05
3.48427e-05
3.48427e-05
3.48427e-05
3.67904e-05
3.67904e-05
3.67904e-05
3.63496e-05
3.63496e-05
3.63496e-05
3.76735e-05
3.76735e-05
3.76735e-05
3.81157e-05
3.81157e-05
3.81157e-05
3.82317e-05
3.82317e-05
3.82317e-05
3.50818e-05
3.50818e-05
3.50818e-05
3.95608e-05
3.95608e-05
3.95608e-05
3.97767e-05
3.97767e-05
3.97767e-05
3.94462e-05
3.94462e-05
3.94462e-05
2.90691e-05
2.90691e-05
2.90691e-05
2.87864e-05
2.87864e-05
2.87864e-05
3.0931e-05
3.0931e-05
3.0931e-05
2.82201e-05
2.82201e-05
2.82201e-05
2.80925e-05
2.80925e-05
2.80925e-05
2.83745e-05
2.83745e-05
2.83745e-05
2.61713e-05
2.61713e-05
2.61713e-05
2.67184e-05
2.67184e-05
2.67184e-05
3.21019e-05
3.21019e-05
3.21019e-05
3.19801e-05
3.19801e-05
3.19801e-05
2.84875e-05
2.84875e-05
2.84875e-05
2.88641e-05
2.88641e-05
2.88641e-05
2.91348e-05
2.91348e-05
2.91348e-05
2.90177e-05
2.90177e-05
2.90177e-05
2.93581e-05
2.93581e-05
2.93581e-05
2.96204e-05
2.96204e-05
2.96204e-05
2.96888e-05
2.96888e-05
2.96888e-05
3.0116e-05
3.0116e-05
3.0116e-05
2.99989e-05
2.99989e-05
2.99989e-05
3.66654e-05
3.66654e-05
3.66654e-05
3.64686e-05
3.64686e-05
3.64686e-05
3.63625e-05
3.63625e-05
3.63625e-05
3.19442e-05
3.19442e-05
3.19442e-05
3.21677e-05
3.21677e-05
3.21677e-05
3.24573e-05
3.24573e-05
3.24573e-05
3.23454e-05
3.23454e-05
3.23454e-05
3.31492e-05
3.31492e-05
3.31492e-05
3.29683e-05
3.29683e-05
3.29683e-05
3.2858e-05
3.2858e-05
3.2858e-05
3.33687e-05
3.33687e-05
3.33687e-05
3.03148e-05
3.03148e-05
3.03148e-05
3.0086e-05
3.0086e-05
3.0086e-05
3.19352e-05
3.19352e-05
3.19352e-05
3.1823e-05
3.1823e-05
3.1823e-05
3.08155e-05
3.08155e-05
3.08155e-05
3.16351e-05
3.16351e-05
3.16351e-05
3.19701e-05
3.19701e-05
3.19701e-05
3.23972e-05
3.23972e-05
3.23972e-05
3.01589e-05
3.01589e-05
3.01589e-05
3.02723e-05
3.02723e-05
3.02723e-05
3.07548e-05
3.07548e-05
3.07548e-05
3.11349e-05
3.11349e-05
3.11349e-05
3.06525e-05
3.06525e-05
3.06525e-05
3.09218e-05
3.09218e-05
3.09218e-05
1.93648e-05
1.93648e-05
1.93648e-05
1.94405e-05
1.94405e-05
1.94405e-05
1.94958e-05
1.94958e-05
1.94958e-05
1.94749e-05
1.94749e-05
1.94749e-05
1.96625e-05
1.96625e-05
1.96625e-05
1.9606e-05
1.9606e-05
1.9606e-05
1.95306e-05
1.95306e-05
1.95306e-05
2.2676e-05
2.2676e-05
2.2676e-05
1.90141e-05
1.90141e-05
1.90141e-05
1.90671e-05
1.90671e-05
1.90671e-05
1.92272e-05
1.92272e-05
1.92272e-05
1.91735e-05
1.91735e-05
1.91735e-05
1.76607e-05
1.76607e-05
1.76607e-05
1.76372e-05
1.76372e-05
1.76372e-05
1.75654e-05
1.75654e-05
1.75654e-05
1.75174e-05
1.75174e-05
1.75174e-05
1.76121e-05
1.76121e-05
1.76121e-05
1.7708e-05
1.7708e-05
1.7708e-05
1.77805e-05
1.77805e-05
1.77805e-05
1.78809e-05
1.78809e-05
1.78809e-05
1.79044e-05
1.79044e-05
1.79044e-05
1.78547e-05
1.78547e-05
1.78547e-05
2.40081e-05
2.40081e-05
2.40081e-05
2.37274e-05
2.37274e-05
2.37274e-05
2.43837e-05
2.43837e-05
2.43837e-05
2.49482e-05
2.49482e-05
2.49482e-05
2.53695e-05
2.53695e-05
2.53695e-05
2.56505e-05
2.56505e-05
2.56505e-05
2.48055e-05
2.48055e-05
2.48055e-05
2.55098e-05
2.55098e-05
2.55098e-05
2.50861e-05
2.50861e-05
2.50861e-05
2.46701e-05
2.46701e-05
2.46701e-05
2.55114e-05
2.55114e-05
2.55114e-05
2.57899e-05
2.57899e-05
2.57899e-05
2.92579e-05
2.92579e-05
2.92579e-05
2.60735e-05
2.60735e-05
2.60735e-05
2.88225e-05
2.88225e-05
2.88225e-05
2.10564e-05
2.10564e-05
2.10564e-05
2.35846e-05
2.35846e-05
2.35846e-05
2.38569e-05
2.38569e-05
2.38569e-05
2.32839e-05
2.32839e-05
2.32839e-05
2.27233e-05
2.27233e-05
2.27233e-05
2.28678e-05
2.28678e-05
2.28678e-05
2.46043e-05
2.46043e-05
2.46043e-05
2.07638e-05
2.07638e-05
2.07638e-05
2.19673e-05
2.19673e-05
2.19673e-05
2.225e-05
2.225e-05
2.225e-05
2.26899e-05
2.26899e-05
2.26899e-05
2.29691e-05
2.29691e-05
2.29691e-05
2.424e-05
2.424e-05
2.424e-05
2.30999e-05
2.30999e-05
2.30999e-05
2.39477e-05
2.39477e-05
2.39477e-05
1.8024e-05
1.8024e-05
1.8024e-05
1.80739e-05
1.80739e-05
1.80739e-05
2.09417e-05
2.09417e-05
2.09417e-05
2.01141e-05
2.01141e-05
2.01141e-05
2.0377e-05
2.0377e-05
2.0377e-05
2.07916e-05
2.07916e-05
2.07916e-05
1.89271e-05
1.89271e-05
1.89271e-05
1.99375e-05
1.99375e-05
1.99375e-05
1.83696e-05
1.83696e-05
1.83696e-05
1.79733e-05
1.79733e-05
1.79733e-05
1.79015e-05
1.79015e-05
1.79015e-05
1.78043e-05
1.78043e-05
1.78043e-05
1.79013e-05
1.79013e-05
1.79013e-05
1.79269e-05
1.79269e-05
1.79269e-05
1.78783e-05
1.78783e-05
1.78783e-05
1.77079e-05
1.77079e-05
1.77079e-05
1.76838e-05
1.76838e-05
1.76838e-05
1.77319e-05
1.77319e-05
1.77319e-05
1.78043e-05
1.78043e-05
1.78043e-05
1.78284e-05
1.78284e-05
1.78284e-05
1.77801e-05
1.77801e-05
1.77801e-05
1.71201e-05
1.71201e-05
1.71201e-05
1.71666e-05
1.71666e-05
1.71666e-05
1.72363e-05
1.72363e-05
1.72363e-05
1.71431e-05
1.71431e-05
1.71431e-05
1.72592e-05
1.72592e-05
1.72592e-05
1.72125e-05
1.72125e-05
1.72125e-05
1.78817e-05
1.78817e-05
1.78817e-05
1.84185e-05
1.84185e-05
1.84185e-05
1.80286e-05
1.80286e-05
1.80286e-05
1.81264e-05
1.81264e-05
1.81264e-05
1.73201e-05
1.73201e-05
1.73201e-05
1.74186e-05
1.74186e-05
1.74186e-05
1.7347e-05
1.7347e-05
1.7347e-05
1.72976e-05
1.72976e-05
1.72976e-05
1.7513e-05
1.7513e-05
1.7513e-05
1.74411e-05
1.74411e-05
1.74411e-05
1.73914e-05
1.73914e-05
1.73914e-05
1.7414e-05
1.7414e-05
1.7414e-05
1.7573e-05
1.7573e-05
1.7573e-05
1.76737e-05
1.76737e-05
1.76737e-05
1.75524e-05
1.75524e-05
1.75524e-05
1.76024e-05
1.76024e-05
1.76024e-05
1.74534e-05
1.74534e-05
1.74534e-05
1.75237e-05
1.75237e-05
1.75237e-05
1.78947e-05
1.78947e-05
1.78947e-05
1.78202e-05
1.78202e-05
1.78202e-05
1.82222e-05
1.82222e-05
1.82222e-05
1.79788e-05
1.79788e-05
1.79788e-05
1.77019e-05
1.77019e-05
1.77019e-05
1.80745e-05
1.80745e-05
1.80745e-05
1.7931e-05
1.7931e-05
1.7931e-05
1.79064e-05
1.79064e-05
1.79064e-05
1.7765e-05
1.7765e-05
1.7765e-05
1.76611e-05
1.76611e-05
1.76611e-05
1.76857e-05
1.76857e-05
1.76857e-05
1.78077e-05
1.78077e-05
1.78077e-05
1.77582e-05
1.77582e-05
1.77582e-05
1.86636e-05
1.86636e-05
1.86636e-05
1.85185e-05
1.85185e-05
1.85185e-05
1.87636e-05
1.87636e-05
1.87636e-05
1.91569e-05
1.91569e-05
1.91569e-05
1.93016e-05
1.93016e-05
1.93016e-05
1.90548e-05
1.90548e-05
1.90548e-05
1.91988e-05
1.91988e-05
1.91988e-05
1.95894e-05
1.95894e-05
1.95894e-05
1.88656e-05
1.88656e-05
1.88656e-05
1.8719e-05
1.8719e-05
1.8719e-05
1.89676e-05
1.89676e-05
1.89676e-05
1.93653e-05
1.93653e-05
1.93653e-05
2.05596e-05
2.05596e-05
2.05596e-05
2.01613e-05
2.01613e-05
2.01613e-05
1.91737e-05
1.91737e-05
1.91737e-05
1.9682e-05
1.9682e-05
1.9682e-05
2.02705e-05
2.02705e-05
2.02705e-05
1.94702e-05
1.94702e-05
1.94702e-05
2.00162e-05
2.00162e-05
2.00162e-05
1.96172e-05
1.96172e-05
1.96172e-05
2.04554e-05
2.04554e-05
2.04554e-05
2.34593e-05
2.34593e-05
2.34593e-05
2.35998e-05
2.35998e-05
2.35998e-05
2.14473e-05
2.14473e-05
2.14473e-05
2.15895e-05
2.15895e-05
2.15895e-05
1.73863e-05
1.73863e-05
1.73863e-05
1.73647e-05
1.73647e-05
1.73647e-05
1.72445e-05
1.72445e-05
1.72445e-05
1.72931e-05
1.72931e-05
1.72931e-05
1.73112e-05
1.73112e-05
1.73112e-05
1.73597e-05
1.73597e-05
1.73597e-05
1.72408e-05
1.72408e-05
1.72408e-05
1.73374e-05
1.73374e-05
1.73374e-05
1.72185e-05
1.72185e-05
1.72185e-05
1.72666e-05
1.72666e-05
1.72666e-05
1.69251e-05
1.69251e-05
1.69251e-05
1.68521e-05
1.68521e-05
1.68521e-05
1.68991e-05
1.68991e-05
1.68991e-05
1.6785e-05
1.6785e-05
1.6785e-05
1.68776e-05
1.68776e-05
1.68776e-05