<VTKFile type="UnstructuredGrid" version="1.0">
<UnstructuredGrid>
<Piece NumberOfPoints="8859" NumberOfCells="2953">
<Points>
<DataArray type="Float64" NumberOfComponents="3" format="ascii">
0.5 3.01 7.22
0.512524 3.01 7.2425
0.487476 3.01 7.2425
0.17352 3.01 6.3425
0.160827 3.01 6.36422
0.148445 3.01 6.3425
0.122979 3.01 6.38589
0.110383 3.01 6.36421
0.135644 3.01 6.36422
0.135644 3.01 6.36422
0.110383 3.01 6.36421
0.123433 3.01 6.3425
0.123433 3.01 6.3425
0.148445 3.01 6.3425
0.135644 3.01 6.36422
0.135644 3.01 6.36422
0.148445 3.01 6.3425
0.160827 3.01 6.36422
0.17352 3.01 6.3425
0.198629 3.01 6.3425
0.185985 3.01 6.3642
0.185985 3.01 6.3642
0.160827 3.01 6.36422
0.17352 3.01 6.3425
0.0732297 3.01 6.38567
0.0586606 3.01 6.36381
0.0848754 3.01 6.36414
0.05 3.01 7.17527
0.05 3.01 7.1301
0.058509 3.01 7.15256
0.324276 3.01 6.3425
0.349395 3.01 6.3425
0.336827 3.01 6.36416
0.148138 3.01 6.3859
0.135644 3.01 6.36422
0.160827 3.01 6.36422
0.122979 3.01 6.38589
0.135644 3.01 6.36422
0.148138 3.01 6.3859
0.160827 3.01 6.36422
0.185985 3.01 6.3642
0.173316 3.01 6.38589
0.185806 3.01 6.40755
0.160572 3.01 6.40755
0.173316 3.01 6.38589
0.173316 3.01 6.38589
0.148138 3.01 6.3859
0.160827 3.01 6.36422
0.160572 3.01 6.40755
0.148138 3.01 6.3859
0.173316 3.01 6.38589
0.211137 3.01 6.36419
0.185985 3.01 6.3642
0.198629 3.01 6.3425
0.0979162 3.01 6.38584
0.110383 3.01 6.36421
0.122979 3.01 6.38589
0.122979 3.01 6.38589
0.109875 3.01 6.40749
0.0979162 3.01 6.38584
0.0732297 3.01 6.38567
0.0848754 3.01 6.36414
0.0979162 3.01 6.38584
0.0979162 3.01 6.38584
0.0848754 3.01 6.36414
0.110383 3.01 6.36421
0.0975729 3.01 6.42904
0.109875 3.01 6.40749
0.122678 3.01 6.42914
0.0841718 3.01 6.40735
0.0577122 3.01 6.40702
0.0732297 3.01 6.38567
0.0729308 3.01 6.42888
0.0577122 3.01 6.40702
0.0841718 3.01 6.40735
0.0732297 3.01 6.38567
0.0979162 3.01 6.38584
0.0841718 3.01 6.40735
0.0841718 3.01 6.40735
0.0979162 3.01 6.38584
0.109875 3.01 6.40749
0.0975729 3.01 6.42904
0.0729308 3.01 6.42888
0.0841718 3.01 6.40735
0.0841718 3.01 6.40735
0.109875 3.01 6.40749
0.0975729 3.01 6.42904
0.073948 3.01 6.3425
0.0586606 3.01 6.36381
0.05 3.01 6.3425
0.073948 3.01 6.3425
0.0848754 3.01 6.36414
0.0586606 3.01 6.36381
0.05 3.01 7.21829
0.05 3.01 7.17527
0.0603641 3.01 7.19697
0.0603641 3.01 7.19697
0.0753197 3.01 7.21899
0.05 3.01 7.21829
0.0709395 3.01 7.2425
0.05 3.01 7.2425
0.05 3.01 7.21829
0.05 3.01 7.21829
0.0753197 3.01 7.21899
0.0709395 3.01 7.2425
0.0579641 3.01 6.92963
0.05 3.01 6.95169
0.05 3.01 6.90761
0.0841948 3.01 6.84179
0.097638 3.01 6.81993
0.109814 3.01 6.8418
0.0841948 3.01 6.84179
0.0730539 3.01 6.8637
0.0578646 3.01 6.8418
0.0580261 3.01 6.9738
0.05 3.01 6.99595
0.05 3.01 6.95169
0.942292 3.01 6.53735
0.95 3.01 6.51567
0.95 3.01 6.55904
0.95 3.01 6.47226
0.95 3.01 6.51567
0.942332 3.01 6.49397
0.73872 3.01 6.75453
0.726137 3.01 6.73276
0.75132 3.01 6.73275
0.751305 3.01 6.77632
0.726124 3.01 6.77633
0.73872 3.01 6.75453
0.713546 3.01 6.75454
0.726137 3.01 6.73276
0.73872 3.01 6.75453
0.73872 3.01 6.75453
0.726124 3.01 6.77633
0.713546 3.01 6.75454
0.814318 3.01 6.79811
0.789096 3.01 6.79812
0.801709 3.01 6.7763
0.7765 3.01 6.77631
0.789115 3.01 6.75451
0.801709 3.01 6.7763
0.801709 3.01 6.7763
0.789096 3.01 6.79812
0.7765 3.01 6.77631
0.7765 3.01 6.77631
0.789096 3.01 6.79812
0.763892 3.01 6.79814
0.763892 3.01 6.79814
0.751305 3.01 6.77632
0.7765 3.01 6.77631
0.95 3.01 7.2425
0.929061 3.01 7.2425
0.95 3.01 7.21829
0.95 3.01 7.0404
0.926844 3.01 7.0404
0.941913 3.01 7.01815
0.941913 3.01 7.01815
0.95 3.01 6.99595
0.95 3.01 7.0404
0.926866 3.01 6.99594
0.95 3.01 6.99595
0.941913 3.01 7.01815
0.941974 3.01 6.9738
0.95 3.01 6.99595
0.926866 3.01 6.99594
0.95 3.01 6.95169
0.95 3.01 6.99595
0.941974 3.01 6.9738
0.941974 3.01 6.9738
0.926895 3.01 6.95169
0.95 3.01 6.95169
0.6127 3.01 7.2425
0.625238 3.01 7.21998
0.637734 3.01 7.2425
0.662757 3.01 7.2425
0.637734 3.01 7.2425
0.650275 3.01 7.21997
0.650275 3.01 7.21997
0.637734 3.01 7.2425
0.625238 3.01 7.21998
0.600415 3.01 6.77637
0.587856 3.01 6.7982
0.575304 3.01 6.77637
0.575304 3.01 6.77637
0.587856 3.01 6.7982
0.562749 3.01 6.7982
0.336827 3.01 6.36416
0.349395 3.01 6.3425
0.361946 3.01 6.36416
0.223755 3.01 6.3425
0.211137 3.01 6.36419
0.198629 3.01 6.3425
0.185985 3.01 6.3642
0.211137 3.01 6.36419
0.198492 3.01 6.38588
0.185806 3.01 6.40755
0.173316 3.01 6.38589
0.198492 3.01 6.38588
0.198492 3.01 6.38588
0.173316 3.01 6.38589
0.185985 3.01 6.3642
0.0576202 3.01 6.45053
0.05 3.01 6.47226
0.05 3.01 6.42874
0.05 3.01 6.42874
0.0729308 3.01 6.42888
0.0576202 3.01 6.45053
0.05 3.01 6.42874
0.0577122 3.01 6.40702
0.0729308 3.01 6.42888
0.135283 3.01 6.40754
0.109875 3.01 6.40749
0.122979 3.01 6.38589
0.135283 3.01 6.40754
0.122678 3.01 6.42914
0.109875 3.01 6.40749
0.122979 3.01 6.38589
0.148138 3.01 6.3859
0.135283 3.01 6.40754
0.135283 3.01 6.40754
0.148138 3.01 6.3859
0.160572 3.01 6.40755
0.123433 3.01 6.3425
0.110383 3.01 6.36421
0.0985513 3.01 6.3425
0.110383 3.01 6.36421
0.0848754 3.01 6.36414
0.0985513 3.01 6.3425
0.0848754 3.01 6.36414
0.073948 3.01 6.3425
0.0985513 3.01 6.3425
0.0603641 3.01 7.19697
0.05 3.01 7.17527
0.0739464 3.01 7.17449
0.0739464 3.01 7.17449
0.05 3.01 7.17527
0.058509 3.01 7.15256
0.058509 3.01 7.15256
0.0849548 3.01 7.15211
0.0739464 3.01 7.17449
0.058509 3.01 7.15256
0.05 3.01 7.1301
0.0732725 3.01 7.12988
0.0732725 3.01 7.12988
0.0849548 3.01 7.15211
0.058509 3.01 7.15256
0.5 3.01 7.22
0.487476 3.01 7.2425
0.47495 3.01 7.22
0.097663 3.01 6.8637
0.0841948 3.01 6.84179
0.109814 3.01 6.8418
0.0730539 3.01 6.8637
0.0841948 3.01 6.84179
0.097663 3.01 6.8637
0.0578646 3.01 6.8418
0.0730539 3.01 6.8637
0.05 3.01 6.8637
0.05 3.01 6.8637
0.05 3.01 6.81992
0.0578646 3.01 6.8418
0.05 3.01 7.0404
0.05 3.01 6.99595
0.0580869 3.01 7.01815
0.05 3.01 6.99595
0.0580261 3.01 6.9738
0.073134 3.01 6.99594
0.073134 3.01 6.99594
0.0580869 3.01 7.01815
0.05 3.01 6.99595
0.942268 3.01 6.58073
0.95 3.01 6.55904
0.95 3.01 6.60241
0.942292 3.01 6.53735
0.95 3.01 6.55904
0.927025 3.01 6.55904
0.927025 3.01 6.55904
0.942268 3.01 6.58073
0.915919 3.01 6.58072
0.95 3.01 6.55904
0.942268 3.01 6.58073
0.927025 3.01 6.55904
0.927013 3.01 6.60241
0.942268 3.01 6.58073
0.95 3.01 6.60241
0.915919 3.01 6.58072
0.942268 3.01 6.58073
0.927013 3.01 6.60241
0.801738 3.01 6.68925
0.814364 3.01 6.66753
0.826957 3.01 6.68925
0.852174 3.01 6.68924
0.826957 3.01 6.68925
0.839609 3.01 6.66752
0.839609 3.01 6.66752
0.826957 3.01 6.68925
0.814364 3.01 6.66753
0.776516 3.01 6.73275
0.75132 3.01 6.73275
0.763923 3.01 6.711
0.776516 3.01 6.73275
0.801725 3.01 6.73274
0.789115 3.01 6.75451
0.738704 3.01 6.79815
0.751305 3.01 6.77632
0.763892 3.01 6.79814
0.726124 3.01 6.77633
0.751305 3.01 6.77632
0.738704 3.01 6.79815
0.915617 3.01 7.01814
0.902228 3.01 6.99594
0.926866 3.01 6.99594
0.926866 3.01 6.99594
0.941913 3.01 7.01815
0.915617 3.01 7.01814
0.915617 3.01 7.01814
0.941913 3.01 7.01815
0.926844 3.01 7.0404
0.915617 3.01 7.01814
0.926844 3.01 7.0404
0.902193 3.01 7.04038
0.926866 3.01 6.99594
0.902228 3.01 6.99594
0.915668 3.01 6.97379
0.902267 3.01 6.95168
0.926895 3.01 6.95169
0.915668 3.01 6.97379
0.915668 3.01 6.97379
0.941974 3.01 6.9738
0.926866 3.01 6.99594
0.926895 3.01 6.95169
0.941974 3.01 6.9738
0.915668 3.01 6.97379
0.902267 3.01 6.95168
0.915668 3.01 6.97379
0.890059 3.01 6.97379
0.890059 3.01 6.97379
0.915668 3.01 6.97379
0.902228 3.01 6.99594
0.826927 3.01 6.77629
0.814318 3.01 6.79811
0.801709 3.01 6.7763
0.864816 3.01 6.8418
0.877308 3.01 6.81993
0.890186 3.01 6.8418
0.877308 3.01 6.81993
0.864816 3.01 6.8418
0.852122 3.01 6.81994
0.890186 3.01 6.8418
0.877308 3.01 6.81993
0.902362 3.01 6.81993
0.902362 3.01 6.81993
0.915805 3.01 6.84179
0.890186 3.01 6.8418
0.902362 3.01 6.81993
0.926964 3.01 6.81992
0.915805 3.01 6.84179
0.915835 3.01 6.79809
0.926964 3.01 6.81992
0.902362 3.01 6.81993
0.942171 3.01 6.79809
0.926964 3.01 6.81992
0.915835 3.01 6.79809
0.915835 3.01 6.79809
0.926978 3.01 6.77627
0.942171 3.01 6.79809
0.942171 3.01 6.79809
0.926978 3.01 6.77627
0.95 3.01 6.77627
0.87737 3.01 6.64581
0.890277 3.01 6.62411
0.902417 3.01 6.6458
0.852144 3.01 6.77628
0.877329 3.01 6.77628
0.864842 3.01 6.79809
0.877308 3.01 6.81993
0.852122 3.01 6.81994
0.864842 3.01 6.79809
0.902396 3.01 6.73272
0.915858 3.01 6.75448
0.890234 3.01 6.75449
0.926997 3.01 6.68923
0.942237 3.01 6.66751
0.95 3.01 6.68923
0.91589 3.01 6.66751
0.942237 3.01 6.66751
0.926997 3.01 6.68923
0.942199 3.01 6.75448
0.95 3.01 6.73271
0.95 3.01 6.77627
0.95 3.01 6.77627
0.926978 3.01 6.77627
0.942199 3.01 6.75448
0.942199 3.01 6.75448
0.926978 3.01 6.77627
0.915858 3.01 6.75448
0.95 3.01 6.68923
0.95 3.01 6.73271
0.942221 3.01 6.71097
0.942221 3.01 6.71097
0.926997 3.01 6.68923
0.95 3.01 6.68923
0.915876 3.01 6.71097
0.926997 3.01 6.68923
0.942221 3.01 6.71097
0.926989 3.01 6.73271
0.915858 3.01 6.75448
0.902396 3.01 6.73272
0.902396 3.01 6.73272
0.915876 3.01 6.71097
0.926989 3.01 6.73271
0.926989 3.01 6.73271
0.942199 3.01 6.75448
0.915858 3.01 6.75448
0.95 3.01 6.73271
0.942199 3.01 6.75448
0.926989 3.01 6.73271
0.915876 3.01 6.71097
0.942221 3.01 6.71097
0.926989 3.01 6.73271
0.926989 3.01 6.73271
0.942221 3.01 6.71097
0.95 3.01 6.73271
0.91353 3.01 7.19685
0.926054 3.01 7.17449
0.939636 3.01 7.19697
0.926728 3.01 7.12988
0.95 3.01 7.1301
0.941491 3.01 7.15256
0.926728 3.01 7.12988
0.941822 3.01 7.10754
0.95 3.01 7.1301
0.95 3.01 7.17527
0.95 3.01 7.21829
0.939636 3.01 7.19697
0.95 3.01 7.17527
0.926054 3.01 7.17449
0.941491 3.01 7.15256
0.939636 3.01 7.19697
0.926054 3.01 7.17449
0.95 3.01 7.17527
0.941491 3.01 7.15256
0.95 3.01 7.1301
0.95 3.01 7.17527
0.941869 3.01 7.06272
0.926844 3.01 7.0404
0.95 3.01 7.0404
0.762942 3.01 7.19728
0.75028 3.01 7.21989
0.737933 3.01 7.19734
0.71291 3.01 7.19739
0.725533 3.01 7.17485
0.737933 3.01 7.19734
0.71291 3.01 7.19739
0.737933 3.01 7.19734
0.725313 3.01 7.21992
0.725313 3.01 7.21992
0.737933 3.01 7.19734
0.75028 3.01 7.21989
0.737693 3.01 7.2425
0.712746 3.01 7.2425
[...]
<PointData Scalars="View Factor" >
<DataArray type="Float64" Name="View Factor" NumberOfComponents="1" format="ascii">
9.20049e-06
9.20049e-06
9.20049e-06
1.0633e-05
1.0633e-05
1.0633e-05
1.05953e-05
1.05953e-05
1.05953e-05
1.06207e-05
1.06207e-05
1.06207e-05
1.06333e-05
1.06333e-05
1.06333e-05
1.06204e-05
1.06204e-05
1.06204e-05
1.06327e-05
1.06327e-05
1.06327e-05
1.06201e-05
1.06201e-05
1.06201e-05
1.05961e-05
1.05961e-05
1.05961e-05
9.32986e-06
9.32986e-06
9.32986e-06
1.06299e-05
1.06299e-05
1.06299e-05
1.0595e-05
1.0595e-05
1.0595e-05
1.05825e-05
1.05825e-05
1.05825e-05
1.05948e-05
1.05948e-05
1.05948e-05
1.05443e-05
1.05443e-05
1.05443e-05
1.05822e-05
1.05822e-05
1.05822e-05
1.0557e-05
1.0557e-05
1.0557e-05
1.06198e-05
1.06198e-05
1.06198e-05
1.05828e-05
1.05828e-05
1.05828e-05
1.05575e-05
1.05575e-05
1.05575e-05
1.05831e-05
1.05831e-05
1.05831e-05
1.05956e-05
1.05956e-05
1.05956e-05
1.05074e-05
1.05074e-05
1.05074e-05
1.05457e-05
1.05457e-05
1.05457e-05
1.05206e-05
1.05206e-05
1.05206e-05
1.05579e-05
1.05579e-05
1.05579e-05
1.05452e-05
1.05452e-05
1.05452e-05
1.05078e-05
1.05078e-05
1.05078e-05
1.05201e-05
1.05201e-05
1.05201e-05
1.06341e-05
1.06341e-05
1.06341e-05
1.06213e-05
1.06213e-05
1.06213e-05
9.26404e-06
9.26404e-06
9.26404e-06
9.24244e-06
9.24244e-06
9.24244e-06
9.20852e-06
9.20852e-06
9.20852e-06
9.22003e-06
9.22003e-06
9.22003e-06
9.67097e-06
9.67097e-06
9.67097e-06
9.82102e-06
9.82102e-06
9.82102e-06
9.79793e-06
9.79793e-06
9.79793e-06
9.60219e-06
9.60219e-06
9.60219e-06
1.02789e-05
1.02789e-05
1.02789e-05
1.03524e-05
1.03524e-05
1.03524e-05
9.95556e-06
9.95556e-06
9.95556e-06
9.9086e-06
9.9086e-06
9.9086e-06
9.94439e-06
9.94439e-06
9.94439e-06
9.92091e-06
9.92091e-06
9.92091e-06
9.87043e-06
9.87043e-06
9.87043e-06
9.90613e-06
9.90613e-06
9.90613e-06
9.88274e-06
9.88274e-06
9.88274e-06
9.8717e-06
9.8717e-06
9.8717e-06
9.88399e-06
9.88399e-06
9.88399e-06
9.18273e-06
9.18273e-06
9.18273e-06
9.48411e-06
9.48411e-06
9.48411e-06
9.5063e-06
9.5063e-06
9.5063e-06
9.52946e-06
9.52946e-06
9.52946e-06
9.55218e-06
9.55218e-06
9.55218e-06
9.57446e-06
9.57446e-06
9.57446e-06
9.59773e-06
9.59773e-06
9.59773e-06
9.19639e-06
9.19639e-06
9.19639e-06
9.19547e-06
9.19547e-06
9.19547e-06
9.20697e-06
9.20697e-06
9.20697e-06
9.89163e-06
9.89163e-06
9.89163e-06
9.8804e-06
9.8804e-06
9.8804e-06
1.06169e-05
1.06169e-05
1.06169e-05
1.06324e-05
1.06324e-05
1.06324e-05
1.05944e-05
1.05944e-05
1.05944e-05
1.05567e-05
1.05567e-05
1.05567e-05
1.05819e-05
1.05819e-05
1.05819e-05
1.04582e-05
1.04582e-05
1.04582e-05
1.04832e-05
1.04832e-05
1.04832e-05
1.05083e-05
1.05083e-05
1.05083e-05
1.05448e-05
1.05448e-05
1.05448e-05
1.05197e-05
1.05197e-05
1.05197e-05
1.05573e-05
1.05573e-05
1.05573e-05
1.05445e-05
1.05445e-05
1.05445e-05
1.06335e-05
1.06335e-05
1.06335e-05
1.06209e-05
1.06209e-05
1.06209e-05
1.06337e-05
1.06337e-05
1.06337e-05
9.28569e-06
9.28569e-06
9.28569e-06
9.30774e-06
9.30774e-06
9.30774e-06
9.31921e-06
9.31921e-06
9.31921e-06
9.3525e-06
9.3525e-06
9.3525e-06
9.34146e-06
9.34146e-06
9.34146e-06
9.21188e-06
9.21188e-06
9.21188e-06
9.79779e-06
9.79779e-06
9.79779e-06
9.78626e-06
9.78626e-06
9.78626e-06
9.78638e-06
9.78638e-06
9.78638e-06
9.8096e-06
9.8096e-06
9.8096e-06
9.53373e-06
9.53373e-06
9.53373e-06
9.57932e-06
9.57932e-06
9.57932e-06
9.55651e-06
9.55651e-06
9.55651e-06
1.02061e-05
1.02061e-05
1.02061e-05
1.02551e-05
1.02551e-05
1.02551e-05
1.02194e-05
1.02194e-05
1.02194e-05
1.02308e-05
1.02308e-05
1.02308e-05
1.01824e-05
1.01824e-05
1.01824e-05
1.01952e-05
1.01952e-05
1.01952e-05
1.00463e-05
1.00463e-05
1.00463e-05
1.00449e-05
1.00449e-05
1.00449e-05
1.00574e-05
1.00574e-05
1.00574e-05
9.97788e-06
9.97788e-06
9.97788e-06
9.95306e-06
9.95306e-06
9.95306e-06
9.87293e-06
9.87293e-06
9.87293e-06
9.8852e-06
9.8852e-06
9.8852e-06
9.53087e-06
9.53087e-06
9.53087e-06
9.51877e-06
9.51877e-06
9.51877e-06
9.49609e-06
9.49609e-06
9.49609e-06
9.48552e-06
9.48552e-06
9.48552e-06
9.5536e-06
9.5536e-06
9.5536e-06
9.59915e-06
9.59915e-06
9.59915e-06
9.56421e-06
9.56421e-06
9.56421e-06
9.58699e-06
9.58699e-06
9.58699e-06
9.58844e-06
9.58844e-06
9.58844e-06
9.56566e-06
9.56566e-06
9.56566e-06
9.88145e-06
9.88145e-06
9.88145e-06
9.79664e-06
9.79664e-06
9.79664e-06
9.80893e-06
9.80893e-06
9.80893e-06
9.80752e-06
9.80752e-06
9.80752e-06
9.7952e-06
9.7952e-06
9.7952e-06
9.80608e-06
9.80608e-06
9.80608e-06
9.82928e-06
9.82928e-06
9.82928e-06
9.84012e-06
9.84012e-06
9.84012e-06
9.8634e-06
9.8634e-06
9.8634e-06
9.87437e-06
9.87437e-06
9.87437e-06
1.01135e-05
1.01135e-05
1.01135e-05
9.87873e-06
9.87873e-06
9.87873e-06
9.83215e-06
9.83215e-06
9.83215e-06
9.93506e-06
9.93506e-06
9.93506e-06
1.0039e-05
1.0039e-05
1.0039e-05
1.00516e-05
1.00516e-05
1.00516e-05
9.92064e-06
9.92064e-06
9.92064e-06
9.89772e-06
9.89772e-06
9.89772e-06
9.9101e-06
9.9101e-06
9.9101e-06
9.99118e-06
9.99118e-06
9.99118e-06
1.00153e-05
1.00153e-05
1.00153e-05
1.00042e-05
1.00042e-05
1.00042e-05
9.94608e-06
9.94608e-06
9.94608e-06
9.96959e-06
9.96959e-06
9.96959e-06
9.93354e-06
9.93354e-06
9.93354e-06
9.94458e-06
9.94458e-06
9.94458e-06
9.98057e-06
9.98057e-06
9.98057e-06
9.96809e-06
9.96809e-06
9.96809e-06
9.24986e-06
9.24986e-06
9.24986e-06
9.32632e-06
9.32632e-06
9.32632e-06
9.34877e-06
9.34877e-06
9.34877e-06
9.23781e-06
9.23781e-06
9.23781e-06
9.28176e-06
9.28176e-06
9.28176e-06
9.25984e-06
9.25984e-06
9.25984e-06
9.30331e-06
9.30331e-06
9.30331e-06
9.46148e-06
9.46148e-06
9.46148e-06
9.23576e-06
9.23576e-06
9.23576e-06
9.25899e-06
9.25899e-06
9.25899e-06
9.23678e-06
9.23678e-06
9.23678e-06
9.22518e-06
9.22518e-06
9.22518e-06
9.19249e-06
9.19249e-06
9.19249e-06
9.20303e-06
9.20303e-06
9.20303e-06
9.19144e-06
9.19144e-06
9.19144e-06
9.33949e-06
9.33949e-06
9.33949e-06
9.30353e-06
9.30353e-06
9.30353e-06
9.2706e-06
9.2706e-06
9.2706e-06
9.29288e-06
9.29288e-06
9.29288e-06
9.27253e-06
9.27253e-06
9.27253e-06
9.2948e-06
9.2948e-06
9.2948e-06
9.22998e-06
9.22998e-06
9.22998e-06
9.20787e-06
9.20787e-06
9.20787e-06
9.19728e-06
9.19728e-06
9.19728e-06
9.93146e-06
9.93146e-06
9.93146e-06
9.87945e-06
9.87945e-06
9.87945e-06
9.81138e-06
9.81138e-06
9.81138e-06
9.78726e-06
9.78726e-06
9.78726e-06
9.81048e-06
9.81048e-06
9.81048e-06
9.82256e-06
9.82256e-06
9.82256e-06
9.85705e-06
9.85705e-06
9.85705e-06
9.84585e-06
9.84585e-06
9.84585e-06
9.78816e-06
9.78816e-06
9.78816e-06
9.77612e-06
9.77612e-06
9.77612e-06
9.64973e-06
9.64973e-06
9.64973e-06
9.8065e-06
9.8065e-06
9.8065e-06
9.81865e-06
9.81865e-06
9.81865e-06
9.84712e-06
9.84712e-06
9.84712e-06
9.80065e-06
9.80065e-06
9.80065e-06
1.0631e-05
1.0631e-05
1.0631e-05
1.06315e-05
1.06315e-05
1.06315e-05
1.06186e-05
1.06186e-05
1.06186e-05
1.05932e-05
1.05932e-05
1.05932e-05
1.06036e-05
1.06036e-05
1.06036e-05
1.00239e-05
1.00239e-05
1.00239e-05
9.9766e-06
9.9766e-06
9.9766e-06
1.00127e-05
1.00127e-05
1.00127e-05
9.98904e-06
9.98904e-06
9.98904e-06
9.9903e-06
9.9903e-06
9.9903e-06
9.97911e-06
9.97911e-06
9.97911e-06
1.05803e-05
1.05803e-05
1.05803e-05
1.06293e-05
1.06293e-05
1.06293e-05
1.06193e-05
1.06193e-05
1.06193e-05
1.02451e-05
1.02451e-05
1.02451e-05
1.02575e-05
1.02575e-05
1.02575e-05
1.05337e-05
1.05337e-05
1.05337e-05
1.06091e-05
1.06091e-05
1.06091e-05
1.05839e-05
1.05839e-05
1.05839e-05
1.05587e-05
1.05587e-05
1.05587e-05
9.30829e-06
9.30829e-06
9.30829e-06
9.2012e-06
9.2012e-06
9.2012e-06
9.64799e-06
9.64799e-06
9.64799e-06
9.62507e-06
9.62507e-06
9.62507e-06
9.7631e-06
9.7631e-06
9.7631e-06
1.04313e-05
1.04313e-05
1.04313e-05
9.64773e-06
9.64773e-06
9.64773e-06
9.62481e-06
9.62481e-06
9.62481e-06
9.83257e-06
9.83257e-06
9.83257e-06
9.82083e-06
9.82083e-06
9.82083e-06
9.85603e-06
9.85603e-06
9.85603e-06
9.83273e-06
9.83273e-06
9.83273e-06
9.83284e-06
9.83284e-06
9.83284e-06
9.82116e-06
9.82116e-06
9.82116e-06
9.87952e-06
9.87952e-06
9.87952e-06
9.85615e-06
9.85615e-06
9.85615e-06
9.86777e-06
9.86777e-06
9.86777e-06
9.89114e-06
9.89114e-06
9.89114e-06
9.9029e-06
9.9029e-06
9.9029e-06
9.9021e-06
9.9021e-06
9.9021e-06
9.91309e-06
9.91309e-06
9.91309e-06
1.0184e-05
1.0184e-05
1.0184e-05
1.00225e-05
1.00225e-05
1.00225e-05
1.00114e-05
1.00114e-05
1.00114e-05
9.98774e-06
9.98774e-06
9.98774e-06
1.0056e-05
1.0056e-05
1.0056e-05
1.00435e-05
1.00435e-05
1.00435e-05
1.01262e-05
1.01262e-05
1.01262e-05
1.0268e-05
1.0268e-05
1.0268e-05
1.01938e-05
1.01938e-05
1.01938e-05
9.95433e-06
9.95433e-06
9.95433e-06
9.90739e-06
9.90739e-06
9.90739e-06
9.91848e-06
9.91848e-06
9.91848e-06
9.94194e-06
9.94194e-06
9.94194e-06
9.94319e-06
9.94319e-06
9.94319e-06
9.91972e-06
9.91972e-06
9.91972e-06
9.84961e-06
9.84961e-06
9.84961e-06
9.83856e-06
9.83856e-06
9.83856e-06
9.87411e-06
9.87411e-06
9.87411e-06
9.85079e-06
9.85079e-06
9.85079e-06
9.78222e-06
9.78222e-06
9.78222e-06
9.77008e-06
9.77008e-06
9.77008e-06
9.84191e-06
9.84191e-06
9.84191e-06
9.77206e-06
9.77206e-06
9.77206e-06
9.60056e-06
9.60056e-06
9.60056e-06
9.62476e-06
9.62476e-06
9.62476e-06
9.6234e-06
9.6234e-06
9.6234e-06
9.63551e-06
9.63551e-06
9.63551e-06
9.2686e-06
9.2686e-06
9.2686e-06
9.25798e-06
9.25798e-06
9.25798e-06
9.26961e-06
9.26961e-06
9.26961e-06
9.29188e-06
9.29188e-06
9.29188e-06
9.3921e-06
9.3921e-06
9.3921e-06
9.32168e-06
9.32168e-06
9.32168e-06
9.29938e-06
9.29938e-06
9.29938e-06
9.42189e-06
9.42189e-06
9.42189e-06
9.4006e-06
9.4006e-06
9.4006e-06
9.43251e-06
9.43251e-06
9.43251e-06
9.97529e-06
9.97529e-06
9.97529e-06
9.86912e-06
9.86912e-06
9.86912e-06
9.88011e-06
9.88011e-06
9.88011e-06
9.86776e-06
9.86776e-06
9.86776e-06
9.84446e-06
9.84446e-06
9.84446e-06
9.77487e-06
9.77487e-06
9.77487e-06
9.79802e-06
9.79802e-06
9.79802e-06
9.87585e-06
9.87585e-06
9.87585e-06
9.90067e-06
9.90067e-06
9.90067e-06
9.8992e-06
9.8992e-06
9.8992e-06
9.91162e-06
9.91162e-06
9.91162e-06
9.82781e-06
9.82781e-06
9.82781e-06
9.85059e-06
9.85059e-06
9.85059e-06
9.98211e-06
9.98211e-06
9.98211e-06
1.00198e-05
1.00198e-05
1.00198e-05
1.00072e-05
1.00072e-05
1.00072e-05
1.00769e-05
1.00769e-05
1.00769e-05
1.00546e-05
1.00546e-05
1.00546e-05
1.00896e-05
1.00896e-05
1.00896e-05
1.00784e-05
1.00784e-05
1.00784e-05
1.01247e-05
1.01247e-05
1.01247e-05
1.01486e-05
1.01486e-05
1.01486e-05
1.01599e-05
1.01599e-05
1.01599e-05
9.23155e-06
9.23155e-06
9.23155e-06
9.25487e-06
9.25487e-06
9.25487e-06
9.2168e-06
9.2168e-06
9.2168e-06
9.22798e-06
9.22798e-06
9.22798e-06
9.19468e-06
9.19468e-06
9.19468e-06
9.26169e-06
9.26169e-06
9.26169e-06
9.32813e-06
9.32813e-06
9.32813e-06
9.28379e-06
9.28379e-06
9.28379e-06
9.29388e-06
9.29388e-06
9.29388e-06
9.31601e-06
9.31601e-06
9.31601e-06
9.36638e-06
9.36638e-06
9.36638e-06
9.39941e-06
9.39941e-06
9.39941e-06
9.38879e-06
9.38879e-06
9.38879e-06
9.38756e-06
9.38756e-06
9.38756e-06
9.4629e-06
9.4629e-06
9.4629e-06
9.45084e-06
9.45084e-06
9.45084e-06
9.36076e-06
9.36076e-06
9.36076e-06
9.35042e-06
9.35042e-06
9.35042e-06
9.26094e-06
9.26094e-06
9.26094e-06
9.25997e-06
9.25997e-06
9.25997e-06
9.27158e-06
9.27158e-06
9.27158e-06
9.19352e-06
9.19352e-06
9.19352e-06
9.20406e-06
9.20406e-06
9.20406e-06
9.22619e-06
9.22619e-06
9.22619e-06
9.23777e-06
9.23777e-06
9.23777e-06
9.19871e-06
9.19871e-06
9.19871e-06
9.23263e-06
9.23263e-06
9.23263e-06
9.22098e-06
9.22098e-06
9.22098e-06
9.18812e-06
9.18812e-06
9.18812e-06
9.22415e-06
9.22415e-06
9.22415e-06
9.20198e-06
9.20198e-06
9.20198e-06
9.32587e-06
9.32587e-06
9.32587e-06
9.33755e-06
9.33755e-06
9.33755e-06
9.49628e-06
9.49628e-06
9.49628e-06
9.50711e-06
9.50711e-06
9.50711e-06
9.43714e-06
9.43714e-06
9.43714e-06
9.35995e-06
9.35995e-06
9.35995e-06
9.37067e-06
9.37067e-06
9.37067e-06
9.3619e-06
9.3619e-06
9.3619e-06
9.42639e-06
9.42639e-06
9.42639e-06
9.40387e-06
9.40387e-06
9.40387e-06
9.39313e-06
9.39313e-06
9.39313e-06
9.40489e-06
9.40489e-06
9.40489e-06
9.30452e-06
9.30452e-06
9.30452e-06
9.32782e-06
9.32782e-06
9.32782e-06
9.30548e-06
9.30548e-06
9.30548e-06
9.29385e-06
9.29385e-06
9.29385e-06
9.33853e-06
9.33853e-06
9.33853e-06
9.32686e-06
9.32686e-06
9.32686e-06
9.26188e-06
9.26188e-06
9.26188e-06
9.23969e-06
9.23969e-06
9.23969e-06
9.22907e-06
9.22907e-06
9.22907e-06
9.2406e-06
9.2406e-06
9.2406e-06
9.30642e-06
9.30642e-06
9.30642e-06
9.32876e-06
9.32876e-06
9.32876e-06
9.34042e-06
9.34042e-06
9.34042e-06
9.54554e-06
9.54554e-06
9.54554e-06
9.56833e-06
9.56833e-06
9.56833e-06
9.99484e-06
9.99484e-06
9.99484e-06
9.90071e-06
9.90071e-06
9.90071e-06
1.00069e-05
1.00069e-05
1.00069e-05
9.99526e-06
9.99526e-06
9.99526e-06
9.88877e-06
9.88877e-06
9.88877e-06
9.92008e-06
9.92008e-06
9.92008e-06
9.93218e-06
9.93218e-06
9.93218e-06
9.81531e-06
9.81531e-06
9.81531e-06
9.82659e-06
9.82659e-06
9.82659e-06
9.84916e-06
9.84916e-06
9.84916e-06
9.79208e-06
9.79208e-06
9.79208e-06
9.78082e-06
9.78082e-06
9.78082e-06
9.75765e-06
9.75765e-06
9.75765e-06
9.74574e-06
9.74574e-06
9.74574e-06
9.89066e-06
9.89066e-06
9.89066e-06
9.8561e-06
9.8561e-06
9.8561e-06
9.84492e-06
9.84492e-06
9.84492e-06
9.82164e-06
9.82164e-06
9.82164e-06
9.80954e-06
9.80954e-06
9.80954e-06
9.71144e-06
9.71144e-06
9.71144e-06
9.72264e-06
9.72264e-06
9.72264e-06
9.777e-06
9.777e-06
9.777e-06
9.75297e-06
9.75297e-06
9.75297e-06
9.8146e-06
9.8146e-06
9.8146e-06
9.82586e-06
9.82586e-06
9.82586e-06
9.70928e-06
9.70928e-06
9.70928e-06
9.72042e-06
9.72042e-06
9.72042e-06
9.78435e-06
9.78435e-06
9.78435e-06
9.80755e-06
9.80755e-06
9.80755e-06
9.77749e-06
9.77749e-06
9.77749e-06
9.59487e-06
9.59487e-06
9.59487e-06
1.0632e-05
1.0632e-05
1.0632e-05
1.0619e-05
1.0619e-05
1.0619e-05
1.06195e-05
1.06195e-05
1.06195e-05
1.03776e-05
1.03776e-05
1.03776e-05
1.04267e-05
1.04267e-05
1.04267e-05
1.04023e-05
1.04023e-05
1.04023e-05
1.0606e-05
1.0606e-05
1.0606e-05
1.06115e-05
1.06115e-05
1.06115e-05
1.06156e-05
1.06156e-05
1.06156e-05
1.00252e-05
1.00252e-05
1.00252e-05
1.00139e-05
1.00139e-05
1.00139e-05
1.00264e-05
1.00264e-05
1.00264e-05
1.00501e-05
1.00501e-05
1.00501e-05
9.99151e-06
9.99151e-06
9.99151e-06
1.00152e-05
1.00152e-05
1.00152e-05
1.06181e-05
1.06181e-05
1.06181e-05
1.05927e-05
1.05927e-05
1.05927e-05
1.06305e-05
1.06305e-05
1.06305e-05
1.06175e-05
1.06175e-05
1.06175e-05
1.05915e-05
1.05915e-05
1.05915e-05
1.05786e-05
1.05786e-05
1.05786e-05
1.05534e-05
1.05534e-05
1.05534e-05
1.05527e-05
1.05527e-05
1.05527e-05
1.05404e-05
1.05404e-05
1.05404e-05
1.05031e-05
1.05031e-05
1.05031e-05
1.05153e-05
1.05153e-05
1.05153e-05
1.06271e-05
1.06271e-05
1.06271e-05
1.06072e-05
1.06072e-05
1.06072e-05
1.02209e-05
1.02209e-05
1.02209e-05
1.01725e-05
1.01725e-05
1.01725e-05
1.05739e-05
1.05739e-05
1.05739e-05
1.05808e-05
1.05808e-05
1.05808e-05
1.05555e-05
1.05555e-05
1.05555e-05
1.05937e-05
1.05937e-05
1.05937e-05
9.45279e-06
9.45279e-06
9.45279e-06
9.40672e-06
9.40672e-06
9.40672e-06
9.34069e-06
9.34069e-06
9.34069e-06
9.34109e-06
9.34109e-06
9.34109e-06
9.3521e-06
9.3521e-06
9.3521e-06
9.40843e-06
9.40843e-06
9.40843e-06
9.37453e-06
9.37453e-06
9.37453e-06
9.38594e-06
9.38594e-06
9.38594e-06
9.35168e-06
9.35168e-06
9.35168e-06
9.31941e-06
9.31941e-06
9.31941e-06
9.37505e-06
9.37505e-06
9.37505e-06
9.39757e-06
9.39757e-06
9.39757e-06
9.21258e-06
9.21258e-06
9.21258e-06
9.2683e-06
9.2683e-06
9.2683e-06
9.2461e-06
9.2461e-06
9.2461e-06
9.23469e-06
9.23469e-06
9.23469e-06
9.31287e-06
9.31287e-06
9.31287e-06
9.26958e-06
9.26958e-06
9.26958e-06
9.24737e-06
9.24737e-06
9.24737e-06
9.65929e-06
9.65929e-06
9.65929e-06
9.64789e-06
9.64789e-06
9.64789e-06
9.65943e-06
9.65943e-06
9.65943e-06
9.5907e-06
9.5907e-06
9.5907e-06
9.61357e-06
9.61357e-06
9.61357e-06
9.57922e-06
9.57922e-06
9.57922e-06
9.59058e-06
9.59058e-06
9.59058e-06
9.62496e-06
9.62496e-06
9.62496e-06
9.61345e-06
9.61345e-06
9.61345e-06
9.75146e-06
9.75146e-06
9.75146e-06
9.72817e-06
9.72817e-06
9.72817e-06
9.7401e-06
9.7401e-06
9.7401e-06
9.76321e-06
9.76321e-06
9.76321e-06
9.75159e-06
9.75159e-06
9.75159e-06
1.04332e-05
1.04332e-05
1.04332e-05
1.0248e-05
1.0248e-05
1.0248e-05
1.02968e-05
1.02968e-05
1.02968e-05
1.01736e-05
1.01736e-05
1.01736e-05
1.01495e-05
1.01495e-05
1.01495e-05
1.0164e-05
1.0164e-05
1.0164e-05
1.00921e-05
1.00921e-05
1.00921e-05
1.00682e-05
1.00682e-05
1.00682e-05
1.02366e-05
1.02366e-05
1.02366e-05
1.02607e-05
1.02607e-05
1.02607e-05
1.02851e-05
1.02851e-05
1.02851e-05
1.02609e-05
1.02609e-05
1.02609e-05
1.02487e-05
1.02487e-05
1.02487e-05
1.02603e-05
1.02603e-05
1.02603e-05
1.02847e-05
1.02847e-05
1.02847e-05
1.03218e-05
1.03218e-05
1.03218e-05
1.02973e-05
1.02973e-05
1.02973e-05
1.0285e-05
1.0285e-05
1.0285e-05
1.02971e-05
1.02971e-05
1.02971e-05
1.04066e-05
1.04066e-05
1.04066e-05
9.57908e-06
9.57908e-06
9.57908e-06
9.55626e-06
9.55626e-06
9.55626e-06
9.7861e-06
9.7861e-06
9.7861e-06
9.7976e-06
9.7976e-06
9.7976e-06
9.76294e-06
9.76294e-06
9.76294e-06
9.75127e-06
9.75127e-06
9.75127e-06
9.83236e-06
9.83236e-06
9.83236e-06
1.00207e-05
1.00207e-05
1.00207e-05
1.00325e-05
1.00325e-05
1.00325e-05
1.00444e-05
1.00444e-05
1.00444e-05
1.00443e-05
1.00443e-05
1.00443e-05
1.00324e-05
1.00324e-05
1.00324e-05
9.90278e-06
9.90278e-06
9.90278e-06
9.92624e-06
9.92624e-06
9.92624e-06
1.00082e-05
1.00082e-05
1.00082e-05
9.85587e-06
9.85587e-06
9.85587e-06
9.90262e-06
9.90262e-06
9.90262e-06
9.86763e-06
9.86763e-06
9.86763e-06
9.891e-06
9.891e-06
9.891e-06
1.02307e-05
1.02307e-05
1.02307e-05
1.02065e-05
1.02065e-05
1.02065e-05
1.00813e-05
1.00813e-05
1.00813e-05
1.01614e-05
1.01614e-05
1.01614e-05
1.01502e-05
1.01502e-05
1.01502e-05
1.0091e-05
1.0091e-05
1.0091e-05
1.01149e-05
1.01149e-05
1.01149e-05
1.00798e-05
1.00798e-05
1.00798e-05
1.00925e-05
1.00925e-05
1.00925e-05
1.00939e-05
1.00939e-05
1.00939e-05
1.01178e-05
1.01178e-05
1.01178e-05
1.02323e-05
1.02323e-05
1.02323e-05
1.02566e-05
1.02566e-05
1.02566e-05
9.83736e-06
9.83736e-06
9.83736e-06
9.84838e-06
9.84838e-06
9.84838e-06
9.83612e-06
9.83612e-06
9.83612e-06
9.81288e-06
9.81288e-06
9.81288e-06
9.8019e-06
9.8019e-06
9.8019e-06
9.81412e-06
9.81412e-06
9.81412e-06
9.83972e-06
9.83972e-06
9.83972e-06
9.81646e-06
9.81646e-06
9.81646e-06
9.81757e-06
9.81757e-06
9.81757e-06
9.80541e-06
9.80541e-06
9.80541e-06
9.88637e-06
9.88637e-06
9.88637e-06
9.92207e-06
9.92207e-06
9.92207e-06
9.90978e-06
9.90978e-06
9.90978e-06
9.7833e-06
9.7833e-06
9.7833e-06
9.77118e-06
9.77118e-06
9.77118e-06
9.77225e-06
9.77225e-06
9.77225e-06
9.62973e-06
9.62973e-06
9.62973e-06
9.60687e-06
9.60687e-06
9.60687e-06
9.7287e-06
9.7287e-06
9.7287e-06
9.7598e-06
9.7598e-06
9.7598e-06
9.77349e-06
9.77349e-06
9.77349e-06
9.76123e-06
9.76123e-06
9.76123e-06
9.76263e-06
9.76263e-06
9.76263e-06
9.73955e-06
9.73955e-06
9.73955e-06
9.657e-06
9.657e-06
9.657e-06
9.62199e-06
9.62199e-06
9.62199e-06
9.63411e-06
9.63411e-06
9.63411e-06
9.555e-06
9.555e-06
9.555e-06
9.49754e-06
9.49754e-06
9.49754e-06
9.52021e-06
9.52021e-06
9.52021e-06
9.53227e-06
9.53227e-06
9.53227e-06
9.5216e-06
9.5216e-06
9.5216e-06
9.45505e-06
9.45505e-06
9.45505e-06
9.28984e-06
9.28984e-06
9.28984e-06
9.26653e-06
9.26653e-06
9.26653e-06
9.28879e-06
9.28879e-06
9.28879e-06
9.30046e-06
9.30046e-06
9.30046e-06
9.30151e-06
9.30151e-06
9.30151e-06
9.30253e-06
9.30253e-06
9.30253e-06
9.29087e-06
9.29087e-06
9.29087e-06
9.32383e-06
9.32383e-06
9.32383e-06
9.28769e-06
9.28769e-06
9.28769e-06
9.25377e-06
9.25377e-06
9.25377e-06
9.26544e-06
9.26544e-06
9.26544e-06
9.29823e-06
9.29823e-06
9.29823e-06
9.35576e-06
9.35576e-06
9.35576e-06
9.3334e-06
9.3334e-06
9.3334e-06
9.32278e-06
9.32278e-06
9.32278e-06
9.33448e-06
9.33448e-06
9.33448e-06
9.45231e-06
9.45231e-06
9.45231e-06
9.42975e-06
9.42975e-06
9.42975e-06
9.4206e-06
9.4206e-06
9.4206e-06
9.39814e-06
9.39814e-06
9.39814e-06
9.41922e-06
9.41922e-06
9.41922e-06
9.43118e-06
9.43118e-06
9.43118e-06
9.95175e-06
9.95175e-06
9.95175e-06
9.90483e-06
9.90483e-06
9.90483e-06
9.91719e-06
9.91719e-06
9.91719e-06
9.94066e-06
9.94066e-06
9.94066e-06
9.90349e-06
9.90349e-06
9.90349e-06
9.95039e-06
9.95039e-06
9.95039e-06
9.91587e-06
9.91587e-06
9.91587e-06
9.93933e-06
9.93933e-06
9.93933e-06
9.9145e-06
9.9145e-06
9.9145e-06
9.93795e-06
9.93795e-06
9.93795e-06
1.001e-05
1.001e-05
1.001e-05
9.9864e-06
9.9864e-06
9.9864e-06
9.97393e-06
9.97393e-06
9.97393e-06
1.00212e-05
1.00212e-05
1.00212e-05