<VTKFile type="UnstructuredGrid" version="1.0">
<UnstructuredGrid>
<Piece NumberOfPoints="8859" NumberOfCells="2953">
<Points>
<DataArray type="Float64" NumberOfComponents="3" format="ascii">
2.04744 2.20956 3.00263
2.06275 2.19425 3.01458
2.04754 2.20946 3.02833
2.07804 2.17896 2.95167
2.07805 2.17895 2.92651
2.0934 2.1636 2.93898
2.06271 2.19429 2.96436
2.07804 2.17896 2.95167
2.07804 2.17896 2.97686
2.01701 2.23999 3.05488
2.03242 2.22458 3.0625
2.00164 2.25536 3.0625
2.01701 2.23999 3.05488
2.03232 2.22468 3.03957
2.03242 2.22458 3.0625
2.04777 2.20923 3.05479
2.06326 2.19374 3.0625
2.03242 2.22458 3.0625
2.04777 2.20923 3.05479
2.03232 2.22468 3.03957
2.04754 2.20946 3.02833
2.03242 2.22458 3.0625
2.03232 2.22468 3.03957
2.04777 2.20923 3.05479
2.04754 2.20946 3.02833
2.06275 2.19425 3.01458
2.06287 2.19413 3.03927
2.06287 2.19413 3.03927
2.04777 2.20923 3.05479
2.04754 2.20946 3.02833
2.06326 2.19374 3.0625
2.04777 2.20923 3.05479
2.06287 2.19413 3.03927
2.06275 2.19425 3.01458
2.04744 2.20956 3.00263
2.06271 2.19429 2.98952
2.06271 2.19429 2.96436
2.07804 2.17896 2.97686
2.06271 2.19429 2.98952
2.07809 2.17891 3.02762
2.06287 2.19413 3.03927
2.06275 2.19425 3.01458
2.0934 2.1636 3.01395
2.0934 2.1636 3.03855
2.07809 2.17891 3.02762
2.0934 2.1636 2.91387
2.0934 2.1636 2.93898
2.07805 2.17895 2.92651
2.07804 2.17896 2.95167
2.0934 2.1636 2.93898
2.0934 2.1636 2.96406
2.0934 2.1636 2.96406
2.07804 2.17896 2.97686
2.07804 2.17896 2.95167
2.0934 2.1636 2.38652
2.0934 2.1636 2.41165
2.07807 2.17893 2.39907
2.07807 2.17893 2.85107
2.0934 2.1636 2.86361
2.07806 2.17894 2.87621
2.0934 2.1636 2.83848
2.0934 2.1636 2.86361
2.07807 2.17893 2.85107
2.07808 2.17892 2.72544
2.0934 2.1636 2.73799
2.07808 2.17892 2.75055
1.61564 2.64136 2.17059
1.63134 2.62566 2.1625
1.63134 2.62566 2.18563
1.5683 2.6887 3.0625
1.53648 2.72052 3.0625
1.55243 2.70457 3.05432
2.07804 2.17896 3.00212
2.06271 2.19429 2.98952
2.07804 2.17896 2.97686
2.06275 2.19425 3.01458
2.06271 2.19429 2.98952
2.07804 2.17896 3.00212
2.07804 2.17896 3.00212
2.07809 2.17891 3.02762
2.06275 2.19425 3.01458
2.0934 2.1636 3.01395
2.07809 2.17891 3.02762
2.07804 2.17896 3.00212
2.07833 2.17867 3.05384
2.0934 2.1636 3.03855
2.0934 2.1636 3.0625
2.07833 2.17867 3.05384
2.07809 2.17891 3.02762
2.0934 2.1636 3.03855
2.0934 2.1636 3.0625
2.06326 2.19374 3.0625
2.07833 2.17867 3.05384
2.06326 2.19374 3.0625
2.06287 2.19413 3.03927
2.07833 2.17867 3.05384
2.06287 2.19413 3.03927
2.07809 2.17891 3.02762
2.07833 2.17867 3.05384
2.07806 2.17894 2.87621
2.0934 2.1636 2.86361
2.0934 2.1636 2.88875
2.07804 2.17896 2.97686
2.0934 2.1636 2.96406
2.0934 2.1636 2.98907
2.0934 2.1636 3.01395
2.07804 2.17896 3.00212
2.0934 2.1636 2.98907
2.0934 2.1636 2.98907
2.07804 2.17896 3.00212
2.07804 2.17896 2.97686
2.0934 2.1636 2.71288
2.0934 2.1636 2.73799
2.07808 2.17892 2.72544
2.07807 2.17893 2.39907
2.0934 2.1636 2.41165
2.07807 2.17893 2.4242
2.06275 2.19425 2.83853
2.04743 2.20957 2.82598
2.06275 2.19425 2.81338
2.07806 2.17894 2.90136
2.0934 2.1636 2.91387
2.07805 2.17895 2.92651
2.07806 2.17894 2.90136
2.0934 2.1636 2.88875
2.0934 2.1636 2.91387
2.07806 2.17894 2.90136
2.06273 2.19427 2.88884
2.07806 2.17894 2.87621
2.07806 2.17894 2.87621
2.0934 2.1636 2.88875
2.07806 2.17894 2.90136
2.06271 2.19429 2.93918
2.07804 2.17896 2.95167
2.06271 2.19429 2.96436
2.06271 2.19429 2.93918
2.07805 2.17895 2.92651
2.07804 2.17896 2.95167
2.04741 2.20959 2.90149
2.03209 2.22491 2.91415
2.0321 2.2249 2.88894
1.83285 2.42415 3.02838
1.81747 2.43953 3.0149
1.83285 2.42415 3.00275
1.78664 2.47036 2.8638
1.78664 2.47036 2.889
1.77121 2.48579 2.87639
2.0934 2.1636 2.1625
2.0934 2.1636 2.18645
2.07833 2.17867 2.17116
1.56833 2.68867 3.03933
1.5683 2.6887 3.0625
1.55243 2.70457 3.05432
1.63134 2.62566 2.96446
1.61565 2.64135 2.97714
1.61564 2.64136 2.95185
1.55243 2.70457 3.05432
1.53648 2.72052 3.0625
1.53664 2.72036 3.03923
2.06276 2.19424 2.487
2.04745 2.20955 2.47443
2.06276 2.19424 2.46188
2.0934 2.1636 2.63759
2.07808 2.17892 2.62505
2.0934 2.1636 2.6125
2.07808 2.17892 2.67524
2.0934 2.1636 2.66269
2.0934 2.1636 2.68778
2.06277 2.19423 2.58741
2.04745 2.20955 2.59995
2.04745 2.20955 2.57486
2.06277 2.19423 2.6125
2.04745 2.20955 2.59995
2.06277 2.19423 2.58741
2.07808 2.17892 2.62505
2.06277 2.19423 2.63759
2.06277 2.19423 2.6125
2.04745 2.20955 2.75057
2.06276 2.19424 2.76312
2.04744 2.20956 2.7757
2.01682 2.24018 2.72547
2.01682 2.24018 2.75059
2.0015 2.2555 2.73803
2.04745 2.20955 2.72545
2.03214 2.22486 2.7129
2.04745 2.20955 2.70035
2.04745 2.20955 2.70035
2.06277 2.19423 2.71289
2.04745 2.20955 2.72545
2.03214 2.22486 2.7129
2.03214 2.22486 2.6878
2.04745 2.20955 2.70035
2.04745 2.20955 2.70035
2.03214 2.22486 2.6878
2.04745 2.20955 2.67524
2.0934 2.1636 2.68778
2.0934 2.1636 2.71288
2.07808 2.17892 2.70034
2.07808 2.17892 2.70034
2.07808 2.17892 2.67524
2.0934 2.1636 2.68778
2.07808 2.17892 2.70034
2.0934 2.1636 2.71288
2.07808 2.17892 2.72544
2.07808 2.17892 2.72544
2.06277 2.19423 2.71289
2.07808 2.17892 2.70034
2.04744 2.20956 2.80083
2.03213 2.22487 2.78828
2.04744 2.20956 2.7757
2.04744 2.20956 2.80083
2.06275 2.19425 2.81338
2.04743 2.20957 2.82598
2.0015 2.2555 2.7883
2.01681 2.24019 2.77572
2.01681 2.24019 2.80086
2.01681 2.24019 2.80086
2.01681 2.24019 2.77572
2.03213 2.22487 2.78828
2.0934 2.1636 2.7631
2.07808 2.17892 2.75055
2.0934 2.1636 2.73799
2.04744 2.20956 2.7757
2.06276 2.19424 2.76312
2.06276 2.19424 2.78825
2.06276 2.19424 2.78825
2.04744 2.20956 2.80083
2.04744 2.20956 2.7757
2.06275 2.19425 2.81338
2.04744 2.20956 2.80083
2.06276 2.19424 2.78825
2.07806 2.17894 2.87621
2.06273 2.19427 2.88884
2.06274 2.19426 2.86368
2.06274 2.19426 2.86368
2.07807 2.17893 2.85107
2.07806 2.17894 2.87621
2.06275 2.19425 2.83853
2.07807 2.17893 2.85107
2.06274 2.19426 2.86368
2.0321 2.2249 2.88894
2.03211 2.22489 2.86375
2.04742 2.20958 2.8763
2.04742 2.20958 2.8763
2.04741 2.20959 2.90149
2.0321 2.2249 2.88894
2.06273 2.19427 2.88884
2.04741 2.20959 2.90149
2.04742 2.20958 2.8763
2.04742 2.20958 2.8763
2.06274 2.19426 2.86368
2.06273 2.19427 2.88884
2.01679 2.24021 2.87638
2.03211 2.22489 2.86375
2.0321 2.2249 2.88894
2.01679 2.24021 2.87638
2.00148 2.25552 2.88901
2.00148 2.25552 2.86381
2.06271 2.19429 2.96436
2.06271 2.19429 2.98952
2.04741 2.20959 2.97722
2.04741 2.20959 2.97722
2.06271 2.19429 2.98952
2.04744 2.20956 3.00263
2.03209 2.22491 2.91415
2.04741 2.20959 2.90149
2.0474 2.2096 2.92669
2.0474 2.2096 2.92669
2.03209 2.22491 2.93937
2.03209 2.22491 2.91415
1.97087 2.28613 2.76317
1.95555 2.30145 2.77575
1.95555 2.30145 2.75061
2.00148 2.25552 2.86381
2.00149 2.25551 2.83862
2.0168 2.2402 2.85119
2.0168 2.2402 2.85119
2.01679 2.24021 2.87638
2.00148 2.25552 2.86381
2.03211 2.22489 2.86375
2.01679 2.24021 2.87638
2.0168 2.2402 2.85119
2.03211 2.22489 2.83858
2.03211 2.22489 2.86375
2.0168 2.2402 2.85119
1.86358 2.39342 3.00276
1.86358 2.39342 3.02839
1.84822 2.40878 3.01491
1.84822 2.40878 3.01491
1.86358 2.39342 3.02839
1.84822 2.40878 3.0395
1.84822 2.40878 3.01491
1.84822 2.40878 3.0395
1.83285 2.42415 3.02838
1.83285 2.42415 3.02838
1.83285 2.42415 3.00275
1.84822 2.40878 3.01491
1.81747 2.43953 2.98984
1.83285 2.42415 3.00275
1.81747 2.43953 3.0149
1.80202 2.45498 2.62505
1.80202 2.45498 2.65015
1.7866 2.4704 2.6376
1.70922 2.54778 2.75056
1.69367 2.56333 2.738
1.70922 2.54778 2.72545
1.70924 2.54776 2.80083
1.6937 2.5633 2.81339
1.69369 2.56331 2.78825
1.63134 2.62566 2.96446
1.61564 2.64136 2.95185
1.63132 2.62568 2.93924
1.63135 2.62565 2.98966
1.61565 2.64135 2.97714
1.63134 2.62566 2.96446
1.69376 2.56324 2.91412
1.69378 2.56322 2.93934
1.6782 2.5788 2.92672
1.59983 2.65717 2.86358
1.61554 2.64146 2.85103
1.61557 2.64143 2.8762
1.59973 2.65727 2.76303
1.58397 2.67303 2.77556
1.58396 2.67304 2.75046
1.61564 2.64136 3.05441
1.63134 2.62566 3.0625
1.5999 2.6571 3.0625
1.63134 2.62566 3.03937
1.63134 2.62566 3.0625
1.61564 2.64136 3.05441
1.647 2.61 3.05447
1.63134 2.62566 3.0625
1.63134 2.62566 3.03937
1.59993 2.65707 2.98961
1.59992 2.65708 3.01469
1.58418 2.67282 3.00246
1.84822 2.40878 3.0625
1.81747 2.43953 3.0625
1.83285 2.42415 3.05472
1.83285 2.42415 3.02838
1.84822 2.40878 3.0395
1.83285 2.42415 3.05472
1.83285 2.42415 3.05472
1.84822 2.40878 3.0395
1.84822 2.40878 3.0625
1.81747 2.43953 3.03949
1.81747 2.43953 3.0149
1.83285 2.42415 3.02838
1.83285 2.42415 3.02838
1.83285 2.42415 3.05472
1.81747 2.43953 3.03949
1.81747 2.43953 3.03949
1.83285 2.42415 3.05472
1.81747 2.43953 3.0625
1.70931 2.54769 2.92676
1.69378 2.56322 2.93934
1.69376 2.56324 2.91412
1.7712 2.4858 2.8512
1.78663 2.47037 2.83862
1.78664 2.47036 2.8638
1.78664 2.47036 2.8638
1.77121 2.48579 2.87639
1.7712 2.4858 2.8512
1.77122 2.48578 2.9016
1.77121 2.48579 2.87639
1.78664 2.47036 2.889
1.77122 2.48578 2.9016
1.78664 2.47036 2.889
1.78665 2.47035 2.91421
1.78665 2.47035 2.91421
1.77123 2.48577 2.92682
1.77122 2.48578 2.9016
1.77122 2.48578 2.9016
1.77123 2.48577 2.92682
1.75578 2.50122 2.91419
1.78666 2.47034 2.93943
1.77123 2.48577 2.92682
1.78665 2.47035 2.91421
1.78666 2.47034 2.96464
1.77124 2.48576 2.97734
1.77124 2.48576 2.95206
1.77124 2.48576 2.95206
1.78666 2.47034 2.93943
1.78666 2.47034 2.96464
1.77123 2.48577 2.92682
1.78666 2.47034 2.93943
1.77124 2.48576 2.95206
2.07809 2.17891 2.19738
2.07833 2.17867 2.17116
2.0934 2.1636 2.18645
2.06287 2.19413 2.18573
2.07833 2.17867 2.17116
2.07809 2.17891 2.19738
1.94028 2.31672 2.18548
1.94028 2.31672 2.1625
1.95561 2.30139 2.17021
2.00164 2.25536 2.1625
1.98629 2.27071 2.17017
1.97095 2.28605 2.1625
1.97095 2.28605 2.1625
1.95561 2.30139 2.17021
1.94028 2.31672 2.1625
1.48928 2.76772 2.19897
1.48919 2.76781 2.17286
1.50509 2.75191 2.18645
1.50509 2.75191 2.18645
1.5206 2.7364 2.17101
1.52092 2.73608 2.19745
1.47362 2.78338 2.18782
1.48919 2.76781 2.17286
1.48928 2.76772 2.19897
1.47362 2.78338 2.18782
1.47412 2.78288 2.1625
1.48919 2.76781 2.17286
1.56833 2.68867 2.18567
1.5683 2.6887 2.1625
1.58412 2.67288 2.17063
[...]
<PointData Scalars="View Factor" >
<DataArray type="Float64" Name="View Factor" NumberOfComponents="1" format="ascii">
4.04697e-05
4.04697e-05
4.04697e-05
3.93337e-05
3.93337e-05
3.93337e-05
3.97063e-05
3.97063e-05
3.97063e-05
4.13709e-05
4.13709e-05
4.13709e-05
4.1165e-05
4.1165e-05
4.1165e-05
4.10022e-05
4.10022e-05
4.10022e-05
4.08627e-05
4.08627e-05
4.08627e-05
4.10449e-05
4.10449e-05
4.10449e-05
4.05423e-05
4.05423e-05
4.05423e-05
4.07452e-05
4.07452e-05
4.07452e-05
4.08064e-05
4.08064e-05
4.08064e-05
4.02749e-05
4.02749e-05
4.02749e-05
3.98944e-05
3.98944e-05
3.98944e-05
4.04257e-05
4.04257e-05
4.04257e-05
4.01963e-05
4.01963e-05
4.01963e-05
3.91494e-05
3.91494e-05
3.91494e-05
3.94085e-05
3.94085e-05
3.94085e-05
3.95945e-05
3.95945e-05
3.95945e-05
3.41672e-05
3.41672e-05
3.41672e-05
3.85638e-05
3.85638e-05
3.85638e-05
3.83841e-05
3.83841e-05
3.83841e-05
3.73227e-05
3.73227e-05
3.73227e-05
5.81115e-05
5.81115e-05
5.81115e-05
8.00113e-05
8.00113e-05
8.00113e-05
3.99729e-05
3.99729e-05
3.99729e-05
4.01595e-05
4.01595e-05
4.01595e-05
4.02353e-05
4.02353e-05
4.02353e-05
4.0121e-05
4.0121e-05
4.0121e-05
4.04611e-05
4.04611e-05
4.04611e-05
4.03928e-05
4.03928e-05
4.03928e-05
4.06576e-05
4.06576e-05
4.06576e-05
4.06879e-05
4.06879e-05
4.06879e-05
4.05078e-05
4.05078e-05
4.05078e-05
3.86372e-05
3.86372e-05
3.86372e-05
3.96695e-05
3.96695e-05
3.96695e-05
3.99323e-05
3.99323e-05
3.99323e-05
3.986e-05
3.986e-05
3.986e-05
3.71501e-05
3.71501e-05
3.71501e-05
3.43236e-05
3.43236e-05
3.43236e-05
3.84549e-05
3.84549e-05
3.84549e-05
3.9075e-05
3.9075e-05
3.9075e-05
3.88923e-05
3.88923e-05
3.88923e-05
3.8927e-05
3.8927e-05
3.8927e-05
3.88183e-05
3.88183e-05
3.88183e-05
3.9631e-05
3.9631e-05
3.9631e-05
3.94443e-05
3.94443e-05
3.94443e-05
3.94474e-05
3.94474e-05
3.94474e-05
5.36855e-05
5.36855e-05
5.36855e-05
5.58492e-05
5.58492e-05
5.58492e-05
3.22765e-05
3.22765e-05
3.22765e-05
7.88632e-05
7.88632e-05
7.88632e-05
7.17756e-05
7.17756e-05
7.17756e-05
8.08426e-05
8.08426e-05
8.08426e-05
3.51209e-05
3.51209e-05
3.51209e-05
3.61991e-05
3.61991e-05
3.61991e-05
3.66707e-05
3.66707e-05
3.66707e-05
3.62006e-05
3.62006e-05
3.62006e-05
3.62683e-05
3.62683e-05
3.62683e-05
3.64008e-05
3.64008e-05
3.64008e-05
3.78845e-05
3.78845e-05
3.78845e-05
3.80758e-05
3.80758e-05
3.80758e-05
3.75008e-05
3.75008e-05
3.75008e-05
3.7394e-05
3.7394e-05
3.7394e-05
3.74328e-05
3.74328e-05
3.74328e-05
3.72556e-05
3.72556e-05
3.72556e-05
3.69094e-05
3.69094e-05
3.69094e-05
3.68406e-05
3.68406e-05
3.68406e-05
3.70807e-05
3.70807e-05
3.70807e-05
3.71839e-05
3.71839e-05
3.71839e-05
3.82421e-05
3.82421e-05
3.82421e-05
3.83835e-05
3.83835e-05
3.83835e-05
3.85767e-05
3.85767e-05
3.85767e-05
3.8464e-05
3.8464e-05
3.8464e-05
3.73928e-05
3.73928e-05
3.73928e-05
3.79546e-05
3.79546e-05
3.79546e-05
3.81329e-05
3.81329e-05
3.81329e-05
3.82036e-05
3.82036e-05
3.82036e-05
3.88537e-05
3.88537e-05
3.88537e-05
3.86716e-05
3.86716e-05
3.86716e-05
3.85989e-05
3.85989e-05
3.85989e-05
3.91879e-05
3.91879e-05
3.91879e-05
3.92607e-05
3.92607e-05
3.92607e-05
3.91482e-05
3.91482e-05
3.91482e-05
3.89638e-05
3.89638e-05
3.89638e-05
3.93017e-05
3.93017e-05
3.93017e-05
3.95355e-05
3.95355e-05
3.95355e-05
4.00086e-05
4.00086e-05
4.00086e-05
4.01978e-05
4.01978e-05
4.01978e-05
3.9521e-05
3.9521e-05
3.9521e-05
3.97093e-05
3.97093e-05
3.97093e-05
3.89031e-05
3.89031e-05
3.89031e-05
3.9271e-05
3.9271e-05
3.9271e-05
3.93448e-05
3.93448e-05
3.93448e-05
3.92295e-05
3.92295e-05
3.92295e-05
3.90436e-05
3.90436e-05
3.90436e-05
5.08646e-05
5.08646e-05
5.08646e-05
5.15043e-05
5.15043e-05
5.15043e-05
5.24474e-05
5.24474e-05
5.24474e-05
5.27446e-05
5.27446e-05
5.27446e-05
5.39754e-05
5.39754e-05
5.39754e-05
5.11948e-05
5.11948e-05
5.11948e-05
6.04936e-05
6.04936e-05
6.04936e-05
6.19413e-05
6.19413e-05
6.19413e-05
7.10613e-05
7.10613e-05
7.10613e-05
7.15309e-05
7.15309e-05
7.15309e-05
6.49544e-05
6.49544e-05
6.49544e-05
7.08243e-05
7.08243e-05
7.08243e-05
7.08023e-05
7.08023e-05
7.08023e-05
7.41031e-05
7.41031e-05
7.41031e-05
7.2974e-05
7.2974e-05
7.2974e-05
7.19989e-05
7.19989e-05
7.19989e-05
7.49119e-05
7.49119e-05
7.49119e-05
5.38558e-05
5.38558e-05
5.38558e-05
5.30996e-05
5.30996e-05
5.30996e-05
5.27882e-05
5.27882e-05
5.27882e-05
5.43325e-05
5.43325e-05
5.43325e-05
5.40473e-05
5.40473e-05
5.40473e-05
5.46877e-05
5.46877e-05
5.46877e-05
6.40201e-05
6.40201e-05
6.40201e-05
5.54764e-05
5.54764e-05
5.54764e-05
5.61194e-05
5.61194e-05
5.61194e-05
5.64866e-05
5.64866e-05
5.64866e-05
5.62198e-05
5.62198e-05
5.62198e-05
5.68654e-05
5.68654e-05
5.68654e-05
5.77874e-05
5.77874e-05
5.77874e-05
5.65907e-05
5.65907e-05
5.65907e-05
5.76256e-05
5.76256e-05
5.76256e-05
5.69702e-05
5.69702e-05
5.69702e-05
5.7248e-05
5.7248e-05
5.7248e-05
3.24151e-05
3.24151e-05
3.24151e-05
3.25026e-05
3.25026e-05
3.25026e-05
3.4535e-05
3.4535e-05
3.4535e-05
3.31426e-05
3.31426e-05
3.31426e-05
3.37213e-05
3.37213e-05
3.37213e-05
6.81009e-05
6.81009e-05
6.81009e-05
6.65162e-05
6.65162e-05
6.65162e-05
6.88906e-05
6.88906e-05
6.88906e-05
6.90589e-05
6.90589e-05
6.90589e-05
6.20087e-05
6.20087e-05
6.20087e-05
5.87753e-05
5.87753e-05
5.87753e-05
6.11063e-05
6.11063e-05
6.11063e-05
7.22484e-05
7.22484e-05
7.22484e-05
7.20667e-05
7.20667e-05
7.20667e-05
7.49344e-05
7.49344e-05
7.49344e-05
7.56519e-05
7.56519e-05
7.56519e-05
7.54112e-05
7.54112e-05
7.54112e-05
7.19307e-05
7.19307e-05
7.19307e-05
7.17114e-05
7.17114e-05
7.17114e-05
7.36484e-05
7.36484e-05
7.36484e-05
3.41053e-05
3.41053e-05
3.41053e-05
3.57351e-05
3.57351e-05
3.57351e-05
3.55745e-05
3.55745e-05
3.55745e-05
3.57417e-05
3.57417e-05
3.57417e-05
3.53468e-05
3.53468e-05
3.53468e-05
3.55106e-05
3.55106e-05
3.55106e-05
3.56117e-05
3.56117e-05
3.56117e-05
3.55483e-05
3.55483e-05
3.55483e-05
3.53838e-05
3.53838e-05
3.53838e-05
3.52834e-05
3.52834e-05
3.52834e-05
4.20575e-05
4.20575e-05
4.20575e-05
4.25593e-05
4.25593e-05
4.25593e-05
4.27245e-05
4.27245e-05
4.27245e-05
3.5321e-05
3.5321e-05
3.5321e-05
3.4386e-05
3.4386e-05
3.4386e-05
3.9469e-05
3.9469e-05
3.9469e-05
4.12029e-05
4.12029e-05
4.12029e-05
3.83017e-05
3.83017e-05
3.83017e-05
4.01122e-05
4.01122e-05
4.01122e-05
3.77228e-05
3.77228e-05
3.77228e-05
3.76556e-05
3.76556e-05
3.76556e-05
3.84524e-05
3.84524e-05
3.84524e-05
3.9001e-05
3.9001e-05
3.9001e-05
3.63038e-05
3.63038e-05
3.63038e-05
3.59662e-05
3.59662e-05
3.59662e-05
3.61323e-05
3.61323e-05
3.61323e-05
3.62327e-05
3.62327e-05
3.62327e-05
3.61665e-05
3.61665e-05
3.61665e-05
3.59997e-05
3.59997e-05
3.59997e-05
3.58999e-05
3.58999e-05
3.58999e-05
4.38099e-05
4.38099e-05
4.38099e-05
4.32495e-05
4.32495e-05
4.32495e-05
3.84987e-05
3.84987e-05
3.84987e-05
3.82051e-05
3.82051e-05
3.82051e-05
3.87511e-05
3.87511e-05
3.87511e-05
3.95936e-05
3.95936e-05
3.95936e-05
4.29702e-05
4.29702e-05
4.29702e-05
4.32462e-05
4.32462e-05
4.32462e-05
4.43728e-05
4.43728e-05
4.43728e-05
4.35322e-05
4.35322e-05
4.35322e-05
3.93357e-05
3.93357e-05
3.93357e-05
3.98844e-05
3.98844e-05
3.98844e-05
3.76014e-05
3.76014e-05
3.76014e-05
3.77076e-05
3.77076e-05
3.77076e-05
3.76382e-05
3.76382e-05
3.76382e-05
3.74267e-05
3.74267e-05
3.74267e-05
3.73573e-05
3.73573e-05
3.73573e-05
3.74627e-05
3.74627e-05
3.74627e-05
3.79646e-05
3.79646e-05
3.79646e-05
3.77458e-05
3.77458e-05
3.77458e-05
3.76771e-05
3.76771e-05
3.76771e-05
3.77861e-05
3.77861e-05
3.77861e-05
3.78083e-05
3.78083e-05
3.78083e-05
3.75143e-05
3.75143e-05
3.75143e-05
3.7625e-05
3.7625e-05
3.7625e-05
3.69432e-05
3.69432e-05
3.69432e-05
3.69792e-05
3.69792e-05
3.69792e-05
3.68751e-05
3.68751e-05
3.68751e-05
3.71496e-05
3.71496e-05
3.71496e-05
3.72199e-05
3.72199e-05
3.72199e-05
3.71152e-05
3.71152e-05
3.71152e-05
3.8172e-05
3.8172e-05
3.8172e-05
3.82826e-05
3.82826e-05
3.82826e-05
3.82132e-05
3.82132e-05
3.82132e-05
3.79929e-05
3.79929e-05
3.79929e-05
3.80333e-05
3.80333e-05
3.80333e-05
3.79235e-05
3.79235e-05
3.79235e-05
3.83253e-05
3.83253e-05
3.83253e-05
3.82588e-05
3.82588e-05
3.82588e-05
3.8372e-05
3.8372e-05
3.8372e-05
3.85051e-05
3.85051e-05
3.85051e-05
3.84227e-05
3.84227e-05
3.84227e-05
3.8534e-05
3.8534e-05
3.8534e-05
3.84934e-05
3.84934e-05
3.84934e-05
3.86755e-05
3.86755e-05
3.86755e-05
3.87604e-05
3.87604e-05
3.87604e-05
3.76737e-05
3.76737e-05
3.76737e-05
3.75691e-05
3.75691e-05
3.75691e-05
3.76376e-05
3.76376e-05
3.76376e-05
3.78475e-05
3.78475e-05
3.78475e-05
3.81332e-05
3.81332e-05
3.81332e-05
3.83464e-05
3.83464e-05
3.83464e-05
3.83114e-05
3.83114e-05
3.83114e-05
3.84184e-05
3.84184e-05
3.84184e-05
3.78843e-05
3.78843e-05
3.78843e-05
3.78107e-05
3.78107e-05
3.78107e-05
3.7916e-05
3.7916e-05
3.7916e-05
3.80959e-05
3.80959e-05
3.80959e-05
3.81673e-05
3.81673e-05
3.81673e-05
3.80611e-05
3.80611e-05
3.80611e-05
3.89306e-05
3.89306e-05
3.89306e-05
3.87082e-05
3.87082e-05
3.87082e-05
3.90027e-05
3.90027e-05
3.90027e-05
3.88911e-05
3.88911e-05
3.88911e-05
3.87469e-05
3.87469e-05
3.87469e-05
3.86362e-05
3.86362e-05
3.86362e-05
3.95621e-05
3.95621e-05
3.95621e-05
3.94892e-05
3.94892e-05
3.94892e-05
3.96055e-05
3.96055e-05
3.96055e-05
3.9744e-05
3.9744e-05
3.9744e-05
3.99759e-05
3.99759e-05
3.99759e-05
3.96694e-05
3.96694e-05
3.96694e-05
3.97836e-05
3.97836e-05
3.97836e-05
3.99359e-05
3.99359e-05
3.99359e-05
4.00511e-05
4.00511e-05
4.00511e-05
4.07769e-05
4.07769e-05
4.07769e-05
4.05867e-05
4.05867e-05
4.05867e-05
4.10997e-05
4.10997e-05
4.10997e-05
4.08959e-05
4.08959e-05
4.08959e-05
4.08238e-05
4.08238e-05
4.08238e-05
4.02374e-05
4.02374e-05
4.02374e-05
4.06262e-05
4.06262e-05
4.06262e-05
4.03138e-05
4.03138e-05
4.03138e-05
4.05081e-05
4.05081e-05
4.05081e-05
3.94076e-05
3.94076e-05
3.94076e-05
3.91846e-05
3.91846e-05
3.91846e-05
3.93697e-05
3.93697e-05
3.93697e-05
3.94817e-05
3.94817e-05
3.94817e-05
3.91106e-05
3.91106e-05
3.91106e-05
3.92216e-05
3.92216e-05
3.92216e-05
4.46798e-05
4.46798e-05
4.46798e-05
4.49654e-05
4.49654e-05
4.49654e-05
4.2071e-05
4.2071e-05
4.2071e-05
4.38096e-05
4.38096e-05
4.38096e-05
3.89713e-05
3.89713e-05
3.89713e-05
5.09973e-05
5.09973e-05
5.09973e-05
5.18394e-05
5.18394e-05
5.18394e-05
5.12103e-05
5.12103e-05
5.12103e-05
5.17921e-05
5.17921e-05
5.17921e-05
5.03402e-05
5.03402e-05
5.03402e-05
4.49358e-05
4.49358e-05
4.49358e-05
4.46559e-05
4.46559e-05
4.46559e-05
6.07319e-05
6.07319e-05
6.07319e-05
6.59979e-05
6.59979e-05
6.59979e-05
6.11376e-05
6.11376e-05
6.11376e-05
6.41025e-05
6.41025e-05
6.41025e-05
6.56445e-05
6.56445e-05
6.56445e-05
6.49863e-05
6.49863e-05
6.49863e-05
7.12967e-05
7.12967e-05
7.12967e-05
7.22518e-05
7.22518e-05
7.22518e-05
7.32124e-05
7.32124e-05
7.32124e-05
7.39457e-05
7.39457e-05
7.39457e-05
7.01127e-05
7.01127e-05
7.01127e-05
6.94014e-05
6.94014e-05
6.94014e-05
6.8217e-05
6.8217e-05
6.8217e-05
6.84579e-05
6.84579e-05
6.84579e-05
6.68736e-05
6.68736e-05
6.68736e-05
6.59477e-05
6.59477e-05
6.59477e-05
6.87321e-05
6.87321e-05
6.87321e-05
6.96622e-05
6.96622e-05
6.96622e-05
6.9895e-05
6.9895e-05
6.9895e-05
6.50839e-05
6.50839e-05
6.50839e-05
6.68285e-05
6.68285e-05
6.68285e-05
6.77672e-05
6.77672e-05
6.77672e-05
7.1057e-05
7.1057e-05
7.1057e-05
7.03594e-05
7.03594e-05
7.03594e-05
6.89812e-05
6.89812e-05
6.89812e-05
7.01204e-05
7.01204e-05
7.01204e-05
7.11775e-05
7.11775e-05
7.11775e-05
6.82565e-05
6.82565e-05
6.82565e-05
7.27296e-05
7.27296e-05
7.27296e-05
7.34496e-05
7.34496e-05
7.34496e-05
5.67043e-05
5.67043e-05
5.67043e-05
5.56393e-05
5.56393e-05
5.56393e-05
5.59117e-05
5.59117e-05
5.59117e-05
5.65469e-05
5.65469e-05
5.65469e-05
5.4216e-05
5.4216e-05
5.4216e-05
6.16634e-05
6.16634e-05
6.16634e-05
5.80526e-05
5.80526e-05
5.80526e-05
5.74024e-05
5.74024e-05
5.74024e-05
5.85597e-05
5.85597e-05
5.85597e-05
6.04297e-05
6.04297e-05
6.04297e-05
3.22995e-05
3.22995e-05
3.22995e-05
3.24518e-05
3.24518e-05
3.24518e-05
3.29596e-05
3.29596e-05
3.29596e-05
3.2816e-05
3.2816e-05
3.2816e-05
3.28469e-05
3.28469e-05
3.28469e-05
6.5153e-05
6.5153e-05
6.5153e-05
6.57292e-05
6.57292e-05
6.57292e-05
6.34644e-05
6.34644e-05
6.34644e-05
6.43631e-05
6.43631e-05
6.43631e-05
6.41481e-05
6.41481e-05
6.41481e-05
6.27932e-05
6.27932e-05
6.27932e-05
6.33611e-05
6.33611e-05
6.33611e-05
6.31815e-05
6.31815e-05
6.31815e-05
6.7127e-05
6.7127e-05
6.7127e-05
6.85394e-05
6.85394e-05
6.85394e-05
6.79239e-05
6.79239e-05
6.79239e-05
6.75187e-05
6.75187e-05
6.75187e-05
6.67303e-05
6.67303e-05
6.67303e-05
6.8151e-05
6.8151e-05
6.8151e-05
6.58246e-05
6.58246e-05
6.58246e-05
6.38108e-05
6.38108e-05
6.38108e-05
7.17966e-05
7.17966e-05
7.17966e-05
6.34065e-05
6.34065e-05
6.34065e-05
7.71205e-05
7.71205e-05
7.71205e-05
7.66237e-05
7.66237e-05
7.66237e-05
7.64425e-05
7.64425e-05
7.64425e-05
7.49036e-05
7.49036e-05
7.49036e-05
7.55797e-05
7.55797e-05
7.55797e-05
7.4677e-05
7.4677e-05
7.4677e-05
7.35694e-05
7.35694e-05
7.35694e-05
7.89608e-05
7.89608e-05
7.89608e-05
7.28719e-05
7.28719e-05
7.28719e-05
7.26726e-05
7.26726e-05
7.26726e-05
6.81169e-05
6.81169e-05
6.81169e-05
6.7295e-05
6.7295e-05
6.7295e-05
6.97652e-05
6.97652e-05
6.97652e-05
7.05914e-05
7.05914e-05
7.05914e-05
7.12362e-05
7.12362e-05
7.12362e-05
6.65134e-05
6.65134e-05
6.65134e-05
7.37288e-05
7.37288e-05
7.37288e-05
7.32614e-05
7.32614e-05
7.32614e-05
7.30788e-05
7.30788e-05
7.30788e-05
5.94972e-05
5.94972e-05
5.94972e-05
5.92602e-05
5.92602e-05
5.92602e-05
6.52477e-05
6.52477e-05
6.52477e-05
5.87895e-05
5.87895e-05
5.87895e-05
5.81702e-05
5.81702e-05
5.81702e-05
5.84077e-05
5.84077e-05
5.84077e-05
5.54799e-05
5.54799e-05
5.54799e-05
5.59776e-05
5.59776e-05
5.59776e-05
6.61283e-05
6.61283e-05
6.61283e-05
6.54841e-05
6.54841e-05
6.54841e-05
7.32405e-05
7.32405e-05
7.32405e-05
7.42152e-05
7.42152e-05
7.42152e-05
7.44377e-05
7.44377e-05
7.44377e-05
7.37164e-05
7.37164e-05
7.37164e-05
7.59148e-05
7.59148e-05
7.59148e-05
7.61676e-05
7.61676e-05
7.61676e-05
7.70546e-05
7.70546e-05
7.70546e-05
7.78767e-05
7.78767e-05
7.78767e-05
7.71475e-05
7.71475e-05
7.71475e-05
8.07125e-05
8.07125e-05
8.07125e-05
8.12423e-05
8.12423e-05
8.12423e-05
8.05223e-05
8.05223e-05
8.05223e-05
7.2401e-05
7.2401e-05
7.2401e-05
7.38036e-05
7.38036e-05
7.38036e-05
7.40166e-05
7.40166e-05
7.40166e-05
7.3315e-05
7.3315e-05
7.3315e-05
7.5146e-05
7.5146e-05
7.5146e-05
7.56443e-05
7.56443e-05
7.56443e-05
7.4935e-05
7.4935e-05
7.4935e-05
7.65671e-05
7.65671e-05
7.65671e-05
7.29346e-05
7.29346e-05
7.29346e-05
7.15248e-05
7.15248e-05
7.15248e-05
7.54884e-05
7.54884e-05
7.54884e-05
7.47767e-05
7.47767e-05
7.47767e-05
7.45932e-05
7.45932e-05
7.45932e-05
8.18318e-05
8.18318e-05
8.18318e-05
8.29962e-05
8.29962e-05
8.29962e-05
8.38018e-05
8.38018e-05
8.38018e-05
7.66238e-05
7.66238e-05
7.66238e-05
7.73626e-05
7.73626e-05
7.73626e-05
7.9118e-05
7.9118e-05
7.9118e-05
8.01012e-05
8.01012e-05
8.01012e-05
7.83398e-05
7.83398e-05
7.83398e-05
7.85675e-05
7.85675e-05
7.85675e-05
3.30553e-05
3.30553e-05
3.30553e-05
3.30095e-05
3.30095e-05
3.30095e-05
3.31066e-05
3.31066e-05
3.31066e-05
3.32499e-05
3.32499e-05
3.32499e-05
3.34057e-05
3.34057e-05
3.34057e-05
3.33057e-05
3.33057e-05
3.33057e-05
3.33488e-05
3.33488e-05
3.33488e-05
4.21312e-05
4.21312e-05
4.21312e-05
3.26556e-05
3.26556e-05
3.26556e-05
3.2745e-05
3.2745e-05
3.2745e-05
3.30226e-05
3.30226e-05
3.30226e-05
3.29287e-05
3.29287e-05
3.29287e-05
3.58041e-05
3.58041e-05
3.58041e-05
3.59703e-05
3.59703e-05
3.59703e-05
3.60353e-05
3.60353e-05
3.60353e-05
3.59341e-05
3.59341e-05
3.59341e-05
3.52784e-05
3.52784e-05
3.52784e-05
3.54747e-05
3.54747e-05
3.54747e-05
3.58434e-05
3.58434e-05
3.58434e-05
3.60482e-05
3.60482e-05
3.60482e-05
3.58805e-05
3.58805e-05
3.58805e-05
3.57774e-05
3.57774e-05
3.57774e-05
4.8791e-05
4.8791e-05
4.8791e-05
4.76495e-05
4.76495e-05
4.76495e-05
4.61398e-05
4.61398e-05
4.61398e-05
4.74955e-05
4.74955e-05
4.74955e-05
4.83015e-05
4.83015e-05
4.83015e-05
4.85485e-05
4.85485e-05
4.85485e-05
4.69418e-05
4.69418e-05
4.69418e-05
4.79905e-05
4.79905e-05
4.79905e-05
4.71899e-05
4.71899e-05
4.71899e-05
4.72446e-05
4.72446e-05
4.72446e-05
4.88602e-05
4.88602e-05
4.88602e-05
4.99924e-05
4.99924e-05
4.99924e-05
5.28251e-05
5.28251e-05
5.28251e-05
4.93529e-05
4.93529e-05
4.93529e-05
5.20354e-05
5.20354e-05
5.20354e-05
4.05357e-05
4.05357e-05
4.05357e-05
4.70862e-05
4.70862e-05
4.70862e-05
4.73432e-05
4.73432e-05
4.73432e-05
4.51155e-05
4.51155e-05
4.51155e-05
4.37568e-05
4.37568e-05
4.37568e-05
4.43053e-05
4.43053e-05
4.43053e-05
4.23167e-05
4.23167e-05
4.23167e-05
3.52857e-05
3.52857e-05
3.52857e-05
3.77701e-05
3.77701e-05
3.77701e-05
3.80236e-05
3.80236e-05
3.80236e-05
3.87782e-05
3.87782e-05
3.87782e-05
3.90418e-05
3.90418e-05
3.90418e-05
4.5591e-05
4.5591e-05
4.5591e-05
4.29222e-05
4.29222e-05
4.29222e-05
4.45075e-05
4.45075e-05
4.45075e-05
3.5058e-05
3.5058e-05
3.5058e-05
3.51578e-05
3.51578e-05
3.51578e-05
4.0797e-05
4.0797e-05
4.0797e-05
3.91802e-05
3.91802e-05
3.91802e-05
3.94564e-05
3.94564e-05
3.94564e-05
4.02627e-05
4.02627e-05
4.02627e-05
3.75196e-05
3.75196e-05
3.75196e-05
4.04866e-05
4.04866e-05
4.04866e-05
3.796e-05
3.796e-05
3.796e-05
3.45458e-05
3.45458e-05
3.45458e-05
3.46066e-05
3.46066e-05
3.46066e-05
3.48288e-05
3.48288e-05
3.48288e-05
3.50224e-05
3.50224e-05
3.50224e-05
3.48596e-05
3.48596e-05
3.48596e-05
3.47632e-05
3.47632e-05
3.47632e-05
3.50527e-05
3.50527e-05
3.50527e-05
3.52138e-05
3.52138e-05
3.52138e-05
3.53117e-05
3.53117e-05
3.53117e-05
3.52477e-05
3.52477e-05
3.52477e-05
3.50859e-05
3.50859e-05
3.50859e-05
3.49887e-05
3.49887e-05
3.49887e-05
3.66026e-05
3.66026e-05
3.66026e-05
3.67044e-05
3.67044e-05
3.67044e-05
3.6637e-05
3.6637e-05
3.6637e-05
3.6434e-05
3.6434e-05
3.6434e-05
3.64676e-05
3.64676e-05
3.64676e-05
3.63665e-05
3.63665e-05
3.63665e-05
3.92111e-05
3.92111e-05
3.92111e-05
4.0636e-05
4.0636e-05
4.0636e-05
3.97713e-05
3.97713e-05
3.97713e-05
3.95116e-05
3.95116e-05
3.95116e-05
3.84165e-05
3.84165e-05
3.84165e-05
3.86508e-05
3.86508e-05
3.86508e-05
3.87183e-05
3.87183e-05
3.87183e-05
3.86014e-05
3.86014e-05
3.86014e-05
3.83982e-05
3.83982e-05
3.83982e-05
3.84651e-05
3.84651e-05
3.84651e-05
3.8349e-05
3.8349e-05
3.8349e-05
3.81656e-05
3.81656e-05
3.81656e-05
3.73863e-05
3.73863e-05
3.73863e-05
3.76092e-05
3.76092e-05
3.76092e-05
3.75599e-05
3.75599e-05
3.75599e-05
3.76726e-05
3.76726e-05
3.76726e-05
3.73402e-05
3.73402e-05
3.73402e-05
3.72762e-05
3.72762e-05
3.72762e-05
3.74138e-05
3.74138e-05
3.74138e-05
3.74793e-05
3.74793e-05
3.74793e-05
3.92587e-05
3.92587e-05
3.92587e-05
3.89553e-05
3.89553e-05
3.89553e-05
3.79029e-05
3.79029e-05
3.79029e-05
3.8705e-05
3.8705e-05
3.8705e-05
3.61534e-05
3.61534e-05
3.61534e-05
3.63254e-05
3.63254e-05
3.63254e-05
3.69034e-05
3.69034e-05
3.69034e-05
3.62431e-05
3.62431e-05
3.62431e-05
3.60726e-05
3.60726e-05
3.60726e-05
3.61121e-05
3.61121e-05
3.61121e-05
3.60081e-05
3.60081e-05
3.60081e-05
4.09347e-05
4.09347e-05
4.09347e-05
4.03706e-05
4.03706e-05
4.03706e-05
4.06699e-05
4.06699e-05
4.06699e-05
4.15269e-05
4.15269e-05
4.15269e-05
4.20925e-05
4.20925e-05
4.20925e-05
4.17972e-05
4.17972e-05
4.17972e-05
4.23668e-05
4.23668e-05
4.23668e-05
4.32333e-05
4.32333e-05
4.32333e-05
4.04052e-05
4.04052e-05
4.04052e-05
3.98488e-05
3.98488e-05
3.98488e-05
4.01436e-05
4.01436e-05
4.01436e-05
4.09896e-05
4.09896e-05
4.09896e-05
4.35307e-05
4.35307e-05
4.35307e-05
4.26831e-05
4.26831e-05
4.26831e-05
3.96271e-05
3.96271e-05
3.96271e-05
4.02014e-05
4.02014e-05
4.02014e-05
4.24073e-05
4.24073e-05
4.24073e-05
4.07248e-05
4.07248e-05
4.07248e-05
4.21227e-05
4.21227e-05
4.21227e-05
4.12787e-05
4.12787e-05
4.12787e-05
4.10464e-05
4.10464e-05
4.10464e-05
4.73869e-05
4.73869e-05
4.73869e-05
4.79569e-05
4.79569e-05
4.79569e-05
4.40812e-05
4.40812e-05
4.40812e-05
4.46459e-05
4.46459e-05
4.46459e-05
3.78729e-05
3.78729e-05
3.78729e-05
3.80517e-05
3.80517e-05
3.80517e-05
3.80077e-05
3.80077e-05
3.80077e-05
3.81203e-05
3.81203e-05
3.81203e-05
3.74736e-05
3.74736e-05
3.74736e-05
3.75832e-05
3.75832e-05
3.75832e-05
3.7541e-05
3.7541e-05
3.7541e-05
3.7761e-05
3.7761e-05
3.7761e-05
3.77181e-05
3.77181e-05
3.77181e-05
3.78285e-05
3.78285e-05
3.78285e-05
3.91338e-05
3.91338e-05
3.91338e-05
3.87193e-05
3.87193e-05
3.87193e-05
3.88328e-05
3.88328e-05
3.88328e-05
3.87878e-05
3.87878e-05
3.87878e-05
3.90179e-05
3.90179e-05