<VTKFile type="UnstructuredGrid" version="1.0">
<UnstructuredGrid>
<Piece NumberOfPoints="8859" NumberOfCells="2953">
<Points>
<DataArray type="Float64" NumberOfComponents="3" format="ascii">
2.04744 2.20956 8.22762
2.06275 2.19425 8.23958
2.04754 2.20946 8.25333
2.07804 2.17896 8.17667
2.07805 2.17895 8.15152
2.0934 2.1636 8.16398
2.06271 2.19429 8.18936
2.07804 2.17896 8.17667
2.07804 2.17896 8.20186
2.01701 2.23999 8.27988
2.03242 2.22458 8.2875
2.00164 2.25536 8.2875
2.01701 2.23999 8.27988
2.03232 2.22468 8.26457
2.03242 2.22458 8.2875
2.04777 2.20923 8.27979
2.06326 2.19374 8.2875
2.03242 2.22458 8.2875
2.04777 2.20923 8.27979
2.03232 2.22468 8.26457
2.04754 2.20946 8.25333
2.03242 2.22458 8.2875
2.03232 2.22468 8.26457
2.04777 2.20923 8.27979
2.04754 2.20946 8.25333
2.06275 2.19425 8.23958
2.06287 2.19413 8.26427
2.06287 2.19413 8.26427
2.04777 2.20923 8.27979
2.04754 2.20946 8.25333
2.06326 2.19374 8.2875
2.04777 2.20923 8.27979
2.06287 2.19413 8.26427
2.06275 2.19425 8.23958
2.04744 2.20956 8.22762
2.06271 2.19429 8.21452
2.06271 2.19429 8.18936
2.07804 2.17896 8.20186
2.06271 2.19429 8.21452
2.07809 2.17891 8.25262
2.06287 2.19413 8.26427
2.06275 2.19425 8.23958
2.0934 2.1636 8.23895
2.0934 2.1636 8.26355
2.07809 2.17891 8.25262
2.0934 2.1636 8.13887
2.0934 2.1636 8.16398
2.07805 2.17895 8.15152
2.07804 2.17896 8.17667
2.0934 2.1636 8.16398
2.0934 2.1636 8.18906
2.0934 2.1636 8.18906
2.07804 2.17896 8.20186
2.07804 2.17896 8.17667
2.0934 2.1636 7.61152
2.0934 2.1636 7.63665
2.07807 2.17893 7.62407
2.07807 2.17893 8.07607
2.0934 2.1636 8.08861
2.07806 2.17894 8.10121
2.0934 2.1636 8.06348
2.0934 2.1636 8.08861
2.07807 2.17893 8.07607
2.07808 2.17892 7.95044
2.0934 2.1636 7.96299
2.07808 2.17892 7.97555
1.61564 2.64136 7.39559
1.63134 2.62566 7.3875
1.63134 2.62566 7.41063
1.5683 2.6887 8.2875
1.53648 2.72052 8.2875
1.55243 2.70457 8.27932
2.07804 2.17896 8.22712
2.06271 2.19429 8.21452
2.07804 2.17896 8.20186
2.06275 2.19425 8.23958
2.06271 2.19429 8.21452
2.07804 2.17896 8.22712
2.07804 2.17896 8.22712
2.07809 2.17891 8.25262
2.06275 2.19425 8.23958
2.0934 2.1636 8.23895
2.07809 2.17891 8.25262
2.07804 2.17896 8.22712
2.07833 2.17867 8.27884
2.0934 2.1636 8.26355
2.0934 2.1636 8.2875
2.07833 2.17867 8.27884
2.07809 2.17891 8.25262
2.0934 2.1636 8.26355
2.0934 2.1636 8.2875
2.06326 2.19374 8.2875
2.07833 2.17867 8.27884
2.06326 2.19374 8.2875
2.06287 2.19413 8.26427
2.07833 2.17867 8.27884
2.06287 2.19413 8.26427
2.07809 2.17891 8.25262
2.07833 2.17867 8.27884
2.07806 2.17894 8.10121
2.0934 2.1636 8.08861
2.0934 2.1636 8.11374
2.07804 2.17896 8.20186
2.0934 2.1636 8.18906
2.0934 2.1636 8.21407
2.0934 2.1636 8.23895
2.07804 2.17896 8.22712
2.0934 2.1636 8.21407
2.0934 2.1636 8.21407
2.07804 2.17896 8.22712
2.07804 2.17896 8.20186
2.0934 2.1636 7.93788
2.0934 2.1636 7.96299
2.07808 2.17892 7.95044
2.07807 2.17893 7.62407
2.0934 2.1636 7.63665
2.07807 2.17893 7.6492
2.06275 2.19425 8.06353
2.04743 2.20957 8.05098
2.06275 2.19425 8.03838
2.07806 2.17894 8.12636
2.0934 2.1636 8.13887
2.07805 2.17895 8.15152
2.07806 2.17894 8.12636
2.0934 2.1636 8.11374
2.0934 2.1636 8.13887
2.07806 2.17894 8.12636
2.06273 2.19427 8.11384
2.07806 2.17894 8.10121
2.07806 2.17894 8.10121
2.0934 2.1636 8.11374
2.07806 2.17894 8.12636
2.06271 2.19429 8.16418
2.07804 2.17896 8.17667
2.06271 2.19429 8.18936
2.06271 2.19429 8.16418
2.07805 2.17895 8.15152
2.07804 2.17896 8.17667
2.04741 2.20959 8.12649
2.03209 2.22491 8.13915
2.0321 2.2249 8.11394
1.83285 2.42415 8.25338
1.81747 2.43953 8.2399
1.83285 2.42415 8.22775
1.78664 2.47036 8.0888
1.78664 2.47036 8.114
1.77121 2.48579 8.10139
2.0934 2.1636 7.3875
2.0934 2.1636 7.41145
2.07833 2.17867 7.39616
1.56833 2.68867 8.26433
1.5683 2.6887 8.2875
1.55243 2.70457 8.27932
1.63134 2.62566 8.18946
1.61565 2.64135 8.20214
1.61564 2.64136 8.17685
1.55243 2.70457 8.27932
1.53648 2.72052 8.2875
1.53664 2.72036 8.26423
2.06276 2.19424 7.712
2.04745 2.20955 7.69943
2.06276 2.19424 7.68688
2.0934 2.1636 7.86259
2.07808 2.17892 7.85005
2.0934 2.1636 7.8375
2.07808 2.17892 7.90024
2.0934 2.1636 7.88769
2.0934 2.1636 7.91278
2.06277 2.19423 7.81241
2.04745 2.20955 7.82495
2.04745 2.20955 7.79986
2.06277 2.19423 7.8375
2.04745 2.20955 7.82495
2.06277 2.19423 7.81241
2.07808 2.17892 7.85005
2.06277 2.19423 7.86259
2.06277 2.19423 7.8375
2.04745 2.20955 7.97557
2.06276 2.19424 7.98812
2.04744 2.20956 8.0007
2.01682 2.24018 7.95047
2.01682 2.24018 7.97559
2.0015 2.2555 7.96303
2.04745 2.20955 7.95045
2.03214 2.22486 7.9379
2.04745 2.20955 7.92535
2.04745 2.20955 7.92535
2.06277 2.19423 7.93789
2.04745 2.20955 7.95045
2.03214 2.22486 7.9379
2.03214 2.22486 7.9128
2.04745 2.20955 7.92535
2.04745 2.20955 7.92535
2.03214 2.22486 7.9128
2.04745 2.20955 7.90024
2.0934 2.1636 7.91278
2.0934 2.1636 7.93788
2.07808 2.17892 7.92534
2.07808 2.17892 7.92534
2.07808 2.17892 7.90024
2.0934 2.1636 7.91278
2.07808 2.17892 7.92534
2.0934 2.1636 7.93788
2.07808 2.17892 7.95044
2.07808 2.17892 7.95044
2.06277 2.19423 7.93789
2.07808 2.17892 7.92534
2.04744 2.20956 8.02583
2.03213 2.22487 8.01328
2.04744 2.20956 8.0007
2.04744 2.20956 8.02583
2.06275 2.19425 8.03838
2.04743 2.20957 8.05098
2.0015 2.2555 8.0133
2.01681 2.24019 8.00072
2.01681 2.24019 8.02586
2.01681 2.24019 8.02586
2.01681 2.24019 8.00072
2.03213 2.22487 8.01328
2.0934 2.1636 7.9881
2.07808 2.17892 7.97555
2.0934 2.1636 7.96299
2.04744 2.20956 8.0007
2.06276 2.19424 7.98812
2.06276 2.19424 8.01325
2.06276 2.19424 8.01325
2.04744 2.20956 8.02583
2.04744 2.20956 8.0007
2.06275 2.19425 8.03838
2.04744 2.20956 8.02583
2.06276 2.19424 8.01325
2.07806 2.17894 8.10121
2.06273 2.19427 8.11384
2.06274 2.19426 8.08868
2.06274 2.19426 8.08868
2.07807 2.17893 8.07607
2.07806 2.17894 8.10121
2.06275 2.19425 8.06353
2.07807 2.17893 8.07607
2.06274 2.19426 8.08868
2.0321 2.2249 8.11394
2.03211 2.22489 8.08875
2.04742 2.20958 8.1013
2.04742 2.20958 8.1013
2.04741 2.20959 8.12649
2.0321 2.2249 8.11394
2.06273 2.19427 8.11384
2.04741 2.20959 8.12649
2.04742 2.20958 8.1013
2.04742 2.20958 8.1013
2.06274 2.19426 8.08868
2.06273 2.19427 8.11384
2.01679 2.24021 8.10138
2.03211 2.22489 8.08875
2.0321 2.2249 8.11394
2.01679 2.24021 8.10138
2.00148 2.25552 8.11401
2.00148 2.25552 8.08881
2.06271 2.19429 8.18936
2.06271 2.19429 8.21452
2.04741 2.20959 8.20222
2.04741 2.20959 8.20222
2.06271 2.19429 8.21452
2.04744 2.20956 8.22762
2.03209 2.22491 8.13915
2.04741 2.20959 8.12649
2.0474 2.2096 8.15169
2.0474 2.2096 8.15169
2.03209 2.22491 8.16437
2.03209 2.22491 8.13915
1.97087 2.28613 7.98817
1.95555 2.30145 8.00075
1.95555 2.30145 7.97561
2.00148 2.25552 8.08881
2.00149 2.25551 8.06362
2.0168 2.2402 8.07619
2.0168 2.2402 8.07619
2.01679 2.24021 8.10138
2.00148 2.25552 8.08881
2.03211 2.22489 8.08875
2.01679 2.24021 8.10138
2.0168 2.2402 8.07619
2.03211 2.22489 8.06358
2.03211 2.22489 8.08875
2.0168 2.2402 8.07619
1.86358 2.39342 8.22776
1.86358 2.39342 8.25339
1.84822 2.40878 8.23991
1.84822 2.40878 8.23991
1.86358 2.39342 8.25339
1.84822 2.40878 8.2645
1.84822 2.40878 8.23991
1.84822 2.40878 8.2645
1.83285 2.42415 8.25338
1.83285 2.42415 8.25338
1.83285 2.42415 8.22775
1.84822 2.40878 8.23991
1.81747 2.43953 8.21484
1.83285 2.42415 8.22775
1.81747 2.43953 8.2399
1.80202 2.45498 7.85005
1.80202 2.45498 7.87515
1.7866 2.4704 7.8626
1.70922 2.54778 7.97556
1.69367 2.56333 7.963
1.70922 2.54778 7.95045
1.70924 2.54776 8.02583
1.6937 2.5633 8.03839
1.69369 2.56331 8.01325
1.63134 2.62566 8.18946
1.61564 2.64136 8.17685
1.63132 2.62568 8.16424
1.63135 2.62565 8.21466
1.61565 2.64135 8.20214
1.63134 2.62566 8.18946
1.69376 2.56324 8.13912
1.69378 2.56322 8.16434
1.6782 2.5788 8.15172
1.59983 2.65717 8.08858
1.61554 2.64146 8.07603
1.61557 2.64143 8.1012
1.59973 2.65727 7.98803
1.58397 2.67303 8.00056
1.58396 2.67304 7.97546
1.61564 2.64136 8.27941
1.63134 2.62566 8.2875
1.5999 2.6571 8.2875
1.63134 2.62566 8.26437
1.63134 2.62566 8.2875
1.61564 2.64136 8.27941
1.647 2.61 8.27947
1.63134 2.62566 8.2875
1.63134 2.62566 8.26437
1.59993 2.65707 8.21461
1.59992 2.65708 8.23969
1.58418 2.67282 8.22746
1.84822 2.40878 8.2875
1.81747 2.43953 8.2875
1.83285 2.42415 8.27972
1.83285 2.42415 8.25338
1.84822 2.40878 8.2645
1.83285 2.42415 8.27972
1.83285 2.42415 8.27972
1.84822 2.40878 8.2645
1.84822 2.40878 8.2875
1.81747 2.43953 8.26449
1.81747 2.43953 8.2399
1.83285 2.42415 8.25338
1.83285 2.42415 8.25338
1.83285 2.42415 8.27972
1.81747 2.43953 8.26449
1.81747 2.43953 8.26449
1.83285 2.42415 8.27972
1.81747 2.43953 8.2875
1.70931 2.54769 8.15176
1.69378 2.56322 8.16434
1.69376 2.56324 8.13912
1.7712 2.4858 8.0762
1.78663 2.47037 8.06362
1.78664 2.47036 8.0888
1.78664 2.47036 8.0888
1.77121 2.48579 8.10139
1.7712 2.4858 8.0762
1.77122 2.48578 8.1266
1.77121 2.48579 8.10139
1.78664 2.47036 8.114
1.77122 2.48578 8.1266
1.78664 2.47036 8.114
1.78665 2.47035 8.13921
1.78665 2.47035 8.13921
1.77123 2.48577 8.15182
1.77122 2.48578 8.1266
1.77122 2.48578 8.1266
1.77123 2.48577 8.15182
1.75578 2.50122 8.13919
1.78666 2.47034 8.16443
1.77123 2.48577 8.15182
1.78665 2.47035 8.13921
1.78666 2.47034 8.18964
1.77124 2.48576 8.20234
1.77124 2.48576 8.17706
1.77124 2.48576 8.17706
1.78666 2.47034 8.16443
1.78666 2.47034 8.18964
1.77123 2.48577 8.15182
1.78666 2.47034 8.16443
1.77124 2.48576 8.17706
2.07809 2.17891 7.42238
2.07833 2.17867 7.39616
2.0934 2.1636 7.41145
2.06287 2.19413 7.41073
2.07833 2.17867 7.39616
2.07809 2.17891 7.42238
1.94028 2.31672 7.41048
1.94028 2.31672 7.3875
1.95561 2.30139 7.39521
2.00164 2.25536 7.3875
1.98629 2.27071 7.39517
1.97095 2.28605 7.3875
1.97095 2.28605 7.3875
1.95561 2.30139 7.39521
1.94028 2.31672 7.3875
1.48928 2.76772 7.42397
1.48919 2.76781 7.39786
1.50509 2.75191 7.41145
1.50509 2.75191 7.41145
1.5206 2.7364 7.39601
1.52092 2.73608 7.42245
1.47362 2.78338 7.41282
1.48919 2.76781 7.39786
1.48928 2.76772 7.42397
1.47362 2.78338 7.41282
1.47412 2.78288 7.3875
1.48919 2.76781 7.39786
1.56833 2.68867 7.41067
1.5683 2.6887 7.3875
1.58412 2.67288 7.39563
[...]
<PointData Scalars="View Factor" >
<DataArray type="Float64" Name="View Factor" NumberOfComponents="1" format="ascii">
0.240349
0.240349
0.240349
0.19433
0.19433
0.19433
0.208871
0.208871
0.208871
0.270392
0.270392
0.270392
0.265084
0.265084
0.265084
0.269029
0.269029
0.269029
0.25704
0.25704
0.25704
0.264564
0.264564
0.264564
0.247606
0.247606
0.247606
0.256411
0.256411
0.256411
0.263508
0.263508
0.263508
0.232123
0.232123
0.232123
0.216433
0.216433
0.216433
0.246834
0.246834
0.246834
0.245358
0.245358
0.245358
0.187389
0.187389
0.187389
0.200599
0.200599
0.200599
0.207981
0.207981
0.207981
0.0558332
0.0558332
0.0558332
0.158708
0.158708
0.158708
0.153064
0.153064
0.153064
0.115149
0.115149
0.115149
0.0787282
0.0787282
0.0787282
0.307197
0.307197
0.307197
0.223366
0.223366
0.223366
0.231273
0.231273
0.231273
0.238724
0.238724
0.238724
0.237939
0.237939
0.237939
0.261742
0.261742
0.261742
0.254271
0.254271
0.254271
0.267527
0.267527
0.267527
0.262818
0.262818
0.262818
0.254954
0.254954
0.254954
0.163643
0.163643
0.163643
0.214695
0.214695
0.214695
0.229639
0.229639
0.229639
0.222522
0.222522
0.222522
0.111294
0.111294
0.111294
0.0573625
0.0573625
0.0573625
0.146219
0.146219
0.146219
0.181575
0.181575
0.181575
0.175075
0.175075
0.175075
0.170672
0.170672
0.170672
0.169709
0.169709
0.169709
0.202418
0.202418
0.202418
0.195256
0.195256
0.195256
0.180207
0.180207
0.180207
0.276647
0.276647
0.276647
0.219531
0.219531
0.219531
0.0380442
0.0380442
0.0380442
0.30455
0.30455
0.30455
0.270238
0.270238
0.270238
0.303968
0.303968
0.303968
0.0660396
0.0660396
0.0660396
0.0881715
0.0881715
0.0881715
0.0988121
0.0988121
0.0988121
0.0836209
0.0836209
0.0836209
0.0855251
0.0855251
0.0855251
0.0895787
0.0895787
0.0895787
0.125335
0.125335
0.125335
0.122211
0.122211
0.122211
0.11199
0.11199
0.11199
0.111008
0.111008
0.111008
0.109229
0.109229
0.109229
0.105595
0.105595
0.105595
0.104801
0.104801
0.104801
0.10212
0.10212
0.10212
0.108371
0.108371
0.108371
0.109195
0.109195
0.109195
0.134475
0.134475
0.134475
0.142126
0.142126
0.142126
0.137948
0.137948
0.137948
0.136754
0.136754
0.136754
0.118338
0.118338
0.118338
0.128774
0.128774
0.128774
0.133399
0.133399
0.133399
0.137151
0.137151
0.137151
0.16557
0.16557
0.16557
0.159671
0.159671
0.159671
0.154982
0.154982
0.154982
0.168832
0.168832
0.168832
0.173855
0.173855
0.173855
0.172752
0.172752
0.172752
0.166615
0.166615
0.166615
0.169993
0.169993
0.169993
0.17239
0.17239
0.17239
0.21735
0.21735
0.21735
0.225134
0.225134
0.225134
0.18565
0.18565
0.18565
0.192396
0.192396
0.192396
0.13603
0.13603
0.13603
0.161843
0.161843
0.161843
0.166413
0.166413
0.166413
0.165205
0.165205
0.165205
0.159419
0.159419
0.159419
0.271803
0.271803
0.271803
0.279114
0.279114
0.279114
0.280719
0.280719
0.280719
0.275142
0.275142
0.275142
0.270894
0.270894
0.270894
0.136899
0.136899
0.136899
0.180876
0.180876
0.180876
0.202436
0.202436
0.202436
0.265098
0.265098
0.265098
0.275032
0.275032
0.275032
0.251227
0.251227
0.251227
0.233098
0.233098
0.233098
0.201356
0.201356
0.201356
0.308555
0.308555
0.308555
0.305468
0.305468
0.305468
0.305494
0.305494
0.305494
0.285564
0.285564
0.285564
0.299139
0.299139
0.299139
0.288417
0.288417
0.288417
0.293729
0.293729
0.293729
0.283599
0.283599
0.283599
0.289783
0.289783
0.289783
0.296333
0.296333
0.296333
0.250353
0.250353
0.250353
0.209368
0.209368
0.209368
0.215211
0.215211
0.215211
0.225542
0.225542
0.225542
0.2301
0.2301
0.2301
0.236269
0.236269
0.236269
0.237685
0.237685
0.237685
0.241059
0.241059
0.241059
0.258829
0.258829
0.258829
0.252388
0.252388
0.252388
0.247373
0.247373
0.247373
0.0388872
0.0388872
0.0388872
0.0391663
0.0391663
0.0391663
0.0446997
0.0446997
0.0446997
0.0412549
0.0412549
0.0412549
0.0430186
0.0430186
0.0430186
0.0917582
0.0917582
0.0917582
0.0899232
0.0899232
0.0899232
0.0926409
0.0926409
0.0926409
0.0915125
0.0915125
0.0915125
0.0835204
0.0835204
0.0835204
0.0788263
0.0788263
0.0788263
0.0816826
0.0816826
0.0816826
0.116584
0.116584
0.116584
0.118194
0.118194
0.118194
0.305313
0.305313
0.305313
0.290581
0.290581
0.290581
0.295399
0.295399
0.295399
0.198827
0.198827
0.198827
0.20222
0.20222
0.20222
0.252349
0.252349
0.252349
0.0547663
0.0547663
0.0547663
0.0790581
0.0790581
0.0790581
0.0730062
0.0730062
0.0730062
0.0752527
0.0752527
0.0752527
0.0694009
0.0694009
0.0694009
0.0714996
0.0714996
0.0714996
0.0721848
0.0721848
0.0721848
0.0707375
0.0707375
0.0707375
0.0686552
0.0686552
0.0686552
0.0680031
0.0680031
0.0680031
0.0561938
0.0561938
0.0561938
0.0577861
0.0577861
0.0577861
0.0566464
0.0566464
0.0566464
0.0673115
0.0673115
0.0673115
0.058505
0.058505
0.058505
0.131047
0.131047
0.131047
0.136495
0.136495
0.136495
0.124588
0.124588
0.124588
0.1176
0.1176
0.1176
0.104742
0.104742
0.104742
0.102477
0.102477
0.102477
0.104827
0.104827
0.104827
0.108945
0.108945
0.108945
0.084413
0.084413
0.084413
0.0834414
0.0834414
0.0834414
0.0860851
0.0860851
0.0860851
0.0867722
0.0867722
0.0867722
0.0847818
0.0847818
0.0847818
0.082171
0.082171
0.082171
0.0815168
0.0815168
0.0815168
0.116765
0.116765
0.116765
0.112758
0.112758
0.112758
0.0978727
0.0978727
0.0978727
0.0993394
0.0993394
0.0993394
0.103219
0.103219
0.103219
0.105561
0.105561
0.105561
0.107176
0.107176
0.107176
0.105532
0.105532
0.105532
0.113047
0.113047
0.113047
0.110973
0.110973
0.110973
0.100129
0.100129
0.100129
0.103937
0.103937
0.103937
0.120082
0.120082
0.120082
0.121039
0.121039
0.121039
0.117888
0.117888
0.117888
0.116006
0.116006
0.116006
0.112974
0.112974
0.112974
0.113898
0.113898
0.113898
0.12107
0.12107
0.12107
0.118904
0.118904
0.118904
0.115897
0.115897
0.115897
0.116963
0.116963
0.116963
0.110928
0.110928
0.110928
0.106151
0.106151
0.106151
0.107252
0.107252
0.107252
0.102909
0.102909
0.102909
0.101209
0.101209
0.101209
0.100356
0.100356
0.100356
0.10465
0.10465
0.10465
0.107303
0.107303
0.107303
0.106414
0.106414
0.106414
0.130899
0.130899
0.130899
0.132027
0.132027
0.132027
0.128612
0.128612
0.128612
0.126384
0.126384
0.126384
0.124204
0.124204
0.124204
0.123105
0.123105
0.123105
0.129782
0.129782
0.129782
0.126516
0.126516
0.126516
0.12772
0.12772
0.12772
0.13439
0.13439
0.13439
0.139324
0.139324
0.139324
0.140475
0.140475
0.140475
0.143224
0.143224
0.143224
0.148427
0.148427
0.148427
0.142879
0.142879
0.142879
0.123391
0.123391
0.123391
0.122504
0.122504
0.122504
0.125984
0.125984
0.125984
0.127786
0.127786
0.127786
0.143294
0.143294
0.143294
0.145187
0.145187
0.145187
0.148534
0.148534
0.148534
0.149489
0.149489
0.149489
0.134285
0.134285
0.134285
0.130482
0.130482
0.130482
0.131397
0.131397
0.131397
0.136138
0.136138
0.136138
0.140081
0.140081
0.140081
0.139143
0.139143
0.139143
0.15825
0.15825
0.15825
0.156026
0.156026
0.156026
0.162873
0.162873
0.162873
0.161761
0.161761
0.161761
0.152675
0.152675
0.152675
0.151565
0.151565
0.151565
0.181344
0.181344
0.181344
0.176155
0.176155
0.176155
0.177341
0.177341
0.177341
0.203389
0.203389
0.203389
0.205407
0.205407
0.205407
0.197239
0.197239
0.197239
0.198276
0.198276
0.198276
0.210764
0.210764
0.210764
0.21174
0.21174
0.21174
0.249029
0.249029
0.249029
0.241131
0.241131
0.241131
0.258243
0.258243
0.258243
0.249721
0.249721
0.249721
0.24266
0.24266
0.24266
0.219223
0.219223
0.219223
0.234639
0.234639
0.234639
0.226027
0.226027
0.226027
0.233804
0.233804
0.233804
0.184571
0.184571
0.184571
0.182526
0.182526
0.182526
0.189267
0.189267
0.189267
0.190277
0.190277
0.190277
0.176989
0.176989
0.176989
0.178023
0.178023
0.178023
0.14667
0.14667
0.14667
0.143969
0.143969
0.143969
0.139129
0.139129
0.139129
0.144217
0.144217
0.144217
0.139434
0.139434
0.139434
0.294851
0.294851
0.294851
0.29226
0.29226
0.29226
0.285351
0.285351
0.285351
0.141127
0.141127
0.141127
0.135041
0.135041
0.135041
0.116966
0.116966
0.116966
0.118899
0.118899
0.118899
0.177657
0.177657
0.177657
0.215881
0.215881
0.215881
0.185581
0.185581
0.185581
0.172444
0.172444
0.172444
0.177872
0.177872
0.177872
0.173672
0.173672
0.173672
0.260442
0.260442
0.260442
0.280223
0.280223
0.280223
0.280446
0.280446
0.280446
0.285461
0.285461
0.285461
0.264639
0.264639
0.264639
0.259417
0.259417
0.259417
0.26358
0.26358
0.26358
0.258833
0.258833
0.258833
0.23415
0.23415
0.23415
0.233251
0.233251
0.233251
0.235796
0.235796
0.235796
0.236547
0.236547
0.236547
0.232375
0.232375
0.232375
0.214831
0.214831
0.214831
0.252811
0.252811
0.252811
0.253521
0.253521
0.253521
0.229038
0.229038
0.229038
0.22431
0.22431
0.22431
0.214907
0.214907
0.214907
0.197047
0.197047
0.197047
0.308739
0.308739
0.308739
0.308528
0.308528
0.308528
0.270574
0.270574
0.270574
0.275595
0.275595
0.275595
0.302439
0.302439
0.302439
0.297476
0.297476
0.297476
0.188385
0.188385
0.188385
0.193691
0.193691
0.193691
0.197869
0.197869
0.197869
0.297359
0.297359
0.297359
0.233018
0.233018
0.233018
0.227041
0.227041
0.227041
0.26004
0.26004
0.26004
0.262235
0.262235
0.262235
0.0378393
0.0378393
0.0378393
0.038601
0.038601
0.038601
0.0409333
0.0409333
0.0409333
0.0399968
0.0399968
0.0399968
0.0399198
0.0399198
0.0399198
0.0871693
0.0871693
0.0871693
0.0890271
0.0890271
0.0890271
0.0844464
0.0844464
0.0844464
0.0862663
0.0862663
0.0862663
0.0872068
0.0872068
0.0872068
0.0844476
0.0844476
0.0844476
0.0862894
0.0862894
0.0862894
0.0874503
0.0874503
0.0874503
0.0920373
0.0920373
0.0920373
0.0950209
0.0950209
0.0950209
0.092959
0.092959
0.092959
0.0898445
0.0898445
0.0898445
0.088931
0.088931
0.088931
0.089679
0.089679
0.089679
0.0871158
0.0871158
0.0871158
0.101464
0.101464
0.101464
0.16092
0.16092
0.16092
0.104268
0.104268
0.104268
0.153188
0.153188
0.153188
0.147905
0.147905
0.147905
0.150123
0.150123
0.150123
0.146247
0.146247
0.146247
0.149302
0.149302
0.149302
0.128577
0.128577
0.128577
0.140242
0.140242
0.140242
0.178959
0.178959
0.178959
0.159342
0.159342
0.159342
0.161858
0.161858
0.161858
0.111899
0.111899
0.111899
0.110912
0.110912
0.110912
0.113824
0.113824
0.113824
0.114762
0.114762
0.114762
0.117284
0.117284
0.117284
0.11733
0.11733
0.11733
0.119951
0.119951
0.119951
0.115887
0.115887
0.115887
0.117465
0.117465
0.117465
0.13612
0.13612
0.13612
0.13833
0.13833
0.13833
0.158548
0.158548
0.158548
0.142928
0.142928
0.142928
0.139148
0.139148
0.139148
0.136899
0.136899
0.136899
0.145573
0.145573
0.145573
0.140731
0.140731
0.140731
0.148611
0.148611
0.148611
0.145114
0.145114
0.145114
0.300755
0.300755
0.300755
0.300734
0.300734
0.300734
0.295416
0.295416
0.295416
0.290497
0.290497
0.290497
0.305173
0.305173
0.305173
0.300569
0.300569
0.300569
0.308033
0.308033
0.308033
0.304795
0.304795
0.304795
0.300436
0.300436
0.300436
0.195472
0.195472
0.195472
0.202273
0.202273
0.202273
0.198578
0.198578
0.198578
0.206508
0.206508
0.206508
0.215148
0.215148
0.215148
0.211543
0.211543
0.211543
0.207283
0.207283
0.207283
0.208717
0.208717
0.208717
0.216455
0.216455
0.216455
0.21223
0.21223
0.21223
0.217051
0.217051
0.217051
0.247536
0.247536
0.247536
0.237907
0.237907
0.237907
0.236053
0.236053
0.236053
0.231563
0.231563
0.231563
0.25276
0.25276
0.25276
0.303596
0.303596
0.303596
0.306057
0.306057
0.306057
0.302773
0.302773
0.302773
0.290566
0.290566
0.290566
0.295258
0.295258
0.295258
0.300057
0.300057
0.300057
0.299814
0.299814
0.299814
0.295129
0.295129
0.295129
0.290416
0.290416
0.290416
0.0413619
0.0413619
0.0413619
0.0408381
0.0408381
0.0408381
0.0412897
0.0412897
0.0412897
0.0422821
0.0422821
0.0422821
0.0427556
0.0427556
0.0427556
0.0422485
0.0422485
0.0422485
0.0427714
0.0427714
0.0427714
0.0729537
0.0729537
0.0729537
0.0401546
0.0401546
0.0401546
0.0404767
0.0404767
0.0404767
0.0416079
0.0416079
0.0416079
0.0412059
0.0412059
0.0412059
0.0768783
0.0768783
0.0768783
0.079284
0.079284
0.079284
0.0810421
0.0810421
0.0810421
0.0803339
0.0803339
0.0803339
0.0712116
0.0712116
0.0712116
0.0723649
0.0723649
0.0723649
0.0759722
0.0759722
0.0759722
0.0775258
0.0775258
0.0775258
0.0751693
0.0751693
0.0751693
0.0744102
0.0744102
0.0744102
0.113508
0.113508
0.113508
0.106601
0.106601
0.106601
0.0849654
0.0849654
0.0849654
0.0891558
0.0891558
0.0891558
0.0906638
0.0906638
0.0906638
0.089447
0.089447
0.089447
0.0864748
0.0864748
0.0864748
0.0868083
0.0868083
0.0868083
0.0853439
0.0853439
0.0853439
0.0903707
0.0903707
0.0903707
0.0934299
0.0934299
0.0934299
0.0991811
0.0991811
0.0991811
0.0843598
0.0843598
0.0843598
0.090909
0.090909
0.090909
0.0831303
0.0831303
0.0831303
0.078457
0.078457
0.078457
0.103281
0.103281
0.103281
0.101766
0.101766
0.101766
0.0896279
0.0896279
0.0896279
0.0851597
0.0851597
0.0851597
0.087971
0.087971
0.087971
0.0584221
0.0584221
0.0584221
0.0458538
0.0458538
0.0458538
0.0512965
0.0512965
0.0512965
0.0508017
0.0508017
0.0508017
0.0519723
0.0519723
0.0519723
0.0516165
0.0516165
0.0516165
0.0823716
0.0823716
0.0823716
0.0744454
0.0744454
0.0744454
0.0773974
0.0773974
0.0773974
0.0647406
0.0647406
0.0647406
0.0653611
0.0653611
0.0653611
0.0822295
0.0822295
0.0822295
0.0786683
0.0786683
0.0786683
0.0776975
0.0776975
0.0776975
0.0794452
0.0794452
0.0794452
0.0797815
0.0797815
0.0797815
0.0944249
0.0944249
0.0944249
0.0942191
0.0942191
0.0942191
0.0601366
0.0601366
0.0601366
0.0613613
0.0613613
0.0613613
0.0644184
0.0644184
0.0644184
0.0654597
0.0654597
0.0654597
0.0636094
0.0636094
0.0636094
0.0631019
0.0631019
0.0631019
0.0676951
0.0676951
0.0676951
0.0696867
0.0696867
0.0696867
0.070249
0.070249
0.070249
0.0687909
0.0687909
0.0687909
0.0668138
0.0668138
0.0668138
0.0662796
0.0662796
0.0662796
0.0963492
0.0963492
0.0963492
0.0971045
0.0971045
0.0971045
0.0947579
0.0947579
0.0947579
0.0932826
0.0932826
0.0932826
0.0917382
0.0917382
0.0917382
0.0910174
0.0910174
0.0910174
0.12379
0.12379
0.12379
0.131401
0.131401
0.131401
0.128717
0.128717
0.128717
0.121664
0.121664
0.121664
0.125817
0.125817
0.125817
0.128337
0.128337
0.128337
0.131474
0.131474
0.131474
0.130202
0.130202
0.130202
0.121167
0.121167
0.121167
0.124058
0.124058
0.124058
0.122811
0.122811
0.122811
0.118703
0.118703
0.118703
0.101384
0.101384
0.101384
0.103597
0.103597
0.103597
0.104816
0.104816
0.104816
0.105943
0.105943
0.105943
0.102653
0.102653
0.102653
0.100322
0.100322
0.100322
0.0970788
0.0970788
0.0970788
0.0991692
0.0991692
0.0991692
0.115085
0.115085
0.115085
0.117021
0.117021
0.117021
0.108271
0.108271
0.108271
0.110712
0.110712
0.110712
0.0783567
0.0783567
0.0783567
0.080849
0.080849
0.080849
0.090859
0.090859
0.090859
0.0825893
0.0825893
0.0825893
0.0800391
0.0800391
0.0800391
0.0791483
0.0791483
0.0791483
0.0783522
0.0783522
0.0783522
0.129074
0.129074
0.129074
0.124264
0.124264
0.124264
0.122137
0.122137
0.122137
0.124626
0.124626
0.124626
0.129318
0.129318
0.129318
0.131637
0.131637
0.131637
0.1366
0.1366
0.1366
0.139114
0.139114
0.139114
0.115655
0.115655
0.115655
0.111374
0.111374
0.111374
0.109598
0.109598
0.109598
0.111931
0.111931
0.111931
0.118708
0.118708
0.118708
0.116486
0.116486
0.116486
0.0986464
0.0986464
0.0986464
0.0957953
0.0957953
0.0957953
0.110603
0.110603
0.110603
0.106191
0.106191
0.106191
0.112389
0.112389
0.112389
0.110147
0.110147
0.110147
0.0917855
0.0917855
0.0917855
0.108234
0.108234
0.108234
0.111724
0.111724
0.111724
0.107545
0.107545
0.107545
0.111263
0.111263
0.111263
0.113574
0.113574
0.113574
0.117504
0.117504
0.117504
0.11921
0.11921
0.11921
0.120384
0.120384
0.120384
0.107617
0.107617
0.107617
0.108686
0.108686
0.108686
0.110259
0.110259
0.110259
0.112435
0.112435
0.112435
0.114086
0.114086
0.114086
0.115193
0.115193
0.115193
0.153269
0.153269
0.153269
0.145541
0.145541
0.145541
0.14675
0.14675
0.14675
0.149592
0.149592
0.149592
0.152019
0.152019
0.152019
0.15501
0.15501
0.15501
0.156225
0.156225
0.156225
0.266078
0.266078
0.266078
0.25882
0.25882
0.25882
0.227815
0.227815
0.227815
0.22017
0.22017
0.22017
0.175762
0.175762
0.175762
0.169268
0.169268
0.169268
0.163492
0.163492
0.163492
0.144429
0.144429
0.144429
0.138826
0.138826
0.138826
0.136274
0.136274
0.136274
0.139038
0.139038
0.139038
0.161949
0.161949
0.161949
0.138144
0.138144
0.138144
0.135618
0.135618
0.135618
0.133468
0.133468
0.133468
0.132214
0.132214
0.132214
0.146674
0.146674
0.146674
0.150524
0.150524
0.150524
0.149246
0.149246
0.149246
0.144123
0.144123
0.144123
0.140421
0.140421
0.140421
0.141691
0.141691
0.141691
0.147972
0.147972
0.147972
0.15312
0.15312
0.15312
0.156072
0.156072
0.156072
0.14428
0.14428
0.14428
0.163088
0.163088
0.163088
0.158724
0.158724
0.158724
0.165595
0.165595
0.165595
0.165241
0.165241
0.165241
0.162273
0.162273
0.162273
0.171583
0.171583
0.171583
0.172139
0.172139
0.172139
0.175156
0.175156
0.175156
0.264056
0.264056
0.264056
0.262783
0.262783
0.262783
0.276015
0.276015
0.276015
0.270617
0.270617
0.270617
0.272312
0.272312
0.272312
0.266855
0.266855
0.266855
0.274868
0.274868
0.274868
0.268196
0.268196
0.268196
0.187571
0.187571
0.187571
0.19743
0.19743
0.19743
0.188981
0.188981
0.188981
0.193839
0.193839
0.193839
0.156105
0.156105
0.156105
0.151393
0.151393
0.151393
0.146311
0.146311
0.146311
0.129461
0.129461
0.129461
0.131807
0.131807
0.131807
0.136517
0.136517
0.136517
0.131769
0.131769
0.131769
0.139005
0.139005
0.139005
0.136603
0.136603
0.136603
0.143249
0.143249
0.143249
0.138813
0.138813
0.138813
0.143645
0.143645
0.143645
0.145882
0.145882
0.145882
0.129514
0.129514
0.129514
0.125048
0.125048
0.125048
0.12294
0.12294
0.12294
0.137384
0.137384
0.137384
0.135448
0.135448
0.135448
0.137825
0.137825
0.137825
0.142283
0.142283
0.142283
0.173108
0.173108
0.173108
0.147187
0.147187
0.147187
0.151331
0.151331
0.151331
0.14471
0.14471
0.14471
0.186934
0.186934
0.186934
0.18096
0.18096
0.18096
0.170743
0.170743
0.170743
0.166674
0.166674
0.166674
0.163896
0.163896
0.163896
0.254792
0.254792
0.254792
0.255355
0.255355
0.255355
0.239302
0.239302
0.239302
0.243703
0.243703
0.243703
0.248944
0.248944
0.248944
0.24963
0.24963
0.24963
0.240081
0.240081
0.240081
0.245171
0.245171
0.245171
0.251398
0.251398
0.251398
0.247013
0.247013
0.247013
0.242132
0.242132
0.242132
0.241495
0.241495
0.241495
0.245831
0.245831
0.245831
0.250854
0.250854
0.250854
0.285133
0.285133
0.285133
0.284905
0.284905
0.284905
0.295329
0.295329
0.295329
0.290394
0.290394
0.290394
0.256778
0.256778
0.256778
0.262975
0.262975
0.262975
0.257517
0.257517
0.257517
0.255134
0.255134
0.255134
0.23079
0.23079
0.23079
0.220829
0.220829
0.220829
0.224872
0.224872
0.224872
0.229926
0.229926
0.229926
0.217836
0.217836
0.217836
0.227511
0.227511
0.227511
0.221771
0.221771
0.221771
0.226679
0.226679
0.226679
0.218741
0.218741
0.218741
0.22351
0.22351
0.22351
0.206075
0.206075
0.206075
0.209853
0.209853
0.209853
0.2037
0.2037
0.2037
0.208695
0.208695
0.208695
0.244729
0.244729
0.244729
0.240144
0.240144
0.240144
0.234622
0.234622
0.234622
0.233517
0.233517
0.233517
0.227941
0.227941
0.227941
0.212578
0.212578
0.212578
0.247421
0.247421
0.247421
0.236657
0.236657
0.236657
0.237591
0.237591
0.237591
0.242894
0.242894
0.242894
0.24658
0.24658
0.24658
0.241117
0.241117
0.241117
0.214435
0.214435
0.214435
0.210053
0.210053
0.210053
0.220414
0.220414
0.220414
0.215778
0.215778
0.215778
0.185126
0.185126
0.185126
0.193722
0.193722
0.193722
0.194636
0.194636
0.194636
0.191391
0.191391
0.191391
0.279649
0.279649
0.279649
0.274687
0.274687
0.274687
0.269432
0.269432
0.269432
0.268959
0.268959
0.268959
0.300686
0.300686
0.300686
0.295226
0.295226
0.295226
0.290063
0.290063
0.290063
0.260884
0.260884
0.260884
0.265877
0.265877
0.265877
0.256345
0.256345
0.256345
0.256772
0.256772
0.256772
0.280768
0.280768
0.280768
0.275811
0.275811
0.275811
0.292206
0.292206
0.292206
0.280562
0.280562
0.280562
0.284884
0.284884
0.284884
0.279351
0.279351
0.279351
0.191628
0.191628
0.191628
0.195294
0.195294
0.195294
0.189589
0.189589
0.189589
0.193162
0.193162
0.193162
0.198319
0.198319
0.198319
0.199747
0.199747
0.199747
0.196062
0.196062
0.196062
0.191059
0.191059
0.191059
0.195772
0.195772
0.195772
0.206914
0.206914
0.206914
0.205285
0.205285
0.205285
0.199624
0.199624
0.199624
0.202932
0.202932
0.202932
0.197448
0.197448
0.197448
0.306699
0.306699
0.306699
0.302485
0.302485
0.302485
0.301852
0.301852
0.301852
0.304918
0.304918
0.304918
0.295961
0.295961
0.295961
0.282721
0.282721
0.282721