<VTKFile type="UnstructuredGrid" version="1.0">
<UnstructuredGrid>
<Piece NumberOfPoints="8859" NumberOfCells="2953">
<Points>
<DataArray type="Float64" NumberOfComponents="3" format="ascii">
0.5 3.01 17.67
0.512524 3.01 17.6925
0.487476 3.01 17.6925
0.17352 3.01 16.7925
0.160827 3.01 16.8142
0.148445 3.01 16.7925
0.122979 3.01 16.8359
0.110383 3.01 16.8142
0.135644 3.01 16.8142
0.135644 3.01 16.8142
0.110383 3.01 16.8142
0.123433 3.01 16.7925
0.123433 3.01 16.7925
0.148445 3.01 16.7925
0.135644 3.01 16.8142
0.135644 3.01 16.8142
0.148445 3.01 16.7925
0.160827 3.01 16.8142
0.17352 3.01 16.7925
0.198629 3.01 16.7925
0.185985 3.01 16.8142
0.185985 3.01 16.8142
0.160827 3.01 16.8142
0.17352 3.01 16.7925
0.0732297 3.01 16.8357
0.0586606 3.01 16.8138
0.0848754 3.01 16.8141
0.05 3.01 17.6253
0.05 3.01 17.5801
0.058509 3.01 17.6026
0.324276 3.01 16.7925
0.349395 3.01 16.7925
0.336827 3.01 16.8142
0.148138 3.01 16.8359
0.135644 3.01 16.8142
0.160827 3.01 16.8142
0.122979 3.01 16.8359
0.135644 3.01 16.8142
0.148138 3.01 16.8359
0.160827 3.01 16.8142
0.185985 3.01 16.8142
0.173316 3.01 16.8359
0.185806 3.01 16.8575
0.160572 3.01 16.8576
0.173316 3.01 16.8359
0.173316 3.01 16.8359
0.148138 3.01 16.8359
0.160827 3.01 16.8142
0.160572 3.01 16.8576
0.148138 3.01 16.8359
0.173316 3.01 16.8359
0.211137 3.01 16.8142
0.185985 3.01 16.8142
0.198629 3.01 16.7925
0.0979162 3.01 16.8358
0.110383 3.01 16.8142
0.122979 3.01 16.8359
0.122979 3.01 16.8359
0.109875 3.01 16.8575
0.0979162 3.01 16.8358
0.0732297 3.01 16.8357
0.0848754 3.01 16.8141
0.0979162 3.01 16.8358
0.0979162 3.01 16.8358
0.0848754 3.01 16.8141
0.110383 3.01 16.8142
0.0975729 3.01 16.879
0.109875 3.01 16.8575
0.122678 3.01 16.8791
0.0841718 3.01 16.8573
0.0577122 3.01 16.857
0.0732297 3.01 16.8357
0.0729308 3.01 16.8789
0.0577122 3.01 16.857
0.0841718 3.01 16.8573
0.0732297 3.01 16.8357
0.0979162 3.01 16.8358
0.0841718 3.01 16.8573
0.0841718 3.01 16.8573
0.0979162 3.01 16.8358
0.109875 3.01 16.8575
0.0975729 3.01 16.879
0.0729308 3.01 16.8789
0.0841718 3.01 16.8573
0.0841718 3.01 16.8573
0.109875 3.01 16.8575
0.0975729 3.01 16.879
0.073948 3.01 16.7925
0.0586606 3.01 16.8138
0.05 3.01 16.7925
0.073948 3.01 16.7925
0.0848754 3.01 16.8141
0.0586606 3.01 16.8138
0.05 3.01 17.6683
0.05 3.01 17.6253
0.0603641 3.01 17.647
0.0603641 3.01 17.647
0.0753197 3.01 17.669
0.05 3.01 17.6683
0.0709395 3.01 17.6925
0.05 3.01 17.6925
0.05 3.01 17.6683
0.05 3.01 17.6683
0.0753197 3.01 17.669
0.0709395 3.01 17.6925
0.0579641 3.01 17.3796
0.05 3.01 17.4017
0.05 3.01 17.3576
0.0841948 3.01 17.2918
0.097638 3.01 17.2699
0.109814 3.01 17.2918
0.0841948 3.01 17.2918
0.0730539 3.01 17.3137
0.0578646 3.01 17.2918
0.0580261 3.01 17.4238
0.05 3.01 17.4459
0.05 3.01 17.4017
0.942292 3.01 16.9874
0.95 3.01 16.9657
0.95 3.01 17.009
0.95 3.01 16.9223
0.95 3.01 16.9657
0.942332 3.01 16.944
0.73872 3.01 17.2045
0.726137 3.01 17.1828
0.75132 3.01 17.1828
0.751305 3.01 17.2263
0.726124 3.01 17.2263
0.73872 3.01 17.2045
0.713546 3.01 17.2045
0.726137 3.01 17.1828
0.73872 3.01 17.2045
0.73872 3.01 17.2045
0.726124 3.01 17.2263
0.713546 3.01 17.2045
0.814318 3.01 17.2481
0.789096 3.01 17.2481
0.801709 3.01 17.2263
0.7765 3.01 17.2263
0.789115 3.01 17.2045
0.801709 3.01 17.2263
0.801709 3.01 17.2263
0.789096 3.01 17.2481
0.7765 3.01 17.2263
0.7765 3.01 17.2263
0.789096 3.01 17.2481
0.763892 3.01 17.2481
0.763892 3.01 17.2481
0.751305 3.01 17.2263
0.7765 3.01 17.2263
0.95 3.01 17.6925
0.929061 3.01 17.6925
0.95 3.01 17.6683
0.95 3.01 17.4904
0.926844 3.01 17.4904
0.941913 3.01 17.4682
0.941913 3.01 17.4682
0.95 3.01 17.4459
0.95 3.01 17.4904
0.926866 3.01 17.4459
0.95 3.01 17.4459
0.941913 3.01 17.4682
0.941974 3.01 17.4238
0.95 3.01 17.4459
0.926866 3.01 17.4459
0.95 3.01 17.4017
0.95 3.01 17.4459
0.941974 3.01 17.4238
0.941974 3.01 17.4238
0.926895 3.01 17.4017
0.95 3.01 17.4017
0.6127 3.01 17.6925
0.625238 3.01 17.67
0.637734 3.01 17.6925
0.662757 3.01 17.6925
0.637734 3.01 17.6925
0.650275 3.01 17.67
0.650275 3.01 17.67
0.637734 3.01 17.6925
0.625238 3.01 17.67
0.600415 3.01 17.2264
0.587856 3.01 17.2482
0.575304 3.01 17.2264
0.575304 3.01 17.2264
0.587856 3.01 17.2482
0.562749 3.01 17.2482
0.336827 3.01 16.8142
0.349395 3.01 16.7925
0.361946 3.01 16.8142
0.223755 3.01 16.7925
0.211137 3.01 16.8142
0.198629 3.01 16.7925
0.185985 3.01 16.8142
0.211137 3.01 16.8142
0.198492 3.01 16.8359
0.185806 3.01 16.8575
0.173316 3.01 16.8359
0.198492 3.01 16.8359
0.198492 3.01 16.8359
0.173316 3.01 16.8359
0.185985 3.01 16.8142
0.0576202 3.01 16.9005
0.05 3.01 16.9223
0.05 3.01 16.8787
0.05 3.01 16.8787
0.0729308 3.01 16.8789
0.0576202 3.01 16.9005
0.05 3.01 16.8787
0.0577122 3.01 16.857
0.0729308 3.01 16.8789
0.135283 3.01 16.8575
0.109875 3.01 16.8575
0.122979 3.01 16.8359
0.135283 3.01 16.8575
0.122678 3.01 16.8791
0.109875 3.01 16.8575
0.122979 3.01 16.8359
0.148138 3.01 16.8359
0.135283 3.01 16.8575
0.135283 3.01 16.8575
0.148138 3.01 16.8359
0.160572 3.01 16.8576
0.123433 3.01 16.7925
0.110383 3.01 16.8142
0.0985513 3.01 16.7925
0.110383 3.01 16.8142
0.0848754 3.01 16.8141
0.0985513 3.01 16.7925
0.0848754 3.01 16.8141
0.073948 3.01 16.7925
0.0985513 3.01 16.7925
0.0603641 3.01 17.647
0.05 3.01 17.6253
0.0739464 3.01 17.6245
0.0739464 3.01 17.6245
0.05 3.01 17.6253
0.058509 3.01 17.6026
0.058509 3.01 17.6026
0.0849548 3.01 17.6021
0.0739464 3.01 17.6245
0.058509 3.01 17.6026
0.05 3.01 17.5801
0.0732725 3.01 17.5799
0.0732725 3.01 17.5799
0.0849548 3.01 17.6021
0.058509 3.01 17.6026
0.5 3.01 17.67
0.487476 3.01 17.6925
0.47495 3.01 17.67
0.097663 3.01 17.3137
0.0841948 3.01 17.2918
0.109814 3.01 17.2918
0.0730539 3.01 17.3137
0.0841948 3.01 17.2918
0.097663 3.01 17.3137
0.0578646 3.01 17.2918
0.0730539 3.01 17.3137
0.05 3.01 17.3137
0.05 3.01 17.3137
0.05 3.01 17.2699
0.0578646 3.01 17.2918
0.05 3.01 17.4904
0.05 3.01 17.4459
0.0580869 3.01 17.4682
0.05 3.01 17.4459
0.0580261 3.01 17.4238
0.073134 3.01 17.4459
0.073134 3.01 17.4459
0.0580869 3.01 17.4682
0.05 3.01 17.4459
0.942268 3.01 17.0307
0.95 3.01 17.009
0.95 3.01 17.0524
0.942292 3.01 16.9874
0.95 3.01 17.009
0.927025 3.01 17.009
0.927025 3.01 17.009
0.942268 3.01 17.0307
0.915919 3.01 17.0307
0.95 3.01 17.009
0.942268 3.01 17.0307
0.927025 3.01 17.009
0.927013 3.01 17.0524
0.942268 3.01 17.0307
0.95 3.01 17.0524
0.915919 3.01 17.0307
0.942268 3.01 17.0307
0.927013 3.01 17.0524
0.801738 3.01 17.1393
0.814364 3.01 17.1175
0.826957 3.01 17.1392
0.852174 3.01 17.1392
0.826957 3.01 17.1392
0.839609 3.01 17.1175
0.839609 3.01 17.1175
0.826957 3.01 17.1392
0.814364 3.01 17.1175
0.776516 3.01 17.1827
0.75132 3.01 17.1828
0.763923 3.01 17.161
0.776516 3.01 17.1827
0.801725 3.01 17.1827
0.789115 3.01 17.2045
0.738704 3.01 17.2481
0.751305 3.01 17.2263
0.763892 3.01 17.2481
0.726124 3.01 17.2263
0.751305 3.01 17.2263
0.738704 3.01 17.2481
0.915617 3.01 17.4681
0.902228 3.01 17.4459
0.926866 3.01 17.4459
0.926866 3.01 17.4459
0.941913 3.01 17.4682
0.915617 3.01 17.4681
0.915617 3.01 17.4681
0.941913 3.01 17.4682
0.926844 3.01 17.4904
0.915617 3.01 17.4681
0.926844 3.01 17.4904
0.902193 3.01 17.4904
0.926866 3.01 17.4459
0.902228 3.01 17.4459
0.915668 3.01 17.4238
0.902267 3.01 17.4017
0.926895 3.01 17.4017
0.915668 3.01 17.4238
0.915668 3.01 17.4238
0.941974 3.01 17.4238
0.926866 3.01 17.4459
0.926895 3.01 17.4017
0.941974 3.01 17.4238
0.915668 3.01 17.4238
0.902267 3.01 17.4017
0.915668 3.01 17.4238
0.890059 3.01 17.4238
0.890059 3.01 17.4238
0.915668 3.01 17.4238
0.902228 3.01 17.4459
0.826927 3.01 17.2263
0.814318 3.01 17.2481
0.801709 3.01 17.2263
0.864816 3.01 17.2918
0.877308 3.01 17.2699
0.890186 3.01 17.2918
0.877308 3.01 17.2699
0.864816 3.01 17.2918
0.852122 3.01 17.2699
0.890186 3.01 17.2918
0.877308 3.01 17.2699
0.902362 3.01 17.2699
0.902362 3.01 17.2699
0.915805 3.01 17.2918
0.890186 3.01 17.2918
0.902362 3.01 17.2699
0.926964 3.01 17.2699
0.915805 3.01 17.2918
0.915835 3.01 17.2481
0.926964 3.01 17.2699
0.902362 3.01 17.2699
0.942171 3.01 17.2481
0.926964 3.01 17.2699
0.915835 3.01 17.2481
0.915835 3.01 17.2481
0.926978 3.01 17.2263
0.942171 3.01 17.2481
0.942171 3.01 17.2481
0.926978 3.01 17.2263
0.95 3.01 17.2263
0.87737 3.01 17.0958
0.890277 3.01 17.0741
0.902417 3.01 17.0958
0.852144 3.01 17.2263
0.877329 3.01 17.2263
0.864842 3.01 17.2481
0.877308 3.01 17.2699
0.852122 3.01 17.2699
0.864842 3.01 17.2481
0.902396 3.01 17.1827
0.915858 3.01 17.2045
0.890234 3.01 17.2045
0.926997 3.01 17.1392
0.942237 3.01 17.1175
0.95 3.01 17.1392
0.91589 3.01 17.1175
0.942237 3.01 17.1175
0.926997 3.01 17.1392
0.942199 3.01 17.2045
0.95 3.01 17.1827
0.95 3.01 17.2263
0.95 3.01 17.2263
0.926978 3.01 17.2263
0.942199 3.01 17.2045
0.942199 3.01 17.2045
0.926978 3.01 17.2263
0.915858 3.01 17.2045
0.95 3.01 17.1392
0.95 3.01 17.1827
0.942221 3.01 17.161
0.942221 3.01 17.161
0.926997 3.01 17.1392
0.95 3.01 17.1392
0.915876 3.01 17.161
0.926997 3.01 17.1392
0.942221 3.01 17.161
0.926989 3.01 17.1827
0.915858 3.01 17.2045
0.902396 3.01 17.1827
0.902396 3.01 17.1827
0.915876 3.01 17.161
0.926989 3.01 17.1827
0.926989 3.01 17.1827
0.942199 3.01 17.2045
0.915858 3.01 17.2045
0.95 3.01 17.1827
0.942199 3.01 17.2045
0.926989 3.01 17.1827
0.915876 3.01 17.161
0.942221 3.01 17.161
0.926989 3.01 17.1827
0.926989 3.01 17.1827
0.942221 3.01 17.161
0.95 3.01 17.1827
0.91353 3.01 17.6469
0.926054 3.01 17.6245
0.939636 3.01 17.647
0.926728 3.01 17.5799
0.95 3.01 17.5801
0.941491 3.01 17.6026
0.926728 3.01 17.5799
0.941822 3.01 17.5575
0.95 3.01 17.5801
0.95 3.01 17.6253
0.95 3.01 17.6683
0.939636 3.01 17.647
0.95 3.01 17.6253
0.926054 3.01 17.6245
0.941491 3.01 17.6026
0.939636 3.01 17.647
0.926054 3.01 17.6245
0.95 3.01 17.6253
0.941491 3.01 17.6026
0.95 3.01 17.5801
0.95 3.01 17.6253
0.941869 3.01 17.5127
0.926844 3.01 17.4904
0.95 3.01 17.4904
0.762942 3.01 17.6473
0.75028 3.01 17.6699
0.737933 3.01 17.6473
0.71291 3.01 17.6474
0.725533 3.01 17.6249
0.737933 3.01 17.6473
0.71291 3.01 17.6474
0.737933 3.01 17.6473
0.725313 3.01 17.6699
0.725313 3.01 17.6699
0.737933 3.01 17.6473
[...]
<PointData Scalars="View Factor" >
<DataArray type="Float64" Name="View Factor" NumberOfComponents="1" format="ascii">
4.66684e-05
4.66684e-05
4.66684e-05
5.81235e-05
5.81235e-05
5.81235e-05
5.78103e-05
5.78103e-05
5.78103e-05
5.8022e-05
5.8022e-05
5.8022e-05
5.81268e-05
5.81268e-05
5.81268e-05
5.80189e-05
5.80189e-05
5.80189e-05
5.81195e-05
5.81195e-05
5.81195e-05
5.80153e-05
5.80153e-05
5.80153e-05
5.78182e-05
5.78182e-05
5.78182e-05
4.76839e-05
4.76839e-05
4.76839e-05
5.80838e-05
5.80838e-05
5.80838e-05
5.78071e-05
5.78071e-05
5.78071e-05
5.77033e-05
5.77033e-05
5.77033e-05
5.78036e-05
5.78036e-05
5.78036e-05
5.73836e-05
5.73836e-05
5.73836e-05
5.77e-05
5.77e-05
5.77e-05
5.749e-05
5.749e-05
5.749e-05
5.80111e-05
5.80111e-05
5.80111e-05
5.77065e-05
5.77065e-05
5.77065e-05
5.74968e-05
5.74968e-05
5.74968e-05
5.77101e-05
5.77101e-05
5.77101e-05
5.78134e-05
5.78134e-05
5.78134e-05
5.70807e-05
5.70807e-05
5.70807e-05
5.73994e-05
5.73994e-05
5.73994e-05
5.71914e-05
5.71914e-05
5.71914e-05
5.75007e-05
5.75007e-05
5.75007e-05
5.73944e-05
5.73944e-05
5.73944e-05
5.70848e-05
5.70848e-05
5.70848e-05
5.71864e-05
5.71864e-05
5.71864e-05
5.81356e-05
5.81356e-05
5.81356e-05
5.80289e-05
5.80289e-05
5.80289e-05
4.71797e-05
4.71797e-05
4.71797e-05
4.70146e-05
4.70146e-05
4.70146e-05
4.67561e-05
4.67561e-05
4.67561e-05
4.68436e-05
4.68436e-05
4.68436e-05
5.03327e-05
5.03327e-05
5.03327e-05
5.15161e-05
5.15161e-05
5.15161e-05
5.13336e-05
5.13336e-05
5.13336e-05
4.97938e-05
4.97938e-05
4.97938e-05
5.50758e-05
5.50758e-05
5.50758e-05
5.56753e-05
5.56753e-05
5.56753e-05
5.25176e-05
5.25176e-05
5.25176e-05
5.21434e-05
5.21434e-05
5.21434e-05
5.24309e-05
5.24309e-05
5.24309e-05
5.22438e-05
5.22438e-05
5.22438e-05
5.18275e-05
5.18275e-05
5.18275e-05
5.21137e-05
5.21137e-05
5.21137e-05
5.19279e-05
5.19279e-05
5.19279e-05
5.18427e-05
5.18427e-05
5.18427e-05
5.19428e-05
5.19428e-05
5.19428e-05
4.64651e-05
4.64651e-05
4.64651e-05
4.87723e-05
4.87723e-05
4.87723e-05
4.89423e-05
4.89423e-05
4.89423e-05
4.91234e-05
4.91234e-05
4.91234e-05
4.92997e-05
4.92997e-05
4.92997e-05
4.94711e-05
4.94711e-05
4.94711e-05
4.96539e-05
4.96539e-05
4.96539e-05
4.66221e-05
4.66221e-05
4.66221e-05
4.66117e-05
4.66117e-05
4.66117e-05
4.67008e-05
4.67008e-05
4.67008e-05
5.20341e-05
5.20341e-05
5.20341e-05
5.19467e-05
5.19467e-05
5.19467e-05
5.79739e-05
5.79739e-05
5.79739e-05
5.8115e-05
5.8115e-05
5.8115e-05
5.77995e-05
5.77995e-05
5.77995e-05
5.74862e-05
5.74862e-05
5.74862e-05
5.76962e-05
5.76962e-05
5.76962e-05
5.66753e-05
5.66753e-05
5.66753e-05
5.68814e-05
5.68814e-05
5.68814e-05
5.70894e-05
5.70894e-05
5.70894e-05
5.73907e-05
5.73907e-05
5.73907e-05
5.71825e-05
5.71825e-05
5.71825e-05
5.74934e-05
5.74934e-05
5.74934e-05
5.73872e-05
5.73872e-05
5.73872e-05
5.81297e-05
5.81297e-05
5.81297e-05
5.80249e-05
5.80249e-05
5.80249e-05
5.81323e-05
5.81323e-05
5.81323e-05
4.73452e-05
4.73452e-05
4.73452e-05
4.75141e-05
4.75141e-05
4.75141e-05
4.76019e-05
4.76019e-05
4.76019e-05
4.78577e-05
4.78577e-05
4.78577e-05
4.77727e-05
4.77727e-05
4.77727e-05
4.67564e-05
4.67564e-05
4.67564e-05
5.1332e-05
5.1332e-05
5.1332e-05
5.12411e-05
5.12411e-05
5.12411e-05
5.12424e-05
5.12424e-05
5.12424e-05
5.14264e-05
5.14264e-05
5.14264e-05
4.92598e-05
4.92598e-05
4.92598e-05
4.96151e-05
4.96151e-05
4.96151e-05
4.94371e-05
4.94371e-05
4.94371e-05
5.44845e-05
5.44845e-05
5.44845e-05
5.48839e-05
5.48839e-05
5.48839e-05
5.45974e-05
5.45974e-05
5.45974e-05
5.46868e-05
5.46868e-05
5.46868e-05
5.42952e-05
5.42952e-05
5.42952e-05
5.44015e-05
5.44015e-05
5.44015e-05
5.3228e-05
5.3228e-05
5.3228e-05
5.32114e-05
5.32114e-05
5.32114e-05
5.33151e-05
5.33151e-05
5.33151e-05
5.2691e-05
5.2691e-05
5.2691e-05
5.24876e-05
5.24876e-05
5.24876e-05
5.18574e-05
5.18574e-05
5.18574e-05
5.19573e-05
5.19573e-05
5.19573e-05
4.91397e-05
4.91397e-05
4.91397e-05
4.9043e-05
4.9043e-05
4.9043e-05
4.88674e-05
4.88674e-05
4.88674e-05
4.87885e-05
4.87885e-05
4.87885e-05
4.93161e-05
4.93161e-05
4.93161e-05
4.96705e-05
4.96705e-05
4.96705e-05
4.93957e-05
4.93957e-05
4.93957e-05
4.95728e-05
4.95728e-05
4.95728e-05
4.95897e-05
4.95897e-05
4.95897e-05
4.94125e-05
4.94125e-05
4.94125e-05
5.19124e-05
5.19124e-05
5.19124e-05
5.12274e-05
5.12274e-05
5.12274e-05
5.13272e-05
5.13272e-05
5.13272e-05
5.13106e-05
5.13106e-05
5.13106e-05
5.12104e-05
5.12104e-05
5.12104e-05
5.12934e-05
5.12934e-05
5.12934e-05
5.14768e-05
5.14768e-05
5.14768e-05
5.15594e-05
5.15594e-05
5.15594e-05
5.17438e-05
5.17438e-05
5.17438e-05
5.1828e-05
5.1828e-05
5.1828e-05
5.3751e-05
5.3751e-05
5.3751e-05
5.188e-05
5.188e-05
5.188e-05
5.15108e-05
5.15108e-05
5.15108e-05
5.23191e-05
5.23191e-05
5.23191e-05
5.31403e-05
5.31403e-05
5.31403e-05
5.32439e-05
5.32439e-05
5.32439e-05
5.21937e-05
5.21937e-05
5.21937e-05
5.20133e-05
5.20133e-05
5.20133e-05
5.21145e-05
5.21145e-05
5.21145e-05
5.27559e-05
5.27559e-05
5.27559e-05
5.29506e-05
5.29506e-05
5.29506e-05
5.28645e-05
5.28645e-05
5.28645e-05
5.24039e-05
5.24039e-05
5.24039e-05
5.25915e-05
5.25915e-05
5.25915e-05
5.23009e-05
5.23009e-05
5.23009e-05
5.23861e-05
5.23861e-05
5.23861e-05
5.26759e-05
5.26759e-05
5.26759e-05
5.25735e-05
5.25735e-05
5.25735e-05
4.69782e-05
4.69782e-05
4.69782e-05
4.75589e-05
4.75589e-05
4.75589e-05
4.77307e-05
4.77307e-05
4.77307e-05
4.68824e-05
4.68824e-05
4.68824e-05
4.72186e-05
4.72186e-05
4.72186e-05
4.70517e-05
4.70517e-05
4.70517e-05
4.73815e-05
4.73815e-05
4.73815e-05
4.85975e-05
4.85975e-05
4.85975e-05
4.69029e-05
4.69029e-05
4.69029e-05
4.70839e-05
4.70839e-05
4.70839e-05
4.69147e-05
4.69147e-05
4.69147e-05
4.68244e-05
4.68244e-05
4.68244e-05
4.6578e-05
4.6578e-05
4.6578e-05
4.6656e-05
4.6656e-05
4.6656e-05
4.65661e-05
4.65661e-05
4.65661e-05
4.77091e-05
4.77091e-05
4.77091e-05
4.74241e-05
4.74241e-05
4.74241e-05
4.71745e-05
4.71745e-05
4.71745e-05
4.73446e-05
4.73446e-05
4.73446e-05
4.71967e-05
4.71967e-05
4.71967e-05
4.73669e-05
4.73669e-05
4.73669e-05
4.68792e-05
4.68792e-05
4.68792e-05
4.6711e-05
4.6711e-05
4.6711e-05
4.66322e-05
4.66322e-05
4.66322e-05
5.237e-05
5.237e-05
5.237e-05
5.19353e-05
5.19353e-05
5.19353e-05
5.14027e-05
5.14027e-05
5.14027e-05
5.12084e-05
5.12084e-05
5.12084e-05
5.1392e-05
5.1392e-05
5.1392e-05
5.14895e-05
5.14895e-05
5.14895e-05
5.17611e-05
5.17611e-05
5.17611e-05
5.16741e-05
5.16741e-05
5.16741e-05
5.1219e-05
5.1219e-05
5.1219e-05
5.11222e-05
5.11222e-05
5.11222e-05
5.01298e-05
5.01298e-05
5.01298e-05
5.13447e-05
5.13447e-05
5.13447e-05
5.14429e-05
5.14429e-05
5.14429e-05
5.16427e-05
5.16427e-05
5.16427e-05
5.12751e-05
5.12751e-05
5.12751e-05
5.8098e-05
5.8098e-05
5.8098e-05
5.81043e-05
5.81043e-05
5.81043e-05
5.79952e-05
5.79952e-05
5.79952e-05
5.77838e-05
5.77838e-05
5.77838e-05
5.78064e-05
5.78064e-05
5.78064e-05
5.30539e-05
5.30539e-05
5.30539e-05
5.26756e-05
5.26756e-05
5.26756e-05
5.29668e-05
5.29668e-05
5.29668e-05
5.27777e-05
5.27777e-05
5.27777e-05
5.27928e-05
5.27928e-05
5.27928e-05
5.27058e-05
5.27058e-05
5.27058e-05
5.76754e-05
5.76754e-05
5.76754e-05
5.80758e-05
5.80758e-05
5.80758e-05
5.79502e-05
5.79502e-05
5.79502e-05
5.49124e-05
5.49124e-05
5.49124e-05
5.50148e-05
5.50148e-05
5.50148e-05
5.72999e-05
5.72999e-05
5.72999e-05
5.79275e-05
5.79275e-05
5.79275e-05
5.77168e-05
5.77168e-05
5.77168e-05
5.75074e-05
5.75074e-05
5.75074e-05
4.75179e-05
4.75179e-05
4.75179e-05
4.66764e-05
4.66764e-05
4.66764e-05
5.01523e-05
5.01523e-05
5.01523e-05
4.99727e-05
4.99727e-05
4.99727e-05
5.10579e-05
5.10579e-05
5.10579e-05
5.64472e-05
5.64472e-05
5.64472e-05
5.01493e-05
5.01493e-05
5.01493e-05
4.99697e-05
4.99697e-05
4.99697e-05
5.16074e-05
5.16074e-05
5.16074e-05
5.15139e-05
5.15139e-05
5.15139e-05
5.17944e-05
5.17944e-05
5.17944e-05
5.16093e-05
5.16093e-05
5.16093e-05
5.16106e-05
5.16106e-05
5.16106e-05
5.15178e-05
5.15178e-05
5.15178e-05
5.19818e-05
5.19818e-05
5.19818e-05
5.17958e-05
5.17958e-05
5.17958e-05
5.1888e-05
5.1888e-05
5.1888e-05
5.20741e-05
5.20741e-05
5.20741e-05
5.2168e-05
5.2168e-05
5.2168e-05
5.20656e-05
5.20656e-05
5.20656e-05
5.21501e-05
5.21501e-05
5.21501e-05
5.4314e-05
5.4314e-05
5.4314e-05
5.30378e-05
5.30378e-05
5.30378e-05
5.29511e-05
5.29511e-05
5.29511e-05
5.2762e-05
5.2762e-05
5.2762e-05
5.32982e-05
5.32982e-05
5.32982e-05
5.31943e-05
5.31943e-05
5.31943e-05
5.38564e-05
5.38564e-05
5.38564e-05
5.49917e-05
5.49917e-05
5.49917e-05
5.44338e-05
5.44338e-05
5.44338e-05
5.25029e-05
5.25029e-05
5.25029e-05
5.21288e-05
5.21288e-05
5.21288e-05
5.22146e-05
5.22146e-05
5.22146e-05
5.24015e-05
5.24015e-05
5.24015e-05
5.24165e-05
5.24165e-05
5.24165e-05
5.22294e-05
5.22294e-05
5.22294e-05
5.16724e-05
5.16724e-05
5.16724e-05
5.15872e-05
5.15872e-05
5.15872e-05
5.18716e-05
5.18716e-05
5.18716e-05
5.16865e-05
5.16865e-05
5.16865e-05
5.11485e-05
5.11485e-05
5.11485e-05
5.10505e-05
5.10505e-05
5.10505e-05
5.16272e-05
5.16272e-05
5.16272e-05
5.10279e-05
5.10279e-05
5.10279e-05
4.96868e-05
4.96868e-05
4.96868e-05
4.98809e-05
4.98809e-05
4.98809e-05
4.98649e-05
4.98649e-05
4.98649e-05
4.99622e-05
4.99622e-05
4.99622e-05
4.71511e-05
4.71511e-05
4.71511e-05
4.70722e-05
4.70722e-05
4.70722e-05
4.71629e-05
4.71629e-05
4.71629e-05
4.7333e-05
4.7333e-05
4.7333e-05
4.80993e-05
4.80993e-05
4.80993e-05
4.75456e-05
4.75456e-05
4.75456e-05
4.73751e-05
4.73751e-05
4.73751e-05
4.83126e-05
4.83126e-05
4.83126e-05
4.81535e-05
4.81535e-05
4.81535e-05
4.8392e-05
4.8392e-05
4.8392e-05
5.26598e-05
5.26598e-05
5.26598e-05
5.18119e-05
5.18119e-05
5.18119e-05
5.18964e-05
5.18964e-05
5.18964e-05
5.17957e-05
5.17957e-05
5.17957e-05
5.16111e-05
5.16111e-05
5.16111e-05
5.10611e-05
5.10611e-05
5.10611e-05
5.12438e-05
5.12438e-05
5.12438e-05
5.18456e-05
5.18456e-05
5.18456e-05
5.20485e-05
5.20485e-05
5.20485e-05
5.2031e-05
5.2031e-05
5.2031e-05
5.21326e-05
5.21326e-05
5.21326e-05
5.14594e-05
5.14594e-05
5.14594e-05
5.16378e-05
5.16378e-05
5.16378e-05
5.26943e-05
5.26943e-05
5.26943e-05
5.30043e-05
5.30043e-05
5.30043e-05
5.29008e-05
5.29008e-05
5.29008e-05
5.34537e-05
5.34537e-05
5.34537e-05
5.32807e-05
5.32807e-05
5.32807e-05
5.35588e-05
5.35588e-05
5.35588e-05
5.34718e-05
5.34718e-05
5.34718e-05
5.38381e-05
5.38381e-05
5.38381e-05
5.40315e-05
5.40315e-05
5.40315e-05
5.41194e-05
5.41194e-05
5.41194e-05
4.68536e-05
4.68536e-05
4.68536e-05
4.70356e-05
4.70356e-05
4.70356e-05
4.67244e-05
4.67244e-05
4.67244e-05
4.68119e-05
4.68119e-05
4.68119e-05
4.65574e-05
4.65574e-05
4.65574e-05
4.70708e-05
4.70708e-05
4.70708e-05
4.75779e-05
4.75779e-05
4.75779e-05
4.72392e-05
4.72392e-05
4.72392e-05
4.73135e-05
4.73135e-05
4.73135e-05
4.74825e-05
4.74825e-05
4.74825e-05
4.78882e-05
4.78882e-05
4.78882e-05
4.81396e-05
4.81396e-05
4.81396e-05
4.80603e-05
4.80603e-05
4.80603e-05
4.80461e-05
4.80461e-05
4.80461e-05
4.86137e-05
4.86137e-05
4.86137e-05
4.85179e-05
4.85179e-05
4.85179e-05
4.7825e-05
4.7825e-05
4.7825e-05
4.77486e-05
4.77486e-05
4.77486e-05
4.71064e-05
4.71064e-05
4.71064e-05
4.70953e-05
4.70953e-05
4.70953e-05
4.71857e-05
4.71857e-05
4.71857e-05
4.65896e-05
4.65896e-05
4.65896e-05
4.66678e-05
4.66678e-05
4.66678e-05
4.6836e-05
4.6836e-05
4.6836e-05
4.69261e-05
4.69261e-05
4.69261e-05
4.66064e-05
4.66064e-05
4.66064e-05
4.68663e-05
4.68663e-05
4.68663e-05
4.67755e-05
4.67755e-05
4.67755e-05
4.65283e-05
4.65283e-05
4.65283e-05
4.68125e-05
4.68125e-05
4.68125e-05
4.6644e-05
4.6644e-05
4.6644e-05
4.7595e-05
4.7595e-05
4.7595e-05
4.76865e-05
4.76865e-05
4.76865e-05
4.89139e-05
4.89139e-05
4.89139e-05
4.89959e-05
4.89959e-05
4.89959e-05
4.84462e-05
4.84462e-05
4.84462e-05
4.78584e-05
4.78584e-05
4.78584e-05
4.79387e-05
4.79387e-05
4.79387e-05
4.78811e-05
4.78811e-05
4.78811e-05
4.83654e-05
4.83654e-05
4.83654e-05
4.81919e-05
4.81919e-05
4.81919e-05
4.81114e-05
4.81114e-05
4.81114e-05
4.82039e-05
4.82039e-05
4.82039e-05
4.74355e-05
4.74355e-05
4.74355e-05
4.76178e-05
4.76178e-05
4.76178e-05
4.74467e-05
4.74467e-05
4.74467e-05
4.73559e-05
4.73559e-05
4.73559e-05
4.7698e-05
4.7698e-05
4.7698e-05
4.76066e-05
4.76066e-05
4.76066e-05
4.71172e-05
4.71172e-05
4.71172e-05
4.6948e-05
4.6948e-05
4.6948e-05
4.6869e-05
4.6869e-05
4.6869e-05
4.69585e-05
4.69585e-05
4.69585e-05
4.74576e-05
4.74576e-05
4.74576e-05
4.76287e-05
4.76287e-05
4.76287e-05
4.77199e-05
4.77199e-05
4.77199e-05
4.93114e-05
4.93114e-05
4.93114e-05
4.94888e-05
4.94888e-05
4.94888e-05
5.28946e-05
5.28946e-05
5.28946e-05
5.21421e-05
5.21421e-05
5.21421e-05
5.29921e-05
5.29921e-05
5.29921e-05
5.28997e-05
5.28997e-05
5.28997e-05
5.20462e-05
5.20462e-05
5.20462e-05
5.22807e-05
5.22807e-05
5.22807e-05
5.23786e-05
5.23786e-05
5.23786e-05
5.14492e-05
5.14492e-05
5.14492e-05
5.15373e-05
5.15373e-05
5.15373e-05
5.17135e-05
5.17135e-05
5.17135e-05
5.12653e-05
5.12653e-05
5.12653e-05
5.11776e-05
5.11776e-05
5.11776e-05
5.09946e-05
5.09946e-05
5.09946e-05
5.08994e-05
5.08994e-05
5.08994e-05
5.20225e-05
5.20225e-05
5.20225e-05
5.17499e-05
5.17499e-05
5.17499e-05
5.1663e-05
5.1663e-05
5.1663e-05
5.14785e-05
5.14785e-05
5.14785e-05
5.13809e-05
5.13809e-05
5.13809e-05
5.06304e-05
5.06304e-05
5.06304e-05
5.07173e-05
5.07173e-05
5.07173e-05
5.11325e-05
5.11325e-05
5.11325e-05
5.09395e-05
5.09395e-05
5.09395e-05
5.14409e-05
5.14409e-05
5.14409e-05
5.15286e-05
5.15286e-05
5.15286e-05
5.06051e-05
5.06051e-05
5.06051e-05
5.06913e-05
5.06913e-05
5.06913e-05
5.11738e-05
5.11738e-05
5.11738e-05
5.13572e-05
5.13572e-05
5.13572e-05
5.10922e-05
5.10922e-05
5.10922e-05
4.9665e-05
4.9665e-05
4.9665e-05
5.81099e-05
5.81099e-05
5.81099e-05
5.80011e-05
5.80011e-05
5.80011e-05
5.80064e-05
5.80064e-05
5.80064e-05
5.58833e-05
5.58833e-05
5.58833e-05
5.6284e-05
5.6284e-05
5.6284e-05
5.60861e-05
5.60861e-05
5.60861e-05
5.78373e-05
5.78373e-05
5.78373e-05
5.78524e-05
5.78524e-05
5.78524e-05
5.79039e-05
5.79039e-05
5.79039e-05
5.30694e-05
5.30694e-05
5.30694e-05
5.2982e-05
5.2982e-05
5.2982e-05
5.30844e-05
5.30844e-05
5.30844e-05
5.32748e-05
5.32748e-05
5.32748e-05
5.28074e-05
5.28074e-05
5.28074e-05
5.29967e-05
5.29967e-05
5.29967e-05
5.79887e-05
5.79887e-05
5.79887e-05
5.77774e-05
5.77774e-05
5.77774e-05
5.80912e-05
5.80912e-05
5.80912e-05
5.79816e-05
5.79816e-05
5.79816e-05
5.77628e-05
5.77628e-05
5.77628e-05
5.76536e-05
5.76536e-05
5.76536e-05
5.74439e-05
5.74439e-05
5.74439e-05
5.74355e-05
5.74355e-05
5.74355e-05
5.73353e-05
5.73353e-05
5.73353e-05
5.70275e-05
5.70275e-05
5.70275e-05
5.71271e-05
5.71271e-05
5.71271e-05
5.80484e-05
5.80484e-05
5.80484e-05
5.78518e-05
5.78518e-05
5.78518e-05
5.4715e-05
5.4715e-05
5.4715e-05
5.43226e-05
5.43226e-05
5.43226e-05
5.75944e-05
5.75944e-05
5.75944e-05
5.76815e-05
5.76815e-05
5.76815e-05
5.74716e-05
5.74716e-05
5.74716e-05
5.77897e-05
5.77897e-05
5.77897e-05
4.86261e-05
4.86261e-05
4.86261e-05
4.82673e-05
4.82673e-05
4.82673e-05
4.7763e-05
4.7763e-05
4.7763e-05
4.7767e-05
4.7767e-05
4.7767e-05
4.78512e-05
4.78512e-05
4.78512e-05
4.82856e-05
4.82856e-05
4.82856e-05
4.80238e-05
4.80238e-05
4.80238e-05
4.81122e-05
4.81122e-05
4.81122e-05
4.78468e-05
4.78468e-05
4.78468e-05
4.76029e-05
4.76029e-05
4.76029e-05
4.80312e-05
4.80312e-05
4.80312e-05
4.82049e-05
4.82049e-05
4.82049e-05
4.67642e-05
4.67642e-05
4.67642e-05
4.71904e-05
4.71904e-05
4.71904e-05
4.70209e-05
4.70209e-05
4.70209e-05
4.69326e-05
4.69326e-05
4.69326e-05
4.75314e-05
4.75314e-05
4.75314e-05
4.72048e-05
4.72048e-05
4.72048e-05
4.70352e-05
4.70352e-05
4.70352e-05
5.02403e-05
5.02403e-05
5.02403e-05
5.01511e-05
5.01511e-05
5.01511e-05
5.02418e-05
5.02418e-05
5.02418e-05
4.97038e-05
4.97038e-05
4.97038e-05
4.98826e-05
4.98826e-05
4.98826e-05
4.96139e-05
4.96139e-05
4.96139e-05
4.97023e-05
4.97023e-05
4.97023e-05
4.99715e-05
4.99715e-05
4.99715e-05
4.98811e-05
4.98811e-05
4.98811e-05
5.09657e-05
5.09657e-05
5.09657e-05
5.07813e-05
5.07813e-05
5.07813e-05
5.08769e-05
5.08769e-05
5.08769e-05
5.10592e-05
5.10592e-05
5.10592e-05
5.09673e-05
5.09673e-05
5.09673e-05
5.64686e-05
5.64686e-05
5.64686e-05
5.49479e-05
5.49479e-05
5.49479e-05
5.53458e-05
5.53458e-05
5.53458e-05
5.43351e-05
5.43351e-05
5.43351e-05
5.41401e-05
5.41401e-05
5.41401e-05
5.42678e-05
5.42678e-05
5.42678e-05
5.36859e-05
5.36859e-05
5.36859e-05
5.34932e-05
5.34932e-05
5.34932e-05
5.48572e-05
5.48572e-05
5.48572e-05
5.50536e-05
5.50536e-05
5.50536e-05
5.52527e-05
5.52527e-05
5.52527e-05
5.50551e-05
5.50551e-05
5.50551e-05
5.49553e-05
5.49553e-05
5.49553e-05
5.50487e-05
5.50487e-05
5.50487e-05
5.52477e-05
5.52477e-05
5.52477e-05
5.5552e-05
5.5552e-05
5.5552e-05
5.53516e-05
5.53516e-05
5.53516e-05
5.52505e-05
5.52505e-05
5.52505e-05
5.5349e-05
5.5349e-05
5.5349e-05
5.62431e-05
5.62431e-05
5.62431e-05
4.96121e-05
4.96121e-05
4.96121e-05
4.94342e-05
4.94342e-05
4.94342e-05
5.12392e-05
5.12392e-05
5.12392e-05
5.13298e-05
5.13298e-05
5.13298e-05
5.1056e-05
5.1056e-05
5.1056e-05
5.09635e-05
5.09635e-05
5.09635e-05
5.16049e-05
5.16049e-05
5.16049e-05
5.31111e-05
5.31111e-05
5.31111e-05
5.32055e-05
5.32055e-05
5.32055e-05
5.33016e-05
5.33016e-05
5.33016e-05
5.33002e-05
5.33002e-05
5.33002e-05
5.32038e-05
5.32038e-05
5.32038e-05
5.21666e-05
5.21666e-05
5.21666e-05
5.23537e-05
5.23537e-05
5.23537e-05
5.30083e-05
5.30083e-05
5.30083e-05
5.17925e-05
5.17925e-05
5.17925e-05
5.21646e-05
5.21646e-05
5.21646e-05
5.18863e-05
5.18863e-05
5.18863e-05
5.20724e-05
5.20724e-05
5.20724e-05
5.47359e-05
5.47359e-05
5.47359e-05
5.45394e-05
5.45394e-05
5.45394e-05
5.35064e-05
5.35064e-05
5.35064e-05
5.41379e-05
5.41379e-05
5.41379e-05
5.40499e-05
5.40499e-05
5.40499e-05
5.35766e-05
5.35766e-05
5.35766e-05
5.37689e-05
5.37689e-05
5.37689e-05
5.34894e-05
5.34894e-05
5.34894e-05
5.35939e-05
5.35939e-05
5.35939e-05
5.36107e-05
5.36107e-05
5.36107e-05
5.38032e-05
5.38032e-05
5.38032e-05
5.47059e-05
5.47059e-05
5.47059e-05
5.49031e-05
5.49031e-05
5.49031e-05
5.15729e-05
5.15729e-05
5.15729e-05
5.16578e-05
5.16578e-05
5.16578e-05
5.15581e-05
5.15581e-05
5.15581e-05
5.13743e-05
5.13743e-05
5.13743e-05
5.12899e-05
5.12899e-05
5.12899e-05
5.13889e-05
5.13889e-05
5.13889e-05
5.1601e-05
5.1601e-05
5.1601e-05
5.14169e-05
5.14169e-05
5.14169e-05
5.14301e-05
5.14301e-05
5.14301e-05
5.13317e-05
5.13317e-05
5.13317e-05
5.19713e-05
5.19713e-05
5.19713e-05
5.22577e-05
5.22577e-05
5.22577e-05
5.21574e-05
5.21574e-05
5.21574e-05
5.11614e-05
5.11614e-05
5.11614e-05
5.10636e-05
5.10636e-05
5.10636e-05
5.10762e-05
5.10762e-05
5.10762e-05
4.99394e-05
4.99394e-05
4.99394e-05
4.97609e-05
4.97609e-05
4.97609e-05
5.06977e-05
5.06977e-05
5.06977e-05
5.09286e-05
5.09286e-05
5.09286e-05
5.10448e-05
5.10448e-05
5.10448e-05
5.09455e-05
5.09455e-05
5.09455e-05
5.0962e-05
5.0962e-05
5.0962e-05
5.07803e-05
5.07803e-05
5.07803e-05
5.01247e-05
5.01247e-05
5.01247e-05
4.98485e-05
4.98485e-05
4.98485e-05
4.99458e-05
4.99458e-05
4.99458e-05
4.93323e-05
4.93323e-05
4.93323e-05
4.88841e-05
4.88841e-05
4.88841e-05
4.90597e-05
4.90597e-05
4.90597e-05
4.91559e-05
4.91559e-05
4.91559e-05
4.90757e-05
4.90757e-05
4.90757e-05
4.85659e-05
4.85659e-05
4.85659e-05
4.7309e-05
4.7309e-05
4.7309e-05
4.71266e-05
4.71266e-05
4.71266e-05
4.72965e-05
4.72965e-05
4.72965e-05
4.73879e-05
4.73879e-05
4.73879e-05
4.74003e-05
4.74003e-05
4.74003e-05
4.74123e-05
4.74123e-05
4.74123e-05
4.73211e-05
4.73211e-05
4.73211e-05
4.75711e-05
4.75711e-05
4.75711e-05
4.72835e-05
4.72835e-05
4.72835e-05
4.70227e-05
4.70227e-05
4.70227e-05
4.71139e-05
4.71139e-05
4.71139e-05
4.73617e-05
4.73617e-05
4.73617e-05
4.7809e-05
4.7809e-05
4.7809e-05
4.76376e-05
4.76376e-05
4.76376e-05
4.75586e-05
4.75586e-05
4.75586e-05
4.76504e-05
4.76504e-05
4.76504e-05
4.85345e-05
4.85345e-05
4.85345e-05
4.83606e-05
4.83606e-05
4.83606e-05
4.82978e-05
4.82978e-05
4.82978e-05
4.81249e-05
4.81249e-05
4.81249e-05
4.82822e-05
4.82822e-05
4.82822e-05
4.83768e-05
4.83768e-05
4.83768e-05
5.24719e-05
5.24719e-05
5.24719e-05
5.20982e-05
5.20982e-05
5.20982e-05
5.21992e-05
5.21992e-05
5.21992e-05
5.23861e-05
5.23861e-05
5.23861e-05
5.20821e-05
5.20821e-05
5.20821e-05
5.24556e-05
5.24556e-05
5.24556e-05
5.21834e-05
5.21834e-05
5.21834e-05
5.23701e-05
5.23701e-05
5.23701e-05
5.2167e-05
5.2167e-05
5.2167e-05
5.23537e-05
5.23537e-05
5.23537e-05
5.29349e-05
5.29349e-05
5.29349e-05
5.27459e-05
5.27459e-05
5.27459e-05
5.26435e-05