<VTKFile type="UnstructuredGrid" version="1.0">
<UnstructuredGrid>
<Piece NumberOfPoints="8859" NumberOfCells="2953">
<Points>
<DataArray type="Float64" NumberOfComponents="3" format="ascii">
2.75455 1.50245 9.27262
2.76986 1.48714 9.28458
2.75465 1.50235 9.29833
2.78515 1.47185 9.22167
2.78516 1.47184 9.19652
2.8005 1.4565 9.20898
2.76981 1.48719 9.23436
2.78515 1.47185 9.22167
2.78514 1.47186 9.24686
2.72412 1.53288 9.32488
2.73952 1.51748 9.3325
2.70875 1.54825 9.3325
2.72412 1.53288 9.32488
2.73943 1.51757 9.30957
2.73952 1.51748 9.3325
2.75488 1.50212 9.32479
2.77036 1.48664 9.3325
2.73952 1.51748 9.3325
2.75488 1.50212 9.32479
2.73943 1.51757 9.30957
2.75465 1.50235 9.29833
2.73952 1.51748 9.3325
2.73943 1.51757 9.30957
2.75488 1.50212 9.32479
2.75465 1.50235 9.29833
2.76986 1.48714 9.28458
2.76997 1.48703 9.30927
2.76997 1.48703 9.30927
2.75488 1.50212 9.32479
2.75465 1.50235 9.29833
2.77036 1.48664 9.3325
2.75488 1.50212 9.32479
2.76997 1.48703 9.30927
2.76986 1.48714 9.28458
2.75455 1.50245 9.27262
2.76982 1.48718 9.25952
2.76981 1.48719 9.23436
2.78514 1.47186 9.24686
2.76982 1.48718 9.25952
2.7852 1.4718 9.29762
2.76997 1.48703 9.30927
2.76986 1.48714 9.28458
2.8005 1.4565 9.28395
2.8005 1.4565 9.30855
2.7852 1.4718 9.29762
2.8005 1.4565 9.18387
2.8005 1.4565 9.20898
2.78516 1.47184 9.19652
2.78515 1.47185 9.22167
2.8005 1.4565 9.20898
2.8005 1.4565 9.23406
2.8005 1.4565 9.23406
2.78514 1.47186 9.24686
2.78515 1.47185 9.22167
2.8005 1.4565 8.65652
2.8005 1.4565 8.68165
2.78518 1.47182 8.66907
2.78517 1.47183 9.12107
2.8005 1.4565 9.13361
2.78517 1.47183 9.14621
2.8005 1.4565 9.10848
2.8005 1.4565 9.13361
2.78517 1.47183 9.12107
2.78519 1.47181 8.99544
2.8005 1.4565 9.00799
2.78519 1.47181 9.02055
2.32274 1.93426 8.44059
2.33845 1.91855 8.4325
2.33845 1.91855 8.45563
2.27541 1.98159 9.3325
2.24359 2.01341 9.3325
2.25954 1.99746 9.32432
2.78515 1.47185 9.27212
2.76982 1.48718 9.25952
2.78514 1.47186 9.24686
2.76986 1.48714 9.28458
2.76982 1.48718 9.25952
2.78515 1.47185 9.27212
2.78515 1.47185 9.27212
2.7852 1.4718 9.29762
2.76986 1.48714 9.28458
2.8005 1.4565 9.28395
2.7852 1.4718 9.29762
2.78515 1.47185 9.27212
2.78544 1.47156 9.32384
2.8005 1.4565 9.30855
2.8005 1.4565 9.3325
2.78544 1.47156 9.32384
2.7852 1.4718 9.29762
2.8005 1.4565 9.30855
2.8005 1.4565 9.3325
2.77036 1.48664 9.3325
2.78544 1.47156 9.32384
2.77036 1.48664 9.3325
2.76997 1.48703 9.30927
2.78544 1.47156 9.32384
2.76997 1.48703 9.30927
2.7852 1.4718 9.29762
2.78544 1.47156 9.32384
2.78517 1.47183 9.14621
2.8005 1.4565 9.13361
2.8005 1.4565 9.15874
2.78514 1.47186 9.24686
2.8005 1.4565 9.23406
2.8005 1.4565 9.25907
2.8005 1.4565 9.28395
2.78515 1.47185 9.27212
2.8005 1.4565 9.25907
2.8005 1.4565 9.25907
2.78515 1.47185 9.27212
2.78514 1.47186 9.24686
2.8005 1.4565 8.98289
2.8005 1.4565 9.00799
2.78519 1.47181 8.99544
2.78518 1.47182 8.66907
2.8005 1.4565 8.68165
2.78518 1.47182 8.6942
2.76985 1.48715 9.10853
2.75454 1.50246 9.09598
2.76986 1.48714 9.08338
2.78516 1.47184 9.17136
2.8005 1.4565 9.18387
2.78516 1.47184 9.19652
2.78516 1.47184 9.17136
2.8005 1.4565 9.15874
2.8005 1.4565 9.18387
2.78516 1.47184 9.17136
2.76984 1.48716 9.15884
2.78517 1.47183 9.14621
2.78517 1.47183 9.14621
2.8005 1.4565 9.15874
2.78516 1.47184 9.17136
2.76982 1.48718 9.20918
2.78515 1.47185 9.22167
2.76981 1.48719 9.23436
2.76982 1.48718 9.20918
2.78516 1.47184 9.19652
2.78515 1.47185 9.22167
2.75451 1.50249 9.17149
2.7392 1.5178 9.18415
2.73921 1.51779 9.15894
2.53996 1.71704 9.29838
2.52458 1.73242 9.2849
2.53996 1.71704 9.27275
2.49374 1.76326 9.1338
2.49375 1.76325 9.159
2.47832 1.77868 9.14639
2.8005 1.4565 8.4325
2.8005 1.4565 8.45645
2.78544 1.47156 8.44116
2.27543 1.98157 9.30933
2.27541 1.98159 9.3325
2.25954 1.99746 9.32432
2.33845 1.91855 9.23446
2.32276 1.93424 9.24714
2.32275 1.93425 9.22185
2.25954 1.99746 9.32432
2.24359 2.01341 9.3325
2.24374 2.01326 9.30923
2.76987 1.48713 8.757
2.75455 1.50245 8.74443
2.76987 1.48713 8.73188
2.8005 1.4565 8.90759
2.78519 1.47181 8.89505
2.8005 1.4565 8.8825
2.78519 1.47181 8.94524
2.8005 1.4565 8.93269
2.8005 1.4565 8.95778
2.76988 1.48712 8.85741
2.75456 1.50244 8.86995
2.75456 1.50244 8.84486
2.76988 1.48712 8.8825
2.75456 1.50244 8.86995
2.76988 1.48712 8.85741
2.78519 1.47181 8.89505
2.76988 1.48712 8.90759
2.76988 1.48712 8.8825
2.75455 1.50245 9.02057
2.76987 1.48713 9.03312
2.75455 1.50245 9.0457
2.72393 1.53307 8.99547
2.72392 1.53308 9.02059
2.70861 1.54839 9.00803
2.75456 1.50244 8.99545
2.73924 1.51776 8.9829
2.75456 1.50244 8.97035
2.75456 1.50244 8.97035
2.76987 1.48713 8.98289
2.75456 1.50244 8.99545
2.73924 1.51776 8.9829
2.73925 1.51775 8.9578
2.75456 1.50244 8.97035
2.75456 1.50244 8.97035
2.73925 1.51775 8.9578
2.75456 1.50244 8.94524
2.8005 1.4565 8.95778
2.8005 1.4565 8.98289
2.78519 1.47181 8.97034
2.78519 1.47181 8.97034
2.78519 1.47181 8.94524
2.8005 1.4565 8.95778
2.78519 1.47181 8.97034
2.8005 1.4565 8.98289
2.78519 1.47181 8.99544
2.78519 1.47181 8.99544
2.76987 1.48713 8.98289
2.78519 1.47181 8.97034
2.75454 1.50246 9.07083
2.73923 1.51777 9.05828
2.75455 1.50245 9.0457
2.75454 1.50246 9.07083
2.76986 1.48714 9.08338
2.75454 1.50246 9.09598
2.7086 1.5484 9.0583
2.72392 1.53308 9.04572
2.72392 1.53308 9.07086
2.72392 1.53308 9.07086
2.72392 1.53308 9.04572
2.73923 1.51777 9.05828
2.8005 1.4565 9.0331
2.78519 1.47181 9.02055
2.8005 1.4565 9.00799
2.75455 1.50245 9.0457
2.76987 1.48713 9.03312
2.76986 1.48714 9.05825
2.76986 1.48714 9.05825
2.75454 1.50246 9.07083
2.75455 1.50245 9.0457
2.76986 1.48714 9.08338
2.75454 1.50246 9.07083
2.76986 1.48714 9.05825
2.78517 1.47183 9.14621
2.76984 1.48716 9.15884
2.76985 1.48715 9.13368
2.76985 1.48715 9.13368
2.78517 1.47183 9.12107
2.78517 1.47183 9.14621
2.76985 1.48715 9.10853
2.78517 1.47183 9.12107
2.76985 1.48715 9.13368
2.73921 1.51779 9.15894
2.73921 1.51779 9.13375
2.75452 1.50248 9.1463
2.75452 1.50248 9.1463
2.75451 1.50249 9.17149
2.73921 1.51779 9.15894
2.76984 1.48716 9.15884
2.75451 1.50249 9.17149
2.75452 1.50248 9.1463
2.75452 1.50248 9.1463
2.76985 1.48715 9.13368
2.76984 1.48716 9.15884
2.7239 1.5331 9.14638
2.73921 1.51779 9.13375
2.73921 1.51779 9.15894
2.7239 1.5331 9.14638
2.70859 1.54841 9.15901
2.70859 1.54841 9.13381
2.76981 1.48719 9.23436
2.76982 1.48718 9.25952
2.75451 1.50249 9.24722
2.75451 1.50249 9.24722
2.76982 1.48718 9.25952
2.75455 1.50245 9.27262
2.7392 1.5178 9.18415
2.75451 1.50249 9.17149
2.75451 1.50249 9.19669
2.75451 1.50249 9.19669
2.7392 1.5178 9.20937
2.7392 1.5178 9.18415
2.67798 1.57902 9.03317
2.66266 1.59434 9.04575
2.66266 1.59434 9.02061
2.70859 1.54841 9.13381
2.70859 1.54841 9.10862
2.7239 1.5331 9.12119
2.7239 1.5331 9.12119
2.7239 1.5331 9.14638
2.70859 1.54841 9.13381
2.73921 1.51779 9.13375
2.7239 1.5331 9.14638
2.7239 1.5331 9.12119
2.73922 1.51778 9.10858
2.73921 1.51779 9.13375
2.7239 1.5331 9.12119
2.57068 1.68632 9.27276
2.57068 1.68632 9.29839
2.55533 1.70167 9.28491
2.55533 1.70167 9.28491
2.57068 1.68632 9.29839
2.55533 1.70167 9.3095
2.55533 1.70167 9.28491
2.55533 1.70167 9.3095
2.53996 1.71704 9.29838
2.53996 1.71704 9.29838
2.53996 1.71704 9.27275
2.55533 1.70167 9.28491
2.52458 1.73242 9.25984
2.53996 1.71704 9.27275
2.52458 1.73242 9.2849
2.50912 1.74788 8.89505
2.50912 1.74788 8.92015
2.49371 1.76329 8.9076
2.41633 1.84067 9.02056
2.40077 1.85623 9.008
2.41632 1.84068 8.99545
2.41635 1.84065 9.07083
2.40081 1.85619 9.08339
2.40079 1.85621 9.05825
2.33845 1.91855 9.23446
2.32275 1.93425 9.22185
2.33843 1.91857 9.20924
2.33845 1.91855 9.25966
2.32276 1.93424 9.24714
2.33845 1.91855 9.23446
2.40087 1.85613 9.18412
2.40088 1.85612 9.20934
2.38531 1.87169 9.19672
2.30693 1.95007 9.13358
2.32265 1.93435 9.12103
2.32267 1.93433 9.1462
2.30684 1.95016 9.03303
2.29108 1.96592 9.04556
2.29106 1.96594 9.02046
2.32274 1.93426 9.32441
2.33845 1.91855 9.3325
2.30701 1.94999 9.3325
2.33845 1.91855 9.30937
2.33845 1.91855 9.3325
2.32274 1.93426 9.32441
2.35411 1.90289 9.32447
2.33845 1.91855 9.3325
2.33845 1.91855 9.30937
2.30704 1.94996 9.25961
2.30703 1.94997 9.28469
2.29128 1.96572 9.27246
2.55533 1.70167 9.3325
2.52458 1.73242 9.3325
2.53996 1.71704 9.32472
2.53996 1.71704 9.29838
2.55533 1.70167 9.3095
2.53996 1.71704 9.32472
2.53996 1.71704 9.32472
2.55533 1.70167 9.3095
2.55533 1.70167 9.3325
2.52458 1.73242 9.30949
2.52458 1.73242 9.2849
2.53996 1.71704 9.29838
2.53996 1.71704 9.29838
2.53996 1.71704 9.32472
2.52458 1.73242 9.30949
2.52458 1.73242 9.30949
2.53996 1.71704 9.32472
2.52458 1.73242 9.3325
2.41642 1.84058 9.19676
2.40088 1.85612 9.20934
2.40087 1.85613 9.18412
2.47831 1.77869 9.1212
2.49374 1.76326 9.10862
2.49374 1.76326 9.1338
2.49374 1.76326 9.1338
2.47832 1.77868 9.14639
2.47831 1.77869 9.1212
2.47833 1.77867 9.1716
2.47832 1.77868 9.14639
2.49375 1.76325 9.159
2.47833 1.77867 9.1716
2.49375 1.76325 9.159
2.49376 1.76324 9.18421
2.49376 1.76324 9.18421
2.47834 1.77866 9.19682
2.47833 1.77867 9.1716
2.47833 1.77867 9.1716
2.47834 1.77866 9.19682
2.46289 1.79411 9.18419
2.49377 1.76323 9.20943
2.47834 1.77866 9.19682
2.49376 1.76324 9.18421
2.49377 1.76323 9.23464
2.47835 1.77865 9.24734
2.47834 1.77866 9.22206
2.47834 1.77866 9.22206
2.49377 1.76323 9.20943
2.49377 1.76323 9.23464
2.47834 1.77866 9.19682
2.49377 1.76323 9.20943
2.47834 1.77866 9.22206
2.7852 1.4718 8.46738
2.78544 1.47156 8.44116
2.8005 1.4565 8.45645
2.76997 1.48703 8.45573
2.78544 1.47156 8.44116
2.7852 1.4718 8.46738
2.64739 1.60961 8.45548
2.64738 1.60962 8.4325
2.66272 1.59428 8.44021
2.70875 1.54825 8.4325
2.6934 1.5636 8.44017
2.67805 1.57895 8.4325
2.67805 1.57895 8.4325
2.66272 1.59428 8.44021
2.64738 1.60962 8.4325
2.19638 2.06062 8.46897
2.1963 2.0607 8.44286
2.2122 2.0448 8.45645
2.2122 2.0448 8.45645
2.22771 2.02929 8.44101
2.22802 2.02898 8.46745
2.18073 2.07627 8.45782
2.1963 2.0607 8.44286
2.19638 2.06062 8.46897
2.18073 2.07627 8.45782
2.18123 2.07577 8.4325
2.1963 2.0607 8.44286
2.27543 1.98157 8.45567
2.27541 1.98159 8.4325
2.29123 1.96577 8.44063
2.30701 1.94999 8.4325
[...]
<PointData Scalars="View Factor" >
<DataArray type="Float64" Name="View Factor" NumberOfComponents="1" format="ascii">
5.86174e-06
5.86174e-06
5.86174e-06
6.15539e-06
6.15539e-06
6.15539e-06
6.05621e-06
6.05621e-06
6.05621e-06
5.56274e-06
5.56274e-06
5.56274e-06
5.6446e-06
5.6446e-06
5.6446e-06
5.78811e-06
5.78811e-06
5.78811e-06
5.76532e-06
5.76532e-06
5.76532e-06
5.71976e-06
5.71976e-06
5.71976e-06
5.88871e-06
5.88871e-06
5.88871e-06
5.84016e-06
5.84016e-06
5.84016e-06
5.86872e-06
5.86872e-06
5.86872e-06
5.90991e-06
5.90991e-06
5.90991e-06
6.00778e-06
6.00778e-06
6.00778e-06
5.9638e-06
5.9638e-06
5.9638e-06
6.11417e-06
6.11417e-06
6.11417e-06
6.20506e-06
6.20506e-06
6.20506e-06
6.18209e-06
6.18209e-06
6.18209e-06
6.13223e-06
6.13223e-06
6.13223e-06
6.71269e-06
6.71269e-06
6.71269e-06
6.22448e-06
6.22448e-06
6.22448e-06
6.27467e-06
6.27467e-06
6.27467e-06
6.34128e-06
6.34128e-06
6.34128e-06
3.92294e-06
3.92294e-06
3.92294e-06
3.50087e-06
3.50087e-06
3.50087e-06
6.03446e-06
6.03446e-06
6.03446e-06
5.98534e-06
5.98534e-06
5.98534e-06
6.01194e-06
6.01194e-06
6.01194e-06
6.08739e-06
6.08739e-06
6.08739e-06
6.09239e-06
6.09239e-06
6.09239e-06
6.06569e-06
6.06569e-06
6.06569e-06
6.01073e-06
6.01073e-06
6.01073e-06
5.9436e-06
5.9436e-06
5.9436e-06
5.99077e-06
5.99077e-06
5.99077e-06
6.25136e-06
6.25136e-06
6.25136e-06
6.15924e-06
6.15924e-06
6.15924e-06
6.13658e-06
6.13658e-06
6.13658e-06
6.11023e-06
6.11023e-06
6.11023e-06
6.39276e-06
6.39276e-06
6.39276e-06
6.65847e-06
6.65847e-06
6.65847e-06
6.06518e-06
6.06518e-06
6.06518e-06
6.17866e-06
6.17866e-06
6.17866e-06
6.22815e-06
6.22815e-06
6.22815e-06
6.12426e-06
6.12426e-06
6.12426e-06
6.201e-06
6.201e-06
6.201e-06
6.02945e-06
6.02945e-06
6.02945e-06
6.07913e-06
6.07913e-06
6.07913e-06
5.84558e-06
5.84558e-06
5.84558e-06
4.206e-06
4.206e-06
4.206e-06
3.94612e-06
3.94612e-06
3.94612e-06
6.94645e-06
6.94645e-06
6.94645e-06
3.49559e-06
3.49559e-06
3.49559e-06
3.49042e-06
3.49042e-06
3.49042e-06
3.51446e-06
3.51446e-06
3.51446e-06
6.39281e-06
6.39281e-06
6.39281e-06
6.48912e-06
6.48912e-06
6.48912e-06
6.44071e-06
6.44071e-06
6.44071e-06
6.24517e-06
6.24517e-06
6.24517e-06
6.27313e-06
6.27313e-06
6.27313e-06
6.33005e-06
6.33005e-06
6.33005e-06
6.08371e-06
6.08371e-06
6.08371e-06
5.79333e-06
5.79333e-06
5.79333e-06
6.05067e-06
6.05067e-06
6.05067e-06
6.12935e-06
6.12935e-06
6.12935e-06
6.02226e-06
6.02226e-06
6.02226e-06
6.07335e-06
6.07335e-06
6.07335e-06
6.41669e-06
6.41669e-06
6.41669e-06
6.38955e-06
6.38955e-06
6.38955e-06
6.36537e-06
6.36537e-06
6.36537e-06
6.28669e-06
6.28669e-06
6.28669e-06
5.98356e-06
5.98356e-06
5.98356e-06
6.03808e-06
6.03808e-06
6.03808e-06
5.74954e-06
5.74954e-06
5.74954e-06
5.82732e-06
5.82732e-06
5.82732e-06
6.36893e-06
6.36893e-06
6.36893e-06
6.11167e-06
6.11167e-06
6.11167e-06
6.06136e-06
6.06136e-06
6.06136e-06
6.08888e-06
6.08888e-06
6.08888e-06
6.09725e-06
6.09725e-06
6.09725e-06
6.14748e-06
6.14748e-06
6.14748e-06
6.12072e-06
6.12072e-06
6.12072e-06
5.86678e-06
5.86678e-06
5.86678e-06
5.89416e-06
5.89416e-06
5.89416e-06
5.97084e-06
5.97084e-06
5.97084e-06
6.02041e-06
6.02041e-06
6.02041e-06
5.79002e-06
5.79002e-06
5.79002e-06
5.63714e-06
5.63714e-06
5.63714e-06
5.93203e-06
5.93203e-06
5.93203e-06
5.88261e-06
5.88261e-06
5.88261e-06
5.87254e-06
5.87254e-06
5.87254e-06
5.8235e-06
5.8235e-06
5.8235e-06
5.38108e-06
5.38108e-06
5.38108e-06
5.6579e-06
5.6579e-06
5.6579e-06
5.68611e-06
5.68611e-06
5.68611e-06
5.76301e-06
5.76301e-06
5.76301e-06
5.81232e-06
5.81232e-06
5.81232e-06
4.4323e-06
4.4323e-06
4.4323e-06
4.38624e-06
4.38624e-06
4.38624e-06
4.31103e-06
4.31103e-06
4.31103e-06
4.28136e-06
4.28136e-06
4.28136e-06
4.17664e-06
4.17664e-06
4.17664e-06
4.20826e-06
4.20826e-06
4.20826e-06
3.53606e-06
3.53606e-06
3.53606e-06
3.5075e-06
3.5075e-06
3.5075e-06
3.49239e-06
3.49239e-06
3.49239e-06
3.47944e-06
3.47944e-06
3.47944e-06
3.45156e-06
3.45156e-06
3.45156e-06
3.55181e-06
3.55181e-06
3.55181e-06
3.62419e-06
3.62419e-06
3.62419e-06
3.44594e-06
3.44594e-06
3.44594e-06
3.44096e-06
3.44096e-06
3.44096e-06
3.43204e-06
3.43204e-06
3.43204e-06
3.49363e-06
3.49363e-06
3.49363e-06
4.21675e-06
4.21675e-06
4.21675e-06
4.26512e-06
4.26512e-06
4.26512e-06
4.2957e-06
4.2957e-06
4.2957e-06
4.16057e-06
4.16057e-06
4.16057e-06
4.19004e-06
4.19004e-06
4.19004e-06
4.14578e-06
4.14578e-06
4.14578e-06
3.44279e-06
3.44279e-06
3.44279e-06
3.96055e-06
3.96055e-06
3.96055e-06
3.91501e-06
3.91501e-06
3.91501e-06
3.90053e-06
3.90053e-06
3.90053e-06
3.93174e-06
3.93174e-06
3.93174e-06
3.88588e-06
3.88588e-06
3.88588e-06
3.80911e-06
3.80911e-06
3.80911e-06
3.91676e-06
3.91676e-06
3.91676e-06
3.85696e-06
3.85696e-06
3.85696e-06
3.90249e-06
3.90249e-06
3.90249e-06
3.87129e-06
3.87129e-06
3.87129e-06
6.89128e-06
6.89128e-06
6.89128e-06
6.80663e-06
6.80663e-06
6.80663e-06
5.75192e-06
5.75192e-06
5.75192e-06
6.10108e-06
6.10108e-06
6.10108e-06
5.84339e-06
5.84339e-06
5.84339e-06
4.04589e-06
4.04589e-06
4.04589e-06
4.02514e-06
4.02514e-06
4.02514e-06
4.05638e-06
4.05638e-06
4.05638e-06
4.06906e-06
4.06906e-06
4.06906e-06
3.9744e-06
3.9744e-06
3.9744e-06
3.93781e-06
3.93781e-06
3.93781e-06
3.96806e-06
3.96806e-06
3.96806e-06
3.96358e-06
3.96358e-06
3.96358e-06
3.95086e-06
3.95086e-06
3.95086e-06
3.45915e-06
3.45915e-06
3.45915e-06
3.49165e-06
3.49165e-06
3.49165e-06
3.4808e-06
3.4808e-06
3.4808e-06
3.6451e-06
3.6451e-06
3.6451e-06
3.63373e-06
3.63373e-06
3.63373e-06
3.54378e-06
3.54378e-06
3.54378e-06
6.68406e-06
6.68406e-06
6.68406e-06
6.53796e-06
6.53796e-06
6.53796e-06
6.34453e-06
6.34453e-06
6.34453e-06
6.29223e-06
6.29223e-06
6.29223e-06
6.36844e-06
6.36844e-06
6.36844e-06
6.31593e-06
6.31593e-06
6.31593e-06
6.23487e-06
6.23487e-06
6.23487e-06
6.20566e-06
6.20566e-06
6.20566e-06
6.25873e-06
6.25873e-06
6.25873e-06
6.34009e-06
6.34009e-06
6.34009e-06
4.89818e-06
4.89818e-06
4.89818e-06
4.84733e-06
4.84733e-06
4.84733e-06
4.81744e-06
4.81744e-06
4.81744e-06
6.22908e-06
6.22908e-06
6.22908e-06
6.68735e-06
6.68735e-06
6.68735e-06
5.32314e-06
5.32314e-06
5.32314e-06
5.16612e-06
5.16612e-06
5.16612e-06
5.63659e-06
5.63659e-06
5.63659e-06
5.25445e-06
5.25445e-06
5.25445e-06
5.51237e-06
5.51237e-06
5.51237e-06
5.48233e-06
5.48233e-06
5.48233e-06
5.40278e-06
5.40278e-06
5.40278e-06
5.35298e-06
5.35298e-06
5.35298e-06
6.16502e-06
6.16502e-06
6.16502e-06
6.51348e-06
6.51348e-06
6.51348e-06
6.46136e-06
6.46136e-06
6.46136e-06
6.3815e-06
6.3815e-06
6.3815e-06
6.35312e-06
6.35312e-06
6.35312e-06
6.40548e-06
6.40548e-06
6.40548e-06
6.48563e-06
6.48563e-06
6.48563e-06
4.89468e-06
4.89468e-06
4.89468e-06
4.94409e-06
4.94409e-06
4.94409e-06
5.39322e-06
5.39322e-06
5.39322e-06
5.42334e-06
5.42334e-06
5.42334e-06
5.37364e-06
5.37364e-06
5.37364e-06
5.29393e-06
5.29393e-06
5.29393e-06
4.96265e-06
4.96265e-06
4.96265e-06
4.93125e-06
4.93125e-06
4.93125e-06
4.83351e-06
4.83351e-06
4.83351e-06
4.9136e-06
4.9136e-06
4.9136e-06
5.31322e-06
5.31322e-06
5.31322e-06
5.26364e-06
5.26364e-06
5.26364e-06
6.2121e-06
6.2121e-06
6.2121e-06
6.13386e-06
6.13386e-06
6.13386e-06
6.10614e-06
6.10614e-06
6.10614e-06
6.26291e-06
6.26291e-06
6.26291e-06
6.23569e-06
6.23569e-06
6.23569e-06
6.15716e-06
6.15716e-06
6.15716e-06
5.87169e-06
5.87169e-06
5.87169e-06
6.02777e-06
6.02777e-06
6.02777e-06
6.00045e-06
6.00045e-06
6.00045e-06
5.92193e-06
5.92193e-06
5.92193e-06
5.67891e-06
5.67891e-06
5.67891e-06
5.80754e-06
5.80754e-06
5.80754e-06
5.72845e-06
5.72845e-06
5.72845e-06
6.31059e-06
6.31059e-06
6.31059e-06
6.20373e-06
6.20373e-06
6.20373e-06
6.28284e-06
6.28284e-06
6.28284e-06
6.15231e-06
6.15231e-06
6.15231e-06
6.18022e-06
6.18022e-06
6.18022e-06
6.25904e-06
6.25904e-06
6.25904e-06
5.95512e-06
5.95512e-06
5.95512e-06
5.87717e-06
5.87717e-06
5.87717e-06
5.84945e-06
5.84945e-06
5.84945e-06
6.00563e-06
6.00563e-06
6.00563e-06
5.89983e-06
5.89983e-06
5.89983e-06
5.97808e-06
5.97808e-06
5.97808e-06
5.77139e-06
5.77139e-06
5.77139e-06
5.74308e-06
5.74308e-06
5.74308e-06
5.66487e-06
5.66487e-06
5.66487e-06
5.72133e-06
5.72133e-06
5.72133e-06
5.93323e-06
5.93323e-06
5.93323e-06
5.85558e-06
5.85558e-06
5.85558e-06
5.96058e-06
5.96058e-06
5.96058e-06
5.91078e-06
5.91078e-06
5.91078e-06
5.70064e-06
5.70064e-06
5.70064e-06
6.24059e-06
6.24059e-06
6.24059e-06
6.31871e-06
6.31871e-06
6.31871e-06
6.34522e-06
6.34522e-06
6.34522e-06
6.18962e-06
6.18962e-06
6.18962e-06
6.29808e-06
6.29808e-06
6.29808e-06
6.14257e-06
6.14257e-06
6.14257e-06
6.24772e-06
6.24772e-06
6.24772e-06
6.17044e-06
6.17044e-06
6.17044e-06
6.32159e-06
6.32159e-06
6.32159e-06
6.29378e-06
6.29378e-06
6.29378e-06
6.21597e-06
6.21597e-06
6.21597e-06
6.16658e-06
6.16658e-06
6.16658e-06
6.19386e-06
6.19386e-06
6.19386e-06
6.27139e-06
6.27139e-06
6.27139e-06
5.88939e-06
5.88939e-06
5.88939e-06
6.0436e-06
6.0436e-06
6.0436e-06
5.91655e-06
5.91655e-06
5.91655e-06
5.9935e-06
5.9935e-06
5.9935e-06
5.93901e-06
5.93901e-06
5.93901e-06
6.01626e-06
6.01626e-06
6.01626e-06
5.76908e-06
5.76908e-06
5.76908e-06
5.74091e-06
5.74091e-06
5.74091e-06
5.66432e-06
5.66432e-06
5.66432e-06
5.95343e-06
5.95343e-06
5.95343e-06
5.8022e-06
5.8022e-06
5.8022e-06
5.9271e-06
5.9271e-06
5.9271e-06
5.85101e-06
5.85101e-06
5.85101e-06
5.9051e-06
5.9051e-06
5.9051e-06
5.8293e-06
5.8293e-06
5.8293e-06
5.73873e-06
5.73873e-06
5.73873e-06
5.7866e-06
5.7866e-06
5.7866e-06
5.61549e-06
5.61549e-06
5.61549e-06
5.66373e-06
5.66373e-06
5.66373e-06
5.63602e-06
5.63602e-06
5.63602e-06
5.78012e-06
5.78012e-06
5.78012e-06
5.68375e-06
5.68375e-06
5.68375e-06
5.80715e-06
5.80715e-06
5.80715e-06
5.759e-06
5.759e-06
5.759e-06
5.94892e-06
5.94892e-06
5.94892e-06
6.10216e-06
6.10216e-06
6.10216e-06
6.05229e-06
6.05229e-06
6.05229e-06
5.97597e-06
5.97597e-06
5.97597e-06
6.07523e-06
6.07523e-06
6.07523e-06
5.99864e-06
5.99864e-06
5.99864e-06
4.85254e-06
4.85254e-06
4.85254e-06
4.82258e-06
4.82258e-06
4.82258e-06
5.08773e-06
5.08773e-06
5.08773e-06
4.93094e-06
4.93094e-06
4.93094e-06
5.40999e-06
5.40999e-06
5.40999e-06
4.44133e-06
4.44133e-06
4.44133e-06
4.37064e-06
4.37064e-06
4.37064e-06
4.41522e-06
4.41522e-06
4.41522e-06
4.16005e-06
4.16005e-06
4.16005e-06
4.28813e-06
4.28813e-06
4.28813e-06
4.78422e-06
4.78422e-06
4.78422e-06
4.8149e-06
4.8149e-06
4.8149e-06
3.54714e-06
3.54714e-06
3.54714e-06
3.53031e-06
3.53031e-06
3.53031e-06
3.53354e-06
3.53354e-06
3.53354e-06
3.60804e-06
3.60804e-06
3.60804e-06
3.61547e-06
3.61547e-06
3.61547e-06
3.61734e-06
3.61734e-06
3.61734e-06
3.50324e-06
3.50324e-06
3.50324e-06
3.47709e-06
3.47709e-06
3.47709e-06
3.48616e-06
3.48616e-06
3.48616e-06
3.4845e-06
3.4845e-06
3.4845e-06
3.48335e-06
3.48335e-06
3.48335e-06
3.48493e-06
3.48493e-06
3.48493e-06
3.46523e-06
3.46523e-06
3.46523e-06
3.47595e-06
3.47595e-06
3.47595e-06
3.50411e-06
3.50411e-06
3.50411e-06
3.49514e-06
3.49514e-06
3.49514e-06
3.52225e-06
3.52225e-06
3.52225e-06
3.53138e-06
3.53138e-06
3.53138e-06
3.54256e-06
3.54256e-06
3.54256e-06
3.52126e-06
3.52126e-06
3.52126e-06
3.46922e-06
3.46922e-06
3.46922e-06
3.47814e-06
3.47814e-06
3.47814e-06
3.56307e-06
3.56307e-06
3.56307e-06
3.56505e-06
3.56505e-06
3.56505e-06
3.56902e-06
3.56902e-06
3.56902e-06
3.62619e-06
3.62619e-06
3.62619e-06
3.42012e-06
3.42012e-06
3.42012e-06
3.39359e-06
3.39359e-06
3.39359e-06
3.49953e-06
3.49953e-06
3.49953e-06
3.49742e-06
3.49742e-06
3.49742e-06
3.99083e-06
3.99083e-06
3.99083e-06
4.07076e-06
4.07076e-06
4.07076e-06
3.8806e-06
3.8806e-06
3.8806e-06
3.8339e-06
3.8339e-06
3.8339e-06
4.05321e-06
4.05321e-06
4.05321e-06
3.58852e-06
3.58852e-06
3.58852e-06
3.7779e-06
3.7779e-06
3.7779e-06
3.82345e-06
3.82345e-06
3.82345e-06
3.78078e-06
3.78078e-06
3.78078e-06
3.62868e-06
3.62868e-06
3.62868e-06
6.87187e-06
6.87187e-06
6.87187e-06
6.77807e-06
6.77807e-06
6.77807e-06
6.38217e-06
6.38217e-06
6.38217e-06
6.43548e-06
6.43548e-06
6.43548e-06
6.35816e-06
6.35816e-06
6.35816e-06
4.01646e-06
4.01646e-06
4.01646e-06
4.01462e-06
4.01462e-06
4.01462e-06
4.00026e-06
4.00026e-06
4.00026e-06
4.00583e-06
4.00583e-06
4.00583e-06
3.9937e-06
3.9937e-06
3.9937e-06
3.98489e-06
3.98489e-06
3.98489e-06
3.98317e-06
3.98317e-06
3.98317e-06
3.96972e-06
3.96972e-06
3.96972e-06
4.02219e-06
4.02219e-06
4.02219e-06
4.0303e-06
4.0303e-06
4.0303e-06
4.03262e-06
4.03262e-06
4.03262e-06
4.04812e-06
4.04812e-06
4.04812e-06
4.0378e-06
4.0378e-06
4.0378e-06
4.06362e-06
4.06362e-06
4.06362e-06
4.03202e-06
4.03202e-06
4.03202e-06
3.8872e-06
3.8872e-06
3.8872e-06
3.75723e-06
3.75723e-06
3.75723e-06
3.8622e-06
3.8622e-06
3.8622e-06
3.86947e-06
3.86947e-06
3.86947e-06
3.88397e-06
3.88397e-06
3.88397e-06
3.87148e-06
3.87148e-06
3.87148e-06
3.86308e-06
3.86308e-06
3.86308e-06
3.86106e-06
3.86106e-06
3.86106e-06
3.94257e-06
3.94257e-06
3.94257e-06
3.86757e-06
3.86757e-06
3.86757e-06
3.79993e-06
3.79993e-06
3.79993e-06
3.7793e-06
3.7793e-06
3.7793e-06
3.76723e-06
3.76723e-06
3.76723e-06
3.91109e-06
3.91109e-06
3.91109e-06
3.90076e-06
3.90076e-06
3.90076e-06
3.93192e-06
3.93192e-06
3.93192e-06
3.94242e-06
3.94242e-06
3.94242e-06
3.94029e-06
3.94029e-06
3.94029e-06
3.85091e-06
3.85091e-06
3.85091e-06
3.9722e-06
3.9722e-06
3.9722e-06
3.98707e-06
3.98707e-06
3.98707e-06
3.97426e-06
3.97426e-06
3.97426e-06
3.64802e-06
3.64802e-06
3.64802e-06
3.63657e-06
3.63657e-06
3.63657e-06
3.66544e-06
3.66544e-06
3.66544e-06
3.61362e-06
3.61362e-06
3.61362e-06
3.61582e-06
3.61582e-06
3.61582e-06
3.62737e-06
3.62737e-06
3.62737e-06
3.80762e-06
3.80762e-06
3.80762e-06
3.74157e-06
3.74157e-06
3.74157e-06
3.71219e-06
3.71219e-06
3.71219e-06
3.7141e-06
3.7141e-06
3.7141e-06
3.45143e-06
3.45143e-06
3.45143e-06
3.46044e-06
3.46044e-06
3.46044e-06
3.47169e-06
3.47169e-06
3.47169e-06
3.4736e-06
3.4736e-06
3.4736e-06
3.46822e-06
3.46822e-06
3.46822e-06
3.47844e-06
3.47844e-06
3.47844e-06
3.47373e-06
3.47373e-06
3.47373e-06
3.48633e-06
3.48633e-06
3.48633e-06
3.48761e-06
3.48761e-06
3.48761e-06
3.76986e-06
3.76986e-06
3.76986e-06
3.7559e-06
3.7559e-06
3.7559e-06
3.75779e-06
3.75779e-06
3.75779e-06
3.63176e-06
3.63176e-06
3.63176e-06
3.62745e-06
3.62745e-06
3.62745e-06
3.63901e-06
3.63901e-06
3.63901e-06
3.64136e-06
3.64136e-06
3.64136e-06
3.66054e-06
3.66054e-06
3.66054e-06
3.64696e-06
3.64696e-06
3.64696e-06
3.64869e-06
3.64869e-06
3.64869e-06
3.6567e-06
3.6567e-06
3.6567e-06
3.54572e-06
3.54572e-06
3.54572e-06
3.54983e-06
3.54983e-06
3.54983e-06
3.59883e-06
3.59883e-06
3.59883e-06
3.60036e-06
3.60036e-06
3.60036e-06
3.55311e-06
3.55311e-06
3.55311e-06
3.52393e-06
3.52393e-06
3.52393e-06
3.52945e-06
3.52945e-06
3.52945e-06
3.54294e-06
3.54294e-06
3.54294e-06
3.50085e-06
3.50085e-06
3.50085e-06
3.49917e-06
3.49917e-06
3.49917e-06
3.50613e-06
3.50613e-06
3.50613e-06
3.51547e-06
3.51547e-06
3.51547e-06
3.50844e-06
3.50844e-06
3.50844e-06
3.51979e-06
3.51979e-06
3.51979e-06
6.29684e-06
6.29684e-06
6.29684e-06
6.26505e-06
6.26505e-06
6.26505e-06
6.17949e-06
6.17949e-06
6.17949e-06
6.12584e-06
6.12584e-06
6.12584e-06
5.92271e-06
5.92271e-06
5.92271e-06
6.00816e-06
6.00816e-06
6.00816e-06
6.04052e-06
6.04052e-06
6.04052e-06
4.96782e-06
4.96782e-06
4.96782e-06
6.75023e-06
6.75023e-06
6.75023e-06
6.66568e-06
6.66568e-06
6.66568e-06
6.41145e-06
6.41145e-06
6.41145e-06
6.49629e-06
6.49629e-06
6.49629e-06
6.32039e-06
6.32039e-06
6.32039e-06
6.26865e-06
6.26865e-06
6.26865e-06
6.2974e-06
6.2974e-06
6.2974e-06
6.3777e-06
6.3777e-06
6.3777e-06
6.58728e-06
6.58728e-06
6.58728e-06
6.42544e-06
6.42544e-06
6.42544e-06
6.21148e-06
6.21148e-06
6.21148e-06
6.05031e-06
6.05031e-06
6.05031e-06
6.10214e-06
6.10214e-06
6.10214e-06
6.18305e-06
6.18305e-06
6.18305e-06
4.38472e-06
4.38472e-06
4.38472e-06
4.4829e-06
4.4829e-06
4.4829e-06
4.56813e-06
4.56813e-06
4.56813e-06
4.43564e-06
4.43564e-06
4.43564e-06
4.35302e-06
4.35302e-06
4.35302e-06
4.31988e-06
4.31988e-06
4.31988e-06
4.48543e-06
4.48543e-06
4.48543e-06
4.36957e-06
4.36957e-06
4.36957e-06
4.4525e-06
4.4525e-06
4.4525e-06
4.4687e-06
4.4687e-06
4.4687e-06
4.30353e-06
4.30353e-06
4.30353e-06
4.20503e-06
4.20503e-06
4.20503e-06
3.79625e-06
3.79625e-06
3.79625e-06
4.23703e-06
4.23703e-06
4.23703e-06
3.88073e-06
3.88073e-06
3.88073e-06
5.15805e-06
5.15805e-06
5.15805e-06
4.53148e-06
4.53148e-06
4.53148e-06
4.4993e-06
4.4993e-06
4.4993e-06
4.69799e-06
4.69799e-06
4.69799e-06
4.82953e-06
4.82953e-06
4.82953e-06
4.77997e-06
4.77997e-06
4.77997e-06
4.88019e-06
4.88019e-06
4.88019e-06
5.66652e-06
5.66652e-06
5.66652e-06
5.39086e-06
5.39086e-06
5.39086e-06
5.35907e-06
5.35907e-06
5.35907e-06
5.27381e-06
5.27381e-06
5.27381e-06
5.23964e-06
5.23964e-06
5.23964e-06
4.61822e-06
4.61822e-06
4.61822e-06
4.88478e-06
4.88478e-06
4.88478e-06
4.71891e-06
4.71891e-06
4.71891e-06
6.36368e-06
6.36368e-06
6.36368e-06
6.28201e-06
6.28201e-06
6.28201e-06
5.13831e-06
5.13831e-06
5.13831e-06
5.30202e-06
5.30202e-06
5.30202e-06
5.2714e-06
5.2714e-06
5.2714e-06
5.18953e-06
5.18953e-06
5.18953e-06
5.47517e-06
5.47517e-06
5.47517e-06
5.19203e-06
5.19203e-06
5.19203e-06
5.44403e-06
5.44403e-06
5.44403e-06
6.63446e-06
6.63446e-06
6.63446e-06
6.66216e-06
6.66216e-06
6.66216e-06
6.63707e-06
6.63707e-06
6.63707e-06
6.47435e-06
6.47435e-06
6.47435e-06
6.52633e-06
6.52633e-06
6.52633e-06
6.60802e-06
6.60802e-06
6.60802e-06
6.61211e-06
6.61211e-06
6.61211e-06
6.55914e-06
6.55914e-06
6.55914e-06
6.47807e-06
6.47807e-06
6.47807e-06
6.44966e-06
6.44966e-06
6.44966e-06
6.50286e-06
6.50286e-06
6.50286e-06
6.58424e-06
6.58424e-06
6.58424e-06
6.41279e-06
6.41279e-06
6.41279e-06
6.33353e-06
6.33353e-06
6.33353e-06
6.30569e-06
6.30569e-06
6.30569e-06
6.46486e-06
6.46486e-06
6.46486e-06
6.35764e-06
6.35764e-06
6.35764e-06
6.4372e-06
6.4372e-06
6.4372e-06
5.34248e-06
5.34248e-06
5.34248e-06
5.21504e-06
5.21504e-06
5.21504e-06
5.29355e-06
5.29355e-06
5.29355e-06
5.31307e-06
5.31307e-06
5.31307e-06
5.55823e-06
5.55823e-06
5.55823e-06
5.40152e-06
5.40152e-06
5.40152e-06
5.43054e-06
5.43054e-06
5.43054e-06
5.50875e-06
5.50875e-06
5.50875e-06
5.42114e-06
5.42114e-06
5.42114e-06
5.45057e-06
5.45057e-06
5.45057e-06
5.52907e-06
5.52907e-06
5.52907e-06
5.57843e-06
5.57843e-06
5.57843e-06
5.75057e-06
5.75057e-06
5.75057e-06
5.59178e-06
5.59178e-06
5.59178e-06
5.69987e-06
5.69987e-06
5.69987e-06
5.62064e-06
5.62064e-06
5.62064e-06
5.85869e-06
5.85869e-06
5.85869e-06
5.82997e-06
5.82997e-06
5.82997e-06
5.50321e-06
5.50321e-06
5.50321e-06
5.53276e-06
5.53276e-06
5.53276e-06
5.33357e-06
5.33357e-06
5.33357e-06
5.36279e-06
5.36279e-06
5.36279e-06
5.46244e-06
5.46244e-06
5.46244e-06
5.38318e-06
5.38318e-06
5.38318e-06
5.96956e-06
5.96956e-06
5.96956e-06
5.91805e-06
5.91805e-06
5.91805e-06
5.7935e-06
5.7935e-06
5.7935e-06
6.13644e-06
6.13644e-06
6.13644e-06
6.18819e-06
6.18819e-06
6.18819e-06
6.07892e-06
6.07892e-06
6.07892e-06
6.15952e-06
6.15952e-06
6.15952e-06
5.18546e-06
5.18546e-06
5.18546e-06
5.23427e-06
5.23427e-06
5.23427e-06
5.20515e-06
5.20515e-06
5.20515e-06
5.12619e-06
5.12619e-06
5.12619e-06
5.07663e-06
5.07663e-06
5.07663e-06
5.10677e-06
5.10677e-06
5.10677e-06
5.05769e-06
5.05769e-06
5.05769e-06
4.97915e-06
4.97915e-06
4.97915e-06
5.22409e-06
5.22409e-06
5.22409e-06
5.27357e-06
5.27357e-06
5.27357e-06
5.24425e-06
5.24425e-06
5.24425e-06
5.16468e-06
5.16468e-06
5.16468e-06
4.9256e-06
4.9256e-06
4.9256e-06
5.00522e-06
5.00522e-06
5.00522e-06
5.28311e-06
5.28311e-06
5.28311e-06
5.22309e-06
5.22309e-06
5.22309e-06
5.024e-06
5.024e-06
5.024e-06
5.18378e-06
5.18378e-06
5.18378e-06
5.05447e-06
5.05447e-06
5.05447e-06
5.13421e-06
5.13421e-06
5.13421e-06
5.1312e-06
5.1312e-06
5.1312e-06
4.51448e-06
4.51448e-06
4.51448e-06
4.46559e-06
4.46559e-06
4.46559e-06
4.85086e-06
4.85086e-06
4.85086e-06
4.80219e-06
4.80219e-06
4.80219e-06
5.7077e-06
5.7077e-06
5.7077e-06
5.65708e-06
5.65708e-06
5.65708e-06
5.76459e-06
5.76459e-06
5.76459e-06
5.68607e-06
5.68607e-06
5.68607e-06
5.91511e-06
5.91511e-06
5.91511e-06
5.83616e-06
5.83616e-06
5.83616e-06
5.94346e-06
5.94346e-06
5.94346e-06
5.78651e-06
5.78651e-06
5.78651e-06
5.89336e-06
5.89336e-06
5.89336e-06
5.81471e-06
5.81471e-06
5.81471e-06
5.60173e-06
5.60173e-06
5.60173e-06
5.80655e-06
5.80655e-06
5.80655e-06
5.72906e-06
5.72906e-06
5.72906e-06
5.83343e-06
5.83343e-06
5.83343e-06
5.67906e-06
5.67906e-06
5.67906e-06