<VTKFile type="UnstructuredGrid" version="1.0">
<UnstructuredGrid>
<Piece NumberOfPoints="8859" NumberOfCells="2953">
<Points>
<DataArray type="Float64" NumberOfComponents="3" format="ascii">
0.5 3.01 3.04
0.512524 3.01 3.0625
0.487476 3.01 3.0625
0.17352 3.01 2.1625
0.160827 3.01 2.18422
0.148445 3.01 2.1625
0.122979 3.01 2.20589
0.110383 3.01 2.18421
0.135644 3.01 2.18422
0.135644 3.01 2.18422
0.110383 3.01 2.18421
0.123433 3.01 2.1625
0.123433 3.01 2.1625
0.148445 3.01 2.1625
0.135644 3.01 2.18422
0.135644 3.01 2.18422
0.148445 3.01 2.1625
0.160827 3.01 2.18422
0.17352 3.01 2.1625
0.198629 3.01 2.1625
0.185985 3.01 2.1842
0.185985 3.01 2.1842
0.160827 3.01 2.18422
0.17352 3.01 2.1625
0.0732297 3.01 2.20567
0.0586606 3.01 2.18381
0.0848754 3.01 2.18414
0.05 3.01 2.99527
0.05 3.01 2.9501
0.058509 3.01 2.97256
0.324276 3.01 2.1625
0.349395 3.01 2.1625
0.336827 3.01 2.18416
0.148138 3.01 2.2059
0.135644 3.01 2.18422
0.160827 3.01 2.18422
0.122979 3.01 2.20589
0.135644 3.01 2.18422
0.148138 3.01 2.2059
0.160827 3.01 2.18422
0.185985 3.01 2.1842
0.173316 3.01 2.20589
0.185806 3.01 2.22755
0.160572 3.01 2.22755
0.173316 3.01 2.20589
0.173316 3.01 2.20589
0.148138 3.01 2.2059
0.160827 3.01 2.18422
0.160572 3.01 2.22755
0.148138 3.01 2.2059
0.173316 3.01 2.20589
0.211137 3.01 2.18419
0.185985 3.01 2.1842
0.198629 3.01 2.1625
0.0979162 3.01 2.20584
0.110383 3.01 2.18421
0.122979 3.01 2.20589
0.122979 3.01 2.20589
0.109875 3.01 2.22749
0.0979162 3.01 2.20584
0.0732297 3.01 2.20567
0.0848754 3.01 2.18414
0.0979162 3.01 2.20584
0.0979162 3.01 2.20584
0.0848754 3.01 2.18414
0.110383 3.01 2.18421
0.0975729 3.01 2.24904
0.109875 3.01 2.22749
0.122678 3.01 2.24914
0.0841718 3.01 2.22735
0.0577122 3.01 2.22702
0.0732297 3.01 2.20567
0.0729308 3.01 2.24888
0.0577122 3.01 2.22702
0.0841718 3.01 2.22735
0.0732297 3.01 2.20567
0.0979162 3.01 2.20584
0.0841718 3.01 2.22735
0.0841718 3.01 2.22735
0.0979162 3.01 2.20584
0.109875 3.01 2.22749
0.0975729 3.01 2.24904
0.0729308 3.01 2.24888
0.0841718 3.01 2.22735
0.0841718 3.01 2.22735
0.109875 3.01 2.22749
0.0975729 3.01 2.24904
0.073948 3.01 2.1625
0.0586606 3.01 2.18381
0.05 3.01 2.1625
0.073948 3.01 2.1625
0.0848754 3.01 2.18414
0.0586606 3.01 2.18381
0.05 3.01 3.03829
0.05 3.01 2.99527
0.0603641 3.01 3.01697
0.0603641 3.01 3.01697
0.0753197 3.01 3.03899
0.05 3.01 3.03829
0.0709395 3.01 3.0625
0.05 3.01 3.0625
0.05 3.01 3.03829
0.05 3.01 3.03829
0.0753197 3.01 3.03899
0.0709395 3.01 3.0625
0.0579641 3.01 2.74963
0.05 3.01 2.77169
0.05 3.01 2.72761
0.0841948 3.01 2.6618
0.097638 3.01 2.63993
0.109814 3.01 2.6618
0.0841948 3.01 2.6618
0.0730539 3.01 2.6837
0.0578646 3.01 2.6618
0.0580261 3.01 2.7938
0.05 3.01 2.81595
0.05 3.01 2.77169
0.942292 3.01 2.35736
0.95 3.01 2.33567
0.95 3.01 2.37904
0.95 3.01 2.29226
0.95 3.01 2.33567
0.942332 3.01 2.31397
0.73872 3.01 2.57453
0.726137 3.01 2.55276
0.75132 3.01 2.55275
0.751305 3.01 2.59632
0.726124 3.01 2.59633
0.73872 3.01 2.57453
0.713546 3.01 2.57454
0.726137 3.01 2.55276
0.73872 3.01 2.57453
0.73872 3.01 2.57453
0.726124 3.01 2.59633
0.713546 3.01 2.57454
0.814318 3.01 2.61811
0.789096 3.01 2.61812
0.801709 3.01 2.5963
0.7765 3.01 2.59631
0.789115 3.01 2.57451
0.801709 3.01 2.5963
0.801709 3.01 2.5963
0.789096 3.01 2.61812
0.7765 3.01 2.59631
0.7765 3.01 2.59631
0.789096 3.01 2.61812
0.763892 3.01 2.61814
0.763892 3.01 2.61814
0.751305 3.01 2.59632
0.7765 3.01 2.59631
0.95 3.01 3.0625
0.929061 3.01 3.0625
0.95 3.01 3.03829
0.95 3.01 2.8604
0.926844 3.01 2.8604
0.941913 3.01 2.83815
0.941913 3.01 2.83815
0.95 3.01 2.81595
0.95 3.01 2.8604
0.926866 3.01 2.81594
0.95 3.01 2.81595
0.941913 3.01 2.83815
0.941974 3.01 2.7938
0.95 3.01 2.81595
0.926866 3.01 2.81594
0.95 3.01 2.77169
0.95 3.01 2.81595
0.941974 3.01 2.7938
0.941974 3.01 2.7938
0.926895 3.01 2.77169
0.95 3.01 2.77169
0.6127 3.01 3.0625
0.625238 3.01 3.03998
0.637734 3.01 3.0625
0.662757 3.01 3.0625
0.637734 3.01 3.0625
0.650275 3.01 3.03997
0.650275 3.01 3.03997
0.637734 3.01 3.0625
0.625238 3.01 3.03998
0.600415 3.01 2.59637
0.587856 3.01 2.6182
0.575304 3.01 2.59637
0.575304 3.01 2.59637
0.587856 3.01 2.6182
0.562749 3.01 2.6182
0.336827 3.01 2.18416
0.349395 3.01 2.1625
0.361946 3.01 2.18416
0.223755 3.01 2.1625
0.211137 3.01 2.18419
0.198629 3.01 2.1625
0.185985 3.01 2.1842
0.211137 3.01 2.18419
0.198492 3.01 2.20588
0.185806 3.01 2.22755
0.173316 3.01 2.20589
0.198492 3.01 2.20588
0.198492 3.01 2.20588
0.173316 3.01 2.20589
0.185985 3.01 2.1842
0.0576202 3.01 2.27053
0.05 3.01 2.29226
0.05 3.01 2.24874
0.05 3.01 2.24874
0.0729308 3.01 2.24888
0.0576202 3.01 2.27053
0.05 3.01 2.24874
0.0577122 3.01 2.22702
0.0729308 3.01 2.24888
0.135283 3.01 2.22754
0.109875 3.01 2.22749
0.122979 3.01 2.20589
0.135283 3.01 2.22754
0.122678 3.01 2.24914
0.109875 3.01 2.22749
0.122979 3.01 2.20589
0.148138 3.01 2.2059
0.135283 3.01 2.22754
0.135283 3.01 2.22754
0.148138 3.01 2.2059
0.160572 3.01 2.22755
0.123433 3.01 2.1625
0.110383 3.01 2.18421
0.0985513 3.01 2.1625
0.110383 3.01 2.18421
0.0848754 3.01 2.18414
0.0985513 3.01 2.1625
0.0848754 3.01 2.18414
0.073948 3.01 2.1625
0.0985513 3.01 2.1625
0.0603641 3.01 3.01697
0.05 3.01 2.99527
0.0739464 3.01 2.99449
0.0739464 3.01 2.99449
0.05 3.01 2.99527
0.058509 3.01 2.97256
0.058509 3.01 2.97256
0.0849548 3.01 2.97211
0.0739464 3.01 2.99449
0.058509 3.01 2.97256
0.05 3.01 2.9501
0.0732725 3.01 2.94988
0.0732725 3.01 2.94988
0.0849548 3.01 2.97211
0.058509 3.01 2.97256
0.5 3.01 3.04
0.487476 3.01 3.0625
0.47495 3.01 3.04
0.097663 3.01 2.6837
0.0841948 3.01 2.6618
0.109814 3.01 2.6618
0.0730539 3.01 2.6837
0.0841948 3.01 2.6618
0.097663 3.01 2.6837
0.0578646 3.01 2.6618
0.0730539 3.01 2.6837
0.05 3.01 2.6837
0.05 3.01 2.6837
0.05 3.01 2.63992
0.0578646 3.01 2.6618
0.05 3.01 2.8604
0.05 3.01 2.81595
0.0580869 3.01 2.83815
0.05 3.01 2.81595
0.0580261 3.01 2.7938
0.073134 3.01 2.81594
0.073134 3.01 2.81594
0.0580869 3.01 2.83815
0.05 3.01 2.81595
0.942268 3.01 2.40073
0.95 3.01 2.37904
0.95 3.01 2.42241
0.942292 3.01 2.35736
0.95 3.01 2.37904
0.927025 3.01 2.37904
0.927025 3.01 2.37904
0.942268 3.01 2.40073
0.915919 3.01 2.40072
0.95 3.01 2.37904
0.942268 3.01 2.40073
0.927025 3.01 2.37904
0.927013 3.01 2.42241
0.942268 3.01 2.40073
0.95 3.01 2.42241
0.915919 3.01 2.40072
0.942268 3.01 2.40073
0.927013 3.01 2.42241
0.801738 3.01 2.50925
0.814364 3.01 2.48753
0.826957 3.01 2.50925
0.852174 3.01 2.50924
0.826957 3.01 2.50925
0.839609 3.01 2.48752
0.839609 3.01 2.48752
0.826957 3.01 2.50925
0.814364 3.01 2.48753
0.776516 3.01 2.55275
0.75132 3.01 2.55275
0.763923 3.01 2.531
0.776516 3.01 2.55275
0.801725 3.01 2.55274
0.789115 3.01 2.57451
0.738704 3.01 2.61815
0.751305 3.01 2.59632
0.763892 3.01 2.61814
0.726124 3.01 2.59633
0.751305 3.01 2.59632
0.738704 3.01 2.61815
0.915617 3.01 2.83814
0.902228 3.01 2.81594
0.926866 3.01 2.81594
0.926866 3.01 2.81594
0.941913 3.01 2.83815
0.915617 3.01 2.83814
0.915617 3.01 2.83814
0.941913 3.01 2.83815
0.926844 3.01 2.8604
0.915617 3.01 2.83814
0.926844 3.01 2.8604
0.902193 3.01 2.86038
0.926866 3.01 2.81594
0.902228 3.01 2.81594
0.915668 3.01 2.79379
0.902267 3.01 2.77168
0.926895 3.01 2.77169
0.915668 3.01 2.79379
0.915668 3.01 2.79379
0.941974 3.01 2.7938
0.926866 3.01 2.81594
0.926895 3.01 2.77169
0.941974 3.01 2.7938
0.915668 3.01 2.79379
0.902267 3.01 2.77168
0.915668 3.01 2.79379
0.890059 3.01 2.79379
0.890059 3.01 2.79379
0.915668 3.01 2.79379
0.902228 3.01 2.81594
0.826927 3.01 2.59629
0.814318 3.01 2.61811
0.801709 3.01 2.5963
0.864816 3.01 2.6618
0.877308 3.01 2.63993
0.890186 3.01 2.6618
0.877308 3.01 2.63993
0.864816 3.01 2.6618
0.852122 3.01 2.63994
0.890186 3.01 2.6618
0.877308 3.01 2.63993
0.902362 3.01 2.63993
0.902362 3.01 2.63993
0.915805 3.01 2.6618
0.890186 3.01 2.6618
0.902362 3.01 2.63993
0.926964 3.01 2.63992
0.915805 3.01 2.6618
0.915835 3.01 2.61809
0.926964 3.01 2.63992
0.902362 3.01 2.63993
0.942171 3.01 2.61809
0.926964 3.01 2.63992
0.915835 3.01 2.61809
0.915835 3.01 2.61809
0.926978 3.01 2.59627
0.942171 3.01 2.61809
0.942171 3.01 2.61809
0.926978 3.01 2.59627
0.95 3.01 2.59627
0.87737 3.01 2.46581
0.890277 3.01 2.44411
0.902417 3.01 2.4658
0.852144 3.01 2.59628
0.877329 3.01 2.59628
0.864842 3.01 2.61809
0.877308 3.01 2.63993
0.852122 3.01 2.63994
0.864842 3.01 2.61809
0.902396 3.01 2.55272
0.915858 3.01 2.57448
0.890234 3.01 2.57449
0.926997 3.01 2.50923
0.942237 3.01 2.48751
0.95 3.01 2.50923
0.91589 3.01 2.48751
0.942237 3.01 2.48751
0.926997 3.01 2.50923
0.942199 3.01 2.57448
0.95 3.01 2.55271
0.95 3.01 2.59627
0.95 3.01 2.59627
0.926978 3.01 2.59627
0.942199 3.01 2.57448
0.942199 3.01 2.57448
0.926978 3.01 2.59627
0.915858 3.01 2.57448
0.95 3.01 2.50923
0.95 3.01 2.55271
0.942221 3.01 2.53097
0.942221 3.01 2.53097
0.926997 3.01 2.50923
0.95 3.01 2.50923
0.915876 3.01 2.53097
0.926997 3.01 2.50923
0.942221 3.01 2.53097
0.926989 3.01 2.55271
0.915858 3.01 2.57448
0.902396 3.01 2.55272
0.902396 3.01 2.55272
0.915876 3.01 2.53097
0.926989 3.01 2.55271
0.926989 3.01 2.55271
0.942199 3.01 2.57448
0.915858 3.01 2.57448
0.95 3.01 2.55271
0.942199 3.01 2.57448
0.926989 3.01 2.55271
0.915876 3.01 2.53097
0.942221 3.01 2.53097
0.926989 3.01 2.55271
0.926989 3.01 2.55271
0.942221 3.01 2.53097
0.95 3.01 2.55271
0.91353 3.01 3.01685
0.926054 3.01 2.99449
0.939636 3.01 3.01697
0.926728 3.01 2.94988
0.95 3.01 2.9501
0.941491 3.01 2.97256
0.926728 3.01 2.94988
0.941822 3.01 2.92754
0.95 3.01 2.9501
0.95 3.01 2.99527
0.95 3.01 3.03829
0.939636 3.01 3.01697
0.95 3.01 2.99527
0.926054 3.01 2.99449
0.941491 3.01 2.97256
0.939636 3.01 3.01697
0.926054 3.01 2.99449
0.95 3.01 2.99527
0.941491 3.01 2.97256
0.95 3.01 2.9501
0.95 3.01 2.99527
0.941869 3.01 2.88272
0.926844 3.01 2.8604
0.95 3.01 2.8604
0.762942 3.01 3.01728
0.75028 3.01 3.03989
0.737933 3.01 3.01734
0.71291 3.01 3.01739
0.725533 3.01 2.99485
0.737933 3.01 3.01734
0.71291 3.01 3.01739
0.737933 3.01 3.01734
0.725313 3.01 3.03992
0.725313 3.01 3.03992
0.737933 3.01 3.01734
0.75028 3.01 3.03989
0.737693 3.01 3.0625
0.712746 3.01 3.0625
[...]
<PointData Scalars="View Factor" >
<DataArray type="Float64" Name="View Factor" NumberOfComponents="1" format="ascii">
0.00209563
0.00209563
0.00209563
0.00126964
0.00126964
0.00126964
0.00128516
0.00128516
0.00128516
0.0012751
0.0012751
0.0012751
0.00126996
0.00126996
0.00126996
0.00127481
0.00127481
0.00127481
0.00126927
0.00126927
0.00126927
0.00127446
0.00127446
0.00127446
0.00128543
0.00128543
0.00128543
0.00201352
0.00201352
0.00201352
0.00126592
0.00126592
0.00126592
0.00128487
0.00128487
0.00128487
0.00129009
0.00129009
0.00129009
0.00128451
0.00128451
0.00128451
0.0013049
0.0013049
0.0013049
0.00128976
0.00128976
0.00128976
0.00129995
0.00129995
0.00129995
0.00127405
0.00127405
0.00127405
0.00129034
0.00129034
0.00129034
0.00130053
0.00130053
0.00130053
0.00129049
0.00129049
0.00129049
0.00128537
0.00128537
0.00128537
0.00132117
0.00132117
0.00132117
0.00130577
0.00130577
0.00130577
0.00131609
0.00131609
0.00131609
0.00130066
0.00130066
0.00130066
0.00130573
0.00130573
0.00130573
0.0013213
0.0013213
0.0013213
0.00131605
0.00131605
0.00131605
0.00127049
0.00127049
0.00127049
0.00127541
0.00127541
0.00127541
0.00206841
0.00206841
0.00206841
0.00208683
0.00208683
0.00208683
0.00211652
0.00211652
0.00211652
0.00210628
0.00210628
0.00210628
0.00176258
0.00176258
0.00176258
0.00166699
0.00166699
0.00166699
0.00168143
0.00168143
0.00168143
0.00180905
0.00180905
0.00180905
0.00136532
0.00136532
0.00136532
0.00133328
0.00133328
0.00133328
0.00154798
0.00154798
0.00154798
0.00157374
0.00157374
0.00157374
0.00155542
0.00155542
0.00155542
0.00156831
0.00156831
0.00156831
0.0015877
0.0015877
0.0015877
0.00156927
0.00156927
0.00156927
0.00158231
0.00158231
0.00158231
0.00159005
0.00159005
0.00159005
0.00158461
0.00158461
0.00158461
0.00204021
0.00204021
0.00204021
0.0018099
0.0018099
0.0018099
0.00179321
0.00179321
0.00179321
0.00177873
0.00177873
0.00177873
0.00176342
0.00176342
0.00176342
0.00174734
0.00174734
0.00174734
0.00173337
0.00173337
0.00173337
0.0020834
0.0020834
0.0020834
0.00208064
0.00208064
0.00208064
0.00207253
0.00207253
0.00207253
0.00159867
0.00159867
0.00159867
0.00160621
0.00160621
0.00160621
0.00127051
0.00127051
0.00127051
0.00126885
0.00126885
0.00126885
0.0012841
0.0012841
0.0012841
0.00129956
0.00129956
0.00129956
0.00128937
0.00128937
0.00128937
0.00134251
0.00134251
0.00134251
0.00133185
0.00133185
0.00133185
0.00132131
0.00132131
0.00132131
0.00130554
0.00130554
0.00130554
0.00131587
0.00131587
0.00131587
0.00130028
0.00130028
0.00130028
0.00130526
0.00130526
0.00130526
0.00127022
0.00127022
0.00127022
0.00127532
0.00127532
0.00127532
0.00127042
0.00127042
0.00127042
0.00205
0.00205
0.00205
0.00203161
0.00203161
0.00203161
0.00202198
0.00202198
0.00202198
0.00199507
0.00199507
0.00199507
0.00200382
0.00200382
0.00200382
0.00208712
0.00208712
0.00208712
0.00168115
0.00168115
0.00168115
0.00168844
0.00168844
0.00168844
0.00168867
0.00168867
0.00168867
0.00167448
0.00167448
0.00167448
0.00185726
0.00185726
0.00185726
0.00182485
0.00182485
0.00182485
0.00184091
0.00184091
0.00184091
0.0013983
0.0013983
0.0013983
0.00137689
0.00137689
0.00137689
0.00139447
0.00139447
0.00139447
0.00138789
0.00138789
0.00138789
0.00141023
0.00141023
0.00141023
0.00140565
0.00140565
0.00140565
0.00149177
0.00149177
0.00149177
0.00148952
0.00148952
0.00148952
0.00148461
0.00148461
0.00148461
0.00153319
0.00153319
0.00153319
0.00154362
0.00154362
0.00154362
0.00159232
0.00159232
0.00159232
0.00158683
0.00158683
0.00158683
0.00178189
0.00178189
0.00178189
0.00178794
0.00178794
0.00178794
0.00180354
0.00180354
0.00180354
0.00181314
0.00181314
0.00181314
0.00176655
0.00176655
0.00176655
0.00173642
0.00173642
0.00173642
0.00175729
0.00175729
0.00175729
0.00174225
0.00174225
0.00174225
0.00174538
0.00174538
0.00174538
0.00176047
0.00176047
0.00176047
0.00157994
0.00157994
0.00157994
0.00162013
0.00162013
0.00162013
0.00161472
0.00161472
0.00161472
0.00161205
0.00161205
0.00161205
0.0016174
0.0016174
0.0016174
0.00160933
0.00160933
0.00160933
0.00159601
0.00159601
0.00159601
0.00158796
0.00158796
0.00158796
0.00157488
0.00157488
0.00157488
0.00156716
0.00156716
0.00156716
0.00144926
0.00144926
0.00144926
0.00157499
0.00157499
0.00157499
0.00160133
0.00160133
0.00160133
0.00153909
0.00153909
0.00153909
0.00148
0.00148
0.00148
0.00147515
0.00147515
0.00147515
0.00154077
0.00154077
0.00154077
0.0015543
0.0015543
0.0015543
0.00154913
0.00154913
0.00154913
0.00150346
0.00150346
0.00150346
0.00149206
0.00149206
0.00149206
0.00149929
0.00149929
0.00149929
0.00153155
0.00153155
0.00153155
0.00151908
0.00151908
0.00151908
0.00153647
0.00153647
0.00153647
0.001529
0.001529
0.001529
0.00151155
0.00151155
0.00151155
0.00151656
0.00151656
0.00151656
0.00198816
0.00198816
0.00198816
0.00192542
0.00192542
0.00192542
0.00190827
0.00190827
0.00190827
0.00199396
0.00199396
0.00199396
0.00196019
0.00196019
0.00196019
0.00197776
0.00197776
0.00197776
0.00194174
0.00194174
0.00194174
0.00182578
0.00182578
0.00182578
0.00203109
0.00203109
0.00203109
0.00201581
0.00201581
0.00201581
0.00203423
0.00203423
0.00203423
0.00204196
0.00204196
0.00204196
0.00207174
0.00207174
0.00207174
0.00206071
0.00206071
0.00206071
0.00206858
0.00206858
0.00206858
0.00196013
0.00196013
0.00196013
0.00197965
0.00197965
0.00197965
0.00200819
0.00200819
0.00200819
0.0019901
0.0019901
0.0019901
0.00201395
0.00201395
0.00201395
0.00199579
0.00199579
0.00199579
0.00205635
0.00205635
0.00205635
0.00207523
0.00207523
0.00207523
0.00208606
0.00208606
0.00208606
0.00158724
0.00158724
0.00158724
0.00160445
0.00160445
0.00160445
0.00164884
0.00164884
0.00164884
0.00166103
0.00166103
0.00166103
0.00164709
0.00164709
0.00164709
0.00164106
0.00164106
0.00164106
0.00161968
0.00161968
0.00161968
0.00162735
0.00162735
0.00162735
0.0016628
0.0016628
0.0016628
0.00166896
0.00166896
0.00166896
0.00175007
0.00175007
0.00175007
0.00163931
0.00163931
0.00163931
0.00163348
0.00163348
0.00163348
0.00160094
0.00160094
0.00160094
0.00162787
0.00162787
0.00162787
0.00126725
0.00126725
0.00126725
0.00126783
0.00126783
0.00126783
0.00127252
0.00127252
0.00127252
0.00128254
0.00128254
0.00128254
0.00125494
0.00125494
0.00125494
0.00150617
0.00150617
0.00150617
0.001531
0.001531
0.001531
0.00151341
0.00151341
0.00151341
0.00152584
0.00152584
0.00152584
0.00152798
0.00152798
0.00152798
0.00153531
0.00153531
0.00153531
0.00128728
0.00128728
0.00128728
0.00126517
0.00126517
0.00126517
0.00125357
0.00125357
0.00125357
0.0014321
0.0014321
0.0014321
0.00142674
0.00142674
0.00142674
0.00131084
0.00131084
0.00131084
0.00128037
0.00128037
0.00128037
0.0012904
0.0012904
0.0012904
0.00130057
0.00130057
0.00130057
0.00203076
0.00203076
0.00203076
0.00209776
0.00209776
0.00209776
0.00177781
0.00177781
0.00177781
0.0017933
0.0017933
0.0017933
0.00170286
0.00170286
0.00170286
0.00135152
0.00135152
0.00135152
0.00177722
0.00177722
0.00177722
0.0017927
0.0017927
0.0017927
0.0016598
0.0016598
0.0016598
0.00166664
0.00166664
0.00166664
0.00164617
0.00164617
0.00164617
0.0016601
0.0016601
0.0016601
0.00166032
0.00166032
0.00166032
0.00166726
0.00166726
0.00166726
0.00163268
0.00163268
0.00163268
0.00164639
0.00164639
0.00164639
0.00163939
0.00163939
0.00163939
0.0016257
0.0016257
0.0016257
0.001619
0.001619
0.001619
0.00156204
0.00156204
0.00156204
0.00155436
0.00155436
0.00155436
0.00141249
0.00141249
0.00141249
0.00150396
0.00150396
0.00150396
0.00151122
0.00151122
0.00151122
0.00152363
0.00152363
0.00152363
0.00148234
0.00148234
0.00148234
0.00148722
0.00148722
0.00148722
0.00144457
0.00144457
0.00144457
0.00137244
0.00137244
0.00137244
0.00142712
0.00142712
0.00142712
0.00154583
0.00154583
0.00154583
0.00157154
0.00157154
0.00157154
0.00156394
0.00156394
0.00156394
0.0015511
0.0015511
0.0015511
0.0015533
0.0015533
0.0015533
0.00156616
0.00156616
0.00156616
0.00160562
0.00160562
0.00160562
0.00161346
0.00161346
0.00161346
0.00159453
0.00159453
0.00159453
0.00160785
0.00160785
0.00160785
0.00165099
0.00165099
0.00165099
0.00165684
0.00165684
0.00165684
0.00161986
0.00161986
0.00161986
0.00163097
0.00163097
0.00163097
0.00173945
0.00173945
0.00173945
0.00172756
0.00172756
0.00172756
0.00172462
0.00172462
0.00172462
0.00171873
0.00171873
0.00171873
0.002002
0.002002
0.002002
0.0020127
0.0020127
0.0020127
0.00200515
0.00200515
0.00200515
0.00198709
0.00198709
0.00198709
0.00190706
0.00190706
0.00190706
0.00194923
0.00194923
0.00194923
0.00196681
0.00196681
0.00196681
0.0018712
0.0018712
0.0018712
0.00189099
0.00189099
0.00189099
0.00186139
0.00186139
0.00186139
0.00152874
0.00152874
0.00152874
0.00158528
0.00158528
0.00158528
0.0015775
0.0015775
0.0015775
0.00158279
0.00158279
0.00158279
0.00159597
0.00159597
0.00159597
0.00163642
0.00163642
0.00163642
0.00162278
0.00162278
0.00162278
0.0015698
0.0015698
0.0015698
0.0015595
0.0015595
0.0015595
0.00155691
0.00155691
0.00155691
0.00155179
0.00155179
0.00155179
0.0015933
0.0015933
0.0015933
0.00157932
0.00157932
0.00157932
0.00151411
0.00151411
0.00151411
0.00149936
0.00149936
0.00149936
0.00150427
0.00150427
0.00150427
0.00146571
0.00146571
0.00146571
0.00148002
0.00148002
0.00148002
0.001461
0.001461
0.001461
0.00146808
0.00146808
0.00146808
0.00144225
0.00144225
0.00144225
0.0014307
0.0014307
0.0014307
0.00142385
0.00142385
0.00142385
0.00201744
0.00201744
0.00201744
0.00200269
0.00200269
0.00200269
0.00201283
0.00201283
0.00201283
0.00200605
0.00200605
0.00200605
0.0020319
0.0020319
0.0020319
0.00198109
0.00198109
0.00198109
0.00192865
0.00192865
0.00192865
0.00196337
0.00196337
0.00196337
0.00195287
0.00195287
0.00195287
0.00193556
0.00193556
0.00193556
0.00191473
0.00191473
0.00191473
0.00188781
0.00188781
0.00188781
0.0018978
0.0018978
0.0018978
0.00189455
0.00189455
0.00189455
0.00182905
0.00182905
0.00182905
0.00183533
0.00183533
0.00183533
0.00190134
0.00190134
0.00190134
0.00191157
0.00191157
0.00191157
0.0020217
0.0020217
0.0020217
0.00201881
0.00201881
0.00201881
0.00201113
0.00201113
0.00201113
0.00207481
0.00207481
0.00207481
0.00206382
0.00206382
0.00206382
0.00204505
0.00204505
0.00204505
0.00203725
0.00203725
0.00203725
0.00204725
0.00204725
0.00204725
0.00202101
0.00202101
0.00202101
0.00202849
0.00202849
0.00202849
0.00205851
0.00205851
0.00205851
0.00203876
0.00203876
0.00203876
0.0020575
0.0020575
0.0020575
0.00196191
0.00196191
0.00196191
0.00195457
0.00195457
0.00195457
0.00183944
0.00183944
0.00183944
0.00183012
0.00183012
0.00183012
0.00187355
0.00187355
0.00187355
0.00193713
0.00193713
0.00193713
0.00192706
0.00192706
0.00192706
0.00194262
0.00194262
0.00194262
0.00188328
0.00188328
0.00188328
0.00190006
0.00190006
0.00190006
0.00190996
0.00190996
0.00190996
0.00190289
0.00190289
0.00190289
0.00198259
0.00198259
0.00198259
0.00196761
0.00196761
0.00196761
0.00198542
0.00198542
0.00198542
0.001993
0.001993
0.001993
0.00195741
0.00195741
0.00195741
0.00196481
0.00196481
0.00196481
0.00202449
0.00202449
0.00202449
0.00204298
0.00204298
0.00204298
0.00205369
0.00205369
0.00205369
0.00204569
0.00204569
0.00204569
0.00198814
0.00198814
0.00198814
0.0019703
0.0019703
0.0019703
0.00196275
0.00196275
0.00196275
0.0018167
0.0018167
0.0018167
0.00180092
0.00180092
0.00180092
0.00156233
0.00156233
0.00156233
0.00161516
0.00161516
0.00161516
0.00155625
0.00155625
0.00155625
0.00156304
0.00156304
0.00156304
0.00162153
0.00162153
0.00162153
0.0015945
0.0015945
0.0015945
0.00158852
0.00158852
0.00158852
0.00165643
0.00165643
0.00165643
0.0016488
0.0016488
0.0016488
0.00163362
0.00163362
0.00163362
0.00167048
0.00167048
0.00167048
0.00167823
0.00167823
0.00167823
0.00169254
0.00169254
0.00169254
0.00169908
0.00169908
0.00169908
0.00159688
0.00159688
0.00159688
0.0016179
0.0016179
0.0016179
0.00162559
0.00162559
0.00162559
0.00163928
0.00163928
0.00163928
0.00164526
0.00164526
0.00164526
0.00172166
0.00172166
0.00172166
0.00171363
0.00171363
0.00171363
0.0016707
0.0016707
0.0016707
0.00168315
0.00168315
0.00168315
0.00165507
0.00165507
0.00165507
0.0016474
0.0016474
0.0016474
0.00171722
0.00171722
0.00171722
0.0017091
0.0017091
0.0017091
0.00165524
0.00165524
0.00165524
0.00164137
0.00164137
0.00164137
0.00164157
0.00164157
0.00164157
0.00175983
0.00175983
0.00175983
0.00126837
0.00126837
0.00126837
0.00127309
0.00127309
0.00127309
0.0012736
0.0012736
0.0012736
0.00132346
0.00132346
0.00132346
0.00130213
0.00130213
0.00130213
0.00131308
0.00131308
0.00131308
0.00125778
0.00125778
0.00125778
0.00124463
0.00124463
0.00124463
0.00124932
0.00124932
0.00124932
0.0015083
0.0015083
0.0015083
0.00151553
0.00151553
0.00151553
0.00151038
0.00151038
0.00151038
0.00149811
0.00149811
0.00149811
0.00153006
0.00153006
0.00153006
0.00151758
0.00151758
0.00151758
0.00127191
0.00127191
0.00127191
0.00128192
0.00128192
0.00128192
0.00126661
0.00126661
0.00126661
0.00127124
0.00127124
0.00127124
0.00128051
0.00128051
0.00128051
0.00128515
0.00128515
0.00128515
0.00129529
0.00129529
0.00129529
0.00129446
0.00129446
0.00129446
0.00129999
0.00129999
0.00129999
0.00131586
0.00131586
0.00131586
0.00131027
0.00131027
0.00131027
0.00126263
0.00126263
0.00126263
0.00125913
0.00125913
0.00125913
0.00144371
0.00144371
0.00144371
0.00146729
0.00146729
0.00146729
0.00127947
0.00127947
0.00127947
0.00128788
0.00128788
0.00128788
0.00129806
0.00129806
0.00129806
0.00128312
0.00128312
0.00128312
0.00191223
0.00191223
0.00191223
0.00194488
0.00194488
0.00194488
0.00200081
0.00200081
0.00200081
0.00200148
0.00200148
0.00200148
0.00199213
0.00199213
0.00199213
0.00194814
0.00194814
0.00194814
0.00197424
0.00197424
0.00197424
0.0019657
0.0019657
0.0019657
0.00199141
0.00199141
0.00199141
0.00202134
0.00202134
0.00202134
0.00197705
0.00197705
0.00197705
0.00195939
0.00195939
0.00195939
0.00208918
0.00208918
0.00208918
0.00204295
0.00204295
0.00204295
0.00206167
0.00206167
0.00206167
0.00207014
0.00207014
0.00207014
0.00200616
0.00200616
0.00200616
0.00204651
0.00204651
0.00204651
0.00206528
0.00206528
0.00206528
0.00176973
0.00176973
0.00176973
0.00177756
0.00177756
0.00177756
0.00177003
0.00177003
0.00177003
0.00181678
0.00181678
0.00181678
0.001801
0.001801
0.001801
0.00182458
0.00182458
0.00182458
0.00181646
0.00181646
0.00181646
0.00179304
0.00179304
0.00179304
0.0018007
0.0018007
0.0018007
0.00170999
0.00170999
0.00170999
0.0017243
0.0017243
0.0017243
0.00171775
0.00171775
0.00171775
0.00170309
0.00170309
0.00170309
0.00171027
0.00171027
0.00171027
0.00135323
0.00135323
0.00135323
0.00143628
0.00143628
0.00143628
0.00141332
0.00141332
0.00141332
0.00146886
0.00146886
0.00146886
0.00148085
0.00148085
0.00148085
0.00147862
0.00147862
0.00147862
0.0015153
0.0015153
0.0015153
0.00152774
0.00152774
0.00152774
0.00144306
0.00144306
0.00144306
0.00143122
0.00143122
0.00143122
0.00141972
0.00141972
0.00141972
0.0014314
0.0014314
0.0014314
0.00143711
0.00143711
0.00143711
0.00143067
0.00143067
0.00143067
0.00141919
0.00141919
0.00141919
0.00140259
0.00140259
0.00140259
0.00141391
0.00141391
0.00141391
0.00141948
0.00141948
0.00141948
0.00141364
0.00141364
0.00141364
0.00136231
0.00136231
0.00136231
0.00182423
0.00182423
0.00182423
0.00184028
0.00184028
0.00184028
0.00168813
0.00168813
0.00168813
0.0016808
0.0016808
0.0016808
0.00170254
0.00170254
0.00170254
0.00170963
0.00170963
0.00170963
0.00165942
0.00165942
0.00165942
0.00155316
0.00155316
0.00155316
0.00154663
0.00154663
0.00154663
0.00154035
0.00154035
0.00154035
0.00154015
0.00154015
0.00154015
0.00154639
0.00154639
0.00154639
0.00161878
0.00161878
0.00161878
0.00160532
0.00160532
0.00160532
0.00155851
0.00155851
0.00155851
0.00164587
0.00164587
0.00164587
0.00161849
0.00161849
0.00161849
0.00163913
0.00163913
0.00163913
0.00162544
0.00162544
0.00162544
0.00141097
0.00141097
0.00141097
0.00142233
0.00142233
0.00142233
0.00147262
0.00147262
0.00147262
0.00142613
0.00142613
0.00142613
0.00143299
0.00143299
0.00143299
0.00146331
0.00146331
0.00146331
0.00145154
0.00145154
0.00145154
0.00147038
0.00147038
0.00147038
0.00146556
0.00146556
0.00146556
0.00146776
0.00146776
0.00146776
0.00145594
0.00145594
0.00145594
0.00139011
0.00139011
0.00139011
0.00137908
0.00137908
0.00137908
0.00161118
0.00161118
0.00161118
0.00160332
0.00160332
0.00160332
0.00160882
0.00160882
0.00160882
0.0016223
0.0016223
0.0016223
0.00163031
0.00163031
0.00163031
0.00162469
0.00162469
0.00162469
0.00161567
0.00161567
0.00161567
0.00162924
0.00162924
0.00162924
0.0016314
0.0016314
0.0016314
0.00163718
0.00163718
0.00163718
0.00158899
0.00158899
0.00158899
0.00157039
0.00157039
0.00157039
0.00157587
0.00157587
0.00157587
0.00165315
0.00165315
0.00165315
0.00165906
0.00165906
0.00165906
0.00166119
0.00166119
0.00166119
0.00173858
0.00173858
0.00173858
0.00175359
0.00175359
0.00175359
0.00166416
0.00166416
0.00166416
0.00163644
0.00163644
0.00163644
0.00163373
0.00163373
0.00163373
0.00163923
0.00163923
0.00163923
0.00164196
0.00164196
0.00164196
0.00165581
0.00165581
0.00165581
0.00170121
0.00170121
0.00170121
0.00172163
0.00172163
0.00172163
0.00171576
0.00171576
0.00171576
0.00176965
0.00176965
0.00176965
0.00180682
0.00180682
0.00180682
0.00179118
0.00179118
0.00179118
0.00178503
0.00178503
0.00178503
0.00179433
0.00179433
0.00179433
0.00184511
0.00184511
0.00184511
0.00198073
0.00198073
0.00198073
0.00199535
0.00199535
0.00199535
0.00197739
0.00197739
0.00197739
0.00197017
0.00197017
0.00197017
0.00197344
0.00197344
0.00197344
0.0019766
0.0019766
0.0019766
0.00198396
0.00198396
0.00198396
0.00195577
0.00195577
0.00195577
0.00197396
0.00197396
0.00197396
0.00199915
0.00199915
0.00199915
0.00199188
0.00199188
0.00199188
0.00196336
0.00196336
0.00196336
0.0019249
0.0019249
0.0019249
0.00194218
0.00194218
0.00194218
0.00195254
0.00195254
0.00195254
0.00194543
0.00194543
0.00194543
0.00183868
0.00183868
0.00183868
0.0018549
0.0018549
0.0018549
0.001868
0.001868
0.001868
0.00188456
0.00188456
0.00188456
0.00186476
0.00186476
0.00186476
0.00185818
0.00185818
0.00185818
0.00154133
0.00154133
0.00154133
0.00156693
0.00156693
0.00156693
0.00156165
0.00156165
0.00156165
0.00154884
0.00154884
0.00154884
0.00156452
0.00156452
0.00156452
0.00153898
0.00153898
0.00153898
0.00155929
0.00155929
0.00155929
0.0015465
0.0015465
0.0015465
0.00155686
0.00155686
0.00155686
0.0015441
0.0015441
0.0015441
0.00150897
0.00150897
0.00150897
0.00152135
0.00152135
0.00152135
0.00152642
0.00152642
0.00152642
0.00150169
0.00150169
0.00150169
0.00150666
0.00150666
0.00150666
0.001519
0.001519
0.001519
0.00161732
0.00161732
0.00161732
0.00160639
0.00160639
0.00160639
0.00161985
0.00161985
0.00161985
0.00162536
0.00162536
0.00162536
0.00159849
0.00159849
0.00159849
0.0016039
0.0016039
0.0016039
0.0015987
0.0015987
0.0015987
0.00159338
0.00159338
0.00159338
0.00159071
0.00159071
0.00159071
0.0015776
0.0015776
0.0015776
0.00158023
0.00158023
0.00158023
0.00157242
0.00157242
0.00157242
0.00161458
0.00161458
0.00161458
0.0016066
0.0016066
0.0016066
0.00161917
0.00161917
0.00161917
0.00163364
0.00163364
0.00163364
0.00162812
0.00162812
0.00162812
0.00153656
0.00153656
0.00153656
0.00152403
0.00152403
0.00152403
0.00153408
0.00153408
0.00153408
0.00154163
0.00154163
0.00154163
0.00152158
0.00152158
0.00152158
0.00151659
0.00151659
0.00151659
0.00148243
0.00148243
0.00148243
0.00147762
0.00147762
0.00147762
0.00149452
0.00149452
0.00149452
0.00150182
0.00150182
0.00150182
0.00149696
0.00149696
0.00149696
0.00148485
0.00148485
0.00148485
0.00142156
0.00142156
0.00142156
0.00142834
0.00142834
0.00142834
0.00146732
0.00146732
0.00146732
0.00143228
0.00143228
0.00143228
0.00204405
0.00204405
0.00204405
0.00198832
0.00198832
0.00198832
0.00197046
0.00197046
0.00197046
0.00193892
0.00193892
0.00193892
0.00195633
0.00195633
0.00195633
0.00194239
0.00194239
0.00194239
0.00193203
0.00193203
0.00193203
0.00195986
0.00195986
0.00195986
0.00196691
0.00196691
0.00196691
0.00192162
0.00192162
0.00192162
0.00193545
0.00193545
0.00193545
0.00191828
0.00191828
0.00191828
0.00191144
0.00191144
0.00191144
0.00194583
0.00194583
0.00194583
0.00193885
0.00193885
0.00193885
0.00190473
0.00190473
0.00190473
0.00188793
0.00188793
0.00188793