<VTKFile type="UnstructuredGrid" version="1.0">
<UnstructuredGrid>
<Piece NumberOfPoints="8859" NumberOfCells="2953">
<Points>
<DataArray type="Float64" NumberOfComponents="3" format="ascii">
0.5 3.01 15.58
0.512524 3.01 15.6025
0.487476 3.01 15.6025
0.17352 3.01 14.7025
0.160827 3.01 14.7242
0.148445 3.01 14.7025
0.122979 3.01 14.7459
0.110383 3.01 14.7242
0.135644 3.01 14.7242
0.135644 3.01 14.7242
0.110383 3.01 14.7242
0.123433 3.01 14.7025
0.123433 3.01 14.7025
0.148445 3.01 14.7025
0.135644 3.01 14.7242
0.135644 3.01 14.7242
0.148445 3.01 14.7025
0.160827 3.01 14.7242
0.17352 3.01 14.7025
0.198629 3.01 14.7025
0.185985 3.01 14.7242
0.185985 3.01 14.7242
0.160827 3.01 14.7242
0.17352 3.01 14.7025
0.0732297 3.01 14.7457
0.0586606 3.01 14.7238
0.0848754 3.01 14.7241
0.05 3.01 15.5353
0.05 3.01 15.4901
0.058509 3.01 15.5126
0.324276 3.01 14.7025
0.349395 3.01 14.7025
0.336827 3.01 14.7242
0.148138 3.01 14.7459
0.135644 3.01 14.7242
0.160827 3.01 14.7242
0.122979 3.01 14.7459
0.135644 3.01 14.7242
0.148138 3.01 14.7459
0.160827 3.01 14.7242
0.185985 3.01 14.7242
0.173316 3.01 14.7459
0.185806 3.01 14.7675
0.160572 3.01 14.7676
0.173316 3.01 14.7459
0.173316 3.01 14.7459
0.148138 3.01 14.7459
0.160827 3.01 14.7242
0.160572 3.01 14.7676
0.148138 3.01 14.7459
0.173316 3.01 14.7459
0.211137 3.01 14.7242
0.185985 3.01 14.7242
0.198629 3.01 14.7025
0.0979162 3.01 14.7458
0.110383 3.01 14.7242
0.122979 3.01 14.7459
0.122979 3.01 14.7459
0.109875 3.01 14.7675
0.0979162 3.01 14.7458
0.0732297 3.01 14.7457
0.0848754 3.01 14.7241
0.0979162 3.01 14.7458
0.0979162 3.01 14.7458
0.0848754 3.01 14.7241
0.110383 3.01 14.7242
0.0975729 3.01 14.789
0.109875 3.01 14.7675
0.122678 3.01 14.7891
0.0841718 3.01 14.7673
0.0577122 3.01 14.767
0.0732297 3.01 14.7457
0.0729308 3.01 14.7889
0.0577122 3.01 14.767
0.0841718 3.01 14.7673
0.0732297 3.01 14.7457
0.0979162 3.01 14.7458
0.0841718 3.01 14.7673
0.0841718 3.01 14.7673
0.0979162 3.01 14.7458
0.109875 3.01 14.7675
0.0975729 3.01 14.789
0.0729308 3.01 14.7889
0.0841718 3.01 14.7673
0.0841718 3.01 14.7673
0.109875 3.01 14.7675
0.0975729 3.01 14.789
0.073948 3.01 14.7025
0.0586606 3.01 14.7238
0.05 3.01 14.7025
0.073948 3.01 14.7025
0.0848754 3.01 14.7241
0.0586606 3.01 14.7238
0.05 3.01 15.5783
0.05 3.01 15.5353
0.0603641 3.01 15.557
0.0603641 3.01 15.557
0.0753197 3.01 15.579
0.05 3.01 15.5783
0.0709395 3.01 15.6025
0.05 3.01 15.6025
0.05 3.01 15.5783
0.05 3.01 15.5783
0.0753197 3.01 15.579
0.0709395 3.01 15.6025
0.0579641 3.01 15.2896
0.05 3.01 15.3117
0.05 3.01 15.2676
0.0841948 3.01 15.2018
0.097638 3.01 15.1799
0.109814 3.01 15.2018
0.0841948 3.01 15.2018
0.0730539 3.01 15.2237
0.0578646 3.01 15.2018
0.0580261 3.01 15.3338
0.05 3.01 15.3559
0.05 3.01 15.3117
0.942292 3.01 14.8974
0.95 3.01 14.8757
0.95 3.01 14.919
0.95 3.01 14.8323
0.95 3.01 14.8757
0.942332 3.01 14.854
0.73872 3.01 15.1145
0.726137 3.01 15.0928
0.75132 3.01 15.0928
0.751305 3.01 15.1363
0.726124 3.01 15.1363
0.73872 3.01 15.1145
0.713546 3.01 15.1145
0.726137 3.01 15.0928
0.73872 3.01 15.1145
0.73872 3.01 15.1145
0.726124 3.01 15.1363
0.713546 3.01 15.1145
0.814318 3.01 15.1581
0.789096 3.01 15.1581
0.801709 3.01 15.1363
0.7765 3.01 15.1363
0.789115 3.01 15.1145
0.801709 3.01 15.1363
0.801709 3.01 15.1363
0.789096 3.01 15.1581
0.7765 3.01 15.1363
0.7765 3.01 15.1363
0.789096 3.01 15.1581
0.763892 3.01 15.1581
0.763892 3.01 15.1581
0.751305 3.01 15.1363
0.7765 3.01 15.1363
0.95 3.01 15.6025
0.929061 3.01 15.6025
0.95 3.01 15.5783
0.95 3.01 15.4004
0.926844 3.01 15.4004
0.941913 3.01 15.3782
0.941913 3.01 15.3782
0.95 3.01 15.3559
0.95 3.01 15.4004
0.926866 3.01 15.3559
0.95 3.01 15.3559
0.941913 3.01 15.3782
0.941974 3.01 15.3338
0.95 3.01 15.3559
0.926866 3.01 15.3559
0.95 3.01 15.3117
0.95 3.01 15.3559
0.941974 3.01 15.3338
0.941974 3.01 15.3338
0.926895 3.01 15.3117
0.95 3.01 15.3117
0.6127 3.01 15.6025
0.625238 3.01 15.58
0.637734 3.01 15.6025
0.662757 3.01 15.6025
0.637734 3.01 15.6025
0.650275 3.01 15.58
0.650275 3.01 15.58
0.637734 3.01 15.6025
0.625238 3.01 15.58
0.600415 3.01 15.1364
0.587856 3.01 15.1582
0.575304 3.01 15.1364
0.575304 3.01 15.1364
0.587856 3.01 15.1582
0.562749 3.01 15.1582
0.336827 3.01 14.7242
0.349395 3.01 14.7025
0.361946 3.01 14.7242
0.223755 3.01 14.7025
0.211137 3.01 14.7242
0.198629 3.01 14.7025
0.185985 3.01 14.7242
0.211137 3.01 14.7242
0.198492 3.01 14.7459
0.185806 3.01 14.7675
0.173316 3.01 14.7459
0.198492 3.01 14.7459
0.198492 3.01 14.7459
0.173316 3.01 14.7459
0.185985 3.01 14.7242
0.0576202 3.01 14.8105
0.05 3.01 14.8323
0.05 3.01 14.7887
0.05 3.01 14.7887
0.0729308 3.01 14.7889
0.0576202 3.01 14.8105
0.05 3.01 14.7887
0.0577122 3.01 14.767
0.0729308 3.01 14.7889
0.135283 3.01 14.7675
0.109875 3.01 14.7675
0.122979 3.01 14.7459
0.135283 3.01 14.7675
0.122678 3.01 14.7891
0.109875 3.01 14.7675
0.122979 3.01 14.7459
0.148138 3.01 14.7459
0.135283 3.01 14.7675
0.135283 3.01 14.7675
0.148138 3.01 14.7459
0.160572 3.01 14.7676
0.123433 3.01 14.7025
0.110383 3.01 14.7242
0.0985513 3.01 14.7025
0.110383 3.01 14.7242
0.0848754 3.01 14.7241
0.0985513 3.01 14.7025
0.0848754 3.01 14.7241
0.073948 3.01 14.7025
0.0985513 3.01 14.7025
0.0603641 3.01 15.557
0.05 3.01 15.5353
0.0739464 3.01 15.5345
0.0739464 3.01 15.5345
0.05 3.01 15.5353
0.058509 3.01 15.5126
0.058509 3.01 15.5126
0.0849548 3.01 15.5121
0.0739464 3.01 15.5345
0.058509 3.01 15.5126
0.05 3.01 15.4901
0.0732725 3.01 15.4899
0.0732725 3.01 15.4899
0.0849548 3.01 15.5121
0.058509 3.01 15.5126
0.5 3.01 15.58
0.487476 3.01 15.6025
0.47495 3.01 15.58
0.097663 3.01 15.2237
0.0841948 3.01 15.2018
0.109814 3.01 15.2018
0.0730539 3.01 15.2237
0.0841948 3.01 15.2018
0.097663 3.01 15.2237
0.0578646 3.01 15.2018
0.0730539 3.01 15.2237
0.05 3.01 15.2237
0.05 3.01 15.2237
0.05 3.01 15.1799
0.0578646 3.01 15.2018
0.05 3.01 15.4004
0.05 3.01 15.3559
0.0580869 3.01 15.3782
0.05 3.01 15.3559
0.0580261 3.01 15.3338
0.073134 3.01 15.3559
0.073134 3.01 15.3559
0.0580869 3.01 15.3782
0.05 3.01 15.3559
0.942268 3.01 14.9407
0.95 3.01 14.919
0.95 3.01 14.9624
0.942292 3.01 14.8974
0.95 3.01 14.919
0.927025 3.01 14.919
0.927025 3.01 14.919
0.942268 3.01 14.9407
0.915919 3.01 14.9407
0.95 3.01 14.919
0.942268 3.01 14.9407
0.927025 3.01 14.919
0.927013 3.01 14.9624
0.942268 3.01 14.9407
0.95 3.01 14.9624
0.915919 3.01 14.9407
0.942268 3.01 14.9407
0.927013 3.01 14.9624
0.801738 3.01 15.0493
0.814364 3.01 15.0275
0.826957 3.01 15.0492
0.852174 3.01 15.0492
0.826957 3.01 15.0492
0.839609 3.01 15.0275
0.839609 3.01 15.0275
0.826957 3.01 15.0492
0.814364 3.01 15.0275
0.776516 3.01 15.0927
0.75132 3.01 15.0928
0.763923 3.01 15.071
0.776516 3.01 15.0927
0.801725 3.01 15.0927
0.789115 3.01 15.1145
0.738704 3.01 15.1581
0.751305 3.01 15.1363
0.763892 3.01 15.1581
0.726124 3.01 15.1363
0.751305 3.01 15.1363
0.738704 3.01 15.1581
0.915617 3.01 15.3781
0.902228 3.01 15.3559
0.926866 3.01 15.3559
0.926866 3.01 15.3559
0.941913 3.01 15.3782
0.915617 3.01 15.3781
0.915617 3.01 15.3781
0.941913 3.01 15.3782
0.926844 3.01 15.4004
0.915617 3.01 15.3781
0.926844 3.01 15.4004
0.902193 3.01 15.4004
0.926866 3.01 15.3559
0.902228 3.01 15.3559
0.915668 3.01 15.3338
0.902267 3.01 15.3117
0.926895 3.01 15.3117
0.915668 3.01 15.3338
0.915668 3.01 15.3338
0.941974 3.01 15.3338
0.926866 3.01 15.3559
0.926895 3.01 15.3117
0.941974 3.01 15.3338
0.915668 3.01 15.3338
0.902267 3.01 15.3117
0.915668 3.01 15.3338
0.890059 3.01 15.3338
0.890059 3.01 15.3338
0.915668 3.01 15.3338
0.902228 3.01 15.3559
0.826927 3.01 15.1363
0.814318 3.01 15.1581
0.801709 3.01 15.1363
0.864816 3.01 15.2018
0.877308 3.01 15.1799
0.890186 3.01 15.2018
0.877308 3.01 15.1799
0.864816 3.01 15.2018
0.852122 3.01 15.1799
0.890186 3.01 15.2018
0.877308 3.01 15.1799
0.902362 3.01 15.1799
0.902362 3.01 15.1799
0.915805 3.01 15.2018
0.890186 3.01 15.2018
0.902362 3.01 15.1799
0.926964 3.01 15.1799
0.915805 3.01 15.2018
0.915835 3.01 15.1581
0.926964 3.01 15.1799
0.902362 3.01 15.1799
0.942171 3.01 15.1581
0.926964 3.01 15.1799
0.915835 3.01 15.1581
0.915835 3.01 15.1581
0.926978 3.01 15.1363
0.942171 3.01 15.1581
0.942171 3.01 15.1581
0.926978 3.01 15.1363
0.95 3.01 15.1363
0.87737 3.01 15.0058
0.890277 3.01 14.9841
0.902417 3.01 15.0058
0.852144 3.01 15.1363
0.877329 3.01 15.1363
0.864842 3.01 15.1581
0.877308 3.01 15.1799
0.852122 3.01 15.1799
0.864842 3.01 15.1581
0.902396 3.01 15.0927
0.915858 3.01 15.1145
0.890234 3.01 15.1145
0.926997 3.01 15.0492
0.942237 3.01 15.0275
0.95 3.01 15.0492
0.91589 3.01 15.0275
0.942237 3.01 15.0275
0.926997 3.01 15.0492
0.942199 3.01 15.1145
0.95 3.01 15.0927
0.95 3.01 15.1363
0.95 3.01 15.1363
0.926978 3.01 15.1363
0.942199 3.01 15.1145
0.942199 3.01 15.1145
0.926978 3.01 15.1363
0.915858 3.01 15.1145
0.95 3.01 15.0492
0.95 3.01 15.0927
0.942221 3.01 15.071
0.942221 3.01 15.071
0.926997 3.01 15.0492
0.95 3.01 15.0492
0.915876 3.01 15.071
0.926997 3.01 15.0492
0.942221 3.01 15.071
0.926989 3.01 15.0927
0.915858 3.01 15.1145
0.902396 3.01 15.0927
0.902396 3.01 15.0927
0.915876 3.01 15.071
0.926989 3.01 15.0927
0.926989 3.01 15.0927
0.942199 3.01 15.1145
0.915858 3.01 15.1145
0.95 3.01 15.0927
0.942199 3.01 15.1145
0.926989 3.01 15.0927
0.915876 3.01 15.071
0.942221 3.01 15.071
0.926989 3.01 15.0927
0.926989 3.01 15.0927
0.942221 3.01 15.071
0.95 3.01 15.0927
0.91353 3.01 15.5569
0.926054 3.01 15.5345
0.939636 3.01 15.557
0.926728 3.01 15.4899
0.95 3.01 15.4901
0.941491 3.01 15.5126
0.926728 3.01 15.4899
0.941822 3.01 15.4675
0.95 3.01 15.4901
0.95 3.01 15.5353
0.95 3.01 15.5783
0.939636 3.01 15.557
0.95 3.01 15.5353
0.926054 3.01 15.5345
0.941491 3.01 15.5126
0.939636 3.01 15.557
0.926054 3.01 15.5345
0.95 3.01 15.5353
0.941491 3.01 15.5126
0.95 3.01 15.4901
0.95 3.01 15.5353
0.941869 3.01 15.4227
0.926844 3.01 15.4004
0.95 3.01 15.4004
0.762942 3.01 15.5573
0.75028 3.01 15.5799
0.737933 3.01 15.5573
0.71291 3.01 15.5574
0.725533 3.01 15.5349
0.737933 3.01 15.5573
0.71291 3.01 15.5574
0.737933 3.01 15.5573
0.725313 3.01 15.5799
0.725313 3.01 15.5799
0.737933 3.01 15.5573
[...]
<PointData Scalars="View Factor" >
<DataArray type="Float64" Name="View Factor" NumberOfComponents="1" format="ascii">
1.3037e-05
1.3037e-05
1.3037e-05
1.52715e-05
1.52715e-05
1.52715e-05
1.52122e-05
1.52122e-05
1.52122e-05
1.52521e-05
1.52521e-05
1.52521e-05
1.52719e-05
1.52719e-05
1.52719e-05
1.52517e-05
1.52517e-05
1.52517e-05
1.5271e-05
1.5271e-05
1.5271e-05
1.52512e-05
1.52512e-05
1.52512e-05
1.52135e-05
1.52135e-05
1.52135e-05
1.32382e-05
1.32382e-05
1.32382e-05
1.52661e-05
1.52661e-05
1.52661e-05
1.52118e-05
1.52118e-05
1.52118e-05
1.51921e-05
1.51921e-05
1.51921e-05
1.52113e-05
1.52113e-05
1.52113e-05
1.5132e-05
1.5132e-05
1.5132e-05
1.51917e-05
1.51917e-05
1.51917e-05
1.5152e-05
1.5152e-05
1.5152e-05
1.52507e-05
1.52507e-05
1.52507e-05
1.51926e-05
1.51926e-05
1.51926e-05
1.51529e-05
1.51529e-05
1.51529e-05
1.51931e-05
1.51931e-05
1.51931e-05
1.52127e-05
1.52127e-05
1.52127e-05
1.50742e-05
1.50742e-05
1.50742e-05
1.51344e-05
1.51344e-05
1.51344e-05
1.5095e-05
1.5095e-05
1.5095e-05
1.51536e-05
1.51536e-05
1.51536e-05
1.51335e-05
1.51335e-05
1.51335e-05
1.50749e-05
1.50749e-05
1.50749e-05
1.50942e-05
1.50942e-05
1.50942e-05
1.52732e-05
1.52732e-05
1.52732e-05
1.52532e-05
1.52532e-05
1.52532e-05
1.31363e-05
1.31363e-05
1.31363e-05
1.31029e-05
1.31029e-05
1.31029e-05
1.30504e-05
1.30504e-05
1.30504e-05
1.30682e-05
1.30682e-05
1.30682e-05
1.37674e-05
1.37674e-05
1.37674e-05
1.40009e-05
1.40009e-05
1.40009e-05
1.3965e-05
1.3965e-05
1.3965e-05
1.36605e-05
1.36605e-05
1.36605e-05
1.47116e-05
1.47116e-05
1.47116e-05
1.48267e-05
1.48267e-05
1.48267e-05
1.42081e-05
1.42081e-05
1.42081e-05
1.41349e-05
1.41349e-05
1.41349e-05
1.41908e-05
1.41908e-05
1.41908e-05
1.41542e-05
1.41542e-05
1.41542e-05
1.4075e-05
1.4075e-05
1.4075e-05
1.41307e-05
1.41307e-05
1.41307e-05
1.40942e-05
1.40942e-05
1.40942e-05
1.40771e-05
1.40771e-05
1.40771e-05
1.40964e-05
1.40964e-05
1.40964e-05
1.3007e-05
1.3007e-05
1.3007e-05
1.34735e-05
1.34735e-05
1.34735e-05
1.35078e-05
1.35078e-05
1.35078e-05
1.35438e-05
1.35438e-05
1.35438e-05
1.35791e-05
1.35791e-05
1.35791e-05
1.36136e-05
1.36136e-05
1.36136e-05
1.36498e-05
1.36498e-05
1.36498e-05
1.30301e-05
1.30301e-05
1.30301e-05
1.30286e-05
1.30286e-05
1.30286e-05
1.30464e-05
1.30464e-05
1.30464e-05
1.41094e-05
1.41094e-05
1.41094e-05
1.40919e-05
1.40919e-05
1.40919e-05
1.52456e-05
1.52456e-05
1.52456e-05
1.52703e-05
1.52703e-05
1.52703e-05
1.52108e-05
1.52108e-05
1.52108e-05
1.51515e-05
1.51515e-05
1.51515e-05
1.51911e-05
1.51911e-05
1.51911e-05
1.49971e-05
1.49971e-05
1.49971e-05
1.50362e-05
1.50362e-05
1.50362e-05
1.50757e-05
1.50757e-05
1.50757e-05
1.5133e-05
1.5133e-05
1.5133e-05
1.50936e-05
1.50936e-05
1.50936e-05
1.51525e-05
1.51525e-05
1.51525e-05
1.51325e-05
1.51325e-05
1.51325e-05
1.52723e-05
1.52723e-05
1.52723e-05
1.52525e-05
1.52525e-05
1.52525e-05
1.52727e-05
1.52727e-05
1.52727e-05
1.31698e-05
1.31698e-05
1.31698e-05
1.32039e-05
1.32039e-05
1.32039e-05
1.32217e-05
1.32217e-05
1.32217e-05
1.32732e-05
1.32732e-05
1.32732e-05
1.32561e-05
1.32561e-05
1.32561e-05
1.30547e-05
1.30547e-05
1.30547e-05
1.39647e-05
1.39647e-05
1.39647e-05
1.39468e-05
1.39468e-05
1.39468e-05
1.3947e-05
1.3947e-05
1.3947e-05
1.39831e-05
1.39831e-05
1.39831e-05
1.35542e-05
1.35542e-05
1.35542e-05
1.3625e-05
1.3625e-05
1.3625e-05
1.35896e-05
1.35896e-05
1.35896e-05
1.45976e-05
1.45976e-05
1.45976e-05
1.46743e-05
1.46743e-05
1.46743e-05
1.46186e-05
1.46186e-05
1.46186e-05
1.46363e-05
1.46363e-05
1.46363e-05
1.45607e-05
1.45607e-05
1.45607e-05
1.45808e-05
1.45808e-05
1.45808e-05
1.43491e-05
1.43491e-05
1.43491e-05
1.43467e-05
1.43467e-05
1.43467e-05
1.43664e-05
1.43664e-05
1.43664e-05
1.42427e-05
1.42427e-05
1.42427e-05
1.42039e-05
1.42039e-05
1.42039e-05
1.40792e-05
1.40792e-05
1.40792e-05
1.40984e-05
1.40984e-05
1.40984e-05
1.35462e-05
1.35462e-05
1.35462e-05
1.35273e-05
1.35273e-05
1.35273e-05
1.34921e-05
1.34921e-05
1.34921e-05
1.34759e-05
1.34759e-05
1.34759e-05
1.35815e-05
1.35815e-05
1.35815e-05
1.36522e-05
1.36522e-05
1.36522e-05
1.35978e-05
1.35978e-05
1.35978e-05
1.36332e-05
1.36332e-05
1.36332e-05
1.36356e-05
1.36356e-05
1.36356e-05
1.36003e-05
1.36003e-05
1.36003e-05
1.4092e-05
1.4092e-05
1.4092e-05
1.39595e-05
1.39595e-05
1.39595e-05
1.39787e-05
1.39787e-05
1.39787e-05
1.39763e-05
1.39763e-05
1.39763e-05
1.3957e-05
1.3957e-05
1.3957e-05
1.39739e-05
1.39739e-05
1.39739e-05
1.401e-05
1.401e-05
1.401e-05
1.40268e-05
1.40268e-05
1.40268e-05
1.4063e-05
1.4063e-05
1.4063e-05
1.408e-05
1.408e-05
1.408e-05
1.44534e-05
1.44534e-05
1.44534e-05
1.40874e-05
1.40874e-05
1.40874e-05
1.40149e-05
1.40149e-05
1.40149e-05
1.41749e-05
1.41749e-05
1.41749e-05
1.43367e-05
1.43367e-05
1.43367e-05
1.43564e-05
1.43564e-05
1.43564e-05
1.4152e-05
1.4152e-05
1.4152e-05
1.41164e-05
1.41164e-05
1.41164e-05
1.41358e-05
1.41358e-05
1.41358e-05
1.4262e-05
1.4262e-05
1.4262e-05
1.42997e-05
1.42997e-05
1.42997e-05
1.42825e-05
1.42825e-05
1.42825e-05
1.4192e-05
1.4192e-05
1.4192e-05
1.42286e-05
1.42286e-05
1.42286e-05
1.41723e-05
1.41723e-05
1.41723e-05
1.41894e-05
1.41894e-05
1.41894e-05
1.42456e-05
1.42456e-05
1.42456e-05
1.42261e-05
1.42261e-05
1.42261e-05
1.31109e-05
1.31109e-05
1.31109e-05
1.3229e-05
1.3229e-05
1.3229e-05
1.32638e-05
1.32638e-05
1.32638e-05
1.30921e-05
1.30921e-05
1.30921e-05
1.31601e-05
1.31601e-05
1.31601e-05
1.31262e-05
1.31262e-05
1.31262e-05
1.31934e-05
1.31934e-05
1.31934e-05
1.34384e-05
1.34384e-05
1.34384e-05
1.30903e-05
1.30903e-05
1.30903e-05
1.31263e-05
1.31263e-05
1.31263e-05
1.3092e-05
1.3092e-05
1.3092e-05
1.3074e-05
1.3074e-05
1.3074e-05
1.30235e-05
1.30235e-05
1.30235e-05
1.30398e-05
1.30398e-05
1.30398e-05
1.30218e-05
1.30218e-05
1.30218e-05
1.32513e-05
1.32513e-05
1.32513e-05
1.31953e-05
1.31953e-05
1.31953e-05
1.31444e-05
1.31444e-05
1.31444e-05
1.31788e-05
1.31788e-05
1.31788e-05
1.31476e-05
1.31476e-05
1.31476e-05
1.31821e-05
1.31821e-05
1.31821e-05
1.30821e-05
1.30821e-05
1.30821e-05
1.30479e-05
1.30479e-05
1.30479e-05
1.30316e-05
1.30316e-05
1.30316e-05
1.41721e-05
1.41721e-05
1.41721e-05
1.40903e-05
1.40903e-05
1.40903e-05
1.39846e-05
1.39846e-05
1.39846e-05
1.39469e-05
1.39469e-05
1.39469e-05
1.3983e-05
1.3983e-05
1.3983e-05
1.40019e-05
1.40019e-05
1.40019e-05
1.40556e-05
1.40556e-05
1.40556e-05
1.40382e-05
1.40382e-05
1.40382e-05
1.39484e-05
1.39484e-05
1.39484e-05
1.39296e-05
1.39296e-05
1.39296e-05
1.37331e-05
1.37331e-05
1.37331e-05
1.39763e-05
1.39763e-05
1.39763e-05
1.39952e-05
1.39952e-05
1.39952e-05
1.40387e-05
1.40387e-05
1.40387e-05
1.39663e-05
1.39663e-05
1.39663e-05
1.5268e-05
1.5268e-05
1.5268e-05
1.52689e-05
1.52689e-05
1.52689e-05
1.52485e-05
1.52485e-05
1.52485e-05
1.52086e-05
1.52086e-05
1.52086e-05
1.52227e-05
1.52227e-05
1.52227e-05
1.43143e-05
1.43143e-05
1.43143e-05
1.42406e-05
1.42406e-05
1.42406e-05
1.42969e-05
1.42969e-05
1.42969e-05
1.42601e-05
1.42601e-05
1.42601e-05
1.42622e-05
1.42622e-05
1.42622e-05
1.42448e-05
1.42448e-05
1.42448e-05
1.51883e-05
1.51883e-05
1.51883e-05
1.5265e-05
1.5265e-05
1.5265e-05
1.52479e-05
1.52479e-05
1.52479e-05
1.46626e-05
1.46626e-05
1.46626e-05
1.46821e-05
1.46821e-05
1.46821e-05
1.51155e-05
1.51155e-05
1.51155e-05
1.5234e-05
1.5234e-05
1.5234e-05
1.51943e-05
1.51943e-05
1.51943e-05
1.51547e-05
1.51547e-05
1.51547e-05
1.32047e-05
1.32047e-05
1.32047e-05
1.30382e-05
1.30382e-05
1.30382e-05
1.37317e-05
1.37317e-05
1.37317e-05
1.36961e-05
1.36961e-05
1.36961e-05
1.39107e-05
1.39107e-05
1.39107e-05
1.49547e-05
1.49547e-05
1.49547e-05
1.37313e-05
1.37313e-05
1.37313e-05
1.36956e-05
1.36956e-05
1.36956e-05
1.40189e-05
1.40189e-05
1.40189e-05
1.40006e-05
1.40006e-05
1.40006e-05
1.40555e-05
1.40555e-05
1.40555e-05
1.40191e-05
1.40191e-05
1.40191e-05
1.40193e-05
1.40193e-05
1.40193e-05
1.40011e-05
1.40011e-05
1.40011e-05
1.40921e-05
1.40921e-05
1.40921e-05
1.40556e-05
1.40556e-05
1.40556e-05
1.40737e-05
1.40737e-05
1.40737e-05
1.41102e-05
1.41102e-05
1.41102e-05
1.41285e-05
1.41285e-05
1.41285e-05
1.41238e-05
1.41238e-05
1.41238e-05
1.41409e-05
1.41409e-05
1.41409e-05
1.45634e-05
1.45634e-05
1.45634e-05
1.43121e-05
1.43121e-05
1.43121e-05
1.42947e-05
1.42947e-05
1.42947e-05
1.42579e-05
1.42579e-05
1.42579e-05
1.43641e-05
1.43641e-05
1.43641e-05
1.43443e-05
1.43443e-05
1.43443e-05
1.44734e-05
1.44734e-05
1.44734e-05
1.46946e-05
1.46946e-05
1.46946e-05
1.45801e-05
1.45801e-05
1.45801e-05
1.4206e-05
1.4206e-05
1.4206e-05
1.41328e-05
1.41328e-05
1.41328e-05
1.415e-05
1.415e-05
1.415e-05
1.41866e-05
1.41866e-05
1.41866e-05
1.41887e-05
1.41887e-05
1.41887e-05
1.41521e-05
1.41521e-05
1.41521e-05
1.40429e-05
1.40429e-05
1.40429e-05
1.40258e-05
1.40258e-05
1.40258e-05
1.40812e-05
1.40812e-05
1.40812e-05
1.40449e-05
1.40449e-05
1.40449e-05
1.39383e-05
1.39383e-05
1.39383e-05
1.39193e-05
1.39193e-05
1.39193e-05
1.40315e-05
1.40315e-05
1.40315e-05
1.3921e-05
1.3921e-05
1.3921e-05
1.36546e-05
1.36546e-05
1.36546e-05
1.36923e-05
1.36923e-05
1.36923e-05
1.369e-05
1.369e-05
1.369e-05
1.37089e-05
1.37089e-05
1.37089e-05
1.3141e-05
1.3141e-05
1.3141e-05
1.31246e-05
1.31246e-05
1.31246e-05
1.31427e-05
1.31427e-05
1.31427e-05
1.31772e-05
1.31772e-05
1.31772e-05
1.33322e-05
1.33322e-05
1.33322e-05
1.32227e-05
1.32227e-05
1.32227e-05
1.31882e-05
1.31882e-05
1.31882e-05
1.33778e-05
1.33778e-05
1.33778e-05
1.3345e-05
1.3345e-05
1.3345e-05
1.33942e-05
1.33942e-05
1.33942e-05
1.42383e-05
1.42383e-05
1.42383e-05
1.40727e-05
1.40727e-05
1.40727e-05
1.40898e-05
1.40898e-05
1.40898e-05
1.40704e-05
1.40704e-05
1.40704e-05
1.40341e-05
1.40341e-05
1.40341e-05
1.39258e-05
1.39258e-05
1.39258e-05
1.39618e-05
1.39618e-05
1.39618e-05
1.40825e-05
1.40825e-05
1.40825e-05
1.41214e-05
1.41214e-05
1.41214e-05
1.41189e-05
1.41189e-05
1.41189e-05
1.41384e-05
1.41384e-05
1.41384e-05
1.40075e-05
1.40075e-05
1.40075e-05
1.40429e-05
1.40429e-05
1.40429e-05
1.42483e-05
1.42483e-05
1.42483e-05
1.43073e-05
1.43073e-05
1.43073e-05
1.42876e-05
1.42876e-05
1.42876e-05
1.43962e-05
1.43962e-05
1.43962e-05
1.43616e-05
1.43616e-05
1.43616e-05
1.44161e-05
1.44161e-05
1.44161e-05
1.43987e-05
1.43987e-05
1.43987e-05
1.44708e-05
1.44708e-05
1.44708e-05
1.45083e-05
1.45083e-05
1.45083e-05
1.45257e-05
1.45257e-05
1.45257e-05
1.30831e-05
1.30831e-05
1.30831e-05
1.31193e-05
1.31193e-05
1.31193e-05
1.30597e-05
1.30597e-05
1.30597e-05
1.30771e-05
1.30771e-05
1.30771e-05
1.30255e-05
1.30255e-05
1.30255e-05
1.31293e-05
1.31293e-05
1.31293e-05
1.3232e-05
1.3232e-05
1.3232e-05
1.31634e-05
1.31634e-05
1.31634e-05
1.31789e-05
1.31789e-05
1.31789e-05
1.32132e-05
1.32132e-05
1.32132e-05
1.32919e-05
1.32919e-05
1.32919e-05
1.3343e-05
1.3343e-05
1.3343e-05
1.33266e-05
1.33266e-05
1.33266e-05
1.33245e-05
1.33245e-05
1.33245e-05
1.34408e-05
1.34408e-05
1.34408e-05
1.3422e-05
1.3422e-05
1.3422e-05
1.32824e-05
1.32824e-05
1.32824e-05
1.32665e-05
1.32665e-05
1.32665e-05
1.31296e-05
1.31296e-05
1.31296e-05
1.3128e-05
1.3128e-05
1.3128e-05
1.3146e-05
1.3146e-05
1.3146e-05
1.30253e-05
1.30253e-05
1.30253e-05
1.30415e-05
1.30415e-05
1.30415e-05
1.30757e-05
1.30757e-05
1.30757e-05
1.30937e-05
1.30937e-05
1.30937e-05
1.30324e-05
1.30324e-05
1.30324e-05
1.3085e-05
1.3085e-05
1.3085e-05
1.30669e-05
1.30669e-05
1.30669e-05
1.30162e-05
1.30162e-05
1.30162e-05
1.30722e-05
1.30722e-05
1.30722e-05
1.3038e-05
1.3038e-05
1.3038e-05
1.32298e-05
1.32298e-05
1.32298e-05
1.3248e-05
1.3248e-05
1.3248e-05
1.34941e-05
1.34941e-05
1.34941e-05
1.35108e-05
1.35108e-05
1.35108e-05
1.3402e-05
1.3402e-05
1.3402e-05
1.32827e-05
1.32827e-05
1.32827e-05
1.32992e-05
1.32992e-05
1.32992e-05
1.3286e-05
1.3286e-05
1.3286e-05
1.33854e-05
1.33854e-05
1.33854e-05
1.33505e-05
1.33505e-05
1.33505e-05
1.3334e-05
1.3334e-05
1.3334e-05
1.33523e-05
1.33523e-05
1.33523e-05
1.31969e-05
1.31969e-05
1.31969e-05
1.32331e-05
1.32331e-05
1.32331e-05
1.31986e-05
1.31986e-05
1.31986e-05
1.31805e-05
1.31805e-05
1.31805e-05
1.32496e-05
1.32496e-05
1.32496e-05
1.32315e-05
1.32315e-05
1.32315e-05
1.31312e-05
1.31312e-05
1.31312e-05
1.30969e-05
1.30969e-05
1.30969e-05
1.30806e-05
1.30806e-05
1.30806e-05
1.30985e-05
1.30985e-05
1.30985e-05
1.32001e-05
1.32001e-05
1.32001e-05
1.32347e-05
1.32347e-05
1.32347e-05
1.32528e-05
1.32528e-05
1.32528e-05
1.35711e-05
1.35711e-05
1.35711e-05
1.36065e-05
1.36065e-05
1.36065e-05
1.42716e-05
1.42716e-05
1.42716e-05
1.41248e-05
1.41248e-05
1.41248e-05
1.42905e-05
1.42905e-05
1.42905e-05
1.42723e-05
1.42723e-05
1.42723e-05
1.41062e-05
1.41062e-05
1.41062e-05
1.41544e-05
1.41544e-05
1.41544e-05
1.41734e-05
1.41734e-05
1.41734e-05
1.39912e-05
1.39912e-05
1.39912e-05
1.40087e-05
1.40087e-05
1.40087e-05
1.40438e-05
1.40438e-05
1.40438e-05
1.39551e-05
1.39551e-05
1.39551e-05
1.39376e-05
1.39376e-05
1.39376e-05
1.39015e-05
1.39015e-05
1.39015e-05
1.38829e-05
1.38829e-05
1.38829e-05
1.41077e-05
1.41077e-05
1.41077e-05
1.40539e-05
1.40539e-05
1.40539e-05
1.40366e-05
1.40366e-05
1.40366e-05
1.40003e-05
1.40003e-05
1.40003e-05
1.39814e-05
1.39814e-05
1.39814e-05
1.38296e-05
1.38296e-05
1.38296e-05
1.3847e-05
1.3847e-05
1.3847e-05
1.39311e-05
1.39311e-05
1.39311e-05
1.38936e-05
1.38936e-05
1.38936e-05
1.399e-05
1.399e-05
1.399e-05
1.40075e-05
1.40075e-05
1.40075e-05
1.3826e-05
1.3826e-05
1.3826e-05
1.38432e-05
1.38432e-05
1.38432e-05
1.39419e-05
1.39419e-05
1.39419e-05
1.3978e-05
1.3978e-05
1.3978e-05
1.39303e-05
1.39303e-05
1.39303e-05
1.36466e-05
1.36466e-05
1.36466e-05
1.52697e-05
1.52697e-05
1.52697e-05
1.52493e-05
1.52493e-05
1.52493e-05
1.525e-05
1.525e-05
1.525e-05
1.48662e-05
1.48662e-05
1.48662e-05
1.49431e-05
1.49431e-05
1.49431e-05
1.4905e-05
1.4905e-05
1.4905e-05
1.52269e-05
1.52269e-05
1.52269e-05
1.52345e-05
1.52345e-05
1.52345e-05
1.52416e-05
1.52416e-05
1.52416e-05
1.43165e-05
1.43165e-05
1.43165e-05
1.42991e-05
1.42991e-05
1.42991e-05
1.43186e-05
1.43186e-05
1.43186e-05
1.43557e-05
1.43557e-05
1.43557e-05
1.42643e-05
1.42643e-05
1.42643e-05
1.43012e-05
1.43012e-05
1.43012e-05
1.52476e-05
1.52476e-05
1.52476e-05
1.52078e-05
1.52078e-05
1.52078e-05
1.52671e-05
1.52671e-05
1.52671e-05
1.52466e-05
1.52466e-05
1.52466e-05
1.52058e-05
1.52058e-05
1.52058e-05
1.51854e-05
1.51854e-05
1.51854e-05
1.51457e-05
1.51457e-05
1.51457e-05
1.51446e-05
1.51446e-05
1.51446e-05
1.51254e-05
1.51254e-05
1.51254e-05
1.50669e-05
1.50669e-05
1.50669e-05
1.5086e-05
1.5086e-05
1.5086e-05
1.52613e-05
1.52613e-05
1.52613e-05
1.52289e-05
1.52289e-05
1.52289e-05
1.46246e-05
1.46246e-05
1.46246e-05
1.45491e-05
1.45491e-05
1.45491e-05
1.51773e-05
1.51773e-05
1.51773e-05
1.51892e-05
1.51892e-05
1.51892e-05
1.51495e-05
1.51495e-05
1.51495e-05
1.52094e-05
1.52094e-05
1.52094e-05
1.34284e-05
1.34284e-05
1.34284e-05
1.33569e-05
1.33569e-05
1.33569e-05
1.32548e-05
1.32548e-05
1.32548e-05
1.32554e-05
1.32554e-05
1.32554e-05
1.32725e-05
1.32725e-05
1.32725e-05
1.33598e-05
1.33598e-05
1.33598e-05
1.33072e-05
1.33072e-05
1.33072e-05
1.33249e-05
1.33249e-05
1.33249e-05
1.32718e-05
1.32718e-05
1.32718e-05
1.3222e-05
1.3222e-05
1.3222e-05
1.33081e-05
1.33081e-05
1.33081e-05
1.3343e-05
1.3343e-05
1.3343e-05
1.30558e-05
1.30558e-05
1.30558e-05
1.31421e-05
1.31421e-05
1.31421e-05
1.31077e-05
1.31077e-05
1.31077e-05
1.309e-05
1.309e-05
1.309e-05
1.3211e-05
1.3211e-05
1.3211e-05
1.31442e-05
1.31442e-05
1.31442e-05
1.31099e-05
1.31099e-05
1.31099e-05
1.37492e-05
1.37492e-05
1.37492e-05
1.37315e-05
1.37315e-05
1.37315e-05
1.37495e-05
1.37495e-05
1.37495e-05
1.36427e-05
1.36427e-05
1.36427e-05
1.36782e-05
1.36782e-05
1.36782e-05
1.36248e-05
1.36248e-05
1.36248e-05
1.36425e-05
1.36425e-05
1.36425e-05
1.36959e-05
1.36959e-05
1.36959e-05
1.3678e-05
1.3678e-05
1.3678e-05
1.38926e-05
1.38926e-05
1.38926e-05
1.38563e-05
1.38563e-05
1.38563e-05
1.38749e-05
1.38749e-05
1.38749e-05
1.39109e-05
1.39109e-05
1.39109e-05
1.38928e-05
1.38928e-05
1.38928e-05
1.49578e-05
1.49578e-05
1.49578e-05
1.46676e-05
1.46676e-05
1.46676e-05
1.47439e-05
1.47439e-05
1.47439e-05
1.45508e-05
1.45508e-05
1.45508e-05
1.45132e-05
1.45132e-05
1.45132e-05
1.45363e-05
1.45363e-05
1.45363e-05
1.44238e-05
1.44238e-05
1.44238e-05
1.43865e-05
1.43865e-05
1.43865e-05
1.46497e-05
1.46497e-05
1.46497e-05
1.46876e-05
1.46876e-05
1.46876e-05
1.47257e-05
1.47257e-05
1.47257e-05
1.46878e-05
1.46878e-05
1.46878e-05
1.46686e-05
1.46686e-05
1.46686e-05
1.46869e-05
1.46869e-05
1.46869e-05
1.4725e-05
1.4725e-05
1.4725e-05
1.47831e-05
1.47831e-05
1.47831e-05
1.47447e-05
1.47447e-05
1.47447e-05
1.47254e-05
1.47254e-05
1.47254e-05
1.47444e-05
1.47444e-05
1.47444e-05
1.49158e-05
1.49158e-05
1.49158e-05
1.36246e-05
1.36246e-05
1.36246e-05
1.35892e-05
1.35892e-05
1.35892e-05
1.39465e-05
1.39465e-05
1.39465e-05
1.39644e-05
1.39644e-05
1.39644e-05
1.39105e-05
1.39105e-05
1.39105e-05
1.38923e-05
1.38923e-05
1.38923e-05
1.40185e-05
1.40185e-05
1.40185e-05
1.43124e-05
1.43124e-05
1.43124e-05
1.43307e-05
1.43307e-05
1.43307e-05
1.43494e-05
1.43494e-05
1.43494e-05
1.43492e-05
1.43492e-05
1.43492e-05
1.43305e-05
1.43305e-05
1.43305e-05
1.41283e-05
1.41283e-05
1.41283e-05
1.41649e-05
1.41649e-05
1.41649e-05
1.42928e-05
1.42928e-05
1.42928e-05
1.40552e-05
1.40552e-05
1.40552e-05
1.4128e-05
1.4128e-05
1.4128e-05
1.40735e-05
1.40735e-05
1.40735e-05
1.41099e-05
1.41099e-05
1.41099e-05
1.4638e-05
1.4638e-05
1.4638e-05
1.46001e-05
1.46001e-05
1.46001e-05
1.44036e-05
1.44036e-05
1.44036e-05
1.45284e-05
1.45284e-05
1.45284e-05
1.45108e-05
1.45108e-05
1.45108e-05
1.44186e-05
1.44186e-05
1.44186e-05
1.44559e-05
1.44559e-05
1.44559e-05
1.44012e-05
1.44012e-05
1.44012e-05
1.4421e-05
1.4421e-05
1.4421e-05
1.44234e-05
1.44234e-05
1.44234e-05
1.44607e-05
1.44607e-05
1.44607e-05
1.4639e-05
1.4639e-05
1.4639e-05
1.4677e-05
1.4677e-05
1.4677e-05
1.40237e-05
1.40237e-05
1.40237e-05
1.40408e-05
1.40408e-05
1.40408e-05
1.40216e-05
1.40216e-05
1.40216e-05
1.39854e-05
1.39854e-05
1.39854e-05
1.39684e-05
1.39684e-05
1.39684e-05
1.39875e-05
1.39875e-05
1.39875e-05
1.40277e-05
1.40277e-05
1.40277e-05
1.39915e-05
1.39915e-05
1.39915e-05
1.39934e-05
1.39934e-05
1.39934e-05
1.39744e-05
1.39744e-05
1.39744e-05
1.41004e-05
1.41004e-05
1.41004e-05
1.41561e-05
1.41561e-05
1.41561e-05
1.41369e-05
1.41369e-05
1.41369e-05
1.39401e-05
1.39401e-05
1.39401e-05
1.39212e-05
1.39212e-05
1.39212e-05
1.3923e-05
1.3923e-05
1.3923e-05
1.37008e-05
1.37008e-05
1.37008e-05
1.36653e-05
1.36653e-05
1.36653e-05
1.3854e-05
1.3854e-05
1.3854e-05
1.39019e-05
1.39019e-05
1.39019e-05
1.39235e-05
1.39235e-05
1.39235e-05
1.39043e-05
1.39043e-05
1.39043e-05
1.39067e-05
1.39067e-05
1.39067e-05
1.38708e-05
1.38708e-05
1.38708e-05
1.37421e-05
1.37421e-05
1.37421e-05
1.36876e-05
1.36876e-05
1.36876e-05
1.37066e-05
1.37066e-05
1.37066e-05
1.35838e-05
1.35838e-05
1.35838e-05
1.34946e-05
1.34946e-05
1.34946e-05
1.35298e-05
1.35298e-05
1.35298e-05
1.35486e-05
1.35486e-05
1.35486e-05
1.35321e-05
1.35321e-05
1.35321e-05
1.34291e-05
1.34291e-05
1.34291e-05
1.31737e-05
1.31737e-05
1.31737e-05
1.31374e-05
1.31374e-05
1.31374e-05
1.31719e-05
1.31719e-05
1.31719e-05
1.319e-05
1.319e-05
1.319e-05
1.31918e-05
1.31918e-05
1.31918e-05
1.31936e-05
1.31936e-05
1.31936e-05
1.31754e-05
1.31754e-05
1.31754e-05
1.32264e-05
1.32264e-05
1.32264e-05
1.317e-05
1.317e-05
1.317e-05
1.31175e-05
1.31175e-05
1.31175e-05
1.31356e-05
1.31356e-05
1.31356e-05
1.31862e-05
1.31862e-05
1.31862e-05
1.32755e-05
1.32755e-05
1.32755e-05
1.32409e-05
1.32409e-05
1.32409e-05
1.32246e-05
1.32246e-05
1.32246e-05
1.32428e-05
1.32428e-05
1.32428e-05
1.34245e-05
1.34245e-05
1.34245e-05
1.33895e-05
1.33895e-05
1.33895e-05
1.33756e-05
1.33756e-05
1.33756e-05
1.33408e-05
1.33408e-05
1.33408e-05
1.33733e-05
1.33733e-05
1.33733e-05
1.33919e-05
1.33919e-05
1.33919e-05
1.42016e-05
1.42016e-05
1.42016e-05
1.41285e-05
1.41285e-05
1.41285e-05
1.41478e-05
1.41478e-05
1.41478e-05
1.41844e-05
1.41844e-05
1.41844e-05
1.41262e-05
1.41262e-05
1.41262e-05
1.41993e-05
1.41993e-05
1.41993e-05
1.41456e-05
1.41456e-05
1.41456e-05
1.41822e-05
1.41822e-05
1.41822e-05
1.41433e-05
1.41433e-05
1.41433e-05
1.41798e-05
1.41798e-05
1.41798e-05
1.42924e-05
1.42924e-05
1.42924e-05
1.42556e-05
1.42556e-05
1.42556e-05
1.4236e-05
1.4236e-05
1.4236e-05
1.43097e-05
1.43097e-05
1.43097e-05
1.42901e-05