<VTKFile type="UnstructuredGrid" version="1.0">
<UnstructuredGrid>
<Piece NumberOfPoints="8859" NumberOfCells="2953">
<Points>
<DataArray type="Float64" NumberOfComponents="3" format="ascii">
2.75455 1.50245 9.27262
2.76986 1.48714 9.28458
2.75465 1.50235 9.29833
2.78515 1.47185 9.22167
2.78516 1.47184 9.19652
2.8005 1.4565 9.20898
2.76981 1.48719 9.23436
2.78515 1.47185 9.22167
2.78514 1.47186 9.24686
2.72412 1.53288 9.32488
2.73952 1.51748 9.3325
2.70875 1.54825 9.3325
2.72412 1.53288 9.32488
2.73943 1.51757 9.30957
2.73952 1.51748 9.3325
2.75488 1.50212 9.32479
2.77036 1.48664 9.3325
2.73952 1.51748 9.3325
2.75488 1.50212 9.32479
2.73943 1.51757 9.30957
2.75465 1.50235 9.29833
2.73952 1.51748 9.3325
2.73943 1.51757 9.30957
2.75488 1.50212 9.32479
2.75465 1.50235 9.29833
2.76986 1.48714 9.28458
2.76997 1.48703 9.30927
2.76997 1.48703 9.30927
2.75488 1.50212 9.32479
2.75465 1.50235 9.29833
2.77036 1.48664 9.3325
2.75488 1.50212 9.32479
2.76997 1.48703 9.30927
2.76986 1.48714 9.28458
2.75455 1.50245 9.27262
2.76982 1.48718 9.25952
2.76981 1.48719 9.23436
2.78514 1.47186 9.24686
2.76982 1.48718 9.25952
2.7852 1.4718 9.29762
2.76997 1.48703 9.30927
2.76986 1.48714 9.28458
2.8005 1.4565 9.28395
2.8005 1.4565 9.30855
2.7852 1.4718 9.29762
2.8005 1.4565 9.18387
2.8005 1.4565 9.20898
2.78516 1.47184 9.19652
2.78515 1.47185 9.22167
2.8005 1.4565 9.20898
2.8005 1.4565 9.23406
2.8005 1.4565 9.23406
2.78514 1.47186 9.24686
2.78515 1.47185 9.22167
2.8005 1.4565 8.65652
2.8005 1.4565 8.68165
2.78518 1.47182 8.66907
2.78517 1.47183 9.12107
2.8005 1.4565 9.13361
2.78517 1.47183 9.14621
2.8005 1.4565 9.10848
2.8005 1.4565 9.13361
2.78517 1.47183 9.12107
2.78519 1.47181 8.99544
2.8005 1.4565 9.00799
2.78519 1.47181 9.02055
2.32274 1.93426 8.44059
2.33845 1.91855 8.4325
2.33845 1.91855 8.45563
2.27541 1.98159 9.3325
2.24359 2.01341 9.3325
2.25954 1.99746 9.32432
2.78515 1.47185 9.27212
2.76982 1.48718 9.25952
2.78514 1.47186 9.24686
2.76986 1.48714 9.28458
2.76982 1.48718 9.25952
2.78515 1.47185 9.27212
2.78515 1.47185 9.27212
2.7852 1.4718 9.29762
2.76986 1.48714 9.28458
2.8005 1.4565 9.28395
2.7852 1.4718 9.29762
2.78515 1.47185 9.27212
2.78544 1.47156 9.32384
2.8005 1.4565 9.30855
2.8005 1.4565 9.3325
2.78544 1.47156 9.32384
2.7852 1.4718 9.29762
2.8005 1.4565 9.30855
2.8005 1.4565 9.3325
2.77036 1.48664 9.3325
2.78544 1.47156 9.32384
2.77036 1.48664 9.3325
2.76997 1.48703 9.30927
2.78544 1.47156 9.32384
2.76997 1.48703 9.30927
2.7852 1.4718 9.29762
2.78544 1.47156 9.32384
2.78517 1.47183 9.14621
2.8005 1.4565 9.13361
2.8005 1.4565 9.15874
2.78514 1.47186 9.24686
2.8005 1.4565 9.23406
2.8005 1.4565 9.25907
2.8005 1.4565 9.28395
2.78515 1.47185 9.27212
2.8005 1.4565 9.25907
2.8005 1.4565 9.25907
2.78515 1.47185 9.27212
2.78514 1.47186 9.24686
2.8005 1.4565 8.98289
2.8005 1.4565 9.00799
2.78519 1.47181 8.99544
2.78518 1.47182 8.66907
2.8005 1.4565 8.68165
2.78518 1.47182 8.6942
2.76985 1.48715 9.10853
2.75454 1.50246 9.09598
2.76986 1.48714 9.08338
2.78516 1.47184 9.17136
2.8005 1.4565 9.18387
2.78516 1.47184 9.19652
2.78516 1.47184 9.17136
2.8005 1.4565 9.15874
2.8005 1.4565 9.18387
2.78516 1.47184 9.17136
2.76984 1.48716 9.15884
2.78517 1.47183 9.14621
2.78517 1.47183 9.14621
2.8005 1.4565 9.15874
2.78516 1.47184 9.17136
2.76982 1.48718 9.20918
2.78515 1.47185 9.22167
2.76981 1.48719 9.23436
2.76982 1.48718 9.20918
2.78516 1.47184 9.19652
2.78515 1.47185 9.22167
2.75451 1.50249 9.17149
2.7392 1.5178 9.18415
2.73921 1.51779 9.15894
2.53996 1.71704 9.29838
2.52458 1.73242 9.2849
2.53996 1.71704 9.27275
2.49374 1.76326 9.1338
2.49375 1.76325 9.159
2.47832 1.77868 9.14639
2.8005 1.4565 8.4325
2.8005 1.4565 8.45645
2.78544 1.47156 8.44116
2.27543 1.98157 9.30933
2.27541 1.98159 9.3325
2.25954 1.99746 9.32432
2.33845 1.91855 9.23446
2.32276 1.93424 9.24714
2.32275 1.93425 9.22185
2.25954 1.99746 9.32432
2.24359 2.01341 9.3325
2.24374 2.01326 9.30923
2.76987 1.48713 8.757
2.75455 1.50245 8.74443
2.76987 1.48713 8.73188
2.8005 1.4565 8.90759
2.78519 1.47181 8.89505
2.8005 1.4565 8.8825
2.78519 1.47181 8.94524
2.8005 1.4565 8.93269
2.8005 1.4565 8.95778
2.76988 1.48712 8.85741
2.75456 1.50244 8.86995
2.75456 1.50244 8.84486
2.76988 1.48712 8.8825
2.75456 1.50244 8.86995
2.76988 1.48712 8.85741
2.78519 1.47181 8.89505
2.76988 1.48712 8.90759
2.76988 1.48712 8.8825
2.75455 1.50245 9.02057
2.76987 1.48713 9.03312
2.75455 1.50245 9.0457
2.72393 1.53307 8.99547
2.72392 1.53308 9.02059
2.70861 1.54839 9.00803
2.75456 1.50244 8.99545
2.73924 1.51776 8.9829
2.75456 1.50244 8.97035
2.75456 1.50244 8.97035
2.76987 1.48713 8.98289
2.75456 1.50244 8.99545
2.73924 1.51776 8.9829
2.73925 1.51775 8.9578
2.75456 1.50244 8.97035
2.75456 1.50244 8.97035
2.73925 1.51775 8.9578
2.75456 1.50244 8.94524
2.8005 1.4565 8.95778
2.8005 1.4565 8.98289
2.78519 1.47181 8.97034
2.78519 1.47181 8.97034
2.78519 1.47181 8.94524
2.8005 1.4565 8.95778
2.78519 1.47181 8.97034
2.8005 1.4565 8.98289
2.78519 1.47181 8.99544
2.78519 1.47181 8.99544
2.76987 1.48713 8.98289
2.78519 1.47181 8.97034
2.75454 1.50246 9.07083
2.73923 1.51777 9.05828
2.75455 1.50245 9.0457
2.75454 1.50246 9.07083
2.76986 1.48714 9.08338
2.75454 1.50246 9.09598
2.7086 1.5484 9.0583
2.72392 1.53308 9.04572
2.72392 1.53308 9.07086
2.72392 1.53308 9.07086
2.72392 1.53308 9.04572
2.73923 1.51777 9.05828
2.8005 1.4565 9.0331
2.78519 1.47181 9.02055
2.8005 1.4565 9.00799
2.75455 1.50245 9.0457
2.76987 1.48713 9.03312
2.76986 1.48714 9.05825
2.76986 1.48714 9.05825
2.75454 1.50246 9.07083
2.75455 1.50245 9.0457
2.76986 1.48714 9.08338
2.75454 1.50246 9.07083
2.76986 1.48714 9.05825
2.78517 1.47183 9.14621
2.76984 1.48716 9.15884
2.76985 1.48715 9.13368
2.76985 1.48715 9.13368
2.78517 1.47183 9.12107
2.78517 1.47183 9.14621
2.76985 1.48715 9.10853
2.78517 1.47183 9.12107
2.76985 1.48715 9.13368
2.73921 1.51779 9.15894
2.73921 1.51779 9.13375
2.75452 1.50248 9.1463
2.75452 1.50248 9.1463
2.75451 1.50249 9.17149
2.73921 1.51779 9.15894
2.76984 1.48716 9.15884
2.75451 1.50249 9.17149
2.75452 1.50248 9.1463
2.75452 1.50248 9.1463
2.76985 1.48715 9.13368
2.76984 1.48716 9.15884
2.7239 1.5331 9.14638
2.73921 1.51779 9.13375
2.73921 1.51779 9.15894
2.7239 1.5331 9.14638
2.70859 1.54841 9.15901
2.70859 1.54841 9.13381
2.76981 1.48719 9.23436
2.76982 1.48718 9.25952
2.75451 1.50249 9.24722
2.75451 1.50249 9.24722
2.76982 1.48718 9.25952
2.75455 1.50245 9.27262
2.7392 1.5178 9.18415
2.75451 1.50249 9.17149
2.75451 1.50249 9.19669
2.75451 1.50249 9.19669
2.7392 1.5178 9.20937
2.7392 1.5178 9.18415
2.67798 1.57902 9.03317
2.66266 1.59434 9.04575
2.66266 1.59434 9.02061
2.70859 1.54841 9.13381
2.70859 1.54841 9.10862
2.7239 1.5331 9.12119
2.7239 1.5331 9.12119
2.7239 1.5331 9.14638
2.70859 1.54841 9.13381
2.73921 1.51779 9.13375
2.7239 1.5331 9.14638
2.7239 1.5331 9.12119
2.73922 1.51778 9.10858
2.73921 1.51779 9.13375
2.7239 1.5331 9.12119
2.57068 1.68632 9.27276
2.57068 1.68632 9.29839
2.55533 1.70167 9.28491
2.55533 1.70167 9.28491
2.57068 1.68632 9.29839
2.55533 1.70167 9.3095
2.55533 1.70167 9.28491
2.55533 1.70167 9.3095
2.53996 1.71704 9.29838
2.53996 1.71704 9.29838
2.53996 1.71704 9.27275
2.55533 1.70167 9.28491
2.52458 1.73242 9.25984
2.53996 1.71704 9.27275
2.52458 1.73242 9.2849
2.50912 1.74788 8.89505
2.50912 1.74788 8.92015
2.49371 1.76329 8.9076
2.41633 1.84067 9.02056
2.40077 1.85623 9.008
2.41632 1.84068 8.99545
2.41635 1.84065 9.07083
2.40081 1.85619 9.08339
2.40079 1.85621 9.05825
2.33845 1.91855 9.23446
2.32275 1.93425 9.22185
2.33843 1.91857 9.20924
2.33845 1.91855 9.25966
2.32276 1.93424 9.24714
2.33845 1.91855 9.23446
2.40087 1.85613 9.18412
2.40088 1.85612 9.20934
2.38531 1.87169 9.19672
2.30693 1.95007 9.13358
2.32265 1.93435 9.12103
2.32267 1.93433 9.1462
2.30684 1.95016 9.03303
2.29108 1.96592 9.04556
2.29106 1.96594 9.02046
2.32274 1.93426 9.32441
2.33845 1.91855 9.3325
2.30701 1.94999 9.3325
2.33845 1.91855 9.30937
2.33845 1.91855 9.3325
2.32274 1.93426 9.32441
2.35411 1.90289 9.32447
2.33845 1.91855 9.3325
2.33845 1.91855 9.30937
2.30704 1.94996 9.25961
2.30703 1.94997 9.28469
2.29128 1.96572 9.27246
2.55533 1.70167 9.3325
2.52458 1.73242 9.3325
2.53996 1.71704 9.32472
2.53996 1.71704 9.29838
2.55533 1.70167 9.3095
2.53996 1.71704 9.32472
2.53996 1.71704 9.32472
2.55533 1.70167 9.3095
2.55533 1.70167 9.3325
2.52458 1.73242 9.30949
2.52458 1.73242 9.2849
2.53996 1.71704 9.29838
2.53996 1.71704 9.29838
2.53996 1.71704 9.32472
2.52458 1.73242 9.30949
2.52458 1.73242 9.30949
2.53996 1.71704 9.32472
2.52458 1.73242 9.3325
2.41642 1.84058 9.19676
2.40088 1.85612 9.20934
2.40087 1.85613 9.18412
2.47831 1.77869 9.1212
2.49374 1.76326 9.10862
2.49374 1.76326 9.1338
2.49374 1.76326 9.1338
2.47832 1.77868 9.14639
2.47831 1.77869 9.1212
2.47833 1.77867 9.1716
2.47832 1.77868 9.14639
2.49375 1.76325 9.159
2.47833 1.77867 9.1716
2.49375 1.76325 9.159
2.49376 1.76324 9.18421
2.49376 1.76324 9.18421
2.47834 1.77866 9.19682
2.47833 1.77867 9.1716
2.47833 1.77867 9.1716
2.47834 1.77866 9.19682
2.46289 1.79411 9.18419
2.49377 1.76323 9.20943
2.47834 1.77866 9.19682
2.49376 1.76324 9.18421
2.49377 1.76323 9.23464
2.47835 1.77865 9.24734
2.47834 1.77866 9.22206
2.47834 1.77866 9.22206
2.49377 1.76323 9.20943
2.49377 1.76323 9.23464
2.47834 1.77866 9.19682
2.49377 1.76323 9.20943
2.47834 1.77866 9.22206
2.7852 1.4718 8.46738
2.78544 1.47156 8.44116
2.8005 1.4565 8.45645
2.76997 1.48703 8.45573
2.78544 1.47156 8.44116
2.7852 1.4718 8.46738
2.64739 1.60961 8.45548
2.64738 1.60962 8.4325
2.66272 1.59428 8.44021
2.70875 1.54825 8.4325
2.6934 1.5636 8.44017
2.67805 1.57895 8.4325
2.67805 1.57895 8.4325
2.66272 1.59428 8.44021
2.64738 1.60962 8.4325
2.19638 2.06062 8.46897
2.1963 2.0607 8.44286
2.2122 2.0448 8.45645
2.2122 2.0448 8.45645
2.22771 2.02929 8.44101
2.22802 2.02898 8.46745
2.18073 2.07627 8.45782
2.1963 2.0607 8.44286
2.19638 2.06062 8.46897
2.18073 2.07627 8.45782
2.18123 2.07577 8.4325
2.1963 2.0607 8.44286
2.27543 1.98157 8.45567
2.27541 1.98159 8.4325
2.29123 1.96577 8.44063
2.30701 1.94999 8.4325
[...]
<PointData Scalars="View Factor" >
<DataArray type="Float64" Name="View Factor" NumberOfComponents="1" format="ascii">
0.0581081
0.0581081
0.0581081
0.0544805
0.0544805
0.0544805
0.0556397
0.0556397
0.0556397
0.0590136
0.0590136
0.0590136
0.0591908
0.0591908
0.0591908
0.0614477
0.0614477
0.0614477
0.0594377
0.0594377
0.0594377
0.0599932
0.0599932
0.0599932
0.0594788
0.0594788
0.0594788
0.0602091
0.0602091
0.0602091
0.0615713
0.0615713
0.0615713
0.0574571
0.0574571
0.0574571
0.0562322
0.0562322
0.0562322
0.0602183
0.0602183
0.0602183
0.0616788
0.0616788
0.0616788
0.0539155
0.0539155
0.0539155
0.0557406
0.0557406
0.0557406
0.0563369
0.0563369
0.0563369
0.0283476
0.0283476
0.0283476
0.0493493
0.0493493
0.0493493
0.0488638
0.0488638
0.0488638
0.0420678
0.0420678
0.0420678
0.0104799
0.0104799
0.0104799
0.0292267
0.0292267
0.0292267
0.0575613
0.0575613
0.0575613
0.0581842
0.0581842
0.0581842
0.0595753
0.0595753
0.0595753
0.0602993
0.0602993
0.0602993
0.0638245
0.0638245
0.0638245
0.0624378
0.0624378
0.0624378
0.0637713
0.0637713
0.0637713
0.0623226
0.0623226
0.0623226
0.0617007
0.0617007
0.0617007
0.0504799
0.0504799
0.0504799
0.0576411
0.0576411
0.0576411
0.0596194
0.0596194
0.0596194
0.0582728
0.0582728
0.0582728
0.0416876
0.0416876
0.0416876
0.0285582
0.0285582
0.0285582
0.0454843
0.0454843
0.0454843
0.0526993
0.0526993
0.0526993
0.0521628
0.0521628
0.0521628
0.0503419
0.0503419
0.0503419
0.0509905
0.0509905
0.0509905
0.0543622
0.0543622
0.0543622
0.0537988
0.0537988
0.0537988
0.0488449
0.0488449
0.0488449
0.0402843
0.0402843
0.0402843
0.0300192
0.0300192
0.0300192
0.0221531
0.0221531
0.0221531
0.0290278
0.0290278
0.0290278
0.0265326
0.0265326
0.0265326
0.0288019
0.0288019
0.0288019
0.0296359
0.0296359
0.0296359
0.036877
0.036877
0.036877
0.03919
0.03919
0.03919
0.0336026
0.0336026
0.0336026
0.0343519
0.0343519
0.0343519
0.0358975
0.0358975
0.0358975
0.0416964
0.0416964
0.0416964
0.0381382
0.0381382
0.0381382
0.0386077
0.0386077
0.0386077
0.0391539
0.0391539
0.0391539
0.0377404
0.0377404
0.0377404
0.0374248
0.0374248
0.0374248
0.0404146
0.0404146
0.0404146
0.0395352
0.0395352
0.0395352
0.0407769
0.0407769
0.0407769
0.0402386
0.0402386
0.0402386
0.0424523
0.0424523
0.0424523
0.0444517
0.0444517
0.0444517
0.0406547
0.0406547
0.0406547
0.0412569
0.0412569
0.0412569
0.0430113
0.0430113
0.0430113
0.0426557
0.0426557
0.0426557
0.0430458
0.0430458
0.0430458
0.0440409
0.0440409
0.0440409
0.0491997
0.0491997
0.0491997
0.0487173
0.0487173
0.0487173
0.0476161
0.0476161
0.0476161
0.0472477
0.0472477
0.0472477
0.0483704
0.0483704
0.0483704
0.0490319
0.0490319
0.0490319
0.0485531
0.0485531
0.0485531
0.0465889
0.0465889
0.0465889
0.0452591
0.0452591
0.0452591
0.0555195
0.0555195
0.0555195
0.0561221
0.0561221
0.0561221
0.0500114
0.0500114
0.0500114
0.0505127
0.0505127
0.0505127
0.0364101
0.0364101
0.0364101
0.0437825
0.0437825
0.0437825
0.0448418
0.0448418
0.0448418
0.0454972
0.0454972
0.0454972
0.0450747
0.0450747
0.0450747
0.0428131
0.0428131
0.0428131
0.0431473
0.0431473
0.0431473
0.0422911
0.0422911
0.0422911
0.0411288
0.0411288
0.0411288
0.039132
0.039132
0.039132
0.0228221
0.0228221
0.0228221
0.0210792
0.0210792
0.0210792
0.0227454
0.0227454
0.0227454
0.0261723
0.0261723
0.0261723
0.027102
0.027102
0.027102
0.0266648
0.0266648
0.0266648
0.0230014
0.0230014
0.0230014
0.0199856
0.0199856
0.0199856
0.0302514
0.0302514
0.0302514
0.0301463
0.0301463
0.0301463
0.0303946
0.0303946
0.0303946
0.0274934
0.0274934
0.0274934
0.0434321
0.0434321
0.0434321
0.0426766
0.0426766
0.0426766
0.0438339
0.0438339
0.0438339
0.0405739
0.0405739
0.0405739
0.0418024
0.0418024
0.0418024
0.0420585
0.0420585
0.0420585
0.0269387
0.0269387
0.0269387
0.0290154
0.0290154
0.0290154
0.0291667
0.0291667
0.0291667
0.0301821
0.0301821
0.0301821
0.0310702
0.0310702
0.0310702
0.0312457
0.0312457
0.0312457
0.0305083
0.0305083
0.0305083
0.0321716
0.0321716
0.0321716
0.033529
0.033529
0.033529
0.0333253
0.0333253
0.0333253
0.0323603
0.0323603
0.0323603
0.0222752
0.0222752
0.0222752
0.0219633
0.0219633
0.0219633
0.0178579
0.0178579
0.0178579
0.0189315
0.0189315
0.0189315
0.018018
0.018018
0.018018
0.0102998
0.0102998
0.0102998
0.0102883
0.0102883
0.0102883
0.0103119
0.0103119
0.0103119
0.0101921
0.0101921
0.0101921
0.0102645
0.0102645
0.0102645
0.0103458
0.0103458
0.0103458
0.0102182
0.0102182
0.0102182
0.0122067
0.0122067
0.0122067
0.012362
0.012362
0.012362
0.0297021
0.0297021
0.0297021
0.0279081
0.0279081
0.0279081
0.0284836
0.0284836
0.0284836
0.0195356
0.0195356
0.0195356
0.0198873
0.0198873
0.0198873
0.0242915
0.0242915
0.0242915
0.0277601
0.0277601
0.0277601
0.0347321
0.0347321
0.0347321
0.031419
0.031419
0.031419
0.0316608
0.0316608
0.0316608
0.0305114
0.0305114
0.0305114
0.0307425
0.0307425
0.0307425
0.0303042
0.0303042
0.0303042
0.029647
0.029647
0.029647
0.0294304
0.0294304
0.0294304
0.0298568
0.0298568
0.0298568
0.014804
0.014804
0.014804
0.0148303
0.0148303
0.0148303
0.0143841
0.0143841
0.0143841
0.0287949
0.0287949
0.0287949
0.0291648
0.0291648
0.0291648
0.034682
0.034682
0.034682
0.0335176
0.0335176
0.0335176
0.0369936
0.0369936
0.0369936
0.0312414
0.0312414
0.0312414
0.0318565
0.0318565
0.0318565
0.0311123
0.0311123
0.0311123
0.0305965
0.0305965
0.0305965
0.0308101
0.0308101
0.0308101
0.0331269
0.0331269
0.0331269
0.0357845
0.0357845
0.0357845
0.0360849
0.0360849
0.0360849
0.0356018
0.0356018
0.0356018
0.0348315
0.0348315
0.0348315
0.0345488
0.0345488
0.0345488
0.0350191
0.0350191
0.0350191
0.0268117
0.0268117
0.0268117
0.0266551
0.0266551
0.0266551
0.0289772
0.0289772
0.0289772
0.0296727
0.0296727
0.0296727
0.0298753
0.0298753
0.0298753
0.0293658
0.0293658
0.0293658
0.0258547
0.0258547
0.0258547
0.0252256
0.0252256
0.0252256
0.0255064
0.0255064
0.0255064
0.0260027
0.0260027
0.0260027
0.0284825
0.0284825
0.0284825
0.0286686
0.0286686
0.0286686
0.0418906
0.0418906
0.0418906
0.0413255
0.0413255
0.0413255
0.0404001
0.0404001
0.0404001
0.0415149
0.0415149
0.0415149
0.0405965
0.0405965
0.0405965
0.0400467
0.0400467
0.0400467
0.0387072
0.0387072
0.0387072
0.0398386
0.0398386
0.0398386
0.0389388
0.0389388
0.0389388
0.0383812
0.0383812
0.0383812
0.0347368
0.0347368
0.0347368
0.0350005
0.0350005
0.0350005
0.0344677
0.0344677
0.0344677
0.0390113
0.0390113
0.0390113
0.0376355
0.0376355
0.0376355
0.0381561
0.0381561
0.0381561
0.0379561
0.0379561
0.0379561
0.0388176
0.0388176
0.0388176
0.0393526
0.0393526
0.0393526
0.0414856
0.0414856
0.0414856
0.0408959
0.0408959
0.0408959
0.0399561
0.0399561
0.0399561
0.0411191
0.0411191
0.0411191
0.0396129
0.0396129
0.0396129
0.0401863
0.0401863
0.0401863
0.0393707
0.0393707
0.0393707
0.0384589
0.0384589
0.0384589
0.0378783
0.0378783
0.0378783
0.0397084
0.0397084
0.0397084
0.0428379
0.0428379
0.0428379
0.0422315
0.0422315
0.0422315
0.0438417
0.0438417
0.0438417
0.0442474
0.0442474
0.0442474
0.0410097
0.0410097
0.0410097
0.0428415
0.0428415
0.0428415
0.0434096
0.0434096
0.0434096
0.0443881
0.0443881
0.0443881
0.0432363
0.0432363
0.0432363
0.0473117
0.0473117
0.0473117
0.0460974
0.0460974
0.0460974
0.0477737
0.0477737
0.0477737
0.0471581
0.0471581
0.0471581
0.0458207
0.0458207
0.0458207
0.0448073
0.0448073
0.0448073
0.0442238
0.0442238
0.0442238
0.0446376
0.0446376
0.0446376
0.0456608
0.0456608
0.0456608
0.0462602
0.0462602
0.0462602
0.0457156
0.0457156
0.0457156
0.0469864
0.0469864
0.0469864
0.0467971
0.0467971
0.0467971
0.0474412
0.0474412
0.0474412
0.0452884
0.0452884
0.0452884
0.0459153
0.0459153
0.0459153
0.0481679
0.0481679
0.0481679
0.0470348
0.0470348
0.0470348
0.0463608
0.0463608
0.0463608
0.0536652
0.0536652
0.0536652
0.052254
0.052254
0.052254
0.0524213
0.0524213
0.0524213
0.0517246
0.0517246
0.0517246
0.0542295
0.0542295
0.0542295
0.0535153
0.0535153
0.0535153
0.0579586
0.0579586
0.0579586
0.0573583
0.0573583
0.0573583
0.0578585
0.0578585
0.0578585
0.0571835
0.0571835
0.0571835
0.0558302
0.0558302
0.0558302
0.0540745
0.0540745
0.0540745
0.0552233
0.0552233
0.0552233
0.0553904
0.0553904
0.0553904
0.0559763
0.0559763
0.0559763
0.0506905
0.0506905
0.0506905
0.052034
0.052034
0.052034
0.0525687
0.0525687
0.0525687
0.0518883
0.0518883
0.0518883
0.0508488
0.0508488
0.0508488
0.0501853
0.0501853
0.0501853
0.0311761
0.0311761
0.0311761
0.030392
0.030392
0.030392
0.0329335
0.0329335
0.0329335
0.0317626
0.0317626
0.0317626
0.0373047
0.0373047
0.0373047
0.0461135
0.0461135
0.0461135
0.044719
0.044719
0.044719
0.0444196
0.0444196
0.0444196
0.0229168
0.0229168
0.0229168
0.0233385
0.0233385
0.0233385
0.0256474
0.0256474
0.0256474
0.0263002
0.0263002
0.0263002
0.0206451
0.0206451
0.0206451
0.0226511
0.0226511
0.0226511
0.0213153
0.0213153
0.0213153
0.0189368
0.0189368
0.0189368
0.0190157
0.0190157
0.0190157
0.0187934
0.0187934
0.0187934
0.0256286
0.0256286
0.0256286
0.0274822
0.0274822
0.0274822
0.0272844
0.0272844
0.0272844
0.0276717
0.0276717
0.0276717
0.0263785
0.0263785
0.0263785
0.0260317
0.0260317
0.0260317
0.026833
0.026833
0.026833
0.0262538
0.0262538
0.0262538
0.0242088
0.0242088
0.0242088
0.0244255
0.0244255
0.0244255
0.0238119
0.0238119
0.0238119
0.0236319
0.0236319
0.0236319
0.0231585
0.0231585
0.0231585
0.0228496
0.0228496
0.0228496
0.0261535
0.0261535
0.0261535
0.0259169
0.0259169
0.0259169
0.0225533
0.0225533
0.0225533
0.0222579
0.0222579
0.0222579
0.0216906
0.0216906
0.0216906
0.0197275
0.0197275
0.0197275
0.0310041
0.0310041
0.0310041
0.0319061
0.0319061
0.0319061
0.0263437
0.0263437
0.0263437
0.0267157
0.0267157
0.0267157
0.0407341
0.0407341
0.0407341
0.0411679
0.0411679
0.0411679
0.0257594
0.0257594
0.0257594
0.0258716
0.0258716
0.0258716
0.0287117
0.0287117
0.0287117
0.0347731
0.0347731
0.0347731
0.0296206
0.0296206
0.0296206
0.0294695
0.0294695
0.0294695
0.0327386
0.0327386
0.0327386
0.0311596
0.0311596
0.0311596
0.0216701
0.0216701
0.0216701
0.021546
0.021546
0.021546
0.0204043
0.0204043
0.0204043
0.0203144
0.0203144
0.0203144
0.019846
0.019846
0.019846
0.0101787
0.0101787
0.0101787
0.0102934
0.0102934
0.0102934
0.010132
0.010132
0.010132
0.0101922
0.0101922
0.0101922
0.0103205
0.0103205
0.0103205
0.0102355
0.0102355
0.0102355
0.0103424
0.0103424
0.0103424
0.0104956
0.0104956
0.0104956
0.0104269
0.0104269
0.0104269
0.0105681
0.0105681
0.0105681
0.010432
0.010432
0.010432
0.010173
0.010173
0.010173
0.0101666
0.0101666
0.0101666
0.0100969
0.0100969
0.0100969
0.0100902
0.0100902
0.0100902
0.0118602
0.0118602
0.0118602
0.0161507
0.0161507
0.0161507
0.0122281
0.0122281
0.0122281
0.0150138
0.0150138
0.0150138
0.014598
0.014598
0.014598
0.0147906
0.0147906
0.0147906
0.0145574
0.0145574
0.0145574
0.0147702
0.0147702
0.0147702
0.0130798
0.0130798
0.0130798
0.0141491
0.0141491
0.0141491
0.0170778
0.0170778
0.0170778
0.0158727
0.0158727
0.0158727
0.0161173
0.0161173
0.0161173
0.012208
0.012208
0.012208
0.0122277
0.0122277
0.0122277
0.0121881
0.0121881
0.0121881
0.0121878
0.0121878
0.0121878
0.0123528
0.0123528
0.0123528
0.0129682
0.0129682
0.0129682
0.0123999
0.0123999
0.0123999
0.0120781
0.0120781
0.0120781
0.0122256
0.0122256
0.0122256
0.0166852
0.0166852
0.0166852
0.0170084
0.0170084
0.0170084
0.0172412
0.0172412
0.0172412
0.0176846
0.0176846
0.0176846
0.0175007
0.0175007
0.0175007
0.0171609
0.0171609
0.0171609
0.0202551
0.0202551
0.0202551
0.0191485
0.0191485
0.0191485
0.0160603
0.0160603
0.0160603
0.015872
0.015872
0.015872
0.0295368
0.0295368
0.0295368
0.0293193
0.0293193
0.0293193
0.0286706
0.0286706
0.0286706
0.0282733
0.0282733
0.0282733
0.0295059
0.0295059
0.0295059
0.0289359
0.0289359
0.0289359
0.0296552
0.0296552
0.0296552
0.0291692
0.0291692
0.0291692
0.0287711
0.0287711
0.0287711
0.018416
0.018416
0.018416
0.0189835
0.0189835
0.0189835
0.0186803
0.0186803
0.0186803
0.0201559
0.0201559
0.0201559
0.0207164
0.0207164
0.0207164
0.020353
0.020353
0.020353
0.0200727
0.0200727
0.0200727
0.0199415
0.0199415
0.0199415
0.0205783
0.0205783
0.0205783
0.0202857
0.0202857
0.0202857
0.0205278
0.0205278
0.0205278
0.0239551
0.0239551
0.0239551
0.0233104
0.0233104
0.0233104
0.0224096
0.0224096
0.0224096
0.022091
0.022091
0.022091
0.0241612
0.0241612
0.0241612
0.0287143
0.0287143
0.0287143
0.0289686
0.0289686
0.0289686
0.0285983
0.0285983
0.0285983
0.0277509
0.0277509
0.0277509
0.028162
0.028162
0.028162
0.0284946
0.0284946
0.0284946
0.0283838
0.0283838
0.0283838
0.0280271
0.0280271
0.0280271
0.0274869
0.0274869
0.0274869
0.0200939
0.0200939
0.0200939
0.0197
0.0197
0.0197
0.019393
0.019393
0.019393
0.0194731
0.0194731
0.0194731
0.0184719
0.0184719
0.0184719
0.0187789
0.0187789
0.0187789
0.0191624
0.0191624
0.0191624
0.0191148
0.0191148
0.0191148
0.022113
0.022113
0.022113
0.021796
0.021796
0.021796
0.0208522
0.0208522
0.0208522
0.0211667
0.0211667
0.0211667
0.0323607
0.0323607
0.0323607
0.0326137
0.0326137
0.0326137
0.0333373
0.0333373
0.0333373
0.0338041
0.0338041
0.0338041
0.0327404
0.0327404
0.0327404
0.0318611
0.0318611
0.0318611
0.0312104
0.0312104
0.0312104
0.0303054
0.0303054
0.0303054
0.0300841
0.0300841
0.0300841
0.0305303
0.0305303
0.0305303
0.0212128
0.0212128
0.0212128
0.02104
0.02104
0.02104
0.0181897
0.0181897
0.0181897
0.0178601
0.0178601
0.0178601
0.0174667
0.0174667
0.0174667
0.0170255
0.0170255
0.0170255
0.0178008
0.0178008
0.0178008
0.0169758
0.0169758
0.0169758
0.0173579
0.0173579
0.0173579
0.0183179
0.0183179
0.0183179
0.0175196
0.0175196
0.0175196
0.0176224
0.0176224
0.0176224
0.0128301
0.0128301
0.0128301
0.0166392
0.0166392
0.0166392
0.0131678
0.0131678
0.0131678
0.0220554
0.0220554
0.0220554
0.020953
0.020953
0.020953
0.0204268
0.0204268
0.0204268
0.0200936
0.0200936
0.0200936
0.0204176
0.0204176
0.0204176
0.0205078
0.0205078
0.0205078
0.0151971
0.0151971
0.0151971
0.0175512
0.0175512
0.0175512
0.0170747
0.0170747
0.0170747
0.0166795
0.0166795
0.0166795
0.0163702
0.0163702
0.0163702
0.0160211
0.0160211
0.0160211
0.0181243
0.0181243
0.0181243
0.0187398
0.0187398
0.0187398
0.0179912
0.0179912
0.0179912
0.0290031
0.0290031
0.0290031
0.028588
0.028588
0.028588
0.0227052
0.0227052
0.0227052
0.0235493
0.0235493
0.0235493
0.0230012
0.0230012
0.0230012
0.0225851
0.0225851
0.0225851
0.0257089
0.0257089
0.0257089
0.0258802
0.0258802
0.0258802
0.0287841
0.0287841
0.0287841
0.0293842
0.0293842
0.0293842
0.0300113
0.0300113
0.0300113
0.0308886
0.0308886
0.0308886
0.0300548
0.0300548
0.0300548
0.02983
0.02983
0.02983
0.0302413
0.0302413
0.0302413
0.0317978
0.0317978
0.0317978
0.0320485
0.0320485
0.0320485
0.0316147
0.0316147
0.0316147
0.0309417
0.0309417
0.0309417
0.0307059
0.0307059
0.0307059
0.0311283
0.0311283
0.0311283
0.0383413
0.0383413
0.0383413
0.0378314
0.0378314
0.0378314
0.0370056
0.0370056
0.0370056
0.0380115
0.0380115
0.0380115
0.0366953
0.0366953
0.0366953
0.0371916
0.0371916
0.0371916
0.0335981
0.0335981
0.0335981
0.0332744
0.0332744
0.0332744
0.0338481
0.0338481
0.0338481
0.0327943
0.0327943
0.0327943
0.0364183
0.0364183
0.0364183
0.0352624
0.0352624
0.0352624
0.0361241
0.0361241
0.0361241
0.0367106
0.0367106
0.0367106
0.0341615
0.0341615
0.0341615
0.0349917
0.0349917
0.0349917
0.0355613
0.0355613
0.0355613
0.0352841
0.0352841
0.0352841
0.0334181
0.0334181
0.0334181
0.0323783
0.0323783
0.0323783
0.0336745
0.0336745
0.0336745
0.0331471
0.0331471
0.0331471
0.0347248
0.0347248
0.0347248
0.0339359
0.0339359
0.0339359
0.0301736
0.0301736
0.0301736
0.0308921
0.0308921
0.0308921
0.0317819
0.0317819
0.0317819
0.0325569
0.0325569
0.0325569
0.032088
0.032088
0.032088
0.0315569
0.0315569
0.0315569
0.0298512
0.0298512
0.0298512
0.0300673
0.0300673
0.0300673
0.0314387
0.0314387
0.0314387
0.032399
0.032399
0.032399
0.0321508
0.0321508
0.0321508
0.0309887
0.0309887
0.0309887
0.0314474
0.0314474
0.0314474
0.0324676
0.0324676
0.0324676
0.0322375
0.0322375
0.0322375
0.0314596
0.0314596
0.0314596
0.0309097
0.0309097
0.0309097
0.0311211
0.0311211
0.0311211
0.0319009
0.0319009
0.0319009
0.032124
0.032124
0.032124
0.0315475
0.0315475
0.0315475
0.0304922
0.0304922
0.0304922
0.0302854
0.0302854
0.0302854
0.0295621
0.0295621
0.0295621
0.0290441
0.0290441
0.0290441
0.0274877
0.0274877
0.0274877
0.0280069
0.0280069
0.0280069
0.0278095
0.0278095
0.0278095
0.0265083
0.0265083
0.0265083
0.0271589
0.0271589
0.0271589
0.0281658
0.0281658
0.0281658
0.0278343
0.0278343
0.0278343
0.0283453
0.0283453
0.0283453
0.0246652
0.0246652
0.0246652
0.0215851
0.0215851
0.0215851
0.0216776
0.0216776
0.0216776
0.024744
0.024744
0.024744
0.024877
0.024877
0.024877
0.0355589
0.0355589
0.0355589
0.0358429
0.0358429
0.0358429
0.0372594
0.0372594
0.0372594
0.0366952
0.0366952
0.0366952
0.0363558
0.0363558
0.0363558
0.0358181
0.0358181
0.0358181
0.0371982
0.0371982
0.0371982
0.0361071
0.0361071
0.0361071
0.0375081
0.0375081
0.0375081
0.036955
0.036955
0.036955
0.0417342
0.0417342
0.0417342
0.0426113
0.0426113
0.0426113
0.0419918
0.0419918
0.0419918
0.0436239
0.0436239
0.0436239
0.0423671
0.0423671
0.0423671
0.0440248
0.0440248
0.0440248
0.0433876
0.0433876
0.0433876
0.0575639
0.0575639
0.0575639
0.0570561
0.0570561
0.0570561
0.053904
0.053904
0.053904
0.0533414
0.0533414
0.0533414
0.0281048
0.0281048
0.0281048
0.0334969
0.0334969
0.0334969
0.0332636
0.0332636
0.0332636
0.034612
0.034612
0.034612
0.0358122
0.0358122
0.0358122
0.0349463
0.0349463
0.0349463
0.0343551
0.0343551
0.0343551
0.0369446
0.0369446
0.0369446
0.0379088
0.0379088
0.0379088
0.0391109
0.0391109
0.0391109
0.0376005
0.0376005
0.0376005
0.0381928
0.0381928
0.0381928
0.0391577
0.0391577
0.0391577
0.0401169
0.0401169
0.0401169
0.0407447
0.0407447
0.0407447
0.0403948
0.0403948
0.0403948
0.0394422
0.0394422
0.0394422
0.0388324
0.0388324
0.0388324
0.0385355
0.0385355
0.0385355
0.0388539
0.0388539
0.0388539
0.0382192
0.0382192
0.0382192
0.0376064
0.0376064
0.0376064
0.0431312
0.0431312
0.0431312
0.0421034
0.0421034
0.0421034
0.0395021
0.0395021
0.0395021
0.0378839
0.0378839
0.0378839
0.0385312
0.0385312
0.0385312
0.0381877
0.0381877
0.0381877
0.0398316
0.0398316
0.0398316
0.0391643
0.0391643
0.0391643
0.0345347
0.0345347
0.0345347
0.0353394
0.0353394
0.0353394
0.0358019
0.0358019
0.0358019
0.0347559
0.0347559
0.0347559
0.0383002
0.0383002
0.0383002
0.0372121
0.0372121
0.0372121
0.0366352
0.0366352
0.0366352
0.0363935
0.0363935
0.0363935
0.0219896
0.0219896
0.0219896
0.0224877
0.0224877
0.0224877
0.0217684
0.0217684
0.0217684
0.0220146
0.0220146
0.0220146
0.0226483
0.0226483
0.0226483
0.0300012
0.0300012
0.0300012
0.0298138
0.0298138
0.0298138
0.0298077
0.0298077
0.0298077
0.0292561
0.0292561
0.0292561
0.0294414
0.0294414
0.0294414
0.0305618
0.0305618
0.0305618
0.0301968
0.0301968
0.0301968
0.0307656
0.0307656
0.0307656
0.0277593
0.0277593
0.0277593
0.0288808
0.0288808
0.0288808
0.0290578
0.0290578
0.0290578
0.0284882
0.0284882
0.0284882
0.0285292
0.0285292
0.0285292
0.0283545
0.0283545
0.0283545
0.0276527
0.0276527
0.0276527
0.0239659
0.0239659
0.0239659
0.0244916
0.0244916
0.0244916
0.0251432
0.0251432
0.0251432
0.0252682
0.0252682
0.0252682
0.0204194
0.0204194
0.0204194
0.0197454
0.0197454
0.0197454
0.0197945
0.0197945
0.0197945
0.0191935
0.0191935
0.0191935
0.0211123
0.0211123
0.0211123
0.0193838
0.0193838
0.0193838
0.0184406
0.0184406
0.0184406
0.0182269
0.0182269
0.0182269
0.0178881
0.0178881
0.0178881
0.0254826
0.0254826
0.0254826
0.0252856
0.0252856
0.0252856
0.0245149
0.0245149
0.0245149
0.0250431
0.0250431
0.0250431
0.0253637
0.0253637
0.0253637
0.0251514
0.0251514
0.0251514
0.024312
0.024312
0.024312
0.024628
0.024628
0.024628
0.0245945
0.0245945
0.0245945
0.0241031
0.0241031
0.0241031
0.0237791
0.0237791
0.0237791
0.0239436
0.0239436
0.0239436
0.0244397
0.0244397
0.0244397
0.0247668
0.0247668
0.0247668
0.0280768
0.0280768
0.0280768
0.028303
0.028303
0.028303
0.0290946
0.0290946
0.0290946
0.0284806
0.0284806
0.0284806
0.0269992
0.0269992
0.0269992
0.0270805
0.0270805
0.0270805
0.0267377
0.0267377
0.0267377
0.0275589
0.0275589
0.0275589
0.0235105
0.0235105
0.0235105
0.0229303
0.0229303
0.0229303
0.0234123
0.0234123
0.0234123
0.0237046
0.0237046
0.0237046
0.0222879
0.0222879
0.0222879
0.0228605
0.0228605
0.0228605
0.0227445
0.0227445
0.0227445
0.0230326
0.0230326
0.0230326
0.0221234
0.0221234
0.0221234
0.0224081
0.0224081
0.0224081
0.0221131
0.0221131
0.0221131
0.0225783
0.0225783