<VTKFile type="UnstructuredGrid" version="1.0">
<UnstructuredGrid>
<Piece NumberOfPoints="8859" NumberOfCells="2953">
<Points>
<DataArray type="Float64" NumberOfComponents="3" format="ascii">
0.5 3.01 13.49
0.512524 3.01 13.5125
0.487476 3.01 13.5125
0.17352 3.01 12.6125
0.160827 3.01 12.6342
0.148445 3.01 12.6125
0.122979 3.01 12.6559
0.110383 3.01 12.6342
0.135644 3.01 12.6342
0.135644 3.01 12.6342
0.110383 3.01 12.6342
0.123433 3.01 12.6125
0.123433 3.01 12.6125
0.148445 3.01 12.6125
0.135644 3.01 12.6342
0.135644 3.01 12.6342
0.148445 3.01 12.6125
0.160827 3.01 12.6342
0.17352 3.01 12.6125
0.198629 3.01 12.6125
0.185985 3.01 12.6342
0.185985 3.01 12.6342
0.160827 3.01 12.6342
0.17352 3.01 12.6125
0.0732297 3.01 12.6557
0.0586606 3.01 12.6338
0.0848754 3.01 12.6341
0.05 3.01 13.4453
0.05 3.01 13.4001
0.058509 3.01 13.4226
0.324276 3.01 12.6125
0.349395 3.01 12.6125
0.336827 3.01 12.6342
0.148138 3.01 12.6559
0.135644 3.01 12.6342
0.160827 3.01 12.6342
0.122979 3.01 12.6559
0.135644 3.01 12.6342
0.148138 3.01 12.6559
0.160827 3.01 12.6342
0.185985 3.01 12.6342
0.173316 3.01 12.6559
0.185806 3.01 12.6775
0.160572 3.01 12.6776
0.173316 3.01 12.6559
0.173316 3.01 12.6559
0.148138 3.01 12.6559
0.160827 3.01 12.6342
0.160572 3.01 12.6776
0.148138 3.01 12.6559
0.173316 3.01 12.6559
0.211137 3.01 12.6342
0.185985 3.01 12.6342
0.198629 3.01 12.6125
0.0979162 3.01 12.6558
0.110383 3.01 12.6342
0.122979 3.01 12.6559
0.122979 3.01 12.6559
0.109875 3.01 12.6775
0.0979162 3.01 12.6558
0.0732297 3.01 12.6557
0.0848754 3.01 12.6341
0.0979162 3.01 12.6558
0.0979162 3.01 12.6558
0.0848754 3.01 12.6341
0.110383 3.01 12.6342
0.0975729 3.01 12.699
0.109875 3.01 12.6775
0.122678 3.01 12.6991
0.0841718 3.01 12.6773
0.0577122 3.01 12.677
0.0732297 3.01 12.6557
0.0729308 3.01 12.6989
0.0577122 3.01 12.677
0.0841718 3.01 12.6773
0.0732297 3.01 12.6557
0.0979162 3.01 12.6558
0.0841718 3.01 12.6773
0.0841718 3.01 12.6773
0.0979162 3.01 12.6558
0.109875 3.01 12.6775
0.0975729 3.01 12.699
0.0729308 3.01 12.6989
0.0841718 3.01 12.6773
0.0841718 3.01 12.6773
0.109875 3.01 12.6775
0.0975729 3.01 12.699
0.073948 3.01 12.6125
0.0586606 3.01 12.6338
0.05 3.01 12.6125
0.073948 3.01 12.6125
0.0848754 3.01 12.6341
0.0586606 3.01 12.6338
0.05 3.01 13.4883
0.05 3.01 13.4453
0.0603641 3.01 13.467
0.0603641 3.01 13.467
0.0753197 3.01 13.489
0.05 3.01 13.4883
0.0709395 3.01 13.5125
0.05 3.01 13.5125
0.05 3.01 13.4883
0.05 3.01 13.4883
0.0753197 3.01 13.489
0.0709395 3.01 13.5125
0.0579641 3.01 13.1996
0.05 3.01 13.2217
0.05 3.01 13.1776
0.0841948 3.01 13.1118
0.097638 3.01 13.0899
0.109814 3.01 13.1118
0.0841948 3.01 13.1118
0.0730539 3.01 13.1337
0.0578646 3.01 13.1118
0.0580261 3.01 13.2438
0.05 3.01 13.2659
0.05 3.01 13.2217
0.942292 3.01 12.8074
0.95 3.01 12.7857
0.95 3.01 12.829
0.95 3.01 12.7423
0.95 3.01 12.7857
0.942332 3.01 12.764
0.73872 3.01 13.0245
0.726137 3.01 13.0028
0.75132 3.01 13.0028
0.751305 3.01 13.0463
0.726124 3.01 13.0463
0.73872 3.01 13.0245
0.713546 3.01 13.0245
0.726137 3.01 13.0028
0.73872 3.01 13.0245
0.73872 3.01 13.0245
0.726124 3.01 13.0463
0.713546 3.01 13.0245
0.814318 3.01 13.0681
0.789096 3.01 13.0681
0.801709 3.01 13.0463
0.7765 3.01 13.0463
0.789115 3.01 13.0245
0.801709 3.01 13.0463
0.801709 3.01 13.0463
0.789096 3.01 13.0681
0.7765 3.01 13.0463
0.7765 3.01 13.0463
0.789096 3.01 13.0681
0.763892 3.01 13.0681
0.763892 3.01 13.0681
0.751305 3.01 13.0463
0.7765 3.01 13.0463
0.95 3.01 13.5125
0.929061 3.01 13.5125
0.95 3.01 13.4883
0.95 3.01 13.3104
0.926844 3.01 13.3104
0.941913 3.01 13.2882
0.941913 3.01 13.2882
0.95 3.01 13.2659
0.95 3.01 13.3104
0.926866 3.01 13.2659
0.95 3.01 13.2659
0.941913 3.01 13.2882
0.941974 3.01 13.2438
0.95 3.01 13.2659
0.926866 3.01 13.2659
0.95 3.01 13.2217
0.95 3.01 13.2659
0.941974 3.01 13.2438
0.941974 3.01 13.2438
0.926895 3.01 13.2217
0.95 3.01 13.2217
0.6127 3.01 13.5125
0.625238 3.01 13.49
0.637734 3.01 13.5125
0.662757 3.01 13.5125
0.637734 3.01 13.5125
0.650275 3.01 13.49
0.650275 3.01 13.49
0.637734 3.01 13.5125
0.625238 3.01 13.49
0.600415 3.01 13.0464
0.587856 3.01 13.0682
0.575304 3.01 13.0464
0.575304 3.01 13.0464
0.587856 3.01 13.0682
0.562749 3.01 13.0682
0.336827 3.01 12.6342
0.349395 3.01 12.6125
0.361946 3.01 12.6342
0.223755 3.01 12.6125
0.211137 3.01 12.6342
0.198629 3.01 12.6125
0.185985 3.01 12.6342
0.211137 3.01 12.6342
0.198492 3.01 12.6559
0.185806 3.01 12.6775
0.173316 3.01 12.6559
0.198492 3.01 12.6559
0.198492 3.01 12.6559
0.173316 3.01 12.6559
0.185985 3.01 12.6342
0.0576202 3.01 12.7205
0.05 3.01 12.7423
0.05 3.01 12.6987
0.05 3.01 12.6987
0.0729308 3.01 12.6989
0.0576202 3.01 12.7205
0.05 3.01 12.6987
0.0577122 3.01 12.677
0.0729308 3.01 12.6989
0.135283 3.01 12.6775
0.109875 3.01 12.6775
0.122979 3.01 12.6559
0.135283 3.01 12.6775
0.122678 3.01 12.6991
0.109875 3.01 12.6775
0.122979 3.01 12.6559
0.148138 3.01 12.6559
0.135283 3.01 12.6775
0.135283 3.01 12.6775
0.148138 3.01 12.6559
0.160572 3.01 12.6776
0.123433 3.01 12.6125
0.110383 3.01 12.6342
0.0985513 3.01 12.6125
0.110383 3.01 12.6342
0.0848754 3.01 12.6341
0.0985513 3.01 12.6125
0.0848754 3.01 12.6341
0.073948 3.01 12.6125
0.0985513 3.01 12.6125
0.0603641 3.01 13.467
0.05 3.01 13.4453
0.0739464 3.01 13.4445
0.0739464 3.01 13.4445
0.05 3.01 13.4453
0.058509 3.01 13.4226
0.058509 3.01 13.4226
0.0849548 3.01 13.4221
0.0739464 3.01 13.4445
0.058509 3.01 13.4226
0.05 3.01 13.4001
0.0732725 3.01 13.3999
0.0732725 3.01 13.3999
0.0849548 3.01 13.4221
0.058509 3.01 13.4226
0.5 3.01 13.49
0.487476 3.01 13.5125
0.47495 3.01 13.49
0.097663 3.01 13.1337
0.0841948 3.01 13.1118
0.109814 3.01 13.1118
0.0730539 3.01 13.1337
0.0841948 3.01 13.1118
0.097663 3.01 13.1337
0.0578646 3.01 13.1118
0.0730539 3.01 13.1337
0.05 3.01 13.1337
0.05 3.01 13.1337
0.05 3.01 13.0899
0.0578646 3.01 13.1118
0.05 3.01 13.3104
0.05 3.01 13.2659
0.0580869 3.01 13.2882
0.05 3.01 13.2659
0.0580261 3.01 13.2438
0.073134 3.01 13.2659
0.073134 3.01 13.2659
0.0580869 3.01 13.2882
0.05 3.01 13.2659
0.942268 3.01 12.8507
0.95 3.01 12.829
0.95 3.01 12.8724
0.942292 3.01 12.8074
0.95 3.01 12.829
0.927025 3.01 12.829
0.927025 3.01 12.829
0.942268 3.01 12.8507
0.915919 3.01 12.8507
0.95 3.01 12.829
0.942268 3.01 12.8507
0.927025 3.01 12.829
0.927013 3.01 12.8724
0.942268 3.01 12.8507
0.95 3.01 12.8724
0.915919 3.01 12.8507
0.942268 3.01 12.8507
0.927013 3.01 12.8724
0.801738 3.01 12.9593
0.814364 3.01 12.9375
0.826957 3.01 12.9592
0.852174 3.01 12.9592
0.826957 3.01 12.9592
0.839609 3.01 12.9375
0.839609 3.01 12.9375
0.826957 3.01 12.9592
0.814364 3.01 12.9375
0.776516 3.01 13.0027
0.75132 3.01 13.0028
0.763923 3.01 12.981
0.776516 3.01 13.0027
0.801725 3.01 13.0027
0.789115 3.01 13.0245
0.738704 3.01 13.0681
0.751305 3.01 13.0463
0.763892 3.01 13.0681
0.726124 3.01 13.0463
0.751305 3.01 13.0463
0.738704 3.01 13.0681
0.915617 3.01 13.2881
0.902228 3.01 13.2659
0.926866 3.01 13.2659
0.926866 3.01 13.2659
0.941913 3.01 13.2882
0.915617 3.01 13.2881
0.915617 3.01 13.2881
0.941913 3.01 13.2882
0.926844 3.01 13.3104
0.915617 3.01 13.2881
0.926844 3.01 13.3104
0.902193 3.01 13.3104
0.926866 3.01 13.2659
0.902228 3.01 13.2659
0.915668 3.01 13.2438
0.902267 3.01 13.2217
0.926895 3.01 13.2217
0.915668 3.01 13.2438
0.915668 3.01 13.2438
0.941974 3.01 13.2438
0.926866 3.01 13.2659
0.926895 3.01 13.2217
0.941974 3.01 13.2438
0.915668 3.01 13.2438
0.902267 3.01 13.2217
0.915668 3.01 13.2438
0.890059 3.01 13.2438
0.890059 3.01 13.2438
0.915668 3.01 13.2438
0.902228 3.01 13.2659
0.826927 3.01 13.0463
0.814318 3.01 13.0681
0.801709 3.01 13.0463
0.864816 3.01 13.1118
0.877308 3.01 13.0899
0.890186 3.01 13.1118
0.877308 3.01 13.0899
0.864816 3.01 13.1118
0.852122 3.01 13.0899
0.890186 3.01 13.1118
0.877308 3.01 13.0899
0.902362 3.01 13.0899
0.902362 3.01 13.0899
0.915805 3.01 13.1118
0.890186 3.01 13.1118
0.902362 3.01 13.0899
0.926964 3.01 13.0899
0.915805 3.01 13.1118
0.915835 3.01 13.0681
0.926964 3.01 13.0899
0.902362 3.01 13.0899
0.942171 3.01 13.0681
0.926964 3.01 13.0899
0.915835 3.01 13.0681
0.915835 3.01 13.0681
0.926978 3.01 13.0463
0.942171 3.01 13.0681
0.942171 3.01 13.0681
0.926978 3.01 13.0463
0.95 3.01 13.0463
0.87737 3.01 12.9158
0.890277 3.01 12.8941
0.902417 3.01 12.9158
0.852144 3.01 13.0463
0.877329 3.01 13.0463
0.864842 3.01 13.0681
0.877308 3.01 13.0899
0.852122 3.01 13.0899
0.864842 3.01 13.0681
0.902396 3.01 13.0027
0.915858 3.01 13.0245
0.890234 3.01 13.0245
0.926997 3.01 12.9592
0.942237 3.01 12.9375
0.95 3.01 12.9592
0.91589 3.01 12.9375
0.942237 3.01 12.9375
0.926997 3.01 12.9592
0.942199 3.01 13.0245
0.95 3.01 13.0027
0.95 3.01 13.0463
0.95 3.01 13.0463
0.926978 3.01 13.0463
0.942199 3.01 13.0245
0.942199 3.01 13.0245
0.926978 3.01 13.0463
0.915858 3.01 13.0245
0.95 3.01 12.9592
0.95 3.01 13.0027
0.942221 3.01 12.981
0.942221 3.01 12.981
0.926997 3.01 12.9592
0.95 3.01 12.9592
0.915876 3.01 12.981
0.926997 3.01 12.9592
0.942221 3.01 12.981
0.926989 3.01 13.0027
0.915858 3.01 13.0245
0.902396 3.01 13.0027
0.902396 3.01 13.0027
0.915876 3.01 12.981
0.926989 3.01 13.0027
0.926989 3.01 13.0027
0.942199 3.01 13.0245
0.915858 3.01 13.0245
0.95 3.01 13.0027
0.942199 3.01 13.0245
0.926989 3.01 13.0027
0.915876 3.01 12.981
0.942221 3.01 12.981
0.926989 3.01 13.0027
0.926989 3.01 13.0027
0.942221 3.01 12.981
0.95 3.01 13.0027
0.91353 3.01 13.4669
0.926054 3.01 13.4445
0.939636 3.01 13.467
0.926728 3.01 13.3999
0.95 3.01 13.4001
0.941491 3.01 13.4226
0.926728 3.01 13.3999
0.941822 3.01 13.3775
0.95 3.01 13.4001
0.95 3.01 13.4453
0.95 3.01 13.4883
0.939636 3.01 13.467
0.95 3.01 13.4453
0.926054 3.01 13.4445
0.941491 3.01 13.4226
0.939636 3.01 13.467
0.926054 3.01 13.4445
0.95 3.01 13.4453
0.941491 3.01 13.4226
0.95 3.01 13.4001
0.95 3.01 13.4453
0.941869 3.01 13.3327
0.926844 3.01 13.3104
0.95 3.01 13.3104
0.762942 3.01 13.4673
0.75028 3.01 13.4899
0.737933 3.01 13.4673
0.71291 3.01 13.4674
0.725533 3.01 13.4449
0.737933 3.01 13.4673
0.71291 3.01 13.4674
0.737933 3.01 13.4673
0.725313 3.01 13.4899
0.725313 3.01 13.4899
0.737933 3.01 13.4673
[...]
<PointData Scalars="View Factor" >
<DataArray type="Float64" Name="View Factor" NumberOfComponents="1" format="ascii">
0.00961036
0.00961036
0.00961036
0.00477345
0.00477345
0.00477345
0.00485448
0.00485448
0.00485448
0.00480227
0.00480227
0.00480227
0.00477551
0.00477551
0.00477551
0.00480038
0.00480038
0.00480038
0.00477105
0.00477105
0.00477105
0.00479812
0.00479812
0.00479812
0.0048564
0.0048564
0.0048564
0.0091076
0.0091076
0.0091076
0.00474943
0.00474943
0.00474943
0.00485257
0.00485257
0.00485257
0.0048799
0.0048799
0.0048799
0.00485026
0.00485026
0.00485026
0.00495653
0.00495653
0.00495653
0.00487778
0.00487778
0.00487778
0.00493093
0.00493093
0.00493093
0.00479551
0.00479551
0.00479551
0.00488157
0.00488157
0.00488157
0.00493469
0.00493469
0.00493469
0.0048826
0.0048826
0.0048826
0.00485588
0.00485588
0.00485588
0.00504297
0.00504297
0.00504297
0.00496254
0.00496254
0.00496254
0.00501666
0.00501666
0.00501666
0.00493566
0.00493566
0.00493566
0.00496207
0.00496207
0.00496207
0.00504391
0.00504391
0.00504391
0.00501619
0.00501619
0.00501619
0.00477906
0.00477906
0.00477906
0.00480442
0.00480442
0.00480442
0.0094643
0.0094643
0.0094643
0.00958497
0.00958497
0.00958497
0.00978091
0.00978091
0.00978091
0.00971305
0.00971305
0.00971305
0.00754003
0.00754003
0.00754003
0.00697005
0.00697005
0.00697005
0.00705545
0.00705545
0.00705545
0.00782243
0.00782243
0.00782243
0.00522086
0.00522086
0.00522086
0.00505304
0.00505304
0.00505304
0.00624065
0.00624065
0.00624065
0.00638597
0.00638597
0.00638597
0.006284
0.006284
0.006284
0.00635678
0.00635678
0.00635678
0.00645702
0.00645702
0.00645702
0.00635433
0.00635433
0.00635433
0.00642812
0.00642812
0.00642812
0.00647372
0.00647372
0.00647372
0.00644444
0.00644444
0.00644444
0.00916559
0.00916559
0.00916559
0.00773482
0.00773482
0.00773482
0.00763292
0.00763292
0.00763292
0.00754773
0.00754773
0.00754773
0.00745647
0.00745647
0.00745647
0.00735949
0.00735949
0.00735949
0.0072784
0.0072784
0.0072784
0.0095115
0.0095115
0.0095115
0.00948923
0.00948923
0.00948923
0.00943855
0.00943855
0.00943855
0.00654463
0.00654463
0.00654463
0.00658912
0.00658912
0.00658912
0.00477266
0.00477266
0.00477266
0.0047683
0.0047683
0.0047683
0.00484759
0.00484759
0.00484759
0.00492839
0.00492839
0.00492839
0.00487527
0.00487527
0.00487527
0.00515626
0.00515626
0.00515626
0.00509979
0.00509979
0.00509979
0.00504418
0.00504418
0.00504418
0.00496076
0.00496076
0.00496076
0.00501491
0.00501491
0.00501491
0.00493306
0.00493306
0.00493306
0.00495887
0.00495887
0.00495887
0.00477719
0.00477719
0.00477719
0.00480371
0.00480371
0.00480371
0.00477846
0.00477846
0.00477846
0.00934399
0.00934399
0.00934399
0.00922455
0.00922455
0.00922455
0.00916195
0.00916195
0.00916195
0.00898871
0.00898871
0.00898871
0.00904483
0.00904483
0.00904483
0.0095562
0.0095562
0.0095562
0.00705345
0.00705345
0.00705345
0.00709668
0.00709668
0.00709668
0.00709837
0.00709837
0.00709837
0.00701471
0.00701471
0.00701471
0.00811922
0.00811922
0.00811922
0.00791915
0.00791915
0.00791915
0.00801806
0.00801806
0.00801806
0.00539554
0.00539554
0.00539554
0.00528289
0.00528289
0.00528289
0.00537754
0.00537754
0.00537754
0.00534119
0.00534119
0.00534119
0.00546017
0.00546017
0.00546017
0.00543714
0.00543714
0.00543714
0.00591868
0.00591868
0.00591868
0.00590319
0.00590319
0.00590319
0.00587774
0.00587774
0.00587774
0.00615474
0.00615474
0.00615474
0.00621
0.00621
0.00621
0.00648993
0.00648993
0.00648993
0.00646027
0.00646027
0.00646027
0.00757144
0.00757144
0.00757144
0.00760509
0.00760509
0.00760509
0.00769882
0.00769882
0.00769882
0.00775931
0.00775931
0.00775931
0.0074798
0.0074798
0.0074798
0.00730098
0.00730098
0.00730098
0.00742221
0.00742221
0.00742221
0.007333
0.007333
0.007333
0.00735627
0.00735627
0.00735627
0.00744586
0.00744586
0.00744586
0.00641131
0.00641131
0.00641131
0.00663091
0.00663091
0.00663091
0.00660191
0.00660191
0.00660191
0.00658284
0.00658284
0.00658284
0.00661133
0.00661133
0.00661133
0.00656339
0.00656339
0.00656339
0.00648763
0.00648763
0.00648763
0.00643996
0.00643996
0.00643996
0.00636607
0.00636607
0.00636607
0.00632087
0.00632087
0.00632087
0.00567679
0.00567679
0.00567679
0.00637627
0.00637627
0.00637627
0.00652555
0.00652555
0.00652555
0.00616927
0.00616927
0.00616927
0.00583759
0.00583759
0.00583759
0.00581261
0.00581261
0.00581261
0.006172
0.006172
0.006172
0.00624874
0.00624874
0.00624874
0.00622156
0.00622156
0.00622156
0.00596525
0.00596525
0.00596525
0.00590366
0.00590366
0.00590366
0.005945
0.005945
0.005945
0.00612549
0.00612549
0.00612549
0.00605621
0.00605621
0.00605621
0.0061509
0.0061509
0.0061509
0.00610768
0.00610768
0.00610768
0.00601264
0.00601264
0.00601264
0.00603868
0.00603868
0.00603868
0.0088385
0.0088385
0.0088385
0.00844215
0.00844215
0.00844215
0.00833575
0.00833575
0.00833575
0.00887035
0.00887035
0.00887035
0.00865938
0.00865938
0.00865938
0.00876999
0.00876999
0.00876999
0.00854204
0.00854204
0.00854204
0.00783076
0.00783076
0.00783076
0.00915008
0.00915008
0.00915008
0.00905682
0.00905682
0.00905682
0.00917503
0.00917503
0.00917503
0.00922246
0.00922246
0.00922246
0.00941754
0.00941754
0.00941754
0.00934357
0.00934357
0.00934357
0.00939207
0.00939207
0.00939207
0.00871336
0.00871336
0.00871336
0.00882634
0.00882634
0.00882634
0.00901038
0.00901038
0.00901038
0.00889497
0.00889497
0.00889497
0.00905594
0.00905594
0.00905594
0.00893984
0.00893984
0.00893984
0.00933758
0.00933758
0.00933758
0.00946024
0.00946024
0.00946024
0.00953295
0.00953295
0.00953295
0.00649117
0.00649117
0.00649117
0.0065765
0.0065765
0.0065765
0.00683786
0.00683786
0.00683786
0.00690632
0.00690632
0.00690632
0.00682517
0.00682517
0.00682517
0.00679143
0.00679143
0.00679143
0.0066666
0.0066666
0.0066666
0.00671205
0.00671205
0.00671205
0.00691922
0.00691922
0.00691922
0.00695394
0.00695394
0.00695394
0.00743534
0.00743534
0.00743534
0.00676894
0.00676894
0.00676894
0.00673673
0.00673673
0.00673673
0.00653236
0.00653236
0.00653236
0.00668654
0.00668654
0.00668654
0.004758
0.004758
0.004758
0.00476177
0.00476177
0.00476177
0.00478562
0.00478562
0.00478562
0.00483751
0.00483751
0.00483751
0.00467252
0.00467252
0.00467252
0.00600131
0.00600131
0.00600131
0.00613942
0.00613942
0.00613942
0.006043
0.006043
0.006043
0.00611217
0.00611217
0.00611217
0.00612715
0.00612715
0.00612715
0.0061696
0.0061696
0.0061696
0.00486171
0.00486171
0.00486171
0.00474464
0.00474464
0.00474464
0.00467009
0.00467009
0.00467009
0.0056316
0.0056316
0.0056316
0.00560294
0.00560294
0.00560294
0.00498925
0.00498925
0.00498925
0.00483028
0.00483028
0.00483028
0.00488234
0.00488234
0.00488234
0.00493541
0.00493541
0.00493541
0.00921856
0.00921856
0.00921856
0.00962759
0.00962759
0.00962759
0.0076321
0.0076321
0.0076321
0.00772621
0.00772621
0.00772621
0.00718209
0.00718209
0.00718209
0.00520154
0.00520154
0.00520154
0.00762769
0.00762769
0.00762769
0.00772172
0.00772172
0.00772172
0.00692763
0.00692763
0.00692763
0.00696752
0.00696752
0.00696752
0.00684834
0.00684834
0.00684834
0.00692984
0.00692984
0.00692984
0.00693147
0.00693147
0.00693147
0.00697202
0.00697202
0.00697202
0.00677009
0.00677009
0.00677009
0.00684994
0.00684994
0.00684994
0.00680899
0.00680899
0.00680899
0.00672934
0.00672934
0.00672934
0.00669062
0.00669062
0.00669062
0.00630329
0.00630329
0.00630329
0.00625831
0.00625831
0.00625831
0.00547543
0.00547543
0.00547543
0.00598601
0.00598601
0.00598601
0.00602781
0.00602781
0.00602781
0.00609674
0.00609674
0.00609674
0.00586214
0.00586214
0.00586214
0.00588727
0.00588727
0.00588727
0.00565294
0.00565294
0.00565294
0.00526075
0.00526075
0.00526075
0.00557425
0.00557425
0.00557425
0.00622556
0.00622556
0.00622556
0.00637039
0.00637039
0.00637039
0.00632587
0.00632587
0.00632587
0.00625358
0.00625358
0.00625358
0.00626903
0.00626903
0.00626903
0.00634157
0.00634157
0.00634157
0.00656581
0.00656581
0.00656581
0.00661229
0.00661229
0.00661229
0.00650564
0.00650564
0.00650564
0.00658177
0.00658177
0.00658177
0.00683351
0.00683351
0.00683351
0.00686586
0.00686586
0.00686586
0.00665821
0.00665821
0.00665821
0.006689
0.006689
0.006689
0.00732343
0.00732343
0.00732343
0.00725751
0.00725751
0.00725751
0.00723582
0.00723582
0.00723582
0.00720328
0.00720328
0.00720328
0.00896145
0.00896145
0.00896145
0.00903219
0.00903219
0.00903219
0.00898634
0.00898634
0.00898634
0.00887128
0.00887128
0.00887128
0.00836574
0.00836574
0.00836574
0.00861514
0.00861514
0.00861514
0.00872581
0.00872581
0.00872581
0.00812783
0.00812783
0.00812783
0.00825465
0.00825465
0.00825465
0.00806516
0.00806516
0.00806516
0.00612363
0.00612363
0.00612363
0.00643983
0.00643983
0.00643983
0.00639402
0.00639402
0.00639402
0.00642215
0.00642215
0.00642215
0.00649694
0.00649694
0.00649694
0.00672825
0.00672825
0.00672825
0.00664996
0.00664996
0.00664996
0.00633952
0.00633952
0.00633952
0.00628538
0.00628538
0.00628538
0.00626712
0.00626712
0.00626712
0.00624022
0.00624022
0.00624022
0.00646838
0.00646838
0.00646838
0.00638811
0.00638811
0.00638811
0.00603045
0.00603045
0.00603045
0.00595412
0.00595412
0.00595412
0.00597955
0.00597955
0.00597955
0.00576457
0.00576457
0.00576457
0.00584611
0.00584611
0.00584611
0.0057406
0.0057406
0.0057406
0.0057808
0.0057808
0.0057808
0.00563719
0.00563719
0.00563719
0.00557482
0.00557482
0.00557482
0.0055364
0.0055364
0.0055364
0.00904192
0.00904192
0.00904192
0.00895322
0.00895322
0.00895322
0.00899213
0.00899213
0.00899213
0.00895197
0.00895197
0.00895197
0.00911453
0.00911453
0.00911453
0.00879686
0.00879686
0.00879686
0.00846782
0.00846782
0.00846782
0.00868513
0.00868513
0.00868513
0.00861618
0.00861618
0.00861618
0.00850792
0.00850792
0.00850792
0.00839948
0.00839948
0.00839948
0.00823014
0.00823014
0.00823014
0.00829436
0.00829436
0.00829436
0.00826935
0.00826935
0.00826935
0.00785561
0.00785561
0.00785561
0.00789105
0.00789105
0.00789105
0.0082954
0.0082954
0.0082954
0.00836168
0.00836168
0.00836168
0.00910356
0.00910356
0.00910356
0.00908061
0.00908061
0.00908061
0.00903358
0.00903358
0.00903358
0.00944224
0.00944224
0.00944224
0.00936852
0.00936852
0.00936852
0.00924714
0.00924714
0.00924714
0.00919915
0.00919915
0.00919915
0.00923593
0.00923593
0.00923593
0.00907019
0.00907019
0.00907019
0.00911541
0.00911541
0.00911541
0.00931128
0.00931128
0.00931128
0.00919695
0.00919695
0.00919695
0.00931781
0.00931781
0.00931781
0.00871399
0.00871399
0.00871399
0.0086699
0.0086699
0.0086699
0.0079586
0.0079586
0.0079586
0.00789975
0.00789975
0.00789975
0.00815816
0.00815816
0.00815816
0.00856017
0.00856017
0.00856017
0.00849491
0.00849491
0.00849491
0.00860292
0.00860292
0.00860292
0.00822039
0.00822039
0.00822039
0.00832437
0.00832437
0.00832437
0.0083881
0.0083881
0.0083881
0.00834617
0.00834617
0.00834617
0.00884943
0.00884943
0.00884943
0.00875862
0.00875862
0.00875862
0.00887169
0.00887169
0.00887169
0.00891782
0.00891782
0.00891782
0.00869203
0.00869203
0.00869203
0.00873672
0.00873672
0.00873672
0.00912568
0.00912568
0.00912568
0.00924488
0.00924488
0.00924488
0.00931621
0.00931621
0.00931621
0.0092665
0.0092665
0.0092665
0.00889313
0.00889313
0.00889313
0.00877972
0.00877972
0.00877972
0.00873389
0.00873389
0.00873389
0.00783347
0.00783347
0.00783347
0.00773751
0.00773751
0.00773751
0.00636002
0.00636002
0.00636002
0.00666296
0.00666296
0.00666296
0.00632597
0.00632597
0.00632597
0.00636506
0.00636506
0.00636506
0.00669923
0.00669923
0.00669923
0.00653371
0.00653371
0.00653371
0.00650034
0.00650034
0.00650034
0.00689299
0.00689299
0.00689299
0.0068475
0.0068475
0.0068475
0.00675729
0.00675729
0.00675729
0.00697522
0.00697522
0.00697522
0.00702168
0.00702168
0.00702168
0.00710596
0.00710596
0.00710596
0.00714362
0.00714362
0.00714362
0.00653185
0.00653185
0.00653185
0.00665377
0.00665377
0.00665377
0.00669939
0.00669939
0.00669939
0.00677857
0.00677857
0.00677857
0.00681193
0.00681193
0.00681193
0.00727857
0.00727857
0.00727857
0.00722985
0.00722985
0.00722985
0.00696666
0.00696666
0.00696666
0.00703713
0.00703713
0.00703713
0.00688308
0.00688308
0.00688308
0.00683739
0.00683739
0.00683739
0.00724575
0.00724575
0.00724575
0.00719639
0.00719639
0.00719639
0.00686429
0.00686429
0.00686429
0.00678381
0.00678381
0.00678381
0.00676543
0.00676543
0.00676543
0.00746366
0.00746366
0.00746366
0.00476521
0.00476521
0.00476521
0.00478926
0.00478926
0.00478926
0.00479256
0.00479256
0.00479256
0.00500283
0.00500283
0.00500283
0.00489159
0.00489159
0.00489159
0.00494897
0.00494897
0.00494897
0.00469075
0.00469075
0.00469075
0.00461299
0.00461299
0.00461299
0.00464295
0.00464295
0.00464295
0.00601616
0.00601616
0.00601616
0.00605775
0.00605775
0.00605775
0.00603057
0.00603057
0.00603057
0.00596255
0.00596255
0.00596255
0.00614165
0.00614165
0.00614165
0.00607203
0.00607203
0.00607203
0.00478164
0.00478164
0.00478164
0.00483346
0.00483346
0.00483346
0.00475389
0.00475389
0.00475389
0.00477732
0.00477732
0.00477732
0.00482434
0.00482434
0.00482434
0.00484791
0.00484791
0.00484791
0.00490059
0.00490059
0.00490059
0.00489522
0.00489522
0.00489522
0.00492453
0.00492453
0.00492453
0.00500807
0.00500807
0.00500807
0.00497823
0.00497823
0.00497823
0.00472827
0.00472827
0.00472827
0.00469938
0.00469938
0.00469938
0.00569505
0.00569505
0.00569505
0.00582466
0.00582466
0.00582466
0.00481108
0.00481108
0.00481108
0.00486562
0.00486562
0.00486562
0.00491858
0.00491858
0.00491858
0.00484122
0.00484122
0.00484122
0.00845699
0.00845699
0.00845699
0.00866011
0.00866011
0.00866011
0.00902127
0.00902127
0.00902127
0.00902673
0.00902673
0.00902673
0.0089661
0.0089661
0.0089661
0.00868602
0.00868602
0.00868602
0.0088516
0.0088516
0.0088516
0.00879768
0.00879768
0.00879768
0.00896029
0.00896029
0.00896029
0.00915733
0.00915733
0.00915733
0.00887323
0.00887323
0.00887323
0.00876071
0.00876071
0.00876071
0.00957286
0.00957286
0.00957286
0.009273
0.009273
0.009273
0.00939464
0.00939464
0.00939464
0.00944834
0.00944834
0.00944834
0.00903566
0.00903566
0.00903566
0.00930153
0.00930153
0.00930153
0.00942368
0.00942368
0.00942368
0.00758261
0.00758261
0.00758261
0.00763022
0.00763022
0.00763022
0.00758484
0.00758484
0.00758484
0.00786949
0.00786949
0.00786949
0.00777303
0.00777303
0.00777303
0.00791716
0.00791716
0.00791716
0.00786713
0.00786713
0.00786713
0.00772429
0.00772429
0.00772429
0.00777072
0.00777072
0.00777072
0.00722423
0.00722423
0.00722423
0.00730899
0.00730899
0.00730899
0.00727108
0.00727108
0.00727108
0.0071838
0.0071838
0.0071838
0.00722631
0.00722631
0.00722631
0.00521317
0.00521317
0.00521317
0.00566015
0.00566015
0.00566015
0.00553502
0.00553502
0.00553502
0.00583549
0.00583549
0.00583549
0.00590185
0.00590185
0.00590185
0.00589471
0.00589471
0.00589471
0.00609937
0.00609937
0.00609937
0.00616923
0.00616923
0.00616923
0.00569857
0.00569857
0.00569857
0.00563345
0.00563345
0.00563345
0.00557078
0.00557078
0.00557078
0.00563469
0.00563469
0.00563469
0.00566584
0.00566584
0.00566584
0.00562973
0.00562973
0.00562973
0.00556715
0.00556715
0.00556715
0.00547766
0.00547766
0.00547766
0.00553903
0.00553903
0.00553903
0.00556916
0.00556916
0.00556916
0.00553723
0.00553723
0.00553723
0.00525901
0.00525901
0.00525901
0.00791448
0.00791448
0.00791448
0.00801328
0.00801328
0.00801328
0.0070944
0.0070944
0.0070944
0.00705088
0.00705088
0.00705088
0.00717977
0.00717977
0.00717977
0.00722158
0.00722158
0.00722158
0.00692486
0.00692486
0.00692486
0.00631309
0.00631309
0.00631309
0.00627586
0.00627586
0.00627586
0.00624045
0.00624045
0.00624045
0.00623904
0.00623904
0.00623904
0.00627415
0.00627415
0.00627415
0.00668907
0.00668907
0.00668907
0.00661123
0.00661123
0.00661123
0.00634196
0.00634196
0.00634196
0.00684617
0.00684617
0.00684617
0.00668696
0.00668696
0.00668696
0.00680708
0.00680708
0.00680708
0.00672746
0.00672746
0.00672746
0.00548837
0.00548837
0.00548837
0.00554962
0.00554962
0.00554962
0.00581196
0.00581196
0.00581196
0.00555181
0.00555181
0.00555181
0.00559034
0.00559034
0.00559034
0.00575642
0.00575642
0.00575642
0.00569237
0.00569237
0.00569237
0.00579659
0.00579659
0.00579659
0.00577185
0.00577185
0.00577185
0.00578688
0.00578688
0.00578688
0.00572238
0.00572238
0.00572238
0.00535598
0.00535598
0.00535598
0.00529747
0.00529747
0.00529747
0.00659594
0.00659594
0.00659594
0.00654934
0.00654934
0.00654934
0.00657909
0.00657909
0.00657909
0.00665631
0.00665631
0.00665631
0.00670407
0.00670407
0.00670407
0.00667345
0.00667345
0.00667345
0.00662812
0.00662812
0.00662812
0.00670615
0.00670615
0.00670615
0.00672171
0.00672171
0.00672171
0.00675352
0.00675352
0.00675352
0.0064756
0.0064756
0.0064756
0.0063715
0.0063715
0.0063715
0.00640106
0.00640106
0.00640106
0.00684918
0.00684918
0.00684918
0.00688194
0.00688194
0.00688194
0.00689745
0.00689745
0.00689745
0.00733906
0.00733906
0.00733906
0.0074284
0.0074284
0.0074284
0.00688851
0.00688851
0.00688851
0.00671842
0.00671842
0.00671842
0.00670889
0.00670889
0.00670889
0.0067385
0.0067385
0.0067385
0.00675819
0.00675819
0.00675819
0.00683816
0.00683816
0.00683816
0.00709605
0.00709605
0.00709605
0.00721372
0.00721372
0.00721372
0.00718139
0.00718139
0.00718139
0.00750299
0.00750299
0.00750299
0.00772362
0.00772362
0.00772362
0.00762951
0.00762951
0.00762951
0.00759499
0.00759499
0.00759499
0.0076532
0.0076532
0.0076532
0.00796556
0.00796556
0.00796556
0.00882139
0.00882139
0.00882139
0.00890916
0.00890916
0.00890916
0.00879523
0.00879523
0.00879523
0.0087521
0.0087521
0.0087521
0.00877766
0.00877766
0.00877766
0.00880241
0.00880241
0.00880241
0.00884675
0.00884675
0.00884675
0.0086661
0.0086661
0.0086661
0.00876837
0.00876837
0.00876837
0.00892534
0.00892534
0.00892534
0.00888185
0.00888185
0.00888185
0.00869887
0.00869887
0.00869887
0.00846535
0.00846535
0.00846535
0.00857342
0.00857342
0.00857342
0.00864097
0.00864097
0.00864097
0.00859868
0.00859868
0.00859868
0.00791657
0.00791657
0.00791657
0.00801544
0.00801544
0.00801544
0.00810327
0.00810327
0.00810327
0.00820515
0.00820515
0.00820515
0.00807833
0.00807833
0.00807833
0.00804054
0.00804054
0.00804054
0.00619397
0.00619397
0.00619397
0.00633778
0.00633778
0.00633778
0.00630969
0.00630969
0.00630969
0.00623766
0.00623766
0.00623766
0.00632076
0.00632076
0.00632076
0.00617748
0.00617748
0.00617748
0.00629304
0.00629304
0.00629304
0.00622126
0.00622126
0.00622126
0.00627591
0.00627591
0.00627591
0.0062044
0.0062044
0.0062044
0.00601217
0.00601217
0.00601217
0.00608085
0.00608085
0.00608085
0.0061074
0.0061074
0.0061074
0.00597028
0.00597028
0.00597028
0.00599608
0.00599608
0.00599608
0.00606451
0.00606451
0.00606451
0.00662053
0.00662053
0.00662053
0.00656173
0.00656173
0.00656173
0.00663867
0.00663867
0.00663867
0.0066685
0.0066685
0.0066685
0.0065149
0.0065149
0.0065149
0.00654388
0.00654388
0.00654388
0.00650678
0.00650678
0.00650678
0.00647848
0.00647848
0.00647848
0.00645952
0.00645952
0.00645952
0.00638532
0.00638532
0.00638532
0.00640399
0.00640399
0.00640399
0.00635808
0.00635808
0.00635808
0.00659116
0.00659116
0.00659116
0.00654383
0.00654383
0.00654383
0.00661419
0.00661419
0.00661419
0.00669823
0.00669823
0.00669823
0.0066685
0.0066685
0.0066685
0.00616054
0.00616054
0.00616054
0.00609073
0.00609073
0.00609073
0.00614319
0.00614319
0.00614319
0.00618708
0.00618708
0.00618708
0.00607365
0.00607365
0.00607365
0.00604772
0.00604772
0.00604772
0.00585432
0.00585432
0.00585432
0.00582962
0.00582962
0.00582962
0.00592065
0.00592065
0.00592065
0.00596254
0.00596254
0.00596254
0.00593755
0.00593755
0.00593755
0.00587096
0.00587096
0.00587096
0.0055209
0.0055209
0.0055209
0.00555883
0.00555883
0.00555883
0.00576726
0.00576726
0.00576726
0.00557752
0.00557752
0.00557752
0.00919587
0.00919587
0.00919587
0.00885391
0.00885391
0.00885391
0.00874093
0.00874093
0.00874093
0.00853464
0.00853464
0.00853464
0.00864367
0.00864367
0.00864367
0.00856179
0.00856179
0.00856179
0.00849439
0.00849439
0.00849439
0.00867143
0.00867143
0.00867143
0.00871308
0.00871308
0.00871308
0.00843993
0.00843993
0.00843993
0.0085211
0.0085211
0.0085211
0.00841401
0.00841401
0.00841401
0.00837401
0.00837401
0.00837401
0.0085887
0.0085887
0.0085887
0.00854751
0.00854751
0.00854751