<VTKFile type="UnstructuredGrid" version="1.0">
<UnstructuredGrid>
<Piece NumberOfPoints="8859" NumberOfCells="2953">
<Points>
<DataArray type="Float64" NumberOfComponents="3" format="ascii">
3.01 0.5 9.31
3.01 0.487476 9.3325
3.01 0.512524 9.3325
3.01 0.17352 8.4325
3.01 0.148445 8.4325
3.01 0.160827 8.45422
3.01 0.122979 8.47589
3.01 0.135644 8.45422
3.01 0.110383 8.45421
3.01 0.135644 8.45422
3.01 0.123433 8.4325
3.01 0.110383 8.45421
3.01 0.123433 8.4325
3.01 0.135644 8.45422
3.01 0.148445 8.4325
3.01 0.135644 8.45422
3.01 0.160827 8.45422
3.01 0.148445 8.4325
3.01 0.17352 8.4325
3.01 0.185985 8.4542
3.01 0.198629 8.4325
3.01 0.185985 8.4542
3.01 0.17352 8.4325
3.01 0.160827 8.45422
3.01 0.0732297 8.47567
3.01 0.0848754 8.45414
3.01 0.0586606 8.45381
3.01 0.05 9.26528
3.01 0.058509 9.24256
3.01 0.05 9.2201
3.01 0.324276 8.4325
3.01 0.336827 8.45416
3.01 0.349395 8.4325
3.01 0.148138 8.4759
3.01 0.160827 8.45422
3.01 0.135644 8.45422
3.01 0.122979 8.47589
3.01 0.148138 8.4759
3.01 0.135644 8.45422
3.01 0.160827 8.45422
3.01 0.173316 8.47589
3.01 0.185985 8.4542
3.01 0.185806 8.49755
3.01 0.173316 8.47589
3.01 0.160572 8.49755
3.01 0.173316 8.47589
3.01 0.160827 8.45422
3.01 0.148138 8.4759
3.01 0.160572 8.49755
3.01 0.173316 8.47589
3.01 0.148138 8.4759
3.01 0.211137 8.45419
3.01 0.198629 8.4325
3.01 0.185985 8.4542
3.01 0.0979162 8.47584
3.01 0.122979 8.47589
3.01 0.110383 8.45421
3.01 0.122979 8.47589
3.01 0.0979162 8.47584
3.01 0.109875 8.49749
3.01 0.0732297 8.47567
3.01 0.0979162 8.47584
3.01 0.0848754 8.45414
3.01 0.0979162 8.47584
3.01 0.110383 8.45421
3.01 0.0848754 8.45414
3.01 0.0975729 8.51904
3.01 0.122678 8.51914
3.01 0.109875 8.49749
3.01 0.0841718 8.49735
3.01 0.0732297 8.47567
3.01 0.0577122 8.49702
3.01 0.0729308 8.51888
3.01 0.0841718 8.49735
3.01 0.0577122 8.49702
3.01 0.0732297 8.47567
3.01 0.0841718 8.49735
3.01 0.0979162 8.47584
3.01 0.0841718 8.49735
3.01 0.109875 8.49749
3.01 0.0979162 8.47584
3.01 0.0975729 8.51904
3.01 0.0841718 8.49735
3.01 0.0729308 8.51888
3.01 0.0841718 8.49735
3.01 0.0975729 8.51904
3.01 0.109875 8.49749
3.01 0.073948 8.4325
3.01 0.05 8.4325
3.01 0.0586606 8.45381
3.01 0.073948 8.4325
3.01 0.0586606 8.45381
3.01 0.0848754 8.45414
3.01 0.05 9.30829
3.01 0.0603641 9.28697
3.01 0.05 9.26528
3.01 0.0603641 9.28697
3.01 0.05 9.30829
3.01 0.0753197 9.30899
3.01 0.0709395 9.3325
3.01 0.05 9.30829
3.01 0.05 9.3325
3.01 0.05 9.30829
3.01 0.0709395 9.3325
3.01 0.0753197 9.30899
3.01 0.0579641 9.01963
3.01 0.05 8.99761
3.01 0.05 9.04169
3.01 0.0841948 8.9318
3.01 0.109814 8.9318
3.01 0.097638 8.90993
3.01 0.0841948 8.9318
3.01 0.0578646 8.9318
3.01 0.0730539 8.9537
3.01 0.0580261 9.0638
3.01 0.05 9.04169
3.01 0.05 9.08595
3.01 0.942292 8.62736
3.01 0.95 8.64904
3.01 0.95 8.60567
3.01 0.95 8.56226
3.01 0.942332 8.58397
3.01 0.95 8.60567
3.01 0.73872 8.84453
3.01 0.75132 8.82275
3.01 0.726137 8.82276
3.01 0.751305 8.86632
3.01 0.73872 8.84453
3.01 0.726124 8.86633
3.01 0.713546 8.84454
3.01 0.73872 8.84453
3.01 0.726137 8.82276
3.01 0.73872 8.84453
3.01 0.713546 8.84454
3.01 0.726124 8.86633
3.01 0.814318 8.88811
3.01 0.801709 8.8663
3.01 0.789096 8.88812
3.01 0.7765 8.86631
3.01 0.801709 8.8663
3.01 0.789115 8.84451
3.01 0.801709 8.8663
3.01 0.7765 8.86631
3.01 0.789096 8.88812
3.01 0.7765 8.86631
3.01 0.763892 8.88814
3.01 0.789096 8.88812
3.01 0.763892 8.88814
3.01 0.7765 8.86631
3.01 0.751305 8.86632
3.01 0.95 9.3325
3.01 0.95 9.30829
3.01 0.929061 9.3325
3.01 0.95 9.1304
3.01 0.941913 9.10815
3.01 0.926844 9.1304
3.01 0.941913 9.10815
3.01 0.95 9.1304
3.01 0.95 9.08595
3.01 0.926866 9.08594
3.01 0.941913 9.10815
3.01 0.95 9.08595
3.01 0.941974 9.0638
3.01 0.926866 9.08594
3.01 0.95 9.08595
3.01 0.95 9.04169
3.01 0.941974 9.0638
3.01 0.95 9.08595
3.01 0.941974 9.0638
3.01 0.95 9.04169
3.01 0.926895 9.04169
3.01 0.6127 9.3325
3.01 0.637734 9.3325
3.01 0.625238 9.30998
3.01 0.662757 9.3325
3.01 0.650275 9.30997
3.01 0.637734 9.3325
3.01 0.650275 9.30997
3.01 0.625238 9.30998
3.01 0.637734 9.3325
3.01 0.600415 8.86637
3.01 0.575304 8.86637
3.01 0.587856 8.8882
3.01 0.575304 8.86637
3.01 0.562749 8.8882
3.01 0.587856 8.8882
3.01 0.336827 8.45416
3.01 0.361946 8.45416
3.01 0.349395 8.4325
3.01 0.223755 8.4325
3.01 0.198629 8.4325
3.01 0.211137 8.45419
3.01 0.185985 8.4542
3.01 0.198492 8.47588
3.01 0.211137 8.45419
3.01 0.185806 8.49755
3.01 0.198492 8.47588
3.01 0.173316 8.47589
3.01 0.198492 8.47588
3.01 0.185985 8.4542
3.01 0.173316 8.47589
3.01 0.0576202 8.54053
3.01 0.05 8.51874
3.01 0.05 8.56226
3.01 0.05 8.51874
3.01 0.0576202 8.54053
3.01 0.0729308 8.51888
3.01 0.05 8.51874
3.01 0.0729308 8.51888
3.01 0.0577122 8.49702
3.01 0.135283 8.49754
3.01 0.122979 8.47589
3.01 0.109875 8.49749
3.01 0.135283 8.49754
3.01 0.109875 8.49749
3.01 0.122678 8.51914
3.01 0.122979 8.47589
3.01 0.135283 8.49754
3.01 0.148138 8.4759
3.01 0.135283 8.49754
3.01 0.160572 8.49755
3.01 0.148138 8.4759
3.01 0.123433 8.4325
3.01 0.0985513 8.4325
3.01 0.110383 8.45421
3.01 0.110383 8.45421
3.01 0.0985513 8.4325
3.01 0.0848754 8.45414
3.01 0.0848754 8.45414
3.01 0.0985513 8.4325
3.01 0.073948 8.4325
3.01 0.0603641 9.28697
3.01 0.0739464 9.26449
3.01 0.05 9.26528
3.01 0.0739464 9.26449
3.01 0.058509 9.24256
3.01 0.05 9.26528
3.01 0.058509 9.24256
3.01 0.0739464 9.26449
3.01 0.0849548 9.24211
3.01 0.058509 9.24256
3.01 0.0732725 9.21988
3.01 0.05 9.2201
3.01 0.0732725 9.21988
3.01 0.058509 9.24256
3.01 0.0849548 9.24211
3.01 0.5 9.31
3.01 0.47495 9.31
3.01 0.487476 9.3325
3.01 0.097663 8.9537
3.01 0.109814 8.9318
3.01 0.0841948 8.9318
3.01 0.0730539 8.9537
3.01 0.097663 8.9537
3.01 0.0841948 8.9318
3.01 0.0578646 8.9318
3.01 0.05 8.9537
3.01 0.0730539 8.9537
3.01 0.05 8.9537
3.01 0.0578646 8.9318
3.01 0.05 8.90992
3.01 0.05 9.1304
3.01 0.0580869 9.10815
3.01 0.05 9.08595
3.01 0.05 9.08595
3.01 0.073134 9.08594
3.01 0.0580261 9.0638
3.01 0.073134 9.08594
3.01 0.05 9.08595
3.01 0.0580869 9.10815
3.01 0.942268 8.67073
3.01 0.95 8.69241
3.01 0.95 8.64904
3.01 0.942292 8.62736
3.01 0.927025 8.64904
3.01 0.95 8.64904
3.01 0.927025 8.64904
3.01 0.915919 8.67072
3.01 0.942268 8.67073
3.01 0.95 8.64904
3.01 0.927025 8.64904
3.01 0.942268 8.67073
3.01 0.927013 8.69241
3.01 0.95 8.69241
3.01 0.942268 8.67073
3.01 0.915919 8.67072
3.01 0.927013 8.69241
3.01 0.942268 8.67073
3.01 0.801738 8.77925
3.01 0.826957 8.77925
3.01 0.814364 8.75753
3.01 0.852174 8.77924
3.01 0.839609 8.75752
3.01 0.826957 8.77925
3.01 0.839609 8.75752
3.01 0.814364 8.75753
3.01 0.826957 8.77925
3.01 0.776516 8.82275
3.01 0.763923 8.801
3.01 0.75132 8.82275
3.01 0.776516 8.82275
3.01 0.789115 8.84451
3.01 0.801725 8.82274
3.01 0.738704 8.88815
3.01 0.763892 8.88814
3.01 0.751305 8.86632
3.01 0.726124 8.86633
3.01 0.738704 8.88815
3.01 0.751305 8.86632
3.01 0.915617 9.10814
3.01 0.926866 9.08594
3.01 0.902228 9.08594
3.01 0.926866 9.08594
3.01 0.915617 9.10814
3.01 0.941913 9.10815
3.01 0.915617 9.10814
3.01 0.926844 9.1304
3.01 0.941913 9.10815
3.01 0.915617 9.10814
3.01 0.902193 9.13038
3.01 0.926844 9.1304
3.01 0.926866 9.08594
3.01 0.915668 9.06379
3.01 0.902228 9.08594
3.01 0.902267 9.04168
3.01 0.915668 9.06379
3.01 0.926895 9.04169
3.01 0.915668 9.06379
3.01 0.926866 9.08594
3.01 0.941974 9.0638
3.01 0.926895 9.04169
3.01 0.915668 9.06379
3.01 0.941974 9.0638
3.01 0.902267 9.04168
3.01 0.890059 9.06379
3.01 0.915668 9.06379
3.01 0.890059 9.06379
3.01 0.902228 9.08594
3.01 0.915668 9.06379
3.01 0.826927 8.86629
3.01 0.801709 8.8663
3.01 0.814318 8.88811
3.01 0.864816 8.9318
3.01 0.890186 8.9318
3.01 0.877308 8.90993
3.01 0.877308 8.90993
3.01 0.852122 8.90994
3.01 0.864816 8.9318
3.01 0.890186 8.9318
3.01 0.902362 8.90993
3.01 0.877308 8.90993
3.01 0.902362 8.90993
3.01 0.890186 8.9318
3.01 0.915805 8.9318
3.01 0.902362 8.90993
3.01 0.915805 8.9318
3.01 0.926964 8.90992
3.01 0.915835 8.88809
3.01 0.902362 8.90993
3.01 0.926964 8.90992
3.01 0.942171 8.88809
3.01 0.915835 8.88809
3.01 0.926964 8.90992
3.01 0.915835 8.88809
3.01 0.942171 8.88809
3.01 0.926978 8.86627
3.01 0.942171 8.88809
3.01 0.95 8.86627
3.01 0.926978 8.86627
3.01 0.87737 8.73581
3.01 0.902417 8.7358
3.01 0.890277 8.71411
3.01 0.852144 8.86628
3.01 0.864842 8.88809
3.01 0.877329 8.86628
3.01 0.877308 8.90993
3.01 0.864842 8.88809
3.01 0.852122 8.90994
3.01 0.902396 8.82272
3.01 0.890234 8.84449
3.01 0.915858 8.84448
3.01 0.926997 8.77923
3.01 0.95 8.77923
3.01 0.942237 8.75751
3.01 0.91589 8.75751
3.01 0.926997 8.77923
3.01 0.942237 8.75751
3.01 0.942199 8.84448
3.01 0.95 8.86627
3.01 0.95 8.82271
3.01 0.95 8.86627
3.01 0.942199 8.84448
3.01 0.926978 8.86627
3.01 0.942199 8.84448
3.01 0.915858 8.84448
3.01 0.926978 8.86627
3.01 0.95 8.77923
3.01 0.942221 8.80097
3.01 0.95 8.82271
3.01 0.942221 8.80097
3.01 0.95 8.77923
3.01 0.926997 8.77923
3.01 0.915876 8.80097
3.01 0.942221 8.80097
3.01 0.926997 8.77923
3.01 0.926989 8.82271
3.01 0.902396 8.82272
3.01 0.915858 8.84448
3.01 0.902396 8.82272
3.01 0.926989 8.82271
3.01 0.915876 8.80097
3.01 0.926989 8.82271
3.01 0.915858 8.84448
3.01 0.942199 8.84448
3.01 0.95 8.82271
3.01 0.926989 8.82271
3.01 0.942199 8.84448
3.01 0.915876 8.80097
3.01 0.926989 8.82271
3.01 0.942221 8.80097
3.01 0.926989 8.82271
3.01 0.95 8.82271
3.01 0.942221 8.80097
3.01 0.91353 9.28685
3.01 0.939636 9.28697
3.01 0.926054 9.26449
3.01 0.926728 9.21988
3.01 0.941491 9.24256
3.01 0.95 9.2201
3.01 0.926728 9.21988
3.01 0.95 9.2201
3.01 0.941822 9.19754
3.01 0.95 9.26528
3.01 0.939636 9.28697
3.01 0.95 9.30829
3.01 0.95 9.26528
3.01 0.941491 9.24256
3.01 0.926054 9.26449
3.01 0.939636 9.28697
3.01 0.95 9.26528
3.01 0.926054 9.26449
3.01 0.941491 9.24256
3.01 0.95 9.26528
3.01 0.95 9.2201
3.01 0.941869 9.15272
3.01 0.95 9.1304
3.01 0.926844 9.1304
3.01 0.762942 9.28728
3.01 0.737933 9.28734
3.01 0.75028 9.30989
3.01 0.71291 9.28739
3.01 0.737933 9.28734
3.01 0.725533 9.26485
3.01 0.71291 9.28739
3.01 0.725313 9.30992
3.01 0.737933 9.28734
3.01 0.725313 9.30992
3.01 0.75028 9.30989
3.01 0.737933 9.28734
3.01 0.737693 9.3325
3.01 0.725313 9.30992
[...]
<PointData Scalars="View Factor" >
<DataArray type="Float64" Name="View Factor" NumberOfComponents="1" format="ascii">
0.00159727
0.00159727
0.00159727
0.000963183
0.000963183
0.000963183
0.000975065
0.000975065
0.000975065
0.000967364
0.000967364
0.000967364
0.000963431
0.000963431
0.000963431
0.000967137
0.000967137
0.000967137
0.000962893
0.000962893
0.000962893
0.000966864
0.000966864
0.000966864
0.000975273
0.000975273
0.000975273
0.00153437
0.00153437
0.00153437
0.000960281
0.000960281
0.000960281
0.000974837
0.000974837
0.000974837
0.000978832
0.000978832
0.000978832
0.000974559
0.000974559
0.000974559
0.000990159
0.000990159
0.000990159
0.000978577
0.000978577
0.000978577
0.000986378
0.000986378
0.000986378
0.000966549
0.000966549
0.000966549
0.000979029
0.000979029
0.000979029
0.000986824
0.000986824
0.000986824
0.000979143
0.000979143
0.000979143
0.000975229
0.000975229
0.000975229
0.00100263
0.00100263
0.00100263
0.000990843
0.000990843
0.000990843
0.000998742
0.000998742
0.000998742
0.000986927
0.000986927
0.000986927
0.000990808
0.000990808
0.000990808
0.00100273
0.00100273
0.00100273
0.000998708
0.000998708
0.000998708
0.000963847
0.000963847
0.000963847
0.000967608
0.000967608
0.000967608
0.00157667
0.00157667
0.00157667
0.00159087
0.00159087
0.00159087
0.00161376
0.00161376
0.00161376
0.00160586
0.00160586
0.00160586
0.00134127
0.00134127
0.00134127
0.00126781
0.00126781
0.00126781
0.0012789
0.0012789
0.0012789
0.001377
0.001377
0.001377
0.00103583
0.00103583
0.00103583
0.00101133
0.00101133
0.00101133
0.00117599
0.00117599
0.00117599
0.00119574
0.00119574
0.00119574
0.00118171
0.00118171
0.00118171
0.0011916
0.0011916
0.0011916
0.00120636
0.00120636
0.00120636
0.00119225
0.00119225
0.00119225
0.00120224
0.00120224
0.00120224
0.0012082
0.0012082
0.0012082
0.00120404
0.00120404
0.00120404
0.00155364
0.00155364
0.00155364
0.00137663
0.00137663
0.00137663
0.0013638
0.0013638
0.0013638
0.00135269
0.00135269
0.00135269
0.00134094
0.00134094
0.00134094
0.00132858
0.00132858
0.00132858
0.00131788
0.00131788
0.00131788
0.00158763
0.00158763
0.00158763
0.00158546
0.00158546
0.00158546
0.00157924
0.00157924
0.00157924
0.00121504
0.00121504
0.00121504
0.00122085
0.00122085
0.00122085
0.000963792
0.000963792
0.000963792
0.00096256
0.00096256
0.00096256
0.000974237
0.000974237
0.000974237
0.000986074
0.000986074
0.000986074
0.000978275
0.000978275
0.000978275
0.00101897
0.00101897
0.00101897
0.00101081
0.00101081
0.00101081
0.00100274
0.00100274
0.00100274
0.000990661
0.000990661
0.000990661
0.000998566
0.000998566
0.000998566
0.000986632
0.000986632
0.000986632
0.000990438
0.000990438
0.000990438
0.000963634
0.000963634
0.000963634
0.000967536
0.000967536
0.000967536
0.000963784
0.000963784
0.000963784
0.00156248
0.00156248
0.00156248
0.00154831
0.00154831
0.00154831
0.00154089
0.00154089
0.00154089
0.00152016
0.00152016
0.00152016
0.0015269
0.0015269
0.0015269
0.00159073
0.00159073
0.00159073
0.00127869
0.00127869
0.00127869
0.00128429
0.00128429
0.00128429
0.00128447
0.00128447
0.00128447
0.00127357
0.00127357
0.00127357
0.00141408
0.00141408
0.00141408
0.00138914
0.00138914
0.00138914
0.0014015
0.0014015
0.0014015
0.00106107
0.00106107
0.00106107
0.0010447
0.0010447
0.0010447
0.00105816
0.00105816
0.00105816
0.00105312
0.00105312
0.00105312
0.00107021
0.00107021
0.00107021
0.00106672
0.00106672
0.00106672
0.00113281
0.00113281
0.00113281
0.00113106
0.00113106
0.00113106
0.00112731
0.00112731
0.00112731
0.00116462
0.00116462
0.00116462
0.00117258
0.00117258
0.00117258
0.00120998
0.00120998
0.00120998
0.00120578
0.00120578
0.00120578
0.00135517
0.00135517
0.00135517
0.00135979
0.00135979
0.00135979
0.00137177
0.00137177
0.00137177
0.00137917
0.00137917
0.00137917
0.00134339
0.00134339
0.00134339
0.00132027
0.00132027
0.00132027
0.00133626
0.00133626
0.00133626
0.00132471
0.00132471
0.00132471
0.00132717
0.00132717
0.00132717
0.00133875
0.00133875
0.00133875
0.00120039
0.00120039
0.00120039
0.00123111
0.00123111
0.00123111
0.00122698
0.00122698
0.00122698
0.0012249
0.0012249
0.0012249
0.00122898
0.00122898
0.00122898
0.00122277
0.00122277
0.00122277
0.00121256
0.00121256
0.00121256
0.00120637
0.00120637
0.00120637
0.00119634
0.00119634
0.00119634
0.0011904
0.0011904
0.0011904
0.00110016
0.00110016
0.00110016
0.00119653
0.00119653
0.00119653
0.00121672
0.00121672
0.00121672
0.00116895
0.00116895
0.00116895
0.00112363
0.00112363
0.00112363
0.00111992
0.00111992
0.00111992
0.00117017
0.00117017
0.00117017
0.00118055
0.00118055
0.00118055
0.0011766
0.0011766
0.0011766
0.00114158
0.00114158
0.00114158
0.00113286
0.00113286
0.00113286
0.00113841
0.00113841
0.00113841
0.00116315
0.00116315
0.00116315
0.00115359
0.00115359
0.00115359
0.0011669
0.0011669
0.0011669
0.00116116
0.00116116
0.00116116
0.00114781
0.00114781
0.00114781
0.00115163
0.00115163
0.00115163
0.00151365
0.00151365
0.00151365
0.00146538
0.00146538
0.00146538
0.0014522
0.0014522
0.0014522
0.00151806
0.00151806
0.00151806
0.00149211
0.00149211
0.00149211
0.00150562
0.00150562
0.00150562
0.00147791
0.00147791
0.00147791
0.00138883
0.00138883
0.00138883
0.0015471
0.0015471
0.0015471
0.00153539
0.00153539
0.00153539
0.00154957
0.00154957
0.00154957
0.00155549
0.00155549
0.00155549
0.00157845
0.00157845
0.00157845
0.00156993
0.00156993
0.00156993
0.00157596
0.00157596
0.00157596
0.00149267
0.00149267
0.00149267
0.00150757
0.00150757
0.00150757
0.00152956
0.00152956
0.00152956
0.00151563
0.00151563
0.00151563
0.00153408
0.00153408
0.00153408
0.00152011
0.00152011
0.00152011
0.00156683
0.00156683
0.00156683
0.00158136
0.00158136
0.00158136
0.00158973
0.00158973
0.00158973
0.0012064
0.0012064
0.0012064
0.00121947
0.00121947
0.00121947
0.00125359
0.00125359
0.00125359
0.00126291
0.00126291
0.00126291
0.00125221
0.00125221
0.00125221
0.0012476
0.0012476
0.0012476
0.00123118
0.00123118
0.00123118
0.00123708
0.00123708
0.00123708
0.0012643
0.0012643
0.0012643
0.00126902
0.00126902
0.00126902
0.00133133
0.00133133
0.00133133
0.00124613
0.00124613
0.00124613
0.00124167
0.00124167
0.00124167
0.00121651
0.00121651
0.00121651
0.00123717
0.00123717
0.00123717
0.000961316
0.000961316
0.000961316
0.000961772
0.000961772
0.000961772
0.000965355
0.000965355
0.000965355
0.000973023
0.000973023
0.000973023
0.000951663
0.000951663
0.000951663
0.00114388
0.00114388
0.00114388
0.00116291
0.00116291
0.00116291
0.00114945
0.00114945
0.00114945
0.00115897
0.00115897
0.00115897
0.00116065
0.00116065
0.00116065
0.00116628
0.00116628
0.00116628
0.000976645
0.000976645
0.000976645
0.000959702
0.000959702
0.000959702
0.000950664
0.000950664
0.000950664
0.00108753
0.00108753
0.00108753
0.00108343
0.00108343
0.00108343
0.000994727
0.000994727
0.000994727
0.000971406
0.000971406
0.000971406
0.000979077
0.000979077
0.000979077
0.000986863
0.000986863
0.000986863
0.00154765
0.00154765
0.00154765
0.00159895
0.00159895
0.00159895
0.00135297
0.00135297
0.00135297
0.00136488
0.00136488
0.00136488
0.00129537
0.00129537
0.00129537
0.00102584
0.00102584
0.00102584
0.00135251
0.00135251
0.00135251
0.00136441
0.00136441
0.00136441
0.00126228
0.00126228
0.00126228
0.00126754
0.00126754
0.00126754
0.00125182
0.00125182
0.00125182
0.00126252
0.00126252
0.00126252
0.0012627
0.0012627
0.0012627
0.00126802
0.00126802
0.00126802
0.00124147
0.00124147
0.00124147
0.001252
0.001252
0.001252
0.00124662
0.00124662
0.00124662
0.00123611
0.00123611
0.00123611
0.00123096
0.00123096
0.00123096
0.0011866
0.0011866
0.0011866
0.00118069
0.00118069
0.00118069
0.00107197
0.00107197
0.00107197
0.00114216
0.00114216
0.00114216
0.00114774
0.00114774
0.00114774
0.00115724
0.00115724
0.00115724
0.00112555
0.00112555
0.00112555
0.00112926
0.00112926
0.00112926
0.00109658
0.00109658
0.00109658
0.00104131
0.00104131
0.00104131
0.00108339
0.00108339
0.00108339
0.00117432
0.00117432
0.00117432
0.00119402
0.00119402
0.00119402
0.00118818
0.00118818
0.00118818
0.00117834
0.00117834
0.00117834
0.00118005
0.00118005
0.00118005
0.00118992
0.00118992
0.00118992
0.00122018
0.00122018
0.00122018
0.00122621
0.00122621
0.00122621
0.0012117
0.0012117
0.0012117
0.00122192
0.00122192
0.00122192
0.00125505
0.00125505
0.00125505
0.00125953
0.00125953
0.00125953
0.00123122
0.00123122
0.00123122
0.00123938
0.00123938
0.00123938
0.00132264
0.00132264
0.00132264
0.00131356
0.00131356
0.00131356
0.00131126
0.00131126
0.00131126
0.00130676
0.00130676
0.00130676
0.00152468
0.00152468
0.00152468
0.00153294
0.00153294
0.00153294
0.00152716
0.00152716
0.00152716
0.00151326
0.00151326
0.00151326
0.00145168
0.00145168
0.00145168
0.00148395
0.00148395
0.00148395
0.00149747
0.00149747
0.00149747
0.00142394
0.00142394
0.00142394
0.0014392
0.0014392
0.0014392
0.00141637
0.00141637
0.00141637
0.00116115
0.00116115
0.00116115
0.00120447
0.00120447
0.00120447
0.00119848
0.00119848
0.00119848
0.00120252
0.00120252
0.00120252
0.00121263
0.00121263
0.00121263
0.00124365
0.00124365
0.00124365
0.00123319
0.00123319
0.00123319
0.00119247
0.00119247
0.00119247
0.00118461
0.00118461
0.00118461
0.00118259
0.00118259
0.00118259
0.00117868
0.00117868
0.00117868
0.00121044
0.00121044
0.00121044
0.00119971
0.00119971
0.00119971
0.00114981
0.00114981
0.00114981
0.00113856
0.00113856
0.00113856
0.00114231
0.00114231
0.00114231
0.00111273
0.00111273
0.00111273
0.00112373
0.00112373
0.00112373
0.00110915
0.00110915
0.00110915
0.00111458
0.00111458
0.00111458
0.00109477
0.00109477
0.00109477
0.00108593
0.00108593
0.00108593
0.00108067
0.00108067
0.00108067
0.00153636
0.00153636
0.00153636
0.00152507
0.00152507
0.00152507
0.0015326
0.0015326
0.0015326
0.00152741
0.00152741
0.00152741
0.00154727
0.00154727
0.00154727
0.00150825
0.00150825
0.00150825
0.00146793
0.00146793
0.00146793
0.00149462
0.00149462
0.00149462
0.00148651
0.00148651
0.00148651
0.0014732
0.0014732
0.0014732
0.00145742
0.00145742
0.00145742
0.0014367
0.0014367
0.0014367
0.00144441
0.00144441
0.00144441
0.00144186
0.00144186
0.00144186
0.00139139
0.00139139
0.00139139
0.00139619
0.00139619
0.00139619
0.0014469
0.0014469
0.0014469
0.0014548
0.0014548
0.0014548
0.00154003
0.00154003
0.00154003
0.00153775
0.00153775
0.00153775
0.00153186
0.00153186
0.00153186
0.00158087
0.00158087
0.00158087
0.00157238
0.00157238
0.00157238
0.00155793
0.00155793
0.00155793
0.00155195
0.00155195
0.00155195
0.00155934
0.00155934
0.00155934
0.00153917
0.00153917
0.00153917
0.0015449
0.0015449
0.0015449
0.00156803
0.00156803
0.00156803
0.00155297
0.00155297
0.00155297
0.0015674
0.0015674
0.0015674
0.00149391
0.00149391
0.00149391
0.0014883
0.0014883
0.0014883
0.0013998
0.0013998
0.0013998
0.00139262
0.00139262
0.00139262
0.00142592
0.00142592
0.00142592
0.00147488
0.00147488
0.00147488
0.00146711
0.00146711
0.00146711
0.0014792
0.0014792
0.0014792
0.00143342
0.00143342
0.00143342
0.00144632
0.00144632
0.00144632
0.00145396
0.00145396
0.00145396
0.00144854
0.00144854
0.00144854
0.00150988
0.00150988
0.00150988
0.0014984
0.0014984
0.0014984
0.0015121
0.0015121
0.0015121
0.00151791
0.00151791
0.00151791
0.00149052
0.00149052
0.00149052
0.0014962
0.0014962
0.0014962
0.00154222
0.00154222
0.00154222
0.00155646
0.00155646
0.00155646
0.00156473
0.00156473
0.00156473
0.00155859
0.00155859
0.00155859
0.00151424
0.00151424
0.00151424
0.00150051
0.00150051
0.00150051
0.00149473
0.00149473
0.00149473
0.00138248
0.00138248
0.00138248
0.00137035
0.00137035
0.00137035
0.00118741
0.00118741
0.00118741
0.00122796
0.00122796
0.00122796
0.00118275
0.00118275
0.00118275
0.00118797
0.00118797
0.00118797
0.00123284
0.00123284
0.00123284
0.00121199
0.00121199
0.00121199
0.00120741
0.00120741
0.00120741
0.00125953
0.00125953
0.00125953
0.00125366
0.00125366
0.00125366
0.00124199
0.00124199
0.00124199
0.00127032
0.00127032
0.00127032
0.00127629
0.00127629
0.00127629
0.00128727
0.00128727
0.00128727
0.00129229
0.00129229
0.00129229
0.00121364
0.00121364
0.00121364
0.00122979
0.00122979
0.00122979
0.0012357
0.0012357
0.0012357
0.00124621
0.00124621
0.00124621
0.00125078
0.00125078
0.00125078
0.00130964
0.00130964
0.00130964
0.00130346
0.00130346
0.00130346
0.00127038
0.00127038
0.00127038
0.00127991
0.00127991
0.00127991
0.00125847
0.00125847
0.00125847
0.00125257
0.00125257
0.00125257
0.00130616
0.00130616
0.00130616
0.00129991
0.00129991
0.00129991
0.00125838
0.00125838
0.00125838
0.00124774
0.00124774
0.00124774
0.00124768
0.00124768
0.00124768
0.00133849
0.00133849
0.00133849
0.000962187
0.000962187
0.000962187
0.000965795
0.000965795
0.000965795
0.000966192
0.000966192
0.000966192
0.00100383
0.00100383
0.00100383
0.000987509
0.000987509
0.000987509
0.000995885
0.000995885
0.000995885
0.000953877
0.000953877
0.000953877
0.000943708
0.000943708
0.000943708
0.000947361
0.000947361
0.000947361
0.00114555
0.00114555
0.00114555
0.0011511
0.0011511
0.0011511
0.00114717
0.00114717
0.00114717
0.00113776
0.00113776
0.00113776
0.00116227
0.00116227
0.00116227
0.0011527
0.0011527
0.0011527
0.000964875
0.000964875
0.000964875
0.000972536
0.000972536
0.000972536
0.000960819
0.000960819
0.000960819
0.000964354
0.000964354
0.000964354
0.000971438
0.000971438
0.000971438
0.000974987
0.000974987
0.000974987
0.000982743
0.000982743
0.000982743
0.0009821
0.0009821
0.0009821
0.000986331
0.000986331
0.000986331
0.000998485
0.000998485
0.000998485
0.000994199
0.000994199
0.000994199
0.000957721
0.000957721
0.000957721
0.000954924
0.000954924
0.000954924
0.00109642
0.00109642
0.00109642
0.00111449
0.00111449
0.00111449
0.000970557
0.000970557
0.000970557
0.000977115
0.000977115
0.000977115
0.000984898
0.000984898
0.000984898
0.000973469
0.000973469
0.000973469
0.00145632
0.00145632
0.00145632
0.00148142
0.00148142
0.00148142
0.00152453
0.00152453
0.00152453
0.00152506
0.00152506
0.00152506
0.00151785
0.00151785
0.00151785
0.00148399
0.00148399
0.00148399
0.00150408
0.00150408
0.00150408
0.00149751
0.00149751
0.00149751
0.00151729
0.00151729
0.00151729
0.00154039
0.00154039
0.00154039
0.00150628
0.00150628
0.00150628
0.00149269
0.00149269
0.00149269
0.00159236
0.00159236
0.00159236
0.00155676
0.00155676
0.00155676
0.00157118
0.00157118
0.00157118
0.00157769
0.00157769
0.00157769
0.00152842
0.00152842
0.00152842
0.00155956
0.00155956
0.00155956
0.00157402
0.00157402
0.00157402
0.00134676
0.00134676
0.00134676
0.00135278
0.00135278
0.00135278
0.00134699
0.00134699
0.00134699
0.00138294
0.00138294
0.00138294
0.00137081
0.00137081
0.00137081
0.00138894
0.00138894
0.00138894
0.00138269
0.00138269
0.00138269
0.00136468
0.00136468
0.00136468
0.00137057
0.00137057
0.00137057
0.00130084
0.00130084
0.00130084
0.00131183
0.00131183
0.00131183
0.00130681
0.00130681
0.00130681
0.00129555
0.00129555
0.00129555
0.00130106
0.00130106
0.00130106
0.00102718
0.00102718
0.00102718
0.00109079
0.00109079
0.00109079
0.0010732
0.0010732
0.0010732
0.00111572
0.00111572
0.00111572
0.00112491
0.00112491
0.00112491
0.00112326
0.00112326
0.00112326
0.00115139
0.00115139
0.00115139
0.00116093
0.00116093
0.00116093
0.001096
0.001096
0.001096
0.00108692
0.00108692
0.00108692
0.00107811
0.00107811
0.00107811
0.00108706
0.00108706
0.00108706
0.00109144
0.00109144
0.00109144
0.0010865
0.0010865
0.0010865
0.00107769
0.00107769
0.00107769
0.00106498
0.00106498
0.00106498
0.00107366
0.00107366
0.00107366
0.00107793
0.00107793
0.00107793
0.00107345
0.00107345
0.00107345
0.00103411
0.00103411
0.00103411
0.00138866
0.00138866
0.00138866
0.00140101
0.00140101
0.00140101
0.00128405
0.00128405
0.00128405
0.00127842
0.00127842
0.00127842
0.00129512
0.00129512
0.00129512
0.00130056
0.00130056
0.00130056
0.00126199
0.00126199
0.00126199
0.00118043
0.00118043
0.00118043
0.00117542
0.00117542
0.00117542
0.00117061
0.00117061
0.00117061
0.00117045
0.00117045
0.00117045
0.00117523
0.00117523
0.00117523
0.00123079
0.00123079
0.00123079
0.00122046
0.00122046
0.00122046
0.00118452
0.00118452
0.00118452
0.00125159
0.00125159
0.00125159
0.00123057
0.00123057
0.00123057
0.00124642
0.00124642
0.00124642
0.0012359
0.0012359
0.0012359
0.00107103
0.00107103
0.00107103
0.00107973
0.00107973
0.00107973
0.00111813
0.00111813
0.00111813
0.00108245
0.00108245
0.00108245
0.00108772
0.00108772
0.00108772
0.00111095
0.00111095
0.00111095
0.00110194
0.00110194
0.00110194
0.00111638
0.00111638
0.00111638
0.00111271
0.00111271
0.00111271
0.00111442
0.00111442
0.00111442
0.00110537
0.00110537
0.00110537
0.00105484
0.00105484
0.00105484
0.00104641
0.00104641
0.00104641
0.00122442
0.00122442
0.00122442
0.00121837
0.00121837
0.00121837
0.00122258
0.00122258
0.00122258
0.00123292
0.00123292
0.00123292
0.00123908
0.00123908
0.00123908
0.00123479
0.00123479
0.00123479
0.00122794
0.00122794
0.00122794
0.00123834
0.00123834
0.00123834
0.00124004
0.00124004
0.00124004
0.00124445
0.00124445
0.00124445
0.00120747
0.00120747
0.00120747
0.00119323
0.00119323
0.00119323
0.00119741
0.00119741
0.00119741
0.00125675
0.00125675
0.00125675
0.00126126
0.00126126
0.00126126
0.00126294
0.00126294
0.00126294
0.0013222
0.0013222
0.0013222
0.00133372
0.00133372
0.00133372
0.00126493
0.00126493
0.00126493
0.00124356
0.00124356
0.00124356
0.00124154
0.00124154
0.00124154
0.00124574
0.00124574
0.00124574
0.00124787
0.00124787
0.00124787
0.0012585
0.0012585
0.0012585
0.00129327
0.00129327
0.00129327
0.00130891
0.00130891
0.00130891
0.00130443
0.00130443
0.00130443
0.00134583
0.00134583
0.00134583
0.00137434
0.00137434
0.00137434
0.00136233
0.00136233
0.00136233
0.00135763
0.00135763
0.00135763
0.0013648
0.0013648
0.0013648
0.00140386
0.00140386
0.00140386
0.00150827
0.00150827
0.00150827
0.00151946
0.00151946
0.00151946
0.00150564
0.00150564
0.00150564
0.00150012
0.00150012
0.00150012
0.00150268
0.00150268
0.00150268
0.00150517
0.00150517
0.00150517
0.00151081
0.00151081
0.00151081
0.00148909
0.00148909
0.00148909
0.00150295
0.00150295
0.00150295
0.00152229
0.00152229
0.00152229
0.00151673
0.00151673
0.00151673
0.00149477
0.00149477
0.00149477
0.00146527
0.00146527
0.00146527
0.00147856
0.00147856
0.00147856
0.00148656
0.00148656
0.00148656
0.00148111
0.00148111
0.00148111
0.00139882
0.00139882
0.00139882
0.00141128
0.00141128
0.00141128
0.00142142
0.00142142
0.00142142
0.00143415
0.00143415
0.00143415
0.00141888
0.00141888
0.00141888
0.00141385
0.00141385
0.00141385
0.0011708
0.0011708
0.0011708
0.00119042
0.00119042
0.00119042
0.00118639
0.00118639
0.00118639
0.00117657
0.00117657
0.00117657
0.00118853
0.00118853
0.00118853
0.00116896
0.00116896
0.00116896
0.00118454
0.00118454
0.00118454
0.00117474
0.00117474
0.00117474
0.00118264
0.00118264
0.00118264
0.00117287
0.00117287
0.00117287
0.00114598
0.00114598
0.00114598
0.00115546
0.00115546
0.00115546
0.00115933
0.00115933
0.00115933
0.00114038
0.00114038
0.00114038
0.00114417
0.00114417
0.00114417
0.00115363
0.00115363
0.00115363
0.00122902
0.00122902
0.00122902
0.00122068
0.00122068
0.00122068
0.001231
0.001231
0.001231
0.00123521
0.00123521
0.00123521
0.0012146
0.0012146
0.0012146
0.00121872
0.00121872
0.00121872
0.00121466
0.00121466
0.00121466
0.0012106
0.0012106
0.0012106
0.00120852
0.00120852
0.00120852
0.00119846
0.00119846
0.00119846
0.00120052
0.00120052
0.00120052
0.00119452
0.00119452
0.00119452
0.00122677
0.00122677
0.00122677
0.00122063
0.00122063
0.00122063
0.00123026
0.00123026
0.00123026
0.00124137
0.00124137
0.00124137
0.00123715
0.00123715
0.00123715
0.00116707
0.00116707
0.00116707
0.00115746
0.00115746
0.00115746
0.00116513
0.00116513
0.00116513
0.00117094
0.00117094
0.00117094
0.00115555
0.00115555
0.00115555
0.00115175
0.00115175
0.00115175
0.00112553
0.00112553
0.00112553
0.00112186
0.00112186
0.00112186
0.00113478
0.00113478
0.00113478
0.00114039
0.00114039
0.00114039
0.00113669
0.00113669
0.00113669
0.00112741
0.00112741
0.00112741
0.00107888
0.00107888
0.00107888
0.00108409
0.00108409
0.00108409
0.0011139
0.0011139
0.0011139
0.00108708
0.00108708
0.00108708
0.00155666
0.00155666
0.00155666
0.00151394
0.00151394
0.00151394
0.00150019
0.00150019
0.00150019
0.00147585
0.00147585
0.00147585
0.00148924
0.00148924
0.00148924
0.00147858
0.00147858
0.00147858
0.00147059
0.00147059
0.00147059
0.00149201
0.00149201