<VTKFile type="UnstructuredGrid" version="1.0">
<UnstructuredGrid>
<Piece NumberOfPoints="8859" NumberOfCells="2953">
<Points>
<DataArray type="Float64" NumberOfComponents="3" format="ascii">
0.5 3.01 10.355
0.512524 3.01 10.3775
0.487476 3.01 10.3775
0.17352 3.01 9.4775
0.160827 3.01 9.49922
0.148445 3.01 9.4775
0.122979 3.01 9.52089
0.110383 3.01 9.49921
0.135644 3.01 9.49922
0.135644 3.01 9.49922
0.110383 3.01 9.49921
0.123433 3.01 9.4775
0.123433 3.01 9.4775
0.148445 3.01 9.4775
0.135644 3.01 9.49922
0.135644 3.01 9.49922
0.148445 3.01 9.4775
0.160827 3.01 9.49922
0.17352 3.01 9.4775
0.198629 3.01 9.4775
0.185985 3.01 9.4992
0.185985 3.01 9.4992
0.160827 3.01 9.49922
0.17352 3.01 9.4775
0.0732297 3.01 9.52067
0.0586606 3.01 9.49881
0.0848754 3.01 9.49914
0.05 3.01 10.3103
0.05 3.01 10.2651
0.058509 3.01 10.2876
0.324276 3.01 9.4775
0.349395 3.01 9.4775
0.336827 3.01 9.49916
0.148138 3.01 9.5209
0.135644 3.01 9.49922
0.160827 3.01 9.49922
0.122979 3.01 9.52089
0.135644 3.01 9.49922
0.148138 3.01 9.5209
0.160827 3.01 9.49922
0.185985 3.01 9.4992
0.173316 3.01 9.52089
0.185806 3.01 9.54255
0.160572 3.01 9.54255
0.173316 3.01 9.52089
0.173316 3.01 9.52089
0.148138 3.01 9.5209
0.160827 3.01 9.49922
0.160572 3.01 9.54255
0.148138 3.01 9.5209
0.173316 3.01 9.52089
0.211137 3.01 9.49919
0.185985 3.01 9.4992
0.198629 3.01 9.4775
0.0979162 3.01 9.52084
0.110383 3.01 9.49921
0.122979 3.01 9.52089
0.122979 3.01 9.52089
0.109875 3.01 9.54249
0.0979162 3.01 9.52084
0.0732297 3.01 9.52067
0.0848754 3.01 9.49914
0.0979162 3.01 9.52084
0.0979162 3.01 9.52084
0.0848754 3.01 9.49914
0.110383 3.01 9.49921
0.0975729 3.01 9.56404
0.109875 3.01 9.54249
0.122678 3.01 9.56414
0.0841718 3.01 9.54235
0.0577122 3.01 9.54202
0.0732297 3.01 9.52067
0.0729308 3.01 9.56388
0.0577122 3.01 9.54202
0.0841718 3.01 9.54235
0.0732297 3.01 9.52067
0.0979162 3.01 9.52084
0.0841718 3.01 9.54235
0.0841718 3.01 9.54235
0.0979162 3.01 9.52084
0.109875 3.01 9.54249
0.0975729 3.01 9.56404
0.0729308 3.01 9.56388
0.0841718 3.01 9.54235
0.0841718 3.01 9.54235
0.109875 3.01 9.54249
0.0975729 3.01 9.56404
0.073948 3.01 9.4775
0.0586606 3.01 9.49881
0.05 3.01 9.4775
0.073948 3.01 9.4775
0.0848754 3.01 9.49914
0.0586606 3.01 9.49881
0.05 3.01 10.3533
0.05 3.01 10.3103
0.0603641 3.01 10.332
0.0603641 3.01 10.332
0.0753197 3.01 10.354
0.05 3.01 10.3533
0.0709395 3.01 10.3775
0.05 3.01 10.3775
0.05 3.01 10.3533
0.05 3.01 10.3533
0.0753197 3.01 10.354
0.0709395 3.01 10.3775
0.0579641 3.01 10.0646
0.05 3.01 10.0867
0.05 3.01 10.0426
0.0841948 3.01 9.9768
0.097638 3.01 9.95493
0.109814 3.01 9.9768
0.0841948 3.01 9.9768
0.0730539 3.01 9.9987
0.0578646 3.01 9.9768
0.0580261 3.01 10.1088
0.05 3.01 10.1309
0.05 3.01 10.0867
0.942292 3.01 9.67236
0.95 3.01 9.65067
0.95 3.01 9.69404
0.95 3.01 9.60726
0.95 3.01 9.65067
0.942332 3.01 9.62897
0.73872 3.01 9.88953
0.726137 3.01 9.86776
0.75132 3.01 9.86775
0.751305 3.01 9.91132
0.726124 3.01 9.91133
0.73872 3.01 9.88953
0.713546 3.01 9.88954
0.726137 3.01 9.86776
0.73872 3.01 9.88953
0.73872 3.01 9.88953
0.726124 3.01 9.91133
0.713546 3.01 9.88954
0.814318 3.01 9.93311
0.789096 3.01 9.93312
0.801709 3.01 9.9113
0.7765 3.01 9.91131
0.789115 3.01 9.88951
0.801709 3.01 9.9113
0.801709 3.01 9.9113
0.789096 3.01 9.93312
0.7765 3.01 9.91131
0.7765 3.01 9.91131
0.789096 3.01 9.93312
0.763892 3.01 9.93314
0.763892 3.01 9.93314
0.751305 3.01 9.91132
0.7765 3.01 9.91131
0.95 3.01 10.3775
0.929061 3.01 10.3775
0.95 3.01 10.3533
0.95 3.01 10.1754
0.926844 3.01 10.1754
0.941913 3.01 10.1532
0.941913 3.01 10.1532
0.95 3.01 10.1309
0.95 3.01 10.1754
0.926866 3.01 10.1309
0.95 3.01 10.1309
0.941913 3.01 10.1532
0.941974 3.01 10.1088
0.95 3.01 10.1309
0.926866 3.01 10.1309
0.95 3.01 10.0867
0.95 3.01 10.1309
0.941974 3.01 10.1088
0.941974 3.01 10.1088
0.926895 3.01 10.0867
0.95 3.01 10.0867
0.6127 3.01 10.3775
0.625238 3.01 10.355
0.637734 3.01 10.3775
0.662757 3.01 10.3775
0.637734 3.01 10.3775
0.650275 3.01 10.355
0.650275 3.01 10.355
0.637734 3.01 10.3775
0.625238 3.01 10.355
0.600415 3.01 9.91137
0.587856 3.01 9.9332
0.575304 3.01 9.91137
0.575304 3.01 9.91137
0.587856 3.01 9.9332
0.562749 3.01 9.9332
0.336827 3.01 9.49916
0.349395 3.01 9.4775
0.361946 3.01 9.49916
0.223755 3.01 9.4775
0.211137 3.01 9.49919
0.198629 3.01 9.4775
0.185985 3.01 9.4992
0.211137 3.01 9.49919
0.198492 3.01 9.52088
0.185806 3.01 9.54255
0.173316 3.01 9.52089
0.198492 3.01 9.52088
0.198492 3.01 9.52088
0.173316 3.01 9.52089
0.185985 3.01 9.4992
0.0576202 3.01 9.58553
0.05 3.01 9.60726
0.05 3.01 9.56374
0.05 3.01 9.56374
0.0729308 3.01 9.56388
0.0576202 3.01 9.58553
0.05 3.01 9.56374
0.0577122 3.01 9.54202
0.0729308 3.01 9.56388
0.135283 3.01 9.54254
0.109875 3.01 9.54249
0.122979 3.01 9.52089
0.135283 3.01 9.54254
0.122678 3.01 9.56414
0.109875 3.01 9.54249
0.122979 3.01 9.52089
0.148138 3.01 9.5209
0.135283 3.01 9.54254
0.135283 3.01 9.54254
0.148138 3.01 9.5209
0.160572 3.01 9.54255
0.123433 3.01 9.4775
0.110383 3.01 9.49921
0.0985513 3.01 9.4775
0.110383 3.01 9.49921
0.0848754 3.01 9.49914
0.0985513 3.01 9.4775
0.0848754 3.01 9.49914
0.073948 3.01 9.4775
0.0985513 3.01 9.4775
0.0603641 3.01 10.332
0.05 3.01 10.3103
0.0739464 3.01 10.3095
0.0739464 3.01 10.3095
0.05 3.01 10.3103
0.058509 3.01 10.2876
0.058509 3.01 10.2876
0.0849548 3.01 10.2871
0.0739464 3.01 10.3095
0.058509 3.01 10.2876
0.05 3.01 10.2651
0.0732725 3.01 10.2649
0.0732725 3.01 10.2649
0.0849548 3.01 10.2871
0.058509 3.01 10.2876
0.5 3.01 10.355
0.487476 3.01 10.3775
0.47495 3.01 10.355
0.097663 3.01 9.9987
0.0841948 3.01 9.9768
0.109814 3.01 9.9768
0.0730539 3.01 9.9987
0.0841948 3.01 9.9768
0.097663 3.01 9.9987
0.0578646 3.01 9.9768
0.0730539 3.01 9.9987
0.05 3.01 9.9987
0.05 3.01 9.9987
0.05 3.01 9.95492
0.0578646 3.01 9.9768
0.05 3.01 10.1754
0.05 3.01 10.1309
0.0580869 3.01 10.1532
0.05 3.01 10.1309
0.0580261 3.01 10.1088
0.073134 3.01 10.1309
0.073134 3.01 10.1309
0.0580869 3.01 10.1532
0.05 3.01 10.1309
0.942268 3.01 9.71573
0.95 3.01 9.69404
0.95 3.01 9.73741
0.942292 3.01 9.67236
0.95 3.01 9.69404
0.927025 3.01 9.69404
0.927025 3.01 9.69404
0.942268 3.01 9.71573
0.915919 3.01 9.71572
0.95 3.01 9.69404
0.942268 3.01 9.71573
0.927025 3.01 9.69404
0.927013 3.01 9.73741
0.942268 3.01 9.71573
0.95 3.01 9.73741
0.915919 3.01 9.71572
0.942268 3.01 9.71573
0.927013 3.01 9.73741
0.801738 3.01 9.82425
0.814364 3.01 9.80253
0.826957 3.01 9.82425
0.852174 3.01 9.82424
0.826957 3.01 9.82425
0.839609 3.01 9.80252
0.839609 3.01 9.80252
0.826957 3.01 9.82425
0.814364 3.01 9.80253
0.776516 3.01 9.86775
0.75132 3.01 9.86775
0.763923 3.01 9.846
0.776516 3.01 9.86775
0.801725 3.01 9.86774
0.789115 3.01 9.88951
0.738704 3.01 9.93315
0.751305 3.01 9.91132
0.763892 3.01 9.93314
0.726124 3.01 9.91133
0.751305 3.01 9.91132
0.738704 3.01 9.93315
0.915617 3.01 10.1531
0.902228 3.01 10.1309
0.926866 3.01 10.1309
0.926866 3.01 10.1309
0.941913 3.01 10.1532
0.915617 3.01 10.1531
0.915617 3.01 10.1531
0.941913 3.01 10.1532
0.926844 3.01 10.1754
0.915617 3.01 10.1531
0.926844 3.01 10.1754
0.902193 3.01 10.1754
0.926866 3.01 10.1309
0.902228 3.01 10.1309
0.915668 3.01 10.1088
0.902267 3.01 10.0867
0.926895 3.01 10.0867
0.915668 3.01 10.1088
0.915668 3.01 10.1088
0.941974 3.01 10.1088
0.926866 3.01 10.1309
0.926895 3.01 10.0867
0.941974 3.01 10.1088
0.915668 3.01 10.1088
0.902267 3.01 10.0867
0.915668 3.01 10.1088
0.890059 3.01 10.1088
0.890059 3.01 10.1088
0.915668 3.01 10.1088
0.902228 3.01 10.1309
0.826927 3.01 9.91129
0.814318 3.01 9.93311
0.801709 3.01 9.9113
0.864816 3.01 9.9768
0.877308 3.01 9.95493
0.890186 3.01 9.9768
0.877308 3.01 9.95493
0.864816 3.01 9.9768
0.852122 3.01 9.95494
0.890186 3.01 9.9768
0.877308 3.01 9.95493
0.902362 3.01 9.95493
0.902362 3.01 9.95493
0.915805 3.01 9.9768
0.890186 3.01 9.9768
0.902362 3.01 9.95493
0.926964 3.01 9.95492
0.915805 3.01 9.9768
0.915835 3.01 9.93309
0.926964 3.01 9.95492
0.902362 3.01 9.95493
0.942171 3.01 9.93309
0.926964 3.01 9.95492
0.915835 3.01 9.93309
0.915835 3.01 9.93309
0.926978 3.01 9.91127
0.942171 3.01 9.93309
0.942171 3.01 9.93309
0.926978 3.01 9.91127
0.95 3.01 9.91127
0.87737 3.01 9.78081
0.890277 3.01 9.75911
0.902417 3.01 9.7808
0.852144 3.01 9.91128
0.877329 3.01 9.91128
0.864842 3.01 9.93309
0.877308 3.01 9.95493
0.852122 3.01 9.95494
0.864842 3.01 9.93309
0.902396 3.01 9.86772
0.915858 3.01 9.88948
0.890234 3.01 9.88949
0.926997 3.01 9.82423
0.942237 3.01 9.80251
0.95 3.01 9.82423
0.91589 3.01 9.80251
0.942237 3.01 9.80251
0.926997 3.01 9.82423
0.942199 3.01 9.88948
0.95 3.01 9.86771
0.95 3.01 9.91127
0.95 3.01 9.91127
0.926978 3.01 9.91127
0.942199 3.01 9.88948
0.942199 3.01 9.88948
0.926978 3.01 9.91127
0.915858 3.01 9.88948
0.95 3.01 9.82423
0.95 3.01 9.86771
0.942221 3.01 9.84597
0.942221 3.01 9.84597
0.926997 3.01 9.82423
0.95 3.01 9.82423
0.915876 3.01 9.84597
0.926997 3.01 9.82423
0.942221 3.01 9.84597
0.926989 3.01 9.86771
0.915858 3.01 9.88948
0.902396 3.01 9.86772
0.902396 3.01 9.86772
0.915876 3.01 9.84597
0.926989 3.01 9.86771
0.926989 3.01 9.86771
0.942199 3.01 9.88948
0.915858 3.01 9.88948
0.95 3.01 9.86771
0.942199 3.01 9.88948
0.926989 3.01 9.86771
0.915876 3.01 9.84597
0.942221 3.01 9.84597
0.926989 3.01 9.86771
0.926989 3.01 9.86771
0.942221 3.01 9.84597
0.95 3.01 9.86771
0.91353 3.01 10.3319
0.926054 3.01 10.3095
0.939636 3.01 10.332
0.926728 3.01 10.2649
0.95 3.01 10.2651
0.941491 3.01 10.2876
0.926728 3.01 10.2649
0.941822 3.01 10.2425
0.95 3.01 10.2651
0.95 3.01 10.3103
0.95 3.01 10.3533
0.939636 3.01 10.332
0.95 3.01 10.3103
0.926054 3.01 10.3095
0.941491 3.01 10.2876
0.939636 3.01 10.332
0.926054 3.01 10.3095
0.95 3.01 10.3103
0.941491 3.01 10.2876
0.95 3.01 10.2651
0.95 3.01 10.3103
0.941869 3.01 10.1977
0.926844 3.01 10.1754
0.95 3.01 10.1754
0.762942 3.01 10.3323
0.75028 3.01 10.3549
0.737933 3.01 10.3323
0.71291 3.01 10.3324
0.725533 3.01 10.3099
0.737933 3.01 10.3323
0.71291 3.01 10.3324
0.737933 3.01 10.3323
0.725313 3.01 10.3549
0.725313 3.01 10.3549
0.737933 3.01 10.3323
0.75028 3.01 10.3549
[...]
<PointData Scalars="View Factor" >
<DataArray type="Float64" Name="View Factor" NumberOfComponents="1" format="ascii">
0.00115697
0.00115697
0.00115697
0.000746798
0.000746798
0.000746798
0.000754783
0.000754783
0.000754783
0.000749592
0.000749592
0.000749592
0.000746946
0.000746946
0.000746946
0.000749457
0.000749457
0.000749457
0.000746625
0.000746625
0.000746625
0.000749294
0.000749294
0.000749294
0.000754896
0.000754896
0.000754896
0.00111656
0.00111656
0.00111656
0.000745068
0.000745068
0.000745068
0.000754647
0.000754647
0.000754647
0.000757329
0.000757329
0.000757329
0.000754482
0.000754482
0.000754482
0.00076498
0.00076498
0.00076498
0.000757177
0.000757177
0.000757177
0.000762427
0.000762427
0.000762427
0.000749106
0.000749106
0.000749106
0.000757445
0.000757445
0.000757445
0.000762689
0.000762689
0.000762689
0.000757508
0.000757508
0.000757508
0.000754879
0.000754879
0.000754879
0.000773302
0.000773302
0.000773302
0.000765372
0.000765372
0.000765372
0.000770676
0.000770676
0.000770676
0.000762745
0.000762745
0.000762745
0.00076536
0.00076536
0.00076536
0.000773354
0.000773354
0.000773354
0.000770665
0.000770665
0.000770665
0.000747188
0.000747188
0.000747188
0.00074973
0.00074973
0.00074973
0.00114287
0.00114287
0.00114287
0.00115168
0.00115168
0.00115168
0.00116585
0.00116585
0.00116585
0.00116097
0.00116097
0.00116097
0.000994704
0.000994704
0.000994704
0.000947592
0.000947592
0.000947592
0.000954726
0.000954726
0.000954726
0.00101747
0.00101747
0.00101747
0.000798118
0.000798118
0.000798118
0.000781652
0.000781652
0.000781652
0.000889891
0.000889891
0.000889891
0.000902818
0.000902818
0.000902818
0.000893573
0.000893573
0.000893573
0.000900042
0.000900042
0.000900042
0.000910107
0.000910107
0.000910107
0.000900809
0.000900809
0.000900809
0.000907345
0.000907345
0.000907345
0.00091116
0.00091116
0.00091116
0.000908377
0.000908377
0.000908377
0.00113317
0.00113317
0.00113317
0.00102111
0.00102111
0.00102111
0.00101296
0.00101296
0.00101296
0.00100577
0.00100577
0.00100577
0.000998231
0.000998231
0.000998231
0.000990343
0.000990343
0.000990343
0.000983388
0.000983388
0.000983388
0.00115174
0.00115174
0.00115174
0.00115056
0.00115056
0.00115056
0.0011466
0.0011466
0.0011466
0.000914677
0.000914677
0.000914677
0.000918399
0.000918399
0.000918399
0.000747462
0.000747462
0.000747462
0.000746427
0.000746427
0.000746427
0.00075429
0.00075429
0.00075429
0.000762246
0.000762246
0.000762246
0.000756998
0.000756998
0.000756998
0.000784222
0.000784222
0.000784222
0.000778761
0.000778761
0.000778761
0.000773351
0.000773351
0.000773351
0.000765276
0.000765276
0.000765276
0.000770585
0.000770585
0.000770585
0.000762577
0.000762577
0.000762577
0.000765146
0.000765146
0.000765146
0.000747067
0.000747067
0.000747067
0.000749693
0.000749693
0.000749693
0.000747156
0.000747156
0.000747156
0.00113406
0.00113406
0.00113406
0.00112525
0.00112525
0.00112525
0.00112063
0.00112063
0.00112063
0.00110769
0.00110769
0.00110769
0.00111191
0.00111191
0.00111191
0.00115284
0.00115284
0.00115284
0.000954605
0.000954605
0.000954605
0.000958201
0.000958201
0.000958201
0.000958303
0.000958303
0.000958303
0.00095128
0.00095128
0.00095128
0.00104099
0.00104099
0.00104099
0.00102519
0.00102519
0.00102519
0.00103303
0.00103303
0.00103303
0.00081501
0.00081501
0.00081501
0.000804017
0.000804017
0.000804017
0.000812959
0.000812959
0.000812959
0.000809651
0.000809651
0.000809651
0.000821066
0.000821066
0.000821066
0.000818672
0.000818672
0.000818672
0.000861896
0.000861896
0.000861896
0.000860879
0.000860879
0.000860879
0.000858333
0.000858333
0.000858333
0.000882564
0.000882564
0.000882564
0.000887926
0.000887926
0.000887926
0.00091218
0.00091218
0.00091218
0.000909375
0.000909375
0.000909375
0.00100716
0.00100716
0.00100716
0.00101023
0.00101023
0.00101023
0.0010179
0.0010179
0.0010179
0.00102253
0.00102253
0.00102253
0.000999607
0.000999607
0.000999607
0.000984735
0.000984735
0.000984735
0.00099513
0.00099513
0.00099513
0.000987701
0.000987701
0.000987701
0.000989085
0.000989085
0.000989085
0.000996528
0.000996528
0.000996528
0.000906282
0.000906282
0.000906282
0.000926724
0.000926724
0.000926724
0.000923951
0.000923951
0.000923951
0.000922759
0.000922759
0.000922759
0.000925504
0.000925504
0.000925504
0.000921543
0.000921543
0.000921543
0.000914872
0.000914872
0.000914872
0.000910917
0.000910917
0.000910917
0.000904352
0.000904352
0.000904352
0.000900542
0.000900542
0.000900542
0.000840705
0.000840705
0.000840705
0.000904062
0.000904062
0.000904062
0.000917256
0.000917256
0.000917256
0.000886219
0.000886219
0.000886219
0.000856562
0.000856562
0.000856562
0.000854039
0.000854039
0.000854039
0.00088731
0.00088731
0.00088731
0.000894078
0.000894078
0.000894078
0.000891412
0.000891412
0.000891412
0.000868478
0.000868478
0.000868478
0.000862669
0.000862669
0.000862669
0.000866264
0.000866264
0.000866264
0.000882486
0.000882486
0.000882486
0.000876193
0.000876193
0.000876193
0.000885036
0.000885036
0.000885036
0.000881335
0.000881335
0.000881335
0.000872462
0.000872462
0.000872462
0.000875054
0.000875054
0.000875054
0.00110791
0.00110791
0.00110791
0.00107757
0.00107757
0.00107757
0.00106922
0.00106922
0.00106922
0.00111087
0.00111087
0.00111087
0.00109446
0.00109446
0.00109446
0.00110297
0.00110297
0.00110297
0.00108556
0.00108556
0.00108556
0.0010289
0.0010289
0.0010289
0.00112737
0.00112737
0.00112737
0.00111986
0.00111986
0.00111986
0.00112872
0.00112872
0.00112872
0.00113252
0.00113252
0.00113252
0.00114674
0.00114674
0.00114674
0.00114153
0.00114153
0.00114153
0.00114539
0.00114539
0.00114539
0.00109262
0.00109262
0.00109262
0.00110241
0.00110241
0.00110241
0.00111611
0.00111611
0.00111611
0.00110738
0.00110738
0.00110738
0.00111859
0.00111859
0.00111859
0.00110984
0.00110984
0.00110984
0.00113871
0.00113871
0.00113871
0.00114775
0.00114775
0.00114775
0.00115287
0.00115287
0.00115287
0.000908527
0.000908527
0.000908527
0.00091761
0.00091761
0.00091761
0.000939536
0.000939536
0.000939536
0.00094568
0.00094568
0.00094568
0.000938756
0.000938756
0.000938756
0.000935712
0.000935712
0.000935712
0.000925117
0.000925117
0.000925117
0.000928889
0.000928889
0.000928889
0.000946468
0.000946468
0.000946468
0.00094957
0.00094957
0.00094957
0.000989604
0.000989604
0.000989604
0.000935291
0.000935291
0.000935291
0.000932335
0.000932335
0.000932335
0.000916734
0.000916734
0.000916734
0.000930187
0.000930187
0.000930187
0.000745685
0.000745685
0.000745685
0.000745957
0.000745957
0.000745957
0.000748394
0.000748394
0.000748394
0.000753567
0.000753567
0.000753567
0.000740221
0.000740221
0.000740221
0.000869055
0.000869055
0.000869055
0.000881576
0.000881576
0.000881576
0.000872653
0.000872653
0.000872653
0.000878919
0.000878919
0.000878919
0.000879886
0.000879886
0.000879886
0.00088352
0.00088352
0.00088352
0.000756027
0.000756027
0.000756027
0.000744723
0.000744723
0.000744723
0.000739324
0.000739324
0.000739324
0.000830148
0.000830148
0.000830148
0.000827408
0.000827408
0.000827408
0.000767974
0.000767974
0.000767974
0.000752284
0.000752284
0.000752284
0.000757454
0.000757454
0.000757454
0.000762692
0.000762692
0.000762692
0.00112485
0.00112485
0.00112485
0.00115788
0.00115788
0.00115788
0.00100218
0.00100218
0.00100218
0.00100977
0.00100977
0.00100977
0.000965323
0.000965323
0.000965323
0.000788935
0.000788935
0.000788935
0.00100192
0.00100192
0.00100192
0.00100951
0.00100951
0.00100951
0.000944039
0.000944039
0.000944039
0.000947439
0.000947439
0.000947439
0.000937266
0.000937266
0.000937266
0.000944174
0.000944174
0.000944174
0.000944273
0.000944273
0.000944273
0.000947712
0.000947712
0.000947712
0.00093055
0.00093055
0.00093055
0.000937364
0.000937364
0.000937364
0.000933895
0.000933895
0.000933895
0.000927089
0.000927089
0.000927089
0.000923751
0.000923751
0.000923751
0.000897561
0.000897561
0.000897561
0.000893766
0.000893766
0.000893766
0.000822102
0.000822102
0.000822102
0.000868058
0.000868058
0.000868058
0.000871666
0.000871666
0.000871666
0.000877921
0.000877921
0.000877921
0.000857307
0.000857307
0.000857307
0.000859834
0.000859834
0.000859834
0.000838261
0.000838261
0.000838261
0.000801682
0.000801682
0.000801682
0.000828786
0.000828786
0.000828786
0.000888924
0.000888924
0.000888924
0.000901829
0.000901829
0.000901829
0.000898076
0.000898076
0.000898076
0.000891629
0.000891629
0.000891629
0.000892617
0.000892617
0.000892617
0.000899075
0.000899075
0.000899075
0.00091883
0.00091883
0.00091883
0.000922686
0.000922686
0.000922686
0.000913168
0.000913168
0.000913168
0.000919829
0.000919829
0.000919829
0.000941214
0.000941214
0.000941214
0.000944181
0.000944181
0.000944181
0.000925548
0.000925548
0.000925548
0.000932281
0.000932281
0.000932281
0.000986074
0.000986074
0.000986074
0.000980041
0.000980041
0.000980041
0.000978742
0.000978742
0.000978742
0.000975751
0.000975751
0.000975751
0.00111343
0.00111343
0.00111343
0.00111851
0.00111851
0.00111851
0.0011148
0.0011148
0.0011148
0.00110608
0.00110608
0.00110608
0.00106737
0.00106737
0.00106737
0.00108832
0.00108832
0.00108832
0.00109684
0.00109684
0.00109684
0.00105045
0.00105045
0.00105045
0.00105994
0.00105994
0.00105994
0.00104574
0.00104574
0.00104574
0.000880558
0.000880558
0.000880558
0.000909022
0.000909022
0.000909022
0.000905187
0.000905187
0.000905187
0.000907905
0.000907905
0.000907905
0.000914507
0.000914507
0.000914507
0.000934714
0.000934714
0.000934714
0.000927911
0.000927911
0.000927911
0.000901729
0.000901729
0.000901729
0.000896419
0.000896419
0.000896419
0.000895252
0.000895252
0.000895252
0.000892608
0.000892608
0.000892608
0.00091366
0.00091366
0.00091366
0.000906692
0.000906692
0.000906692
0.000873621
0.000873621
0.000873621
0.000865975
0.000865975
0.000865975
0.000868521
0.000868521
0.000868521
0.000849122
0.000849122
0.000849122
0.00085625
0.00085625
0.00085625
0.000846669
0.000846669
0.000846669
0.000850199
0.000850199
0.000850199
0.000837206
0.000837206
0.000837206
0.000831328
0.000831328
0.000831328
0.000827897
0.000827897
0.000827897
0.00112148
0.00112148
0.00112148
0.00111418
0.00111418
0.00111418
0.00111993
0.00111993
0.00111993
0.00111655
0.00111655
0.00111655
0.0011291
0.0011291
0.0011291
0.00110439
0.00110439
0.00110439
0.00107896
0.00107896
0.00107896
0.00109581
0.00109581
0.00109581
0.00109082
0.00109082
0.00109082
0.00108241
0.00108241
0.00108241
0.00107157
0.00107157
0.00107157
0.00105855
0.00105855
0.00105855
0.00106333
0.00106333
0.00106333
0.00106192
0.00106192
0.00106192
0.00103034
0.00103034
0.00103034
0.00103351
0.00103351
0.00103351
0.00106576
0.00106576
0.00106576
0.00107065
0.00107065
0.00107065
0.0011224
0.0011224
0.0011224
0.00112115
0.00112115
0.00112115
0.00111738
0.00111738
0.00111738
0.00114806
0.00114806
0.00114806
0.00114286
0.00114286
0.00114286
0.00113385
0.00113385
0.00113385
0.00113003
0.00113003
0.00113003
0.00113574
0.00113574
0.00113574
0.00112302
0.00112302
0.00112302
0.00112671
0.00112671
0.00112671
0.00114107
0.00114107
0.00114107
0.00113114
0.00113114
0.00113114
0.00114015
0.00114015
0.00114015
0.00109383
0.00109383
0.00109383
0.00109021
0.00109021
0.00109021
0.00103406
0.00103406
0.00103406
0.00102956
0.00102956
0.00102956
0.00105106
0.00105106
0.00105106
0.00108176
0.00108176
0.00108176
0.00107694
0.00107694
0.00107694
0.00108414
0.00108414
0.00108414
0.00105573
0.00105573
0.00105573
0.00106389
0.00106389
0.00106389
0.00106864
0.00106864
0.00106864
0.00106513
0.00106513
0.00106513
0.00110368
0.00110368
0.00110368
0.0010963
0.0010963
0.0010963
0.00110491
0.00110491
0.00110491
0.00110864
0.00110864
0.00110864
0.00109143
0.00109143
0.00109143
0.00109509
0.00109509
0.00109509
0.0011236
0.0011236
0.0011236
0.00113249
0.00113249
0.00113249
0.00113756
0.00113756
0.00113756
0.00113365
0.00113365
0.00113365
0.00110608
0.00110608
0.00110608
0.00109746
0.00109746
0.00109746
0.00109375
0.00109375
0.00109375
0.00102246
0.00102246
0.00102246
0.00101473
0.00101473
0.00101473
0.00089567
0.00089567
0.00089567
0.000922044
0.000922044
0.000922044
0.000892607
0.000892607
0.000892607
0.000895989
0.000895989
0.000895989
0.000925235
0.000925235
0.000925235
0.000912123
0.000912123
0.000912123
0.000909102
0.000909102
0.000909102
0.000942912
0.000942912
0.000942912
0.000939157
0.000939157
0.000939157
0.000931684
0.000931684
0.000931684
0.000949881
0.000949881
0.000949881
0.000953686
0.000953686
0.000953686
0.000960765
0.000960765
0.000960765
0.000964034
0.000964034
0.000964034
0.000913876
0.000913876
0.000913876
0.00092432
0.00092432
0.00092432
0.000928105
0.000928105
0.000928105
0.00093492
0.00093492
0.00093492
0.000937942
0.000937942
0.000937942
0.000975147
0.000975147
0.000975147
0.000971221
0.000971221
0.000971221
0.000950344
0.000950344
0.000950344
0.000956605
0.000956605
0.000956605
0.000942306
0.000942306
0.000942306
0.000938538
0.000938538
0.000938538
0.000973188
0.000973188
0.000973188
0.000969217
0.000969217
0.000969217
0.000943106
0.000943106
0.000943106
0.00093621
0.00093621
0.00093621
0.000937015
0.000937015
0.000937015
0.000995461
0.000995461
0.000995461
0.000746204
0.000746204
0.000746204
0.000748656
0.000748656
0.000748656
0.000748893
0.000748893
0.000748893
0.000776557
0.000776557
0.000776557
0.000765582
0.000765582
0.000765582
0.0007712
0.0007712
0.0007712
0.000741544
0.000741544
0.000741544
0.00073516
0.00073516
0.00073516
0.000737348
0.000737348
0.000737348
0.000870022
0.000870022
0.000870022
0.00087361
0.00087361
0.00087361
0.000870959
0.000870959
0.000870959
0.000864766
0.000864766
0.000864766
0.000880822
0.000880822
0.000880822
0.000874536
0.000874536
0.000874536
0.000748108
0.000748108
0.000748108
0.000753277
0.000753277
0.000753277
0.000745389
0.000745389
0.000745389
0.000747797
0.000747797
0.000747797
0.000752623
0.000752623
0.000752623
0.00075504
0.00075504
0.00075504
0.000760266
0.000760266
0.000760266
0.000759884
0.000759884
0.000759884
0.000762707
0.000762707
0.000762707
0.000770852
0.000770852
0.000770852
0.000767998
0.000767998
0.000767998
0.000743541
0.000743541
0.000743541
0.00074217
0.00074217
0.00074217
0.000836035
0.000836035
0.000836035
0.000847968
0.000847968
0.000847968
0.000752404
0.000752404
0.000752404
0.000756307
0.000756307
0.000756307
0.000761547
0.000761547
0.000761547
0.000753833
0.000753833
0.000753833
0.00106787
0.00106787
0.00106787
0.00108377
0.00108377
0.00108377
0.0011106
0.0011106
0.0011106
0.00111088
0.00111088
0.00111088
0.0011064
0.0011064
0.0011064
0.00108517
0.00108517
0.00108517
0.00109778
0.00109778
0.00109778
0.00109365
0.00109365
0.00109365
0.0011061
0.0011061
0.0011061
0.00112034
0.00112034
0.00112034
0.00109901
0.00109901
0.00109901
0.00109049
0.00109049
0.00109049
0.00115372
0.00115372
0.00115372
0.00113153
0.00113153
0.00113153
0.00114051
0.00114051
0.00114051
0.00114461
0.00114461
0.00114461
0.00111385
0.00111385
0.00111385
0.00113306
0.00113306
0.00113306
0.00114205
0.00114205
0.00114205
0.000998239
0.000998239
0.000998239
0.00100207
0.00100207
0.00100207
0.00099837
0.00099837
0.00099837
0.00102126
0.00102126
0.00102126
0.00101354
0.00101354
0.00101354
0.00102508
0.00102508
0.00102508
0.00102112
0.00102112
0.00102112
0.00100965
0.00100965
0.00100965
0.00101341
0.00101341
0.00101341
0.000968848
0.000968848
0.000968848
0.000975921
0.000975921
0.000975921
0.000972653
0.000972653
0.000972653
0.000965426
0.000965426
0.000965426
0.000968972
0.000968972
0.000968972
0.000789712
0.000789712
0.000789712
0.000832049
0.000832049
0.000832049
0.000820395
0.000820395
0.000820395
0.000848681
0.000848681
0.000848681
0.000854736
0.000854736
0.000854736
0.000853412
0.000853412
0.000853412
0.000871888
0.000871888
0.000871888
0.000878138
0.000878138
0.000878138
0.000835432
0.000835432
0.000835432
0.000829441
0.000829441
0.000829441
0.000823607
0.000823607
0.000823607
0.000829525
0.000829525
0.000829525
0.000832426
0.000832426
0.000832426
0.000829195
0.000829195
0.000829195
0.000823366
0.000823366
0.000823366
0.000814904
0.000814904
0.000814904
0.000820661
0.000820661
0.000820661
0.0008235
0.0008235
0.0008235
0.000820541
0.000820541
0.000820541
0.000794454
0.000794454
0.000794454
0.00102492
0.00102492
0.00102492
0.00103275
0.00103275
0.00103275
0.000958064
0.000958064
0.000958064
0.00095445
0.00095445
0.00095445
0.000965184
0.000965184
0.000965184
0.00096869
0.00096869
0.00096869
0.000943871
0.000943871
0.000943871
0.000890885
0.000890885
0.000890885
0.00088762
0.00088762
0.00088762
0.00088447
0.00088447
0.00088447
0.00088438
0.00088438
0.00088438
0.000887511
0.000887511
0.000887511
0.000923655
0.000923655
0.000923655
0.00091695
0.00091695
0.00091695
0.000893617
0.000893617
0.000893617
0.000937133
0.000937133
0.000937133
0.000923525
0.000923525
0.000923525
0.000933778
0.000933778
0.000933778
0.000926973
0.000926973
0.000926973
0.000820511
0.000820511
0.000820511
0.000826298
0.000826298
0.000826298
0.000852261
0.000852261
0.000852261
0.000828938
0.000828938
0.000828938
0.000832372
0.000832372
0.000832372
0.00084772
0.00084772
0.00084772
0.000841746
0.000841746
0.000841746
0.000851245
0.000851245
0.000851245
0.000848744
0.000848744
0.000848744
0.00084974
0.00084974
0.00084974
0.000843746
0.000843746
0.000843746
0.000810665
0.000810665
0.000810665
0.000805021
0.000805021
0.000805021
0.000921665
0.000921665
0.000921665
0.000917799
0.000917799
0.000917799
0.000920611
0.000920611
0.000920611
0.000927344
0.000927344
0.000927344
0.000931275
0.000931275
0.000931275
0.00092841
0.00092841
0.00092841
0.000923674
0.000923674
0.000923674
0.000930441
0.000930441
0.000930441
0.000931405
0.000931405
0.000931405
0.000934339
0.000934339
0.000934339
0.000910341
0.000910341
0.000910341
0.000900976
0.000900976
0.000900976
0.000903773
0.000903773
0.000903773
0.000942178
0.000942178
0.000942178
0.000945167
0.000945167
0.000945167
0.000946118
0.000946118
0.000946118
0.000984918
0.000984918
0.000984918
0.00099232
0.00099232
0.00099232
0.000948529
0.000948529
0.000948529
0.000935084
0.000935084
0.000935084
0.000933515
0.000933515
0.000933515
0.000936327
0.000936327
0.000936327
0.000937545
0.000937545
0.000937545
0.000944446
0.000944446
0.000944446
0.000967226
0.000967226
0.000967226
0.000977417
0.000977417
0.000977417
0.000974435
0.000974435
0.000974435
0.00100097
0.00100097
0.00100097
0.00101934
0.00101934
0.00101934
0.00101166
0.00101166
0.00101166
0.00100854
0.00100854
0.00100854
0.00101304
0.00101304
0.00101304
0.00103778
0.00103778
0.00103778
0.00110332
0.00110332
0.00110332
0.00111056
0.00111056
0.00111056
0.00110188
0.00110188
0.00110188
0.0010983
0.0010983
0.0010983
0.00109972
0.00109972
0.00109972
0.00110109
0.00110109
0.00110109
0.00110473
0.00110473
0.00110473
0.00109117
0.00109117
0.00109117
0.00110039
0.00110039
0.00110039
0.00111265
0.00111265
0.00111265
0.00110905
0.00110905
0.00110905
0.00109535
0.00109535
0.00109535
0.00107644
0.00107644
0.00107644
0.00108482
0.00108482
0.00108482
0.00108976
0.00108976
0.00108976
0.00108623
0.00108623
0.00108623
0.00103497
0.00103497
0.00103497
0.00104291
0.00104291
0.00104291
0.00104905
0.00104905
0.00104905
0.00105713
0.00105713
0.00105713
0.00104764
0.00104764
0.00104764
0.00104434
0.00104434
0.00104434
0.000886897
0.000886897
0.000886897
0.000899758
0.000899758
0.000899758
0.000897046
0.000897046
0.000897046
0.00089061
0.00089061
0.00089061
0.000898675
0.000898675
0.000898675
0.000885836
0.000885836
0.000885836
0.000895984
0.000895984
0.000895984
0.000889559
0.000889559
0.000889559
0.000894891
0.000894891
0.000894891
0.000888477
0.000888477
0.000888477
0.000870648
0.000870648
0.000870648
0.000876892
0.000876892
0.000876892
0.000879509
0.000879509
0.000879509
0.000867031
0.000867031
0.000867031
0.0008696
0.0008696
0.0008696
0.000875833
0.000875833
0.000875833
0.000925114
0.000925114
0.000925114
0.000919525
0.000919525
0.000919525
0.000926245
0.000926245
0.000926245
0.000929065
0.000929065
0.000929065
0.000915637
0.000915637
0.000915637
0.000918406
0.000918406
0.000918406
0.000916077
0.000916077
0.000916077
0.000913346
0.000913346
0.000913346
0.000912151
0.000912151
0.000912151
0.000905573
0.000905573
0.000905573
0.000906755
0.000906755
0.000906755
0.000902908
0.000902908
0.000902908