<VTKFile type="UnstructuredGrid" version="1.0">
<UnstructuredGrid>
<Piece NumberOfPoints="8859" NumberOfCells="2953">
<Points>
<DataArray type="Float64" NumberOfComponents="3" format="ascii">
0.5 3.01 13.49
0.512524 3.01 13.5125
0.487476 3.01 13.5125
0.17352 3.01 12.6125
0.160827 3.01 12.6342
0.148445 3.01 12.6125
0.122979 3.01 12.6559
0.110383 3.01 12.6342
0.135644 3.01 12.6342
0.135644 3.01 12.6342
0.110383 3.01 12.6342
0.123433 3.01 12.6125
0.123433 3.01 12.6125
0.148445 3.01 12.6125
0.135644 3.01 12.6342
0.135644 3.01 12.6342
0.148445 3.01 12.6125
0.160827 3.01 12.6342
0.17352 3.01 12.6125
0.198629 3.01 12.6125
0.185985 3.01 12.6342
0.185985 3.01 12.6342
0.160827 3.01 12.6342
0.17352 3.01 12.6125
0.0732297 3.01 12.6557
0.0586606 3.01 12.6338
0.0848754 3.01 12.6341
0.05 3.01 13.4453
0.05 3.01 13.4001
0.058509 3.01 13.4226
0.324276 3.01 12.6125
0.349395 3.01 12.6125
0.336827 3.01 12.6342
0.148138 3.01 12.6559
0.135644 3.01 12.6342
0.160827 3.01 12.6342
0.122979 3.01 12.6559
0.135644 3.01 12.6342
0.148138 3.01 12.6559
0.160827 3.01 12.6342
0.185985 3.01 12.6342
0.173316 3.01 12.6559
0.185806 3.01 12.6775
0.160572 3.01 12.6776
0.173316 3.01 12.6559
0.173316 3.01 12.6559
0.148138 3.01 12.6559
0.160827 3.01 12.6342
0.160572 3.01 12.6776
0.148138 3.01 12.6559
0.173316 3.01 12.6559
0.211137 3.01 12.6342
0.185985 3.01 12.6342
0.198629 3.01 12.6125
0.0979162 3.01 12.6558
0.110383 3.01 12.6342
0.122979 3.01 12.6559
0.122979 3.01 12.6559
0.109875 3.01 12.6775
0.0979162 3.01 12.6558
0.0732297 3.01 12.6557
0.0848754 3.01 12.6341
0.0979162 3.01 12.6558
0.0979162 3.01 12.6558
0.0848754 3.01 12.6341
0.110383 3.01 12.6342
0.0975729 3.01 12.699
0.109875 3.01 12.6775
0.122678 3.01 12.6991
0.0841718 3.01 12.6773
0.0577122 3.01 12.677
0.0732297 3.01 12.6557
0.0729308 3.01 12.6989
0.0577122 3.01 12.677
0.0841718 3.01 12.6773
0.0732297 3.01 12.6557
0.0979162 3.01 12.6558
0.0841718 3.01 12.6773
0.0841718 3.01 12.6773
0.0979162 3.01 12.6558
0.109875 3.01 12.6775
0.0975729 3.01 12.699
0.0729308 3.01 12.6989
0.0841718 3.01 12.6773
0.0841718 3.01 12.6773
0.109875 3.01 12.6775
0.0975729 3.01 12.699
0.073948 3.01 12.6125
0.0586606 3.01 12.6338
0.05 3.01 12.6125
0.073948 3.01 12.6125
0.0848754 3.01 12.6341
0.0586606 3.01 12.6338
0.05 3.01 13.4883
0.05 3.01 13.4453
0.0603641 3.01 13.467
0.0603641 3.01 13.467
0.0753197 3.01 13.489
0.05 3.01 13.4883
0.0709395 3.01 13.5125
0.05 3.01 13.5125
0.05 3.01 13.4883
0.05 3.01 13.4883
0.0753197 3.01 13.489
0.0709395 3.01 13.5125
0.0579641 3.01 13.1996
0.05 3.01 13.2217
0.05 3.01 13.1776
0.0841948 3.01 13.1118
0.097638 3.01 13.0899
0.109814 3.01 13.1118
0.0841948 3.01 13.1118
0.0730539 3.01 13.1337
0.0578646 3.01 13.1118
0.0580261 3.01 13.2438
0.05 3.01 13.2659
0.05 3.01 13.2217
0.942292 3.01 12.8074
0.95 3.01 12.7857
0.95 3.01 12.829
0.95 3.01 12.7423
0.95 3.01 12.7857
0.942332 3.01 12.764
0.73872 3.01 13.0245
0.726137 3.01 13.0028
0.75132 3.01 13.0028
0.751305 3.01 13.0463
0.726124 3.01 13.0463
0.73872 3.01 13.0245
0.713546 3.01 13.0245
0.726137 3.01 13.0028
0.73872 3.01 13.0245
0.73872 3.01 13.0245
0.726124 3.01 13.0463
0.713546 3.01 13.0245
0.814318 3.01 13.0681
0.789096 3.01 13.0681
0.801709 3.01 13.0463
0.7765 3.01 13.0463
0.789115 3.01 13.0245
0.801709 3.01 13.0463
0.801709 3.01 13.0463
0.789096 3.01 13.0681
0.7765 3.01 13.0463
0.7765 3.01 13.0463
0.789096 3.01 13.0681
0.763892 3.01 13.0681
0.763892 3.01 13.0681
0.751305 3.01 13.0463
0.7765 3.01 13.0463
0.95 3.01 13.5125
0.929061 3.01 13.5125
0.95 3.01 13.4883
0.95 3.01 13.3104
0.926844 3.01 13.3104
0.941913 3.01 13.2882
0.941913 3.01 13.2882
0.95 3.01 13.2659
0.95 3.01 13.3104
0.926866 3.01 13.2659
0.95 3.01 13.2659
0.941913 3.01 13.2882
0.941974 3.01 13.2438
0.95 3.01 13.2659
0.926866 3.01 13.2659
0.95 3.01 13.2217
0.95 3.01 13.2659
0.941974 3.01 13.2438
0.941974 3.01 13.2438
0.926895 3.01 13.2217
0.95 3.01 13.2217
0.6127 3.01 13.5125
0.625238 3.01 13.49
0.637734 3.01 13.5125
0.662757 3.01 13.5125
0.637734 3.01 13.5125
0.650275 3.01 13.49
0.650275 3.01 13.49
0.637734 3.01 13.5125
0.625238 3.01 13.49
0.600415 3.01 13.0464
0.587856 3.01 13.0682
0.575304 3.01 13.0464
0.575304 3.01 13.0464
0.587856 3.01 13.0682
0.562749 3.01 13.0682
0.336827 3.01 12.6342
0.349395 3.01 12.6125
0.361946 3.01 12.6342
0.223755 3.01 12.6125
0.211137 3.01 12.6342
0.198629 3.01 12.6125
0.185985 3.01 12.6342
0.211137 3.01 12.6342
0.198492 3.01 12.6559
0.185806 3.01 12.6775
0.173316 3.01 12.6559
0.198492 3.01 12.6559
0.198492 3.01 12.6559
0.173316 3.01 12.6559
0.185985 3.01 12.6342
0.0576202 3.01 12.7205
0.05 3.01 12.7423
0.05 3.01 12.6987
0.05 3.01 12.6987
0.0729308 3.01 12.6989
0.0576202 3.01 12.7205
0.05 3.01 12.6987
0.0577122 3.01 12.677
0.0729308 3.01 12.6989
0.135283 3.01 12.6775
0.109875 3.01 12.6775
0.122979 3.01 12.6559
0.135283 3.01 12.6775
0.122678 3.01 12.6991
0.109875 3.01 12.6775
0.122979 3.01 12.6559
0.148138 3.01 12.6559
0.135283 3.01 12.6775
0.135283 3.01 12.6775
0.148138 3.01 12.6559
0.160572 3.01 12.6776
0.123433 3.01 12.6125
0.110383 3.01 12.6342
0.0985513 3.01 12.6125
0.110383 3.01 12.6342
0.0848754 3.01 12.6341
0.0985513 3.01 12.6125
0.0848754 3.01 12.6341
0.073948 3.01 12.6125
0.0985513 3.01 12.6125
0.0603641 3.01 13.467
0.05 3.01 13.4453
0.0739464 3.01 13.4445
0.0739464 3.01 13.4445
0.05 3.01 13.4453
0.058509 3.01 13.4226
0.058509 3.01 13.4226
0.0849548 3.01 13.4221
0.0739464 3.01 13.4445
0.058509 3.01 13.4226
0.05 3.01 13.4001
0.0732725 3.01 13.3999
0.0732725 3.01 13.3999
0.0849548 3.01 13.4221
0.058509 3.01 13.4226
0.5 3.01 13.49
0.487476 3.01 13.5125
0.47495 3.01 13.49
0.097663 3.01 13.1337
0.0841948 3.01 13.1118
0.109814 3.01 13.1118
0.0730539 3.01 13.1337
0.0841948 3.01 13.1118
0.097663 3.01 13.1337
0.0578646 3.01 13.1118
0.0730539 3.01 13.1337
0.05 3.01 13.1337
0.05 3.01 13.1337
0.05 3.01 13.0899
0.0578646 3.01 13.1118
0.05 3.01 13.3104
0.05 3.01 13.2659
0.0580869 3.01 13.2882
0.05 3.01 13.2659
0.0580261 3.01 13.2438
0.073134 3.01 13.2659
0.073134 3.01 13.2659
0.0580869 3.01 13.2882
0.05 3.01 13.2659
0.942268 3.01 12.8507
0.95 3.01 12.829
0.95 3.01 12.8724
0.942292 3.01 12.8074
0.95 3.01 12.829
0.927025 3.01 12.829
0.927025 3.01 12.829
0.942268 3.01 12.8507
0.915919 3.01 12.8507
0.95 3.01 12.829
0.942268 3.01 12.8507
0.927025 3.01 12.829
0.927013 3.01 12.8724
0.942268 3.01 12.8507
0.95 3.01 12.8724
0.915919 3.01 12.8507
0.942268 3.01 12.8507
0.927013 3.01 12.8724
0.801738 3.01 12.9593
0.814364 3.01 12.9375
0.826957 3.01 12.9592
0.852174 3.01 12.9592
0.826957 3.01 12.9592
0.839609 3.01 12.9375
0.839609 3.01 12.9375
0.826957 3.01 12.9592
0.814364 3.01 12.9375
0.776516 3.01 13.0027
0.75132 3.01 13.0028
0.763923 3.01 12.981
0.776516 3.01 13.0027
0.801725 3.01 13.0027
0.789115 3.01 13.0245
0.738704 3.01 13.0681
0.751305 3.01 13.0463
0.763892 3.01 13.0681
0.726124 3.01 13.0463
0.751305 3.01 13.0463
0.738704 3.01 13.0681
0.915617 3.01 13.2881
0.902228 3.01 13.2659
0.926866 3.01 13.2659
0.926866 3.01 13.2659
0.941913 3.01 13.2882
0.915617 3.01 13.2881
0.915617 3.01 13.2881
0.941913 3.01 13.2882
0.926844 3.01 13.3104
0.915617 3.01 13.2881
0.926844 3.01 13.3104
0.902193 3.01 13.3104
0.926866 3.01 13.2659
0.902228 3.01 13.2659
0.915668 3.01 13.2438
0.902267 3.01 13.2217
0.926895 3.01 13.2217
0.915668 3.01 13.2438
0.915668 3.01 13.2438
0.941974 3.01 13.2438
0.926866 3.01 13.2659
0.926895 3.01 13.2217
0.941974 3.01 13.2438
0.915668 3.01 13.2438
0.902267 3.01 13.2217
0.915668 3.01 13.2438
0.890059 3.01 13.2438
0.890059 3.01 13.2438
0.915668 3.01 13.2438
0.902228 3.01 13.2659
0.826927 3.01 13.0463
0.814318 3.01 13.0681
0.801709 3.01 13.0463
0.864816 3.01 13.1118
0.877308 3.01 13.0899
0.890186 3.01 13.1118
0.877308 3.01 13.0899
0.864816 3.01 13.1118
0.852122 3.01 13.0899
0.890186 3.01 13.1118
0.877308 3.01 13.0899
0.902362 3.01 13.0899
0.902362 3.01 13.0899
0.915805 3.01 13.1118
0.890186 3.01 13.1118
0.902362 3.01 13.0899
0.926964 3.01 13.0899
0.915805 3.01 13.1118
0.915835 3.01 13.0681
0.926964 3.01 13.0899
0.902362 3.01 13.0899
0.942171 3.01 13.0681
0.926964 3.01 13.0899
0.915835 3.01 13.0681
0.915835 3.01 13.0681
0.926978 3.01 13.0463
0.942171 3.01 13.0681
0.942171 3.01 13.0681
0.926978 3.01 13.0463
0.95 3.01 13.0463
0.87737 3.01 12.9158
0.890277 3.01 12.8941
0.902417 3.01 12.9158
0.852144 3.01 13.0463
0.877329 3.01 13.0463
0.864842 3.01 13.0681
0.877308 3.01 13.0899
0.852122 3.01 13.0899
0.864842 3.01 13.0681
0.902396 3.01 13.0027
0.915858 3.01 13.0245
0.890234 3.01 13.0245
0.926997 3.01 12.9592
0.942237 3.01 12.9375
0.95 3.01 12.9592
0.91589 3.01 12.9375
0.942237 3.01 12.9375
0.926997 3.01 12.9592
0.942199 3.01 13.0245
0.95 3.01 13.0027
0.95 3.01 13.0463
0.95 3.01 13.0463
0.926978 3.01 13.0463
0.942199 3.01 13.0245
0.942199 3.01 13.0245
0.926978 3.01 13.0463
0.915858 3.01 13.0245
0.95 3.01 12.9592
0.95 3.01 13.0027
0.942221 3.01 12.981
0.942221 3.01 12.981
0.926997 3.01 12.9592
0.95 3.01 12.9592
0.915876 3.01 12.981
0.926997 3.01 12.9592
0.942221 3.01 12.981
0.926989 3.01 13.0027
0.915858 3.01 13.0245
0.902396 3.01 13.0027
0.902396 3.01 13.0027
0.915876 3.01 12.981
0.926989 3.01 13.0027
0.926989 3.01 13.0027
0.942199 3.01 13.0245
0.915858 3.01 13.0245
0.95 3.01 13.0027
0.942199 3.01 13.0245
0.926989 3.01 13.0027
0.915876 3.01 12.981
0.942221 3.01 12.981
0.926989 3.01 13.0027
0.926989 3.01 13.0027
0.942221 3.01 12.981
0.95 3.01 13.0027
0.91353 3.01 13.4669
0.926054 3.01 13.4445
0.939636 3.01 13.467
0.926728 3.01 13.3999
0.95 3.01 13.4001
0.941491 3.01 13.4226
0.926728 3.01 13.3999
0.941822 3.01 13.3775
0.95 3.01 13.4001
0.95 3.01 13.4453
0.95 3.01 13.4883
0.939636 3.01 13.467
0.95 3.01 13.4453
0.926054 3.01 13.4445
0.941491 3.01 13.4226
0.939636 3.01 13.467
0.926054 3.01 13.4445
0.95 3.01 13.4453
0.941491 3.01 13.4226
0.95 3.01 13.4001
0.95 3.01 13.4453
0.941869 3.01 13.3327
0.926844 3.01 13.3104
0.95 3.01 13.3104
0.762942 3.01 13.4673
0.75028 3.01 13.4899
0.737933 3.01 13.4673
0.71291 3.01 13.4674
0.725533 3.01 13.4449
0.737933 3.01 13.4673
0.71291 3.01 13.4674
0.737933 3.01 13.4673
0.725313 3.01 13.4899
0.725313 3.01 13.4899
0.737933 3.01 13.4673
[...]
<PointData Scalars="View Factor" >
<DataArray type="Float64" Name="View Factor" NumberOfComponents="1" format="ascii">
0.599837
0.599837
0.599837
0.419993
0.419993
0.419993
0.427975
0.427975
0.427975
0.422886
0.422886
0.422886
0.420227
0.420227
0.420227
0.422672
0.422672
0.422672
0.419718
0.419718
0.419718
0.422415
0.422415
0.422415
0.428205
0.428205
0.428205
0.606535
0.606535
0.606535
0.417194
0.417194
0.417194
0.427759
0.427759
0.427759
0.430403
0.430403
0.430403
0.427499
0.427499
0.427499
0.437561
0.437561
0.437561
0.430164
0.430164
0.430164
0.435196
0.435196
0.435196
0.422116
0.422116
0.422116
0.430591
0.430591
0.430591
0.43562
0.43562
0.43562
0.430713
0.430713
0.430713
0.428136
0.428136
0.428136
0.44556
0.44556
0.44556
0.438253
0.438253
0.438253
0.443223
0.443223
0.443223
0.435736
0.435736
0.435736
0.438187
0.438187
0.438187
0.445674
0.445674
0.445674
0.443155
0.443155
0.443155
0.420638
0.420638
0.420638
0.423139
0.423139
0.423139
0.609215
0.609215
0.609215
0.609873
0.609873
0.609873
0.610814
0.610814
0.610814
0.610485
0.610485
0.610485
0.580097
0.580097
0.580097
0.56206
0.56206
0.56206
0.565201
0.565201
0.565201
0.587039
0.587039
0.587039
0.446791
0.446791
0.446791
0.433807
0.433807
0.433807
0.517825
0.517825
0.517825
0.524512
0.524512
0.524512
0.520402
0.520402
0.520402
0.523751
0.523751
0.523751
0.524524
0.524524
0.524524
0.520754
0.520754
0.520754
0.523958
0.523958
0.523958
0.526512
0.526512
0.526512
0.525893
0.525893
0.525893
0.565414
0.565414
0.565414
0.55112
0.55112
0.55112
0.548536
0.548536
0.548536
0.547578
0.547578
0.547578
0.545676
0.545676
0.545676
0.542846
0.542846
0.542846
0.541623
0.541623
0.541623
0.592998
0.592998
0.592998
0.59139
0.59139
0.59139
0.59194
0.59194
0.59194
0.537042
0.537042
0.537042
0.539302
0.539302
0.539302
0.419448
0.419448
0.419448
0.419402
0.419402
0.419402
0.427196
0.427196
0.427196
0.434911
0.434911
0.434911
0.429881
0.429881
0.429881
0.455581
0.455581
0.455581
0.450664
0.450664
0.450664
0.445718
0.445718
0.445718
0.438035
0.438035
0.438035
0.443007
0.443007
0.443007
0.435435
0.435435
0.435435
0.437823
0.437823
0.437823
0.420419
0.420419
0.420419
0.423051
0.423051
0.423051
0.420563
0.420563
0.420563
0.608384
0.608384
0.608384
0.607489
0.607489
0.607489
0.606918
0.606918
0.606918
0.605385
0.605385
0.605385
0.605873
0.605873
0.605873
0.60015
0.60015
0.60015
0.565032
0.565032
0.565032
0.566573
0.566573
0.566573
0.566715
0.566715
0.566715
0.56382
0.56382
0.56382
0.593166
0.593166
0.593166
0.589136
0.589136
0.589136
0.591178
0.591178
0.591178
0.459264
0.459264
0.459264
0.451712
0.451712
0.451712
0.458978
0.458978
0.458978
0.455877
0.455877
0.455877
0.464024
0.464024
0.464024
0.463061
0.463061
0.463061
0.497972
0.497972
0.497972
0.495938
0.495938
0.495938
0.495118
0.495118
0.495118
0.512565
0.512565
0.512565
0.514112
0.514112
0.514112
0.528407
0.528407
0.528407
0.527737
0.527737
0.527737
0.550236
0.550236
0.550236
0.549745
0.549745
0.549745
0.551521
0.551521
0.551521
0.553796
0.553796
0.553796
0.548326
0.548326
0.548326
0.544251
0.544251
0.544251
0.545935
0.545935
0.545935
0.543903
0.543903
0.543903
0.54657
0.54657
0.54657
0.548612
0.548612
0.548612
0.521929
0.521929
0.521929
0.526859
0.526859
0.526859
0.526605
0.526605
0.526605
0.524242
0.524242
0.524242
0.524423
0.524423
0.524423
0.521784
0.521784
0.521784
0.518881
0.518881
0.518881
0.516067
0.516067
0.516067
0.513053
0.513053
0.513053
0.510358
0.510358
0.510358
0.480348
0.480348
0.480348
0.517578
0.517578
0.517578
0.523675
0.523675
0.523675
0.506021
0.506021
0.506021
0.486905
0.486905
0.486905
0.486195
0.486195
0.486195
0.50325
0.50325
0.50325
0.507233
0.507233
0.507233
0.50679
0.50679
0.50679
0.49321
0.49321
0.49321
0.490478
0.490478
0.490478
0.493354
0.493354
0.493354
0.50319
0.50319
0.50319
0.499822
0.499822
0.499822
0.503544
0.503544
0.503544
0.500756
0.500756
0.500756
0.496825
0.496825
0.496825
0.497403
0.497403
0.497403
0.56542
0.56542
0.56542
0.560802
0.560802
0.560802
0.559673
0.559673
0.559673
0.563512
0.563512
0.563512
0.562782
0.562782
0.562782
0.563686
0.563686
0.563686
0.560954
0.560954
0.560954
0.552764
0.552764
0.552764
0.582886
0.582886
0.582886
0.584108
0.584108
0.584108
0.584849
0.584849
0.584849
0.584215
0.584215
0.584215
0.586049
0.586049
0.586049
0.584815
0.584815
0.584815
0.584089
0.584089
0.584089
0.585282
0.585282
0.585282
0.582349
0.582349
0.582349
0.58465
0.58465
0.58465
0.58377
0.58377
0.58377
0.588208
0.588208
0.588208
0.587326
0.587326
0.587326
0.592904
0.592904
0.592904
0.593505
0.593505
0.593505
0.594522
0.594522
0.594522
0.538249
0.538249
0.538249
0.537981
0.537981
0.537981
0.5498
0.5498
0.5498
0.551442
0.551442
0.551442
0.548532
0.548532
0.548532
0.547687
0.547687
0.547687
0.542461
0.542461
0.542461
0.544648
0.544648
0.544648
0.552717
0.552717
0.552717
0.553514
0.553514
0.553514
0.568421
0.568421
0.568421
0.542702
0.542702
0.542702
0.542026
0.542026
0.542026
0.527603
0.527603
0.527603
0.533519
0.533519
0.533519
0.418205
0.418205
0.418205
0.418646
0.418646
0.418646
0.420974
0.420974
0.420974
0.426039
0.426039
0.426039
0.406499
0.406499
0.406499
0.503576
0.503576
0.503576
0.510676
0.510676
0.510676
0.506326
0.506326
0.506326
0.509882
0.509882
0.509882
0.511721
0.511721
0.511721
0.514366
0.514366
0.514366
0.428328
0.428328
0.428328
0.416622
0.416622
0.416622
0.407117
0.407117
0.407117
0.491415
0.491415
0.491415
0.489518
0.489518
0.489518
0.440732
0.440732
0.440732
0.425681
0.425681
0.425681
0.430705
0.430705
0.430705
0.435731
0.435731
0.435731
0.607307
0.607307
0.607307
0.600981
0.600981
0.600981
0.582464
0.582464
0.582464
0.584778
0.584778
0.584778
0.569416
0.569416
0.569416
0.459124
0.459124
0.459124
0.58212
0.58212
0.58212
0.584433
0.584433
0.584433
0.560438
0.560438
0.560438
0.561842
0.561842
0.561842
0.557529
0.557529
0.557529
0.560629
0.560629
0.560629
0.560769
0.560769
0.560769
0.562229
0.562229
0.562229
0.554518
0.554518
0.554518
0.557668
0.557668
0.557668
0.556028
0.556028
0.556028
0.552802
0.552802
0.552802
0.551215
0.551215
0.551215
0.514412
0.514412
0.514412
0.511652
0.511652
0.511652
0.466287
0.466287
0.466287
0.50162
0.50162
0.50162
0.504409
0.504409
0.504409
0.507953
0.507953
0.507953
0.493043
0.493043
0.493043
0.49381
0.49381
0.49381
0.479502
0.479502
0.479502
0.450631
0.450631
0.450631
0.479937
0.479937
0.479937
0.516014
0.516014
0.516014
0.522678
0.522678
0.522678
0.520094
0.520094
0.520094
0.516767
0.516767
0.516767
0.518629
0.518629
0.518629
0.521967
0.521967
0.521967
0.531507
0.531507
0.531507
0.533948
0.533948
0.533948
0.530211
0.530211
0.530211
0.533321
0.533321
0.533321
0.543917
0.543917
0.543917
0.544455
0.544455
0.544455
0.539016
0.539016
0.539016
0.527212
0.527212
0.527212
0.546812
0.546812
0.546812
0.547089
0.547089
0.547089
0.544637
0.544637
0.544637
0.544747
0.544747
0.544747
0.580719
0.580719
0.580719
0.582144
0.582144
0.582144
0.582733
0.582733
0.582733
0.581853
0.581853
0.581853
0.575772
0.575772
0.575772
0.572867
0.572867
0.572867
0.573883
0.573883
0.573883
0.566048
0.566048
0.566048
0.569769
0.569769
0.569769
0.564117
0.564117
0.564117
0.508695
0.508695
0.508695
0.522441
0.522441
0.522441
0.519803
0.519803
0.519803
0.520258
0.520258
0.520258
0.523313
0.523313
0.523313
0.531997
0.531997
0.531997
0.529183
0.529183
0.529183
0.512837
0.512837
0.512837
0.512101
0.512101
0.512101
0.509698
0.509698
0.509698
0.509283
0.509283
0.509283
0.516373
0.516373
0.516373
0.512608
0.512608
0.512608
0.499271
0.499271
0.499271
0.497429
0.497429
0.497429
0.498093
0.498093
0.498093
0.484888
0.484888
0.484888
0.490869
0.490869
0.490869
0.484164
0.484164
0.484164
0.48715
0.48715
0.48715
0.477273
0.477273
0.477273
0.473364
0.473364
0.473364
0.470286
0.470286
0.470286
0.574045
0.574045
0.574045
0.575655
0.575655
0.575655
0.565123
0.565123
0.565123
0.566177
0.566177
0.566177
0.566106
0.566106
0.566106
0.566432
0.566432
0.566432
0.563519
0.563519
0.563519
0.565531
0.565531
0.565531
0.563614
0.563614
0.563614
0.562615
0.562615
0.562615
0.570575
0.570575
0.570575
0.567456
0.567456
0.567456
0.569297
0.569297
0.569297
0.566925
0.566925
0.566925
0.555446
0.555446
0.555446
0.554815
0.554815
0.554815
0.560355
0.560355
0.560355
0.562388
0.562388
0.562388
0.587758
0.587758
0.587758
0.585979
0.585979
0.585979
0.586474
0.586474
0.586474
0.587918
0.587918
0.587918
0.58673
0.58673
0.58673
0.586131
0.586131
0.586131
0.586719
0.586719
0.586719
0.576223
0.576223
0.576223
0.57641
0.57641
0.57641
0.57559
0.57559
0.57559
0.577659
0.577659
0.577659
0.582205
0.582205
0.582205
0.582808
0.582808
0.582808
0.581331
0.581331
0.581331
0.581732
0.581732
0.581732
0.573519
0.573519
0.573519
0.571748
0.571748
0.571748
0.572923
0.572923
0.572923
0.580576
0.580576
0.580576
0.57902
0.57902
0.57902
0.584121
0.584121
0.584121
0.574656
0.574656
0.574656
0.576083
0.576083
0.576083
0.577728
0.577728
0.577728
0.577988
0.577988
0.577988
0.584218
0.584218
0.584218
0.584974
0.584974
0.584974
0.585995
0.585995
0.585995
0.585593
0.585593
0.585593
0.583553
0.583553
0.583553
0.583198
0.583198
0.583198
0.589448
0.589448
0.589448
0.59019
0.59019
0.59019
0.591339
0.591339
0.591339
0.591796
0.591796
0.591796
0.587683
0.587683
0.587683
0.58666
0.58666
0.58666
0.586924
0.586924
0.586924
0.576109
0.576109
0.576109
0.574114
0.574114
0.574114
0.534864
0.534864
0.534864
0.548704
0.548704
0.548704
0.533292
0.533292
0.533292
0.535347
0.535347
0.535347
0.550076
0.550076
0.550076
0.540398
0.540398
0.540398
0.539159
0.539159
0.539159
0.555118
0.555118
0.555118
0.553158
0.553158
0.553158
0.549134
0.549134
0.549134
0.558059
0.558059
0.558059
0.559944
0.559944
0.559944
0.56276
0.56276
0.56276
0.563686
0.563686
0.563686
0.535688
0.535688
0.535688
0.541133
0.541133
0.541133
0.543353
0.543353
0.543353
0.546385
0.546385
0.546385
0.54719
0.54719
0.54719
0.568132
0.568132
0.568132
0.56637
0.56637
0.56637
0.554755
0.554755
0.554755
0.556301
0.556301
0.556301
0.554185
0.554185
0.554185
0.552195
0.552195
0.552195
0.565179
0.565179
0.565179
0.563326
0.563326
0.563326
0.547168
0.547168
0.547168
0.544278
0.544278
0.544278
0.536355
0.536355
0.536355
0.558138
0.558138
0.558138
0.419045
0.419045
0.419045
0.421397
0.421397
0.421397
0.421777
0.421777
0.421777
0.430048
0.430048
0.430048
0.420356
0.420356
0.420356
0.425558
0.425558
0.425558
0.409013
0.409013
0.409013
0.399033
0.399033
0.399033
0.403364
0.403364
0.403364
0.505441
0.505441
0.505441
0.508153
0.508153
0.508153
0.507219
0.507219
0.507219
0.503534
0.503534
0.503534
0.513472
0.513472
0.513472
0.509893
0.509893
0.509893
0.420509
0.420509
0.420509
0.425568
0.425568
0.425568
0.417721
0.417721
0.417721
0.42
0.42
0.42
0.424496
0.424496
0.424496
0.426711
0.426711
0.426711
0.43171
0.43171
0.43171
0.431074
0.431074
0.431074
0.433883
0.433883
0.433883
0.4416
0.4416
0.4416
0.438826
0.438826
0.438826
0.414632
0.414632
0.414632
0.410178
0.410178
0.410178
0.495747
0.495747
0.495747
0.504215
0.504215
0.504215
0.422211
0.422211
0.422211
0.42878
0.42878
0.42878
0.433799
0.433799
0.433799
0.426466
0.426466
0.426466
0.597288
0.597288
0.597288
0.599183
0.599183
0.599183
0.604411
0.604411
0.604411
0.604803
0.604803
0.604803
0.604052
0.604052
0.604052
0.601079
0.601079
0.601079
0.602859
0.602859
0.602859
0.602415
0.602415
0.602415
0.603633
0.603633
0.603633
0.60672
0.60672
0.60672
0.604184
0.604184
0.604184
0.602928
0.602928
0.602928
0.601258
0.601258
0.601258
0.600086
0.600086
0.600086
0.600838
0.600838
0.600838
0.60065
0.60065
0.60065
0.598296
0.598296
0.598296
0.602023
0.602023
0.602023
0.602778
0.602778
0.602778
0.581038
0.581038
0.581038
0.582318
0.582318
0.582318
0.581212
0.581212
0.581212
0.588018
0.588018
0.588018
0.58584
0.58584
0.58584
0.588988
0.588988
0.588988
0.587842
0.587842
0.587842
0.584632
0.584632
0.584632
0.585664
0.585664
0.585664
0.570717
0.570717
0.570717
0.573207
0.573207
0.573207
0.572352
0.572352
0.572352
0.569559
0.569559
0.569559
0.570888
0.570888
0.570888
0.460412
0.460412
0.460412
0.494413
0.494413
0.494413
0.485515
0.485515
0.485515
0.505337
0.505337
0.505337
0.509476
0.509476
0.509476
0.510052
0.510052
0.510052
0.522203
0.522203
0.522203
0.526073
0.526073
0.526073
0.497271
0.497271
0.497271
0.49272
0.49272
0.49272
0.488264
0.488264
0.488264
0.492846
0.492846
0.492846
0.494998
0.494998
0.494998
0.492336
0.492336
0.492336
0.487885
0.487885
0.487885
0.48139
0.48139
0.48139
0.485937
0.485937
0.485937
0.488096
0.488096
0.488096
0.485748
0.485748
0.485748
0.463898
0.463898
0.463898
0.588787
0.588787
0.588787
0.590828
0.590828
0.590828
0.56638
0.56638
0.56638
0.564813
0.564813
0.564813
0.569223
0.569223
0.569223
0.570496
0.570496
0.570496
0.560197
0.560197
0.560197
0.533685
0.533685
0.533685
0.53173
0.53173
0.53173
0.529901
0.529901
0.529901
0.529767
0.529767
0.529767
0.531569
0.531569
0.531569
0.551077
0.551077
0.551077
0.547727
0.547727
0.547727
0.534813
0.534813
0.534813
0.557339
0.557339
0.557339
0.550889
0.550889
0.550889
0.555861
0.555861
0.555861
0.552635
0.552635
0.552635
0.474469
0.474469
0.474469
0.478674
0.478674
0.478674
0.491369
0.491369
0.491369
0.472513
0.472513
0.472513
0.475576
0.475576
0.475576
0.486355
0.486355
0.486355
0.482523
0.482523
0.482523
0.489308
0.489308
0.489308
0.488454
0.488454
0.488454
0.490461
0.490461
0.490461
0.486599
0.486599
0.486599
0.458102
0.458102
0.458102
0.453919
0.453919
0.453919
0.532083
0.532083
0.532083
0.529602
0.529602
0.529602
0.530126
0.530126
0.530126
0.53309
0.53309
0.53309
0.535539
0.535539
0.535539
0.535057
0.535057
0.535057
0.535723
0.535723
0.535723
0.538716
0.538716
0.538716
0.540413
0.540413
0.540413
0.541043
0.541043
0.541043
0.529493
0.529493
0.529493
0.525449
0.525449
0.525449
0.526258
0.526258
0.526258
0.545584
0.545584
0.545584
0.546169
0.546169
0.546169
0.547798
0.547798
0.547798
0.555857
0.555857
0.555857
0.558075
0.558075
0.558075
0.537379
0.537379
0.537379
0.52735
0.52735
0.52735
0.529661
0.529661
0.529661
0.529833
0.529833
0.529833
0.53222
0.53222
0.53222
0.534906
0.534906
0.534906
0.539935
0.539935
0.539935
0.542086
0.542086
0.542086
0.542231
0.542231
0.542231
0.550905
0.550905
0.550905
0.554224
0.554224
0.554224
0.55244
0.55244
0.55244
0.552823
0.552823
0.552823
0.555001
0.555001
0.555001
0.56258
0.56258
0.56258
0.577725
0.577725
0.577725
0.576392
0.576392
0.576392
0.575508
0.575508
0.575508
0.576155
0.576155
0.576155
0.57832
0.57832
0.57832
0.580384
0.580384
0.580384
0.579839
0.579839
0.579839
0.577304
0.577304
0.577304
0.573183
0.573183
0.573183
0.57328
0.57328
0.57328
0.574071
0.574071
0.574071
0.571501
0.571501
0.571501
0.572329
0.572329
0.572329
0.573476
0.573476
0.573476
0.575139
0.575139
0.575139
0.575693
0.575693
0.575693
0.557532
0.557532
0.557532
0.559055
0.559055
0.559055
0.563633
0.563633
0.563633
0.565034
0.565034
0.565034
0.561109
0.561109
0.561109
0.561645
0.561645
0.561645
0.512119
0.512119
0.512119
0.518737
0.518737
0.518737
0.518129
0.518129
0.518129
0.514814
0.514814
0.514814
0.516623
0.516623
0.516623
0.510031
0.510031
0.510031
0.516069
0.516069
0.516069
0.512766
0.512766
0.512766
0.513912
0.513912
0.513912
0.510622
0.510622
0.510622
0.502401
0.502401
0.502401
0.505931
0.505931
0.505931
0.50662
0.50662
0.50662
0.499572
0.499572
0.499572
0.500297
0.500297
0.500297
0.503813
0.503813
0.503813
0.528866
0.528866
0.528866
0.528075
0.528075
0.528075
0.531027
0.531027
0.531027
0.531401
0.531401
0.531401
0.525508
0.525508
0.525508
0.525925
0.525925
0.525925
0.521325
0.521325
0.521325
0.521014
0.521014
0.521014
0.518603
0.518603
0.518603
0.515575
0.515575
0.515575
0.517972
0.517972
0.517972
0.515254
0.515254
0.515254
0.52186
0.52186
0.52186
0.519263
0.519263
0.519263
0.521262
0.521262
0.521262
0.524802
0.524802
0.524802
0.524636
0.524636
0.524636
0.507846
0.507846
0.507846
0.504449
0.504449
0.504449
0.505564
0.505564
0.505564
0.508376
0.508376
0.508376
0.502181
0.502181
0.502181
0.501596
0.501596
0.501596
0.489275
0.489275
0.489275
0.488591
0.488591
0.488591
0.492864
0.492864
0.492864
0.495784
0.495784
0.495784
0.495191
0.495191
0.495191
0.491587
0.491587
0.491587
0.468004
0.468004
0.468004
0.471038
0.471038
0.471038
0.482511
0.482511
0.482511
0.471184
0.471184
0.471184
0.567962
0.567962
0.567962
0.571638
0.571638
0.571638
0.570746
0.570746
0.570746
0.565368
0.565368
0.565368
0.566379
0.566379
0.566379
0.567988
0.567988
0.567988
0.56617
0.56617
0.56617
0.569002
0.569002
0.569002
0.568196
0.568196
0.568196
0.570007
0.570007
0.570007
0.568717
0.568717
0.568717
0.567575
0.567575
0.567575
0.568198
0.568198
0.568198
0.570485
0.570485
0.570485
0.571152
0.571152
0.571152
0.563098
0.563098
0.563098
0.561838
0.561838
0.561838
0.565032
0.565032
0.565032
0.565708
0.565708
0.565708
0.562504
0.562504
0.562504
0.564441
0.564441
0.564441
0.55633
0.55633
0.55633
0.559102
0.559102
0.559102
0.558485
0.558485
0.558485
0.559873
0.559873
0.559873
0.588555
0.588555
0.588555
0.59029
0.59029
0.59029
0.589698
0.589698
0.589698
0.589691
0.589691
0.589691
0.588499
0.588499
0.588499
0.587955
0.587955
0.587955
0.582038
0.582038
0.582038
0.580827
0.580827
0.580827
0.580082
0.580082
0.580082
0.577921
0.577921
0.577921
0.578607
0.578607
0.578607
0.578513
0.578513
0.578513
0.5801
0.5801
0.5801
0.579894
0.579894
0.579894
0.580708
0.580708
0.580708
0.577896
0.577896
0.577896
0.578669
0.578669
0.578669
0.578664
0.578664
0.578664
0.576654
0.576654
0.576654
0.577061
0.577061
0.577061
0.577806
0.577806
0.577806
0.579818
0.579818
0.579818
0.579367
0.579367
0.579367
0.571724
0.571724
0.571724
0.574871
0.574871
0.574871
0.576558
0.576558
0.576558
0.573307
0.573307
0.573307
0.573426
0.573426
0.573426
0.564206
0.564206
0.564206
0.56225
0.56225
0.56225
0.560222
0.560222
0.560222
0.568356
0.568356
0.568356
0.566477
0.566477
0.566477
0.572658
0.572658
0.572658
0.57408
0.57408
0.57408
0.58174
0.58174
0.58174
0.581713
0.581713
0.581713
0.581521
0.581521
0.581521
0.582394
0.582394
0.582394
0.582654
0.582654
0.582654
0.580883
0.580883
0.580883
0.581355
0.581355
0.581355
0.579588
0.579588
0.579588
0.5798
0.5798
0.5798
0.584703
0.584703
0.584703
0.584722
0.584722
0.584722
0.583258
0.583258
0.583258
0.583242
0.583242
0.583242
0.587314
0.587314
0.587314
0.584626
0.584626
0.584626
0.583154
0.583154
0.583154
0.583034
0.583034
0.583034
0.584335
0.584335
0.584335
0.58576
0.58576
0.58576
0.58593
0.58593
0.58593
0.593319
0.593319
0.593319
0.598366
0.598366
0.598366
0.598972
0.598972
0.598972
0.598622
0.598622
0.598622
0.537907
0.537907
0.537907
0.545365
0.545365
0.545365
0.543401
0.543401
0.543401
0.539942
0.539942
0.539942
0.538445
0.538445
0.538445
0.549637
0.549637
0.549637
0.556075
0.556075
0.556075
0.554699
0.554699
0.554699
0.551479
0.551479
0.551479
0.53893
0.53893
0.53893
0.545856
0.545856
0.545856
0.540455
0.540455
0.540455
0.543916
0.543916
0.543916
0.530045
0.530045
0.530045
0.533747
0.533747
0.533747
0.534152
0.534152
0.534152
0.535778
0.535778
0.535778
0.546294
0.546294
0.546294
0.544379
0.544379
0.544379
0.540915
0.540915
0.540915
0.539364
0.539364
0.539364
0.535722
0.535722
0.535722
0.553316
0.553316
0.553316
0.548873
0.548873
0.548873
0.552081
0.552081
0.552081
0.556397
0.556397
0.556397
0.557552
0.557552
0.557552
0.554057
0.554057
0.554057
0.560791
0.560791
0.560791
0.558934
0.558934
0.558934
0.559749
0.559749
0.559749
0.555989
0.555989
0.555989
0.550092
0.550092
0.550092
0.548058
0.548058
0.548058
0.543712
0.543712
0.543712
0.54487
0.54487
0.54487
0.538324
0.538324
0.538324
0.548113
0.548113
0.548113
0.547071
0.547071
0.547071
0.54602
0.54602
0.54602
0.561848
0.561848
0.561848
0.558065
0.558065
0.558065
0.559036
0.559036
0.559036
0.557122
0.557122
0.557122
0.568989
0.568989
0.568989
0.567257
0.567257
0.567257
0.56361
0.56361
0.56361
0.564569
0.564569
0.564569
0.536585
0.536585
0.536585
0.53825
0.53825
0.53825
0.535113
0.535113
0.535113
0.534258
0.534258
0.534258
0.584664
0.584664
0.584664
0.583077
0.583077
0.583077
0.582928
0.582928
0.582928
0.577766
0.577766
0.577766
0.579627
0.579627
0.579627
0.581201
0.581201
0.581201
0.573773
0.573773
0.573773
0.572959
0.572959
0.572959
0.570216
0.570216
0.570216
0.572487
0.572487
0.572487
0.59818
0.59818
0.59818
0.569764
0.569764
0.569764
0.567212
0.567212
0.567212
0.558724
0.558724
0.558724
0.559831
0.559831
0.559831
0.560654