<VTKFile type="UnstructuredGrid" version="1.0">
<UnstructuredGrid>
<Piece NumberOfPoints="8859" NumberOfCells="2953">
<Points>
<DataArray type="Float64" NumberOfComponents="3" format="ascii">
0.5 3.01 6.175
0.512524 3.01 6.1975
0.487476 3.01 6.1975
0.17352 3.01 5.2975
0.160827 3.01 5.31922
0.148445 3.01 5.2975
0.122979 3.01 5.34089
0.110383 3.01 5.31921
0.135644 3.01 5.31922
0.135644 3.01 5.31922
0.110383 3.01 5.31921
0.123433 3.01 5.2975
0.123433 3.01 5.2975
0.148445 3.01 5.2975
0.135644 3.01 5.31922
0.135644 3.01 5.31922
0.148445 3.01 5.2975
0.160827 3.01 5.31922
0.17352 3.01 5.2975
0.198629 3.01 5.2975
0.185985 3.01 5.3192
0.185985 3.01 5.3192
0.160827 3.01 5.31922
0.17352 3.01 5.2975
0.0732297 3.01 5.34067
0.0586606 3.01 5.31881
0.0848754 3.01 5.31914
0.05 3.01 6.13027
0.05 3.01 6.0851
0.058509 3.01 6.10756
0.324276 3.01 5.2975
0.349395 3.01 5.2975
0.336827 3.01 5.31916
0.148138 3.01 5.3409
0.135644 3.01 5.31922
0.160827 3.01 5.31922
0.122979 3.01 5.34089
0.135644 3.01 5.31922
0.148138 3.01 5.3409
0.160827 3.01 5.31922
0.185985 3.01 5.3192
0.173316 3.01 5.34089
0.185806 3.01 5.36255
0.160572 3.01 5.36255
0.173316 3.01 5.34089
0.173316 3.01 5.34089
0.148138 3.01 5.3409
0.160827 3.01 5.31922
0.160572 3.01 5.36255
0.148138 3.01 5.3409
0.173316 3.01 5.34089
0.211137 3.01 5.31919
0.185985 3.01 5.3192
0.198629 3.01 5.2975
0.0979162 3.01 5.34084
0.110383 3.01 5.31921
0.122979 3.01 5.34089
0.122979 3.01 5.34089
0.109875 3.01 5.36249
0.0979162 3.01 5.34084
0.0732297 3.01 5.34067
0.0848754 3.01 5.31914
0.0979162 3.01 5.34084
0.0979162 3.01 5.34084
0.0848754 3.01 5.31914
0.110383 3.01 5.31921
0.0975729 3.01 5.38404
0.109875 3.01 5.36249
0.122678 3.01 5.38414
0.0841718 3.01 5.36235
0.0577122 3.01 5.36202
0.0732297 3.01 5.34067
0.0729308 3.01 5.38388
0.0577122 3.01 5.36202
0.0841718 3.01 5.36235
0.0732297 3.01 5.34067
0.0979162 3.01 5.34084
0.0841718 3.01 5.36235
0.0841718 3.01 5.36235
0.0979162 3.01 5.34084
0.109875 3.01 5.36249
0.0975729 3.01 5.38404
0.0729308 3.01 5.38388
0.0841718 3.01 5.36235
0.0841718 3.01 5.36235
0.109875 3.01 5.36249
0.0975729 3.01 5.38404
0.073948 3.01 5.2975
0.0586606 3.01 5.31881
0.05 3.01 5.2975
0.073948 3.01 5.2975
0.0848754 3.01 5.31914
0.0586606 3.01 5.31881
0.05 3.01 6.17329
0.05 3.01 6.13027
0.0603641 3.01 6.15197
0.0603641 3.01 6.15197
0.0753197 3.01 6.17399
0.05 3.01 6.17329
0.0709395 3.01 6.1975
0.05 3.01 6.1975
0.05 3.01 6.17329
0.05 3.01 6.17329
0.0753197 3.01 6.17399
0.0709395 3.01 6.1975
0.0579641 3.01 5.88463
0.05 3.01 5.90669
0.05 3.01 5.86261
0.0841948 3.01 5.79679
0.097638 3.01 5.77493
0.109814 3.01 5.7968
0.0841948 3.01 5.79679
0.0730539 3.01 5.8187
0.0578646 3.01 5.7968
0.0580261 3.01 5.9288
0.05 3.01 5.95095
0.05 3.01 5.90669
0.942292 3.01 5.49236
0.95 3.01 5.47067
0.95 3.01 5.51404
0.95 3.01 5.42726
0.95 3.01 5.47067
0.942332 3.01 5.44897
0.73872 3.01 5.70953
0.726137 3.01 5.68776
0.75132 3.01 5.68775
0.751305 3.01 5.73132
0.726124 3.01 5.73133
0.73872 3.01 5.70953
0.713546 3.01 5.70954
0.726137 3.01 5.68776
0.73872 3.01 5.70953
0.73872 3.01 5.70953
0.726124 3.01 5.73133
0.713546 3.01 5.70954
0.814318 3.01 5.75311
0.789096 3.01 5.75312
0.801709 3.01 5.7313
0.7765 3.01 5.73131
0.789115 3.01 5.70951
0.801709 3.01 5.7313
0.801709 3.01 5.7313
0.789096 3.01 5.75312
0.7765 3.01 5.73131
0.7765 3.01 5.73131
0.789096 3.01 5.75312
0.763892 3.01 5.75314
0.763892 3.01 5.75314
0.751305 3.01 5.73132
0.7765 3.01 5.73131
0.95 3.01 6.1975
0.929061 3.01 6.1975
0.95 3.01 6.17329
0.95 3.01 5.9954
0.926844 3.01 5.9954
0.941913 3.01 5.97315
0.941913 3.01 5.97315
0.95 3.01 5.95095
0.95 3.01 5.9954
0.926866 3.01 5.95094
0.95 3.01 5.95095
0.941913 3.01 5.97315
0.941974 3.01 5.9288
0.95 3.01 5.95095
0.926866 3.01 5.95094
0.95 3.01 5.90669
0.95 3.01 5.95095
0.941974 3.01 5.9288
0.941974 3.01 5.9288
0.926895 3.01 5.90669
0.95 3.01 5.90669
0.6127 3.01 6.1975
0.625238 3.01 6.17498
0.637734 3.01 6.1975
0.662757 3.01 6.1975
0.637734 3.01 6.1975
0.650275 3.01 6.17497
0.650275 3.01 6.17497
0.637734 3.01 6.1975
0.625238 3.01 6.17498
0.600415 3.01 5.73137
0.587856 3.01 5.7532
0.575304 3.01 5.73137
0.575304 3.01 5.73137
0.587856 3.01 5.7532
0.562749 3.01 5.7532
0.336827 3.01 5.31916
0.349395 3.01 5.2975
0.361946 3.01 5.31916
0.223755 3.01 5.2975
0.211137 3.01 5.31919
0.198629 3.01 5.2975
0.185985 3.01 5.3192
0.211137 3.01 5.31919
0.198492 3.01 5.34088
0.185806 3.01 5.36255
0.173316 3.01 5.34089
0.198492 3.01 5.34088
0.198492 3.01 5.34088
0.173316 3.01 5.34089
0.185985 3.01 5.3192
0.0576202 3.01 5.40553
0.05 3.01 5.42726
0.05 3.01 5.38374
0.05 3.01 5.38374
0.0729308 3.01 5.38388
0.0576202 3.01 5.40553
0.05 3.01 5.38374
0.0577122 3.01 5.36202
0.0729308 3.01 5.38388
0.135283 3.01 5.36254
0.109875 3.01 5.36249
0.122979 3.01 5.34089
0.135283 3.01 5.36254
0.122678 3.01 5.38414
0.109875 3.01 5.36249
0.122979 3.01 5.34089
0.148138 3.01 5.3409
0.135283 3.01 5.36254
0.135283 3.01 5.36254
0.148138 3.01 5.3409
0.160572 3.01 5.36255
0.123433 3.01 5.2975
0.110383 3.01 5.31921
0.0985513 3.01 5.2975
0.110383 3.01 5.31921
0.0848754 3.01 5.31914
0.0985513 3.01 5.2975
0.0848754 3.01 5.31914
0.073948 3.01 5.2975
0.0985513 3.01 5.2975
0.0603641 3.01 6.15197
0.05 3.01 6.13027
0.0739464 3.01 6.12949
0.0739464 3.01 6.12949
0.05 3.01 6.13027
0.058509 3.01 6.10756
0.058509 3.01 6.10756
0.0849548 3.01 6.10711
0.0739464 3.01 6.12949
0.058509 3.01 6.10756
0.05 3.01 6.0851
0.0732725 3.01 6.08488
0.0732725 3.01 6.08488
0.0849548 3.01 6.10711
0.058509 3.01 6.10756
0.5 3.01 6.175
0.487476 3.01 6.1975
0.47495 3.01 6.175
0.097663 3.01 5.8187
0.0841948 3.01 5.79679
0.109814 3.01 5.7968
0.0730539 3.01 5.8187
0.0841948 3.01 5.79679
0.097663 3.01 5.8187
0.0578646 3.01 5.7968
0.0730539 3.01 5.8187
0.05 3.01 5.8187
0.05 3.01 5.8187
0.05 3.01 5.77492
0.0578646 3.01 5.7968
0.05 3.01 5.9954
0.05 3.01 5.95095
0.0580869 3.01 5.97315
0.05 3.01 5.95095
0.0580261 3.01 5.9288
0.073134 3.01 5.95094
0.073134 3.01 5.95094
0.0580869 3.01 5.97315
0.05 3.01 5.95095
0.942268 3.01 5.53573
0.95 3.01 5.51404
0.95 3.01 5.55741
0.942292 3.01 5.49236
0.95 3.01 5.51404
0.927025 3.01 5.51404
0.927025 3.01 5.51404
0.942268 3.01 5.53573
0.915919 3.01 5.53572
0.95 3.01 5.51404
0.942268 3.01 5.53573
0.927025 3.01 5.51404
0.927013 3.01 5.55741
0.942268 3.01 5.53573
0.95 3.01 5.55741
0.915919 3.01 5.53572
0.942268 3.01 5.53573
0.927013 3.01 5.55741
0.801738 3.01 5.64425
0.814364 3.01 5.62253
0.826957 3.01 5.64425
0.852174 3.01 5.64424
0.826957 3.01 5.64425
0.839609 3.01 5.62252
0.839609 3.01 5.62252
0.826957 3.01 5.64425
0.814364 3.01 5.62253
0.776516 3.01 5.68775
0.75132 3.01 5.68775
0.763923 3.01 5.666
0.776516 3.01 5.68775
0.801725 3.01 5.68774
0.789115 3.01 5.70951
0.738704 3.01 5.75315
0.751305 3.01 5.73132
0.763892 3.01 5.75314
0.726124 3.01 5.73133
0.751305 3.01 5.73132
0.738704 3.01 5.75315
0.915617 3.01 5.97314
0.902228 3.01 5.95094
0.926866 3.01 5.95094
0.926866 3.01 5.95094
0.941913 3.01 5.97315
0.915617 3.01 5.97314
0.915617 3.01 5.97314
0.941913 3.01 5.97315
0.926844 3.01 5.9954
0.915617 3.01 5.97314
0.926844 3.01 5.9954
0.902193 3.01 5.99538
0.926866 3.01 5.95094
0.902228 3.01 5.95094
0.915668 3.01 5.92879
0.902267 3.01 5.90668
0.926895 3.01 5.90669
0.915668 3.01 5.92879
0.915668 3.01 5.92879
0.941974 3.01 5.9288
0.926866 3.01 5.95094
0.926895 3.01 5.90669
0.941974 3.01 5.9288
0.915668 3.01 5.92879
0.902267 3.01 5.90668
0.915668 3.01 5.92879
0.890059 3.01 5.92879
0.890059 3.01 5.92879
0.915668 3.01 5.92879
0.902228 3.01 5.95094
0.826927 3.01 5.73129
0.814318 3.01 5.75311
0.801709 3.01 5.7313
0.864816 3.01 5.7968
0.877308 3.01 5.77493
0.890186 3.01 5.7968
0.877308 3.01 5.77493
0.864816 3.01 5.7968
0.852122 3.01 5.77494
0.890186 3.01 5.7968
0.877308 3.01 5.77493
0.902362 3.01 5.77493
0.902362 3.01 5.77493
0.915805 3.01 5.79679
0.890186 3.01 5.7968
0.902362 3.01 5.77493
0.926964 3.01 5.77492
0.915805 3.01 5.79679
0.915835 3.01 5.75309
0.926964 3.01 5.77492
0.902362 3.01 5.77493
0.942171 3.01 5.75309
0.926964 3.01 5.77492
0.915835 3.01 5.75309
0.915835 3.01 5.75309
0.926978 3.01 5.73127
0.942171 3.01 5.75309
0.942171 3.01 5.75309
0.926978 3.01 5.73127
0.95 3.01 5.73127
0.87737 3.01 5.60081
0.890277 3.01 5.57911
0.902417 3.01 5.6008
0.852144 3.01 5.73128
0.877329 3.01 5.73128
0.864842 3.01 5.75309
0.877308 3.01 5.77493
0.852122 3.01 5.77494
0.864842 3.01 5.75309
0.902396 3.01 5.68772
0.915858 3.01 5.70948
0.890234 3.01 5.70949
0.926997 3.01 5.64423
0.942237 3.01 5.62251
0.95 3.01 5.64423
0.91589 3.01 5.62251
0.942237 3.01 5.62251
0.926997 3.01 5.64423
0.942199 3.01 5.70948
0.95 3.01 5.68771
0.95 3.01 5.73127
0.95 3.01 5.73127
0.926978 3.01 5.73127
0.942199 3.01 5.70948
0.942199 3.01 5.70948
0.926978 3.01 5.73127
0.915858 3.01 5.70948
0.95 3.01 5.64423
0.95 3.01 5.68771
0.942221 3.01 5.66597
0.942221 3.01 5.66597
0.926997 3.01 5.64423
0.95 3.01 5.64423
0.915876 3.01 5.66597
0.926997 3.01 5.64423
0.942221 3.01 5.66597
0.926989 3.01 5.68771
0.915858 3.01 5.70948
0.902396 3.01 5.68772
0.902396 3.01 5.68772
0.915876 3.01 5.66597
0.926989 3.01 5.68771
0.926989 3.01 5.68771
0.942199 3.01 5.70948
0.915858 3.01 5.70948
0.95 3.01 5.68771
0.942199 3.01 5.70948
0.926989 3.01 5.68771
0.915876 3.01 5.66597
0.942221 3.01 5.66597
0.926989 3.01 5.68771
0.926989 3.01 5.68771
0.942221 3.01 5.66597
0.95 3.01 5.68771
0.91353 3.01 6.15185
0.926054 3.01 6.12949
0.939636 3.01 6.15197
0.926728 3.01 6.08488
0.95 3.01 6.0851
0.941491 3.01 6.10756
0.926728 3.01 6.08488
0.941822 3.01 6.06254
0.95 3.01 6.0851
0.95 3.01 6.13027
0.95 3.01 6.17329
0.939636 3.01 6.15197
0.95 3.01 6.13027
0.926054 3.01 6.12949
0.941491 3.01 6.10756
0.939636 3.01 6.15197
0.926054 3.01 6.12949
0.95 3.01 6.13027
0.941491 3.01 6.10756
0.95 3.01 6.0851
0.95 3.01 6.13027
0.941869 3.01 6.01772
0.926844 3.01 5.9954
0.95 3.01 5.9954
0.762942 3.01 6.15228
0.75028 3.01 6.17489
0.737933 3.01 6.15234
0.71291 3.01 6.15239
0.725533 3.01 6.12985
0.737933 3.01 6.15234
0.71291 3.01 6.15239
0.737933 3.01 6.15234
0.725313 3.01 6.17492
0.725313 3.01 6.17492
0.737933 3.01 6.15234
0.75028 3.01 6.17489
0.737693 3.01 6.1975
[...]
<PointData Scalars="View Factor" >
<DataArray type="Float64" Name="View Factor" NumberOfComponents="1" format="ascii">
0.000197606
0.000197606
0.000197606
0.000147904
0.000147904
0.000147904
0.000148952
0.000148952
0.000148952
0.000148266
0.000148266
0.000148266
0.000147917
0.000147917
0.000147917
0.000148253
0.000148253
0.000148253
0.000147888
0.000147888
0.000147888
0.000148238
0.000148238
0.000148238
0.000148959
0.000148959
0.000148959
0.000192793
0.000192793
0.000192793
0.000147743
0.000147743
0.000147743
0.00014894
0.00014894
0.00014894
0.000149291
0.000149291
0.000149291
0.000148925
0.000148925
0.000148925
0.000150308
0.000150308
0.000150308
0.000149277
0.000149277
0.000149277
0.000149969
0.000149969
0.000149969
0.00014822
0.00014822
0.00014822
0.000149301
0.000149301
0.000149301
0.000149992
0.000149992
0.000149992
0.000149306
0.000149306
0.000149306
0.000148961
0.000148961
0.000148961
0.000151385
0.000151385
0.000151385
0.000150339
0.000150339
0.000150339
0.000151035
0.000151035
0.000151035
0.000149996
0.000149996
0.000149996
0.000150341
0.000150341
0.000150341
0.000151387
0.000151387
0.000151387
0.000151037
0.000151037
0.000151037
0.000147938
0.000147938
0.000147938
0.000148276
0.000148276
0.000148276
0.000195725
0.000195725
0.000195725
0.000196701
0.000196701
0.000196701
0.000198261
0.000198261
0.000198261
0.000197726
0.000197726
0.000197726
0.000178809
0.000178809
0.000178809
0.000173214
0.000173214
0.000173214
0.000174065
0.000174065
0.000174065
0.000181476
0.000181476
0.000181476
0.000155373
0.000155373
0.000155373
0.00015322
0.00015322
0.00015322
0.000166711
0.000166711
0.000166711
0.00016831
0.00016831
0.00016831
0.000167149
0.000167149
0.000167149
0.000167949
0.000167949
0.000167949
0.000169305
0.000169305
0.000169305
0.000168139
0.000168139
0.000168139
0.000168945
0.000168945
0.000168945
0.000169394
0.000169394
0.000169394
0.000169033
0.000169033
0.000169033
0.000195788
0.000195788
0.000195788
0.000182906
0.000182906
0.000182906
0.000181963
0.000181963
0.000181963
0.000181098
0.000181098
0.000181098
0.000180205
0.000180205
0.000180205
0.000179284
0.000179284
0.000179284
0.000178438
0.000178438
0.000178438
0.000197212
0.000197212
0.000197212
0.000197122
0.000197122
0.000197122
0.000196661
0.000196661
0.000196661
0.000169567
0.000169567
0.000169567
0.000170007
0.000170007
0.000170007
0.000148068
0.000148068
0.000148068
0.000147869
0.000147869
0.000147869
0.000148907
0.000148907
0.000148907
0.000149952
0.000149952
0.000149952
0.000149261
0.000149261
0.000149261
0.000152801
0.000152801
0.000152801
0.000152091
0.000152091
0.000152091
0.000151384
0.000151384
0.000151384
0.000150335
0.000150335
0.000150335
0.000151031
0.000151031
0.000151031
0.000149983
0.000149983
0.000149983
0.000150323
0.000150323
0.000150323
0.000147929
0.000147929
0.000147929
0.000148275
0.000148275
0.000148275
0.000147936
0.000147936
0.000147936
0.000194748
0.000194748
0.000194748
0.000193766
0.000193766
0.000193766
0.000193252
0.000193252
0.000193252
0.0001918
0.0001918
0.0001918
0.000192275
0.000192275
0.000192275
0.000197134
0.000197134
0.000197134
0.000174055
0.000174055
0.000174055
0.000174483
0.000174483
0.000174483
0.000174492
0.000174492
0.000174492
0.00017365
0.00017365
0.00017365
0.000184204
0.000184204
0.000184204
0.000182375
0.000182375
0.000182375
0.000183284
0.000183284
0.000183284
0.000157564
0.000157564
0.000157564
0.000156128
0.000156128
0.000156128
0.000157267
0.000157267
0.000157267
0.000156858
0.000156858
0.000156858
0.000158332
0.000158332
0.000158332
0.000158004
0.000158004
0.000158004
0.000163326
0.000163326
0.000163326
0.000163237
0.000163237
0.000163237
0.000162896
0.000162896
0.000162896
0.000165837
0.000165837
0.000165837
0.000166542
0.000166542
0.000166542
0.000169481
0.000169481
0.000169481
0.000169117
0.000169117
0.000169117
0.000181211
0.000181211
0.000181211
0.0001816
0.0001816
0.0001816
0.000182504
0.000182504
0.000182504
0.000183019
0.000183019
0.000183019
0.000180316
0.000180316
0.000180316
0.000178549
0.000178549
0.000178549
0.000179813
0.000179813
0.000179813
0.000178929
0.000178929
0.000178929
0.000179042
0.000179042
0.000179042
0.000179926
0.000179926
0.000179926
0.000168854
0.000168854
0.000168854
0.000171473
0.000171473
0.000171473
0.000171111
0.000171111
0.000171111
0.00017101
0.00017101
0.00017101
0.00017137
0.00017137
0.00017137
0.000170907
0.000170907
0.000170907
0.000170088
0.000170088
0.000170088
0.000169626
0.000169626
0.000169626
0.000168815
0.000168815
0.000168815
0.000168365
0.000168365
0.000168365
0.000160763
0.000160763
0.000160763
0.000168665
0.000168665
0.000168665
0.00017029
0.00017029
0.00017029
0.000166518
0.000166518
0.000166518
0.00016286
0.00016286
0.00016286
0.000162521
0.000162521
0.000162521
0.000166735
0.000166735
0.000166735
0.000167563
0.000167563
0.000167563
0.000167211
0.000167211
0.000167211
0.000164377
0.000164377
0.000164377
0.000163632
0.000163632
0.000163632
0.000164064
0.000164064
0.000164064
0.000166074
0.000166074
0.000166074
0.000165287
0.000165287
0.000165287
0.000166417
0.000166417
0.000166417
0.000165975
0.000165975
0.000165975
0.000164843
0.000164843
0.000164843
0.000165189
0.000165189
0.000165189
0.000192895
0.000192895
0.000192895
0.000189463
0.000189463
0.000189463
0.000188503
0.000188503
0.000188503
0.000193279
0.000193279
0.000193279
0.000191395
0.000191395
0.000191395
0.000192363
0.000192363
0.000192363
0.000190398
0.000190398
0.000190398
0.00018382
0.00018382
0.00018382
0.000194715
0.000194715
0.000194715
0.000193824
0.000193824
0.000193824
0.00019482
0.00019482
0.00019482
0.000195269
0.000195269
0.000195269
0.000196833
0.000196833
0.000196833
0.000196276
0.000196276
0.000196276
0.00019673
0.00019673
0.00019673
0.000190636
0.000190636
0.000190636
0.000191855
0.000191855
0.000191855
0.00019338
0.00019338
0.00019338
0.000192395
0.000192395
0.000192395
0.000193572
0.000193572
0.000193572
0.000192586
0.000192586
0.000192586
0.000195742
0.000195742
0.000195742
0.000196749
0.000196749
0.000196749
0.000197297
0.000197297
0.000197297
0.00016867
0.00016867
0.00016867
0.00016994
0.00016994
0.00016994
0.000172548
0.000172548
0.000172548
0.000173319
0.000173319
0.000173319
0.000172483
0.000172483
0.000172483
0.000172099
0.000172099
0.000172099
0.000170826
0.000170826
0.000170826
0.000171271
0.000171271
0.000171271
0.000173385
0.000173385
0.000173385
0.000173773
0.000173773
0.000173773
0.000178537
0.000178537
0.000178537
0.000172193
0.000172193
0.000172193
0.000171816
0.000171816
0.000171816
0.000170119
0.000170119
0.000170119
0.000171764
0.000171764
0.000171764
0.0001478
0.0001478
0.0001478
0.000147826
0.000147826
0.000147826
0.000148154
0.000148154
0.000148154
0.00014884
0.00014884
0.00014884
0.000147395
0.000147395
0.000147395
0.000164187
0.000164187
0.000164187
0.000165752
0.000165752
0.000165752
0.000164619
0.000164619
0.000164619
0.000165402
0.000165402
0.000165402
0.000165485
0.000165485
0.000165485
0.00016592
0.00016592
0.00016592
0.000149171
0.000149171
0.000149171
0.000147711
0.000147711
0.000147711
0.000147209
0.000147209
0.000147209
0.000158795
0.000158795
0.000158795
0.00015844
0.00015844
0.00015844
0.000150679
0.000150679
0.000150679
0.000148612
0.000148612
0.000148612
0.000149296
0.000149296
0.000149296
0.000149986
0.000149986
0.000149986
0.000193727
0.000193727
0.000193727
0.000197675
0.000197675
0.000197675
0.000179689
0.000179689
0.000179689
0.000180577
0.000180577
0.000180577
0.000175334
0.000175334
0.000175334
0.000153449
0.000153449
0.000153449
0.000179668
0.000179668
0.000179668
0.000180556
0.000180556
0.000180556
0.00017279
0.00017279
0.00017279
0.000173201
0.000173201
0.000173201
0.000171968
0.000171968
0.000171968
0.000172801
0.000172801
0.000172801
0.000172809
0.000172809
0.000172809
0.000173224
0.000173224
0.000173224
0.000171152
0.000171152
0.000171152
0.000171976
0.000171976
0.000171976
0.000171559
0.000171559
0.000171559
0.000170734
0.000170734
0.000170734
0.000170328
0.000170328
0.000170328
0.000167861
0.000167861
0.000167861
0.000167413
0.000167413
0.000167413
0.000158424
0.000158424
0.000158424
0.0001641
0.0001641
0.0001641
0.000164533
0.000164533
0.000164533
0.000165316
0.000165316
0.000165316
0.000162807
0.000162807
0.000162807
0.000163146
0.000163146
0.000163146
0.000160431
0.000160431
0.000160431
0.000155806
0.000155806
0.000155806
0.000159018
0.000159018
0.000159018
0.000166628
0.000166628
0.000166628
0.000168226
0.000168226
0.000168226
0.000167781
0.000167781
0.000167781
0.000166983
0.000166983
0.000166983
0.000167068
0.000167068
0.000167068
0.000167867
0.000167867
0.000167867
0.000170296
0.000170296
0.000170296
0.000170749
0.000170749
0.000170749
0.000169565
0.000169565
0.000169565
0.000170381
0.000170381
0.000170381
0.000172947
0.000172947
0.000172947
0.000173325
0.000173325
0.000173325
0.00017099
0.00017099
0.00017099
0.000172198
0.000172198
0.000172198
0.000178658
0.000178658
0.000178658
0.00017789
0.00017789
0.00017789
0.000177783
0.000177783
0.000177783
0.000177401
0.000177401
0.000177401
0.000193171
0.000193171
0.000193171
0.00019372
0.00019372
0.00019372
0.000193278
0.000193278
0.000193278
0.000192293
0.000192293
0.000192293
0.000187905
0.000187905
0.000187905
0.000190448
0.000190448
0.000190448
0.000191418
0.000191418
0.000191418
0.00018612
0.00018612
0.00018612
0.000187167
0.000187167
0.000187167
0.000185599
0.000185599
0.000185599
0.000165664
0.000165664
0.000165664
0.000169213
0.000169213
0.000169213
0.000168761
0.000168761
0.000168761
0.000169118
0.000169118
0.000169118
0.00016993
0.00016993
0.00016993
0.000172402
0.000172402
0.000172402
0.000171572
0.000171572
0.000171572
0.000168466
0.000168466
0.000168466
0.000167764
0.000167764
0.000167764
0.000167664
0.000167664
0.000167664
0.000167313
0.000167313
0.000167313
0.000169985
0.000169985
0.000169985
0.000169141
0.000169141
0.000169141
0.000164944
0.000164944
0.000164944
0.000163919
0.000163919
0.000163919
0.00016426
0.00016426
0.00016426
0.000161854
0.000161854
0.000161854
0.000162714
0.000162714
0.000162714
0.000161522
0.000161522
0.000161522
0.000161949
0.000161949
0.000161949
0.000160338
0.000160338
0.000160338
0.000159587
0.000159587
0.000159587
0.000159168
0.000159168
0.000159168
0.000194257
0.000194257
0.000194257
0.000193382
0.000193382
0.000193382
0.000194283
0.000194283
0.000194283
0.000193873
0.000193873
0.000193873
0.000195309
0.000195309
0.000195309
0.000192466
0.000192466
0.000192466
0.000189566
0.000189566
0.000189566
0.000191491
0.000191491
0.000191491
0.000190953
0.000190953
0.000190953
0.000189992
0.000189992
0.000189992
0.000188531
0.000188531
0.000188531
0.000187057
0.000187057
0.000187057
0.000187584
0.000187584
0.000187584
0.000187471
0.000187471
0.000187471
0.000183934
0.000183934
0.000183934
0.000184334
0.000184334
0.000184334
0.000188078
0.000188078
0.000188078
0.000188612
0.000188612
0.000188612
0.000194021
0.000194021
0.000194021
0.000193924
0.000193924
0.000193924
0.000193478
0.000193478
0.000193478
0.000196933
0.000196933
0.000196933
0.000196377
0.000196377
0.000196377
0.000195371
0.000195371
0.000195371
0.00019492
0.00019492
0.00019492
0.000195831
0.000195831
0.000195831
0.000194378
0.000194378
0.000194378
0.000194819
0.000194819
0.000194819
0.0001964
0.0001964
0.0001964
0.000195163
0.000195163
0.000195163
0.00019617
0.00019617
0.00019617
0.000190882
0.000190882
0.000190882
0.000190448
0.000190448
0.000190448
0.000183946
0.000183946
0.000183946
0.000183443
0.000183443
0.000183443
0.000186024
0.000186024
0.000186024
0.000189485
0.000189485
0.000189485
0.000188957
0.000188957
0.000188957
0.000189672
0.000189672
0.000189672
0.000186541
0.000186541
0.000186541
0.000187482
0.000187482
0.000187482
0.000188005
0.000188005
0.000188005
0.00018758
0.00018758
0.00018758
0.000191955
0.000191955
0.000191955
0.000191075
0.000191075
0.000191075
0.00019205
0.00019205
0.00019205
0.000192493
0.000192493
0.000192493
0.000190544
0.000190544
0.000190544
0.000190981
0.000190981
0.000190981
0.000194113
0.000194113
0.000194113
0.000195109
0.000195109
0.000195109
0.000195655
0.000195655
0.000195655
0.000195198
0.000195198
0.000195198
0.000192141
0.000192141
0.000192141
0.000191166
0.000191166
0.000191166
0.000190725
0.000190725
0.000190725
0.000182447
0.000182447
0.000182447
0.000181543
0.000181543
0.000181543
0.000166958
0.000166958
0.000166958
0.000170186
0.000170186
0.000170186
0.000166574
0.000166574
0.000166574
0.000166985
0.000166985
0.000166985
0.00017058
0.00017058
0.00017058
0.000169099
0.000169099
0.000169099
0.000168718
0.000168718
0.000168718
0.000172828
0.000172828
0.000172828
0.000172386
0.000172386
0.000172386
0.000171505
0.000171505
0.000171505
0.000173668
0.000173668
0.000173668
0.000174114
0.000174114
0.000174114
0.000174962
0.000174962
0.000174962
0.000175364
0.000175364
0.000175364
0.000169499
0.000169499
0.000169499
0.000170759
0.000170759
0.000170759
0.000171205
0.000171205
0.000171205
0.000172033
0.000172033
0.000172033
0.000172415
0.000172415
0.000172415
0.000176678
0.000176678
0.000176678
0.000176222
0.000176222
0.000176222
0.000173837
0.000173837
0.000173837
0.000174619
0.000174619
0.000174619
0.000172778
0.000172778
0.000172778
0.000172335
0.000172335
0.000172335
0.000176518
0.000176518
0.000176518
0.000176058
0.000176058
0.000176058
0.000173105
0.000173105
0.000173105
0.00017227
0.00017227
0.00017227
0.000172595
0.000172595
0.000172595
0.000179563
0.000179563
0.000179563
0.000147849
0.000147849
0.000147849
0.000148179
0.000148179
0.000148179
0.000148201
0.000148201
0.000148201
0.000152538
0.000152538
0.000152538
0.0001511
0.0001511
0.0001511
0.000151831
0.000151831
0.000151831
0.000147519
0.000147519
0.000147519
0.00014682
0.00014682
0.00014682
0.000147025
0.000147025
0.000147025
0.000164271
0.000164271
0.000164271
0.000164701
0.000164701
0.000164701
0.000164352
0.000164352
0.000164352
0.000163575
0.000163575
0.000163575
0.000165566
0.000165566
0.000165566
0.000164781
0.000164781
0.000164781
0.000148128
0.000148128
0.000148128
0.000148813
0.000148813
0.000148813
0.000147773
0.000147773
0.000147773
0.000148099
0.000148099
0.000148099
0.000148752
0.000148752
0.000148752
0.00014908
0.00014908
0.00014908
0.00014977
0.00014977
0.00014977
0.000149734
0.000149734
0.000149734
0.000150099
0.000150099
0.000150099
0.000151162
0.000151162
0.000151162
0.000150795
0.000150795
0.000150795
0.000147601
0.000147601
0.000147601
0.000147577
0.000147577
0.000147577
0.000159543
0.000159543
0.000159543
0.000161051
0.000161051
0.000161051
0.000148836
0.000148836
0.000148836
0.000149196
0.000149196
0.000149196
0.000149888
0.000149888
0.000149888
0.000148864
0.000148864
0.000148864
0.000187346
0.000187346
0.000187346
0.000189187
0.000189187
0.000189187
0.000192172
0.000192172
0.000192172
0.000192192
0.000192192
0.000192192
0.000191694
0.000191694
0.000191694
0.00018929
0.00018929
0.00018929
0.000190723
0.000190723
0.000190723
0.00019025
0.00019025
0.00019025
0.000191672
0.000191672
0.000191672
0.000193226
0.000193226
0.000193226
0.000190823
0.000190823
0.000190823
0.00018986
0.00018986
0.00018986
0.0001972
0.0001972
0.0001972
0.000194719
0.000194719
0.000194719
0.000195719
0.000195719
0.000195719
0.00019619
0.00019619
0.00019619
0.00019274
0.00019274
0.00019274
0.000194835
0.000194835
0.000194835
0.000195836
0.000195836
0.000195836
0.000179232
0.000179232
0.000179232
0.00017968
0.00017968
0.00017968
0.000179243
0.000179243
0.000179243
0.000181919
0.000181919
0.000181919
0.00018102
0.00018102
0.00018102
0.000182366
0.000182366
0.000182366
0.000181908
0.000181908
0.000181908
0.000180568
0.000180568
0.000180568
0.00018101
0.00018101
0.00018101
0.000175756
0.000175756
0.000175756
0.000176603
0.000176603
0.000176603
0.000176201
0.000176201
0.000176201
0.000175342
0.000175342
0.000175342
0.000175766
0.000175766
0.000175766
0.000153515
0.000153515
0.000153515
0.000158962
0.000158962
0.000158962
0.000157479
0.000157479
0.000157479
0.000161113
0.000161113
0.000161113
0.000161875
0.000161875
0.000161875
0.000161642
0.000161642
0.000161642
0.000163951
0.000163951
0.000163951
0.000164729
0.000164729
0.000164729
0.000159374
0.000159374
0.000159374
0.000158618
0.000158618
0.000158618
0.000157875
0.000157875
0.000157875
0.000158625
0.000158625
0.000158625
0.000158995
0.000158995
0.000158995
0.000158596
0.000158596
0.000158596
0.000157854
0.000157854
0.000157854
0.000156766
0.000156766
0.000156766
0.000157501
0.000157501
0.000157501
0.000157866
0.000157866
0.000157866
0.000157491
0.000157491
0.000157491
0.000154164
0.000154164
0.000154164
0.000182353
0.000182353
0.000182353
0.000183262
0.000183262
0.000183262
0.000174472
0.000174472
0.000174472
0.000174043
0.000174043
0.000174043
0.000175322
0.000175322
0.000175322
0.000175743
0.000175743
0.000175743
0.000172776
0.000172776
0.000172776
0.000166305
0.000166305
0.000166305
0.000165904
0.000165904
0.000165904
0.000165513
0.000165513
0.000165513
0.000165505
0.000165505
0.000165505
0.000165895
0.000165895
0.000165895
0.00017032
0.00017032
0.00017032
0.000169504
0.000169504
0.000169504
0.00016666
0.00016666
0.00016666
0.000171957
0.000171957
0.000171957
0.000170309
0.000170309
0.000170309
0.000171549
0.000171549
0.000171549
0.000170725
0.000170725
0.000170725
0.000157942
0.000157942
0.000157942
0.000158683
0.000158683
0.000158683
0.000162129
0.000162129
0.000162129
0.00015926
0.00015926
0.00015926
0.00015968
0.00015968
0.00015968
0.000161614
0.000161614
0.000161614
0.000160855
0.000160855
0.000160855
0.00016204
0.00016204
0.00016204
0.000161704
0.000161704
0.000161704
0.000161791
0.000161791
0.000161791
0.000161031
0.000161031
0.000161031
0.000156949
0.000156949
0.000156949
0.000156218
0.000156218
0.000156218
0.000170663
0.000170663
0.000170663
0.000170209
0.000170209
0.000170209
0.000170574
0.000170574
0.000170574
0.000171397
0.000171397
0.000171397
0.000171856
0.000171856
0.000171856
0.000171486
0.000171486
0.000171486
0.000170832
0.000170832
0.000170832
0.000171657
0.000171657
0.000171657
0.000171738
0.000171738
0.000171738
0.000172113
0.000172113
0.000172113
0.0001692
0.0001692
0.0001692
0.000168029
0.000168029
0.000168029
0.000168391
0.000168391
0.000168391
0.000173027
0.000173027
0.000173027
0.000173407
0.000173407
0.000173407
0.000173486
0.000173486
0.000173486
0.00017829
0.00017829
0.00017829
0.000179169
0.000179169
0.000179169
0.000174079
0.000174079
0.000174079
0.000172563
0.000172563
0.000172563
0.000172301
0.000172301
0.000172301
0.000172667
0.000172667
0.000172667
0.000172769
0.000172769
0.000172769
0.000173607
0.000173607
0.000173607
0.000176428
0.000176428
0.000176428
0.000177674
0.000177674
0.000177674
0.000177293
0.000177293
0.000177293
0.000180427
0.000180427
0.000180427
0.00018262
0.00018262
0.00018262
0.000181715
0.000181715
0.000181715
0.000181322
0.000181322
0.000181322
0.000181827
0.000181827
0.000181827
0.000184673
0.000184673
0.000184673
0.000192078
0.000192078
0.000192078
0.000192946
0.000192946
0.000192946
0.000191964
0.000191964
0.000191964
0.000191533
0.000191533
0.000191533
0.000191644
0.000191644
0.000191644
0.000191752
0.000191752
0.000191752
0.000192188
0.000192188
0.000192188
0.000190672
0.000190672
0.000190672
0.000191847
0.000191847
0.000191847
0.000193262
0.000193262
0.000193262
0.000192828
0.000192828
0.000192828
0.0001913
0.0001913
0.0001913
0.000189064
0.000189064
0.000189064
0.000190023
0.000190023
0.000190023
0.000190562
0.000190562
0.000190562
0.000190135
0.000190135
0.000190135
0.00018445
0.00018445
0.00018445
0.000185375
0.000185375
0.000185375
0.000186009
0.000186009
0.000186009
0.000186945
0.000186945
0.000186945
0.000185897
0.000185897
0.000185897
0.000185488
0.000185488
0.000185488
0.000166454
0.000166454
0.000166454
0.000168049
0.000168049
0.000168049
0.000167693
0.000167693
0.000167693
0.000166896
0.000166896
0.000166896
0.000167956
0.000167956
0.000167956
0.000166363
0.000166363
0.000166363
0.000167602
0.000167602
0.000167602
0.000166805
0.000166805
0.000166805
0.000167509
0.000167509
0.000167509
0.000166712
0.000166712
0.000166712
0.000164445
0.000164445
0.000164445
0.000165227
0.000165227
0.000165227
0.000165574
0.000165574
0.000165574
0.000164011
0.000164011