<VTKFile type="UnstructuredGrid" version="1.0">
<UnstructuredGrid>
<Piece NumberOfPoints="8859" NumberOfCells="2953">
<Points>
<DataArray type="Float64" NumberOfComponents="3" format="ascii">
2.75455 1.50245 13.4526
2.76986 1.48714 13.4646
2.75465 1.50235 13.4783
2.78515 1.47185 13.4017
2.78516 1.47184 13.3765
2.8005 1.4565 13.389
2.76981 1.48719 13.4144
2.78515 1.47185 13.4017
2.78514 1.47186 13.4269
2.72412 1.53288 13.5049
2.73952 1.51748 13.5125
2.70875 1.54825 13.5125
2.72412 1.53288 13.5049
2.73943 1.51757 13.4896
2.73952 1.51748 13.5125
2.75488 1.50212 13.5048
2.77036 1.48664 13.5125
2.73952 1.51748 13.5125
2.75488 1.50212 13.5048
2.73943 1.51757 13.4896
2.75465 1.50235 13.4783
2.73952 1.51748 13.5125
2.73943 1.51757 13.4896
2.75488 1.50212 13.5048
2.75465 1.50235 13.4783
2.76986 1.48714 13.4646
2.76997 1.48703 13.4893
2.76997 1.48703 13.4893
2.75488 1.50212 13.5048
2.75465 1.50235 13.4783
2.77036 1.48664 13.5125
2.75488 1.50212 13.5048
2.76997 1.48703 13.4893
2.76986 1.48714 13.4646
2.75455 1.50245 13.4526
2.76982 1.48718 13.4395
2.76981 1.48719 13.4144
2.78514 1.47186 13.4269
2.76982 1.48718 13.4395
2.7852 1.4718 13.4776
2.76997 1.48703 13.4893
2.76986 1.48714 13.4646
2.8005 1.4565 13.4639
2.8005 1.4565 13.4886
2.7852 1.4718 13.4776
2.8005 1.4565 13.3639
2.8005 1.4565 13.389
2.78516 1.47184 13.3765
2.78515 1.47185 13.4017
2.8005 1.4565 13.389
2.8005 1.4565 13.4141
2.8005 1.4565 13.4141
2.78514 1.47186 13.4269
2.78515 1.47185 13.4017
2.8005 1.4565 12.8365
2.8005 1.4565 12.8617
2.78518 1.47182 12.8491
2.78517 1.47183 13.3011
2.8005 1.4565 13.3136
2.78517 1.47183 13.3262
2.8005 1.4565 13.2885
2.8005 1.4565 13.3136
2.78517 1.47183 13.3011
2.78519 1.47181 13.1754
2.8005 1.4565 13.188
2.78519 1.47181 13.2006
2.32274 1.93426 12.6206
2.33845 1.91855 12.6125
2.33845 1.91855 12.6356
2.27541 1.98159 13.5125
2.24359 2.01341 13.5125
2.25954 1.99746 13.5043
2.78515 1.47185 13.4521
2.76982 1.48718 13.4395
2.78514 1.47186 13.4269
2.76986 1.48714 13.4646
2.76982 1.48718 13.4395
2.78515 1.47185 13.4521
2.78515 1.47185 13.4521
2.7852 1.4718 13.4776
2.76986 1.48714 13.4646
2.8005 1.4565 13.4639
2.7852 1.4718 13.4776
2.78515 1.47185 13.4521
2.78544 1.47156 13.5038
2.8005 1.4565 13.4886
2.8005 1.4565 13.5125
2.78544 1.47156 13.5038
2.7852 1.4718 13.4776
2.8005 1.4565 13.4886
2.8005 1.4565 13.5125
2.77036 1.48664 13.5125
2.78544 1.47156 13.5038
2.77036 1.48664 13.5125
2.76997 1.48703 13.4893
2.78544 1.47156 13.5038
2.76997 1.48703 13.4893
2.7852 1.4718 13.4776
2.78544 1.47156 13.5038
2.78517 1.47183 13.3262
2.8005 1.4565 13.3136
2.8005 1.4565 13.3387
2.78514 1.47186 13.4269
2.8005 1.4565 13.4141
2.8005 1.4565 13.4391
2.8005 1.4565 13.4639
2.78515 1.47185 13.4521
2.8005 1.4565 13.4391
2.8005 1.4565 13.4391
2.78515 1.47185 13.4521
2.78514 1.47186 13.4269
2.8005 1.4565 13.1629
2.8005 1.4565 13.188
2.78519 1.47181 13.1754
2.78518 1.47182 12.8491
2.8005 1.4565 12.8617
2.78518 1.47182 12.8742
2.76985 1.48715 13.2885
2.75454 1.50246 13.276
2.76986 1.48714 13.2634
2.78516 1.47184 13.3514
2.8005 1.4565 13.3639
2.78516 1.47184 13.3765
2.78516 1.47184 13.3514
2.8005 1.4565 13.3387
2.8005 1.4565 13.3639
2.78516 1.47184 13.3514
2.76984 1.48716 13.3388
2.78517 1.47183 13.3262
2.78517 1.47183 13.3262
2.8005 1.4565 13.3387
2.78516 1.47184 13.3514
2.76982 1.48718 13.3892
2.78515 1.47185 13.4017
2.76981 1.48719 13.4144
2.76982 1.48718 13.3892
2.78516 1.47184 13.3765
2.78515 1.47185 13.4017
2.75451 1.50249 13.3515
2.7392 1.5178 13.3641
2.73921 1.51779 13.3389
2.53996 1.71704 13.4784
2.52458 1.73242 13.4649
2.53996 1.71704 13.4528
2.49374 1.76326 13.3138
2.49375 1.76325 13.339
2.47832 1.77868 13.3264
2.8005 1.4565 12.6125
2.8005 1.4565 12.6364
2.78544 1.47156 12.6212
2.27543 1.98157 13.4893
2.27541 1.98159 13.5125
2.25954 1.99746 13.5043
2.33845 1.91855 13.4145
2.32276 1.93424 13.4271
2.32275 1.93425 13.4019
2.25954 1.99746 13.5043
2.24359 2.01341 13.5125
2.24374 2.01326 13.4892
2.76987 1.48713 12.937
2.75455 1.50245 12.9244
2.76987 1.48713 12.9119
2.8005 1.4565 13.0876
2.78519 1.47181 13.075
2.8005 1.4565 13.0625
2.78519 1.47181 13.1252
2.8005 1.4565 13.1127
2.8005 1.4565 13.1378
2.76988 1.48712 13.0374
2.75456 1.50244 13.05
2.75456 1.50244 13.0249
2.76988 1.48712 13.0625
2.75456 1.50244 13.05
2.76988 1.48712 13.0374
2.78519 1.47181 13.075
2.76988 1.48712 13.0876
2.76988 1.48712 13.0625
2.75455 1.50245 13.2006
2.76987 1.48713 13.2131
2.75455 1.50245 13.2257
2.72393 1.53307 13.1755
2.72392 1.53308 13.2006
2.70861 1.54839 13.188
2.75456 1.50244 13.1755
2.73924 1.51776 13.1629
2.75456 1.50244 13.1503
2.75456 1.50244 13.1503
2.76987 1.48713 13.1629
2.75456 1.50244 13.1755
2.73924 1.51776 13.1629
2.73925 1.51775 13.1378
2.75456 1.50244 13.1503
2.75456 1.50244 13.1503
2.73925 1.51775 13.1378
2.75456 1.50244 13.1252
2.8005 1.4565 13.1378
2.8005 1.4565 13.1629
2.78519 1.47181 13.1503
2.78519 1.47181 13.1503
2.78519 1.47181 13.1252
2.8005 1.4565 13.1378
2.78519 1.47181 13.1503
2.8005 1.4565 13.1629
2.78519 1.47181 13.1754
2.78519 1.47181 13.1754
2.76987 1.48713 13.1629
2.78519 1.47181 13.1503
2.75454 1.50246 13.2508
2.73923 1.51777 13.2383
2.75455 1.50245 13.2257
2.75454 1.50246 13.2508
2.76986 1.48714 13.2634
2.75454 1.50246 13.276
2.7086 1.5484 13.2383
2.72392 1.53308 13.2257
2.72392 1.53308 13.2509
2.72392 1.53308 13.2509
2.72392 1.53308 13.2257
2.73923 1.51777 13.2383
2.8005 1.4565 13.2131
2.78519 1.47181 13.2006
2.8005 1.4565 13.188
2.75455 1.50245 13.2257
2.76987 1.48713 13.2131
2.76986 1.48714 13.2382
2.76986 1.48714 13.2382
2.75454 1.50246 13.2508
2.75455 1.50245 13.2257
2.76986 1.48714 13.2634
2.75454 1.50246 13.2508
2.76986 1.48714 13.2382
2.78517 1.47183 13.3262
2.76984 1.48716 13.3388
2.76985 1.48715 13.3137
2.76985 1.48715 13.3137
2.78517 1.47183 13.3011
2.78517 1.47183 13.3262
2.76985 1.48715 13.2885
2.78517 1.47183 13.3011
2.76985 1.48715 13.3137
2.73921 1.51779 13.3389
2.73921 1.51779 13.3138
2.75452 1.50248 13.3263
2.75452 1.50248 13.3263
2.75451 1.50249 13.3515
2.73921 1.51779 13.3389
2.76984 1.48716 13.3388
2.75451 1.50249 13.3515
2.75452 1.50248 13.3263
2.75452 1.50248 13.3263
2.76985 1.48715 13.3137
2.76984 1.48716 13.3388
2.7239 1.5331 13.3264
2.73921 1.51779 13.3138
2.73921 1.51779 13.3389
2.7239 1.5331 13.3264
2.70859 1.54841 13.339
2.70859 1.54841 13.3138
2.76981 1.48719 13.4144
2.76982 1.48718 13.4395
2.75451 1.50249 13.4272
2.75451 1.50249 13.4272
2.76982 1.48718 13.4395
2.75455 1.50245 13.4526
2.7392 1.5178 13.3641
2.75451 1.50249 13.3515
2.75451 1.50249 13.3767
2.75451 1.50249 13.3767
2.7392 1.5178 13.3894
2.7392 1.5178 13.3641
2.67798 1.57902 13.2132
2.66266 1.59434 13.2257
2.66266 1.59434 13.2006
2.70859 1.54841 13.3138
2.70859 1.54841 13.2886
2.7239 1.5331 13.3012
2.7239 1.5331 13.3012
2.7239 1.5331 13.3264
2.70859 1.54841 13.3138
2.73921 1.51779 13.3138
2.7239 1.5331 13.3264
2.7239 1.5331 13.3012
2.73922 1.51778 13.2886
2.73921 1.51779 13.3138
2.7239 1.5331 13.3012
2.57068 1.68632 13.4528
2.57068 1.68632 13.4784
2.55533 1.70167 13.4649
2.55533 1.70167 13.4649
2.57068 1.68632 13.4784
2.55533 1.70167 13.4895
2.55533 1.70167 13.4649
2.55533 1.70167 13.4895
2.53996 1.71704 13.4784
2.53996 1.71704 13.4784
2.53996 1.71704 13.4528
2.55533 1.70167 13.4649
2.52458 1.73242 13.4398
2.53996 1.71704 13.4528
2.52458 1.73242 13.4649
2.50912 1.74788 13.075
2.50912 1.74788 13.1002
2.49371 1.76329 13.0876
2.41633 1.84067 13.2006
2.40077 1.85623 13.188
2.41632 1.84068 13.1754
2.41635 1.84065 13.2508
2.40081 1.85619 13.2634
2.40079 1.85621 13.2382
2.33845 1.91855 13.4145
2.32275 1.93425 13.4019
2.33843 1.91857 13.3892
2.33845 1.91855 13.4397
2.32276 1.93424 13.4271
2.33845 1.91855 13.4145
2.40087 1.85613 13.3641
2.40088 1.85612 13.3893
2.38531 1.87169 13.3767
2.30693 1.95007 13.3136
2.32265 1.93435 13.301
2.32267 1.93433 13.3262
2.30684 1.95016 13.213
2.29108 1.96592 13.2256
2.29106 1.96594 13.2005
2.32274 1.93426 13.5044
2.33845 1.91855 13.5125
2.30701 1.94999 13.5125
2.33845 1.91855 13.4894
2.33845 1.91855 13.5125
2.32274 1.93426 13.5044
2.35411 1.90289 13.5045
2.33845 1.91855 13.5125
2.33845 1.91855 13.4894
2.30704 1.94996 13.4396
2.30703 1.94997 13.4647
2.29128 1.96572 13.4525
2.55533 1.70167 13.5125
2.52458 1.73242 13.5125
2.53996 1.71704 13.5047
2.53996 1.71704 13.4784
2.55533 1.70167 13.4895
2.53996 1.71704 13.5047
2.53996 1.71704 13.5047
2.55533 1.70167 13.4895
2.55533 1.70167 13.5125
2.52458 1.73242 13.4895
2.52458 1.73242 13.4649
2.53996 1.71704 13.4784
2.53996 1.71704 13.4784
2.53996 1.71704 13.5047
2.52458 1.73242 13.4895
2.52458 1.73242 13.4895
2.53996 1.71704 13.5047
2.52458 1.73242 13.5125
2.41642 1.84058 13.3768
2.40088 1.85612 13.3893
2.40087 1.85613 13.3641
2.47831 1.77869 13.3012
2.49374 1.76326 13.2886
2.49374 1.76326 13.3138
2.49374 1.76326 13.3138
2.47832 1.77868 13.3264
2.47831 1.77869 13.3012
2.47833 1.77867 13.3516
2.47832 1.77868 13.3264
2.49375 1.76325 13.339
2.47833 1.77867 13.3516
2.49375 1.76325 13.339
2.49376 1.76324 13.3642
2.49376 1.76324 13.3642
2.47834 1.77866 13.3768
2.47833 1.77867 13.3516
2.47833 1.77867 13.3516
2.47834 1.77866 13.3768
2.46289 1.79411 13.3642
2.49377 1.76323 13.3894
2.47834 1.77866 13.3768
2.49376 1.76324 13.3642
2.49377 1.76323 13.4146
2.47835 1.77865 13.4273
2.47834 1.77866 13.4021
2.47834 1.77866 13.4021
2.49377 1.76323 13.3894
2.49377 1.76323 13.4146
2.47834 1.77866 13.3768
2.49377 1.76323 13.3894
2.47834 1.77866 13.4021
2.7852 1.4718 12.6474
2.78544 1.47156 12.6212
2.8005 1.4565 12.6364
2.76997 1.48703 12.6357
2.78544 1.47156 12.6212
2.7852 1.4718 12.6474
2.64739 1.60961 12.6355
2.64738 1.60962 12.6125
2.66272 1.59428 12.6202
2.70875 1.54825 12.6125
2.6934 1.5636 12.6202
2.67805 1.57895 12.6125
2.67805 1.57895 12.6125
2.66272 1.59428 12.6202
2.64738 1.60962 12.6125
2.19638 2.06062 12.649
2.1963 2.0607 12.6229
2.2122 2.0448 12.6364
2.2122 2.0448 12.6364
2.22771 2.02929 12.621
2.22802 2.02898 12.6475
2.18073 2.07627 12.6378
2.1963 2.0607 12.6229
2.19638 2.06062 12.649
2.18073 2.07627 12.6378
2.18123 2.07577 12.6125
2.1963 2.0607 12.6229
2.27543 1.98157 12.6357
[...]
<PointData Scalars="View Factor" >
<DataArray type="Float64" Name="View Factor" NumberOfComponents="1" format="ascii">
4.35846e-06
4.35846e-06
4.35846e-06
4.57302e-06
4.57302e-06
4.57302e-06
4.50054e-06
4.50054e-06
4.50054e-06
4.13819e-06
4.13819e-06
4.13819e-06
4.19875e-06
4.19875e-06
4.19875e-06
4.30573e-06
4.30573e-06
4.30573e-06
4.28792e-06
4.28792e-06
4.28792e-06
4.25462e-06
4.25462e-06
4.25462e-06
4.37904e-06
4.37904e-06
4.37904e-06
4.34354e-06
4.34354e-06
4.34354e-06
4.36528e-06
4.36528e-06
4.36528e-06
4.39365e-06
4.39365e-06
4.39365e-06
4.4652e-06
4.4652e-06
4.4652e-06
4.43483e-06
4.43483e-06
4.43483e-06
4.54655e-06
4.54655e-06
4.54655e-06
4.60929e-06
4.60929e-06
4.60929e-06
4.59343e-06
4.59343e-06
4.59343e-06
4.55699e-06
4.55699e-06
4.55699e-06
4.95823e-06
4.95823e-06
4.95823e-06
4.62067e-06
4.62067e-06
4.62067e-06
4.65728e-06
4.65728e-06
4.65728e-06
4.70107e-06
4.70107e-06
4.70107e-06
2.89271e-06
2.89271e-06
2.89271e-06
2.60645e-06
2.60645e-06
2.60645e-06
4.4856e-06
4.4856e-06
4.4856e-06
4.44968e-06
4.44968e-06
4.44968e-06
4.47003e-06
4.47003e-06
4.47003e-06
4.52608e-06
4.52608e-06
4.52608e-06
4.53153e-06
4.53153e-06
4.53153e-06
4.51116e-06
4.51116e-06
4.51116e-06
4.47114e-06
4.47114e-06
4.47114e-06
4.42092e-06
4.42092e-06
4.42092e-06
4.45549e-06
4.45549e-06
4.45549e-06
4.64122e-06
4.64122e-06
4.64122e-06
4.57766e-06
4.57766e-06
4.57766e-06
4.56202e-06
4.56202e-06
4.56202e-06
4.54188e-06
4.54188e-06
4.54188e-06
4.7386e-06
4.7386e-06
4.7386e-06
4.91886e-06
4.91886e-06
4.91886e-06
4.50068e-06
4.50068e-06
4.50068e-06
4.58911e-06
4.58911e-06
4.58911e-06
4.62521e-06
4.62521e-06
4.62521e-06
4.54749e-06
4.54749e-06
4.54749e-06
4.60444e-06
4.60444e-06
4.60444e-06
4.48009e-06
4.48009e-06
4.48009e-06
4.5164e-06
4.5164e-06
4.5164e-06
4.34133e-06
4.34133e-06
4.34133e-06
3.12808e-06
3.12808e-06
3.12808e-06
2.9307e-06
2.9307e-06
2.9307e-06
5.11815e-06
5.11815e-06
5.11815e-06
2.60227e-06
2.60227e-06
2.60227e-06
2.59575e-06
2.59575e-06
2.59575e-06
2.61642e-06
2.61642e-06
2.61642e-06
4.72599e-06
4.72599e-06
4.72599e-06
4.80485e-06
4.80485e-06
4.80485e-06
4.77158e-06
4.77158e-06
4.77158e-06
4.62249e-06
4.62249e-06
4.62249e-06
4.64377e-06
4.64377e-06
4.64377e-06
4.68718e-06
4.68718e-06
4.68718e-06
4.51147e-06
4.51147e-06
4.51147e-06
4.29517e-06
4.29517e-06
4.29517e-06
4.48461e-06
4.48461e-06
4.48461e-06
4.54288e-06
4.54288e-06
4.54288e-06
4.46296e-06
4.46296e-06
4.46296e-06
4.50021e-06
4.50021e-06
4.50021e-06
4.75506e-06
4.75506e-06
4.75506e-06
4.73436e-06
4.73436e-06
4.73436e-06
4.71768e-06
4.71768e-06
4.71768e-06
4.65942e-06
4.65942e-06
4.65942e-06
4.43845e-06
4.43845e-06
4.43845e-06
4.48001e-06
4.48001e-06
4.48001e-06
4.26495e-06
4.26495e-06
4.26495e-06
4.3226e-06
4.3226e-06
4.3226e-06
4.7222e-06
4.7222e-06
4.7222e-06
4.53281e-06
4.53281e-06
4.53281e-06
4.49612e-06
4.49612e-06
4.49612e-06
4.51712e-06
4.51712e-06
4.51712e-06
4.52686e-06
4.52686e-06
4.52686e-06
4.56354e-06
4.56354e-06
4.56354e-06
4.54311e-06
4.54311e-06
4.54311e-06
4.35588e-06
4.35588e-06
4.35588e-06
4.37677e-06
4.37677e-06
4.37677e-06
4.43366e-06
4.43366e-06
4.43366e-06
4.46985e-06
4.46985e-06
4.46985e-06
4.29892e-06
4.29892e-06
4.29892e-06
4.18553e-06
4.18553e-06
4.18553e-06
4.40895e-06
4.40895e-06
4.40895e-06
4.37278e-06
4.37278e-06
4.37278e-06
4.36189e-06
4.36189e-06
4.36189e-06
4.32606e-06
4.32606e-06
4.32606e-06
3.99078e-06
3.99078e-06
3.99078e-06
4.19981e-06
4.19981e-06
4.19981e-06
4.22131e-06
4.22131e-06
4.22131e-06
4.27836e-06
4.27836e-06
4.27836e-06
4.31437e-06
4.31437e-06
4.31437e-06
3.29627e-06
3.29627e-06
3.29627e-06
3.26242e-06
3.26242e-06
3.26242e-06
3.20653e-06
3.20653e-06
3.20653e-06
3.18408e-06
3.18408e-06
3.18408e-06
3.10587e-06
3.10587e-06
3.10587e-06
3.11742e-06
3.11742e-06
3.11742e-06
2.62269e-06
2.62269e-06
2.62269e-06
2.60328e-06
2.60328e-06
2.60328e-06
2.59683e-06
2.59683e-06
2.59683e-06
2.58789e-06
2.58789e-06
2.58789e-06
2.56526e-06
2.56526e-06
2.56526e-06
2.63868e-06
2.63868e-06
2.63868e-06
2.68975e-06
2.68975e-06
2.68975e-06
2.56522e-06
2.56522e-06
2.56522e-06
2.56124e-06
2.56124e-06
2.56124e-06
2.55452e-06
2.55452e-06
2.55452e-06
2.59932e-06
2.59932e-06
2.59932e-06
3.13755e-06
3.13755e-06
3.13755e-06
3.17283e-06
3.17283e-06
3.17283e-06
3.19595e-06
3.19595e-06
3.19595e-06
3.09469e-06
3.09469e-06
3.09469e-06
3.11702e-06
3.11702e-06
3.11702e-06
3.08449e-06
3.08449e-06
3.08449e-06
2.55864e-06
2.55864e-06
2.55864e-06
2.94062e-06
2.94062e-06
2.94062e-06
2.90723e-06
2.90723e-06
2.90723e-06
2.89725e-06
2.89725e-06
2.89725e-06
2.9208e-06
2.9208e-06
2.9208e-06
2.88712e-06
2.88712e-06
2.88712e-06
2.83012e-06
2.83012e-06
2.83012e-06
2.91042e-06
2.91042e-06
2.91042e-06
2.86714e-06
2.86714e-06
2.86714e-06
2.90059e-06
2.90059e-06
2.90059e-06
2.87703e-06
2.87703e-06
2.87703e-06
5.07816e-06
5.07816e-06
5.07816e-06
5.01581e-06
5.01581e-06
5.01581e-06
4.23858e-06
4.23858e-06
4.23858e-06
4.49531e-06
4.49531e-06
4.49531e-06
4.30553e-06
4.30553e-06
4.30553e-06
2.98454e-06
2.98454e-06
2.98454e-06
2.96914e-06
2.96914e-06
2.96914e-06
2.99232e-06
2.99232e-06
2.99232e-06
3.00128e-06
3.00128e-06
3.00128e-06
2.93105e-06
2.93105e-06
2.93105e-06
2.90352e-06
2.90352e-06
2.90352e-06
2.92603e-06
2.92603e-06
2.92603e-06
2.92909e-06
2.92909e-06
2.92909e-06
2.92007e-06
2.92007e-06
2.92007e-06
2.57493e-06
2.57493e-06
2.57493e-06
2.59822e-06
2.59822e-06
2.59822e-06
2.59044e-06
2.59044e-06
2.59044e-06
2.70499e-06
2.70499e-06
2.70499e-06
2.69689e-06
2.69689e-06
2.69689e-06
2.63422e-06
2.63422e-06
2.63422e-06
4.93643e-06
4.93643e-06
4.93643e-06
4.8384e-06
4.8384e-06
4.8384e-06
4.69283e-06
4.69283e-06
4.69283e-06
4.65481e-06
4.65481e-06
4.65481e-06
4.70923e-06
4.70923e-06
4.70923e-06
4.67107e-06
4.67107e-06
4.67107e-06
4.61116e-06
4.61116e-06
4.61116e-06
4.58893e-06
4.58893e-06
4.58893e-06
4.62756e-06
4.62756e-06
4.62756e-06
4.68768e-06
4.68768e-06
4.68768e-06
3.60993e-06
3.60993e-06
3.60993e-06
3.57294e-06
3.57294e-06
3.57294e-06
3.55012e-06
3.55012e-06
3.55012e-06
4.605e-06
4.605e-06
4.605e-06
4.94087e-06
4.94087e-06
4.94087e-06
3.94682e-06
3.94682e-06
3.94682e-06
3.83047e-06
3.83047e-06
3.83047e-06
4.17905e-06
4.17905e-06
4.17905e-06
3.89334e-06
3.89334e-06
3.89334e-06
4.08322e-06
4.08322e-06
4.08322e-06
4.0604e-06
4.0604e-06
4.0604e-06
4.00153e-06
4.00153e-06
4.00153e-06
3.9652e-06
3.9652e-06
3.9652e-06
4.56321e-06
4.56321e-06
4.56321e-06
4.82159e-06
4.82159e-06
4.82159e-06
4.78367e-06
4.78367e-06
4.78367e-06
4.72459e-06
4.72459e-06
4.72459e-06
4.70295e-06
4.70295e-06
4.70295e-06
4.74106e-06
4.74106e-06
4.74106e-06
4.80034e-06
4.80034e-06
4.80034e-06
3.62499e-06
3.62499e-06
3.62499e-06
3.66109e-06
3.66109e-06
3.66109e-06
3.99286e-06
3.99286e-06
3.99286e-06
4.0157e-06
4.0157e-06
4.0157e-06
3.97947e-06
3.97947e-06
3.97947e-06
3.92048e-06
3.92048e-06
3.92048e-06
3.67384e-06
3.67384e-06
3.67384e-06
3.65009e-06
3.65009e-06
3.65009e-06
3.5788e-06
3.5788e-06
3.5788e-06
3.63805e-06
3.63805e-06
3.63805e-06
3.93367e-06
3.93367e-06
3.93367e-06
3.89753e-06
3.89753e-06
3.89753e-06
4.60598e-06
4.60598e-06
4.60598e-06
4.54801e-06
4.54801e-06
4.54801e-06
4.52687e-06
4.52687e-06
4.52687e-06
4.64301e-06
4.64301e-06
4.64301e-06
4.62226e-06
4.62226e-06
4.62226e-06
4.56409e-06
4.56409e-06
4.56409e-06
4.35322e-06
4.35322e-06
4.35322e-06
4.46882e-06
4.46882e-06
4.46882e-06
4.44802e-06
4.44802e-06
4.44802e-06
4.38986e-06
4.38986e-06
4.38986e-06
4.20817e-06
4.20817e-06
4.20817e-06
4.3028e-06
4.3028e-06
4.3028e-06
4.24425e-06
4.24425e-06
4.24425e-06
4.67589e-06
4.67589e-06
4.67589e-06
4.59616e-06
4.59616e-06
4.59616e-06
4.65473e-06
4.65473e-06
4.65473e-06
4.55867e-06
4.55867e-06
4.55867e-06
4.57995e-06
4.57995e-06
4.57995e-06
4.63832e-06
4.63832e-06
4.63832e-06
4.41675e-06
4.41675e-06
4.41675e-06
4.35898e-06
4.35898e-06
4.35898e-06
4.33788e-06
4.33788e-06
4.33788e-06
4.45361e-06
4.45361e-06
4.45361e-06
4.37465e-06
4.37465e-06
4.37465e-06
4.43263e-06
4.43263e-06
4.43263e-06
4.28003e-06
4.28003e-06
4.28003e-06
4.25849e-06
4.25849e-06
4.25849e-06
4.20053e-06
4.20053e-06
4.20053e-06
4.24348e-06
4.24348e-06
4.24348e-06
4.40171e-06
4.40171e-06
4.40171e-06
4.34414e-06
4.34414e-06
4.34414e-06
4.42255e-06
4.42255e-06
4.42255e-06
4.38621e-06
4.38621e-06
4.38621e-06
4.2293e-06
4.2293e-06
4.2293e-06
4.62777e-06
4.62777e-06
4.62777e-06
4.68565e-06
4.68565e-06
4.68565e-06
4.70588e-06
4.70588e-06
4.70588e-06
4.59058e-06
4.59058e-06
4.59058e-06
4.67342e-06
4.67342e-06
4.67342e-06
4.55806e-06
4.55806e-06
4.55806e-06
4.63668e-06
4.63668e-06
4.63668e-06
4.57937e-06
4.57937e-06
4.57937e-06
4.68961e-06
4.68961e-06
4.68961e-06
4.66833e-06
4.66833e-06
4.66833e-06
4.61066e-06
4.61066e-06
4.61066e-06
4.57472e-06
4.57472e-06
4.57472e-06
4.59554e-06
4.59554e-06
4.59554e-06
4.65303e-06
4.65303e-06
4.65303e-06
4.37153e-06
4.37153e-06
4.37153e-06
4.48591e-06
4.48591e-06
4.48591e-06
4.39224e-06
4.39224e-06
4.39224e-06
4.44932e-06
4.44932e-06
4.44932e-06
4.40776e-06
4.40776e-06
4.40776e-06
4.46505e-06
4.46505e-06
4.46505e-06
4.28455e-06
4.28455e-06
4.28455e-06
4.26305e-06
4.26305e-06
4.26305e-06
4.20621e-06
4.20621e-06
4.20621e-06
4.42364e-06
4.42364e-06
4.42364e-06
4.3114e-06
4.3114e-06
4.3114e-06
4.40356e-06
4.40356e-06
4.40356e-06
4.34707e-06
4.34707e-06
4.34707e-06
4.38838e-06
4.38838e-06
4.38838e-06
4.33209e-06
4.33209e-06
4.33209e-06
4.2676e-06
4.2676e-06
4.2676e-06
4.30264e-06
4.30264e-06
4.30264e-06
4.17659e-06
4.17659e-06
4.17659e-06
4.21186e-06
4.21186e-06
4.21186e-06
4.19074e-06
4.19074e-06
4.19074e-06
4.29609e-06
4.29609e-06
4.29609e-06
4.22562e-06
4.22562e-06
4.22562e-06
4.31673e-06
4.31673e-06
4.31673e-06
4.28152e-06
4.28152e-06
4.28152e-06
4.41857e-06
4.41857e-06
4.41857e-06
4.53233e-06
4.53233e-06
4.53233e-06
4.49589e-06
4.49589e-06
4.49589e-06
4.43923e-06
4.43923e-06
4.43923e-06
4.51175e-06
4.51175e-06
4.51175e-06
4.45491e-06
4.45491e-06
4.45491e-06
3.59812e-06
3.59812e-06
3.59812e-06
3.57547e-06
3.57547e-06
3.57547e-06
3.77238e-06
3.77238e-06
3.77238e-06
3.65622e-06
3.65622e-06
3.65622e-06
4.01274e-06
4.01274e-06
4.01274e-06
3.30453e-06
3.30453e-06
3.30453e-06
3.25167e-06
3.25167e-06
3.25167e-06
3.28442e-06
3.28442e-06
3.28442e-06
3.08211e-06
3.08211e-06
3.08211e-06
3.17653e-06
3.17653e-06
3.17653e-06
3.54278e-06
3.54278e-06
3.54278e-06
3.56595e-06
3.56595e-06
3.56595e-06
2.63061e-06
2.63061e-06
2.63061e-06
2.6213e-06
2.6213e-06
2.6213e-06
2.6212e-06
2.6212e-06
2.6212e-06
2.67515e-06
2.67515e-06
2.67515e-06
2.68116e-06
2.68116e-06
2.68116e-06
2.68214e-06
2.68214e-06
2.68214e-06
2.60458e-06
2.60458e-06
2.60458e-06
2.58649e-06
2.58649e-06
2.58649e-06
2.59332e-06
2.59332e-06
2.59332e-06
2.59246e-06
2.59246e-06
2.59246e-06
2.59003e-06
2.59003e-06
2.59003e-06
2.5908e-06
2.5908e-06
2.5908e-06
2.57639e-06
2.57639e-06
2.57639e-06
2.58405e-06
2.58405e-06
2.58405e-06
2.60323e-06
2.60323e-06
2.60323e-06
2.59647e-06
2.59647e-06
2.59647e-06
2.61687e-06
2.61687e-06
2.61687e-06
2.62374e-06
2.62374e-06
2.62374e-06
2.63173e-06
2.63173e-06
2.63173e-06
2.61449e-06
2.61449e-06
2.61449e-06
2.57858e-06
2.57858e-06
2.57858e-06
2.58531e-06
2.58531e-06
2.58531e-06
2.64673e-06
2.64673e-06
2.64673e-06
2.64782e-06
2.64782e-06
2.64782e-06
2.64999e-06
2.64999e-06
2.64999e-06
2.69084e-06
2.69084e-06
2.69084e-06
2.54582e-06
2.54582e-06
2.54582e-06
2.52579e-06
2.52579e-06
2.52579e-06
2.60259e-06
2.60259e-06
2.60259e-06
2.60139e-06
2.60139e-06
2.60139e-06
2.9695e-06
2.9695e-06
2.9695e-06
3.02872e-06
3.02872e-06
3.02872e-06
2.87943e-06
2.87943e-06
2.87943e-06
2.84515e-06
2.84515e-06
2.84515e-06
3.00859e-06
3.00859e-06
3.00859e-06
2.66986e-06
2.66986e-06
2.66986e-06
2.80659e-06
2.80659e-06
2.80659e-06
2.84004e-06
2.84004e-06
2.84004e-06
2.81055e-06
2.81055e-06
2.81055e-06
2.69757e-06
2.69757e-06
2.69757e-06
5.06286e-06
5.06286e-06
5.06286e-06
4.99418e-06
4.99418e-06
4.99418e-06
4.70324e-06
4.70324e-06
4.70324e-06
4.74186e-06
4.74186e-06
4.74186e-06
4.68458e-06
4.68458e-06
4.68458e-06
2.96228e-06
2.96228e-06
2.96228e-06
2.96133e-06
2.96133e-06
2.96133e-06
2.95e-06
2.95e-06
2.95e-06
2.95439e-06
2.95439e-06
2.95439e-06
2.94581e-06
2.94581e-06
2.94581e-06
2.93885e-06
2.93885e-06
2.93885e-06
2.93798e-06
2.93798e-06
2.93798e-06
2.92845e-06
2.92845e-06
2.92845e-06
2.96741e-06
2.96741e-06
2.96741e-06
2.97387e-06
2.97387e-06
2.97387e-06
2.97516e-06
2.97516e-06
2.97516e-06
2.98578e-06
2.98578e-06
2.98578e-06
2.97811e-06
2.97811e-06
2.97811e-06
2.99697e-06
2.99697e-06
2.99697e-06
2.97355e-06
2.97355e-06
2.97355e-06
2.87105e-06
2.87105e-06
2.87105e-06
2.7839e-06
2.7839e-06
2.7839e-06
2.85329e-06
2.85329e-06
2.85329e-06
2.86536e-06
2.86536e-06
2.86536e-06
2.87532e-06
2.87532e-06
2.87532e-06
2.86646e-06
2.86646e-06
2.86646e-06
2.85983e-06
2.85983e-06
2.85983e-06
2.85872e-06
2.85872e-06
2.85872e-06
2.91556e-06
2.91556e-06
2.91556e-06
2.86238e-06
2.86238e-06
2.86238e-06
2.81724e-06
2.81724e-06
2.81724e-06
2.79994e-06
2.79994e-06
2.79994e-06
2.79136e-06
2.79136e-06
2.79136e-06
2.89013e-06
2.89013e-06
2.89013e-06
2.88245e-06
2.88245e-06
2.88245e-06
2.9056e-06
2.9056e-06
2.9056e-06
2.91339e-06
2.91339e-06
2.91339e-06
2.91224e-06
2.91224e-06
2.91224e-06
2.84704e-06
2.84704e-06
2.84704e-06
2.93588e-06
2.93588e-06
2.93588e-06
2.94607e-06
2.94607e-06
2.94607e-06
2.937e-06
2.937e-06
2.937e-06
2.70086e-06
2.70086e-06
2.70086e-06
2.6927e-06
2.6927e-06
2.6927e-06
2.71612e-06
2.71612e-06
2.71612e-06
2.6763e-06
2.6763e-06
2.6763e-06
2.67751e-06
2.67751e-06
2.67751e-06
2.68577e-06
2.68577e-06
2.68577e-06
2.8208e-06
2.8208e-06
2.8208e-06
2.77117e-06
2.77117e-06
2.77117e-06
2.74944e-06
2.74944e-06
2.74944e-06
2.75043e-06
2.75043e-06
2.75043e-06
2.56877e-06
2.56877e-06
2.56877e-06
2.57555e-06
2.57555e-06
2.57555e-06
2.5836e-06
2.5836e-06
2.5836e-06
2.58467e-06
2.58467e-06
2.58467e-06
2.58175e-06
2.58175e-06
2.58175e-06
2.58906e-06
2.58906e-06
2.58906e-06
2.58613e-06
2.58613e-06
2.58613e-06
2.59533e-06
2.59533e-06
2.59533e-06
2.59595e-06
2.59595e-06
2.59595e-06
2.79681e-06
2.79681e-06
2.79681e-06
2.78719e-06
2.78719e-06
2.78719e-06
2.78822e-06
2.78822e-06
2.78822e-06
2.69581e-06
2.69581e-06
2.69581e-06
2.69335e-06
2.69335e-06
2.69335e-06
2.70161e-06
2.70161e-06
2.70161e-06
2.703e-06
2.703e-06
2.703e-06
2.71732e-06
2.71732e-06
2.71732e-06
2.70795e-06
2.70795e-06
2.70795e-06
2.70884e-06
2.70884e-06
2.70884e-06
2.71522e-06
2.71522e-06
2.71522e-06
2.63529e-06
2.63529e-06
2.63529e-06
2.63759e-06
2.63759e-06
2.63759e-06
2.67391e-06
2.67391e-06
2.67391e-06
2.67465e-06
2.67465e-06
2.67465e-06
2.64122e-06
2.64122e-06
2.64122e-06
2.62351e-06
2.62351e-06
2.62351e-06
2.62786e-06
2.62786e-06
2.62786e-06
2.63771e-06
2.63771e-06
2.63771e-06
2.60512e-06
2.60512e-06
2.60512e-06
2.60423e-06
2.60423e-06
2.60423e-06
2.60983e-06
2.60983e-06
2.60983e-06
2.61683e-06
2.61683e-06
2.61683e-06
2.61118e-06
2.61118e-06
2.61118e-06
2.61934e-06
2.61934e-06
2.61934e-06
4.6404e-06
4.6404e-06
4.6404e-06
4.61642e-06
4.61642e-06
4.61642e-06
4.55342e-06
4.55342e-06
4.55342e-06
4.51446e-06
4.51446e-06
4.51446e-06
4.36434e-06
4.36434e-06
4.36434e-06
4.42726e-06
4.42726e-06
4.42726e-06
4.45164e-06
4.45164e-06
4.45164e-06
3.66873e-06
3.66873e-06
3.66873e-06
4.97502e-06
4.97502e-06
4.97502e-06
4.91273e-06
4.91273e-06
4.91273e-06
4.72549e-06
4.72549e-06
4.72549e-06
4.78798e-06
4.78798e-06
4.78798e-06
4.67622e-06
4.67622e-06
4.67622e-06
4.63862e-06
4.63862e-06
4.63862e-06
4.66052e-06
4.66052e-06
4.66052e-06
4.7199e-06
4.7199e-06
4.7199e-06
4.87225e-06
4.87225e-06
4.87225e-06
4.75264e-06
4.75264e-06
4.75264e-06
4.59511e-06
4.59511e-06
4.59511e-06
4.47598e-06
4.47598e-06
4.47598e-06
4.51369e-06
4.51369e-06
4.51369e-06
4.57349e-06
4.57349e-06
4.57349e-06
3.24497e-06
3.24497e-06
3.24497e-06
3.31672e-06
3.31672e-06
3.31672e-06
3.37515e-06
3.37515e-06
3.37515e-06
3.27778e-06
3.27778e-06
3.27778e-06
3.21677e-06
3.21677e-06
3.21677e-06
3.19187e-06
3.19187e-06
3.19187e-06
3.3141e-06
3.3141e-06
3.3141e-06
3.22812e-06
3.22812e-06
3.22812e-06
3.28934e-06
3.28934e-06
3.28934e-06
3.30265e-06
3.30265e-06
3.30265e-06
3.18065e-06
3.18065e-06
3.18065e-06
3.10875e-06
3.10875e-06
3.10875e-06
2.80217e-06
2.80217e-06
2.80217e-06
3.1307e-06
3.1307e-06
3.1307e-06
2.86448e-06
2.86448e-06
2.86448e-06
3.81222e-06
3.81222e-06
3.81222e-06
3.35216e-06
3.35216e-06
3.35216e-06
3.32792e-06
3.32792e-06
3.32792e-06
3.47293e-06
3.47293e-06
3.47293e-06
3.56958e-06
3.56958e-06
3.56958e-06
3.53348e-06
3.53348e-06
3.53348e-06
3.59767e-06
3.59767e-06
3.59767e-06
4.1757e-06
4.1757e-06
4.1757e-06
3.97383e-06
3.97383e-06
3.97383e-06
3.94984e-06
3.94984e-06
3.94984e-06
3.88705e-06
3.88705e-06
3.88705e-06
3.86136e-06
3.86136e-06
3.86136e-06
3.41167e-06
3.41167e-06
3.41167e-06
3.60744e-06
3.60744e-06
3.60744e-06
3.48505e-06
3.48505e-06
3.48505e-06
4.70381e-06
4.70381e-06
4.70381e-06
4.64349e-06
4.64349e-06
4.64349e-06
3.79865e-06
3.79865e-06
3.79865e-06
3.91961e-06
3.91961e-06
3.91961e-06
3.89647e-06
3.89647e-06
3.89647e-06
3.836e-06
3.836e-06
3.836e-06
4.04915e-06
4.04915e-06
4.04915e-06
3.84195e-06
3.84195e-06
3.84195e-06
4.02994e-06
4.02994e-06
4.02994e-06
4.90253e-06
4.90253e-06
4.90253e-06
4.92361e-06
4.92361e-06
4.92361e-06
4.9064e-06
4.9064e-06
4.9064e-06
4.78623e-06
4.78623e-06
4.78623e-06
4.82391e-06
4.82391e-06
4.82391e-06
4.88424e-06
4.88424e-06
4.88424e-06
4.88929e-06
4.88929e-06
4.88929e-06
4.8508e-06
4.8508e-06
4.8508e-06
4.79089e-06
4.79089e-06
4.79089e-06
4.76925e-06
4.76925e-06
4.76925e-06
4.80794e-06
4.80794e-06
4.80794e-06
4.86806e-06
4.86806e-06
4.86806e-06
4.75025e-06
4.75025e-06
4.75025e-06
4.69159e-06
4.69159e-06
4.69159e-06
4.67036e-06
4.67036e-06
4.67036e-06
4.78819e-06
4.78819e-06
4.78819e-06
4.7082e-06
4.7082e-06
4.7082e-06
4.76707e-06
4.76707e-06
4.76707e-06
3.96006e-06
3.96006e-06
3.96006e-06
3.8662e-06
3.8662e-06
3.8662e-06
3.92436e-06
3.92436e-06
3.92436e-06
3.93776e-06
3.93776e-06
3.93776e-06
4.12099e-06
4.12099e-06
4.12099e-06
4.00489e-06
4.00489e-06
4.00489e-06
4.02693e-06
4.02693e-06
4.02693e-06
4.08488e-06
4.08488e-06
4.08488e-06
4.01832e-06
4.01832e-06
4.01832e-06
4.04068e-06
4.04068e-06
4.04068e-06
4.09883e-06
4.09883e-06
4.09883e-06
4.13483e-06
4.13483e-06
4.13483e-06
4.25952e-06
4.25952e-06
4.25952e-06
4.14199e-06
4.14199e-06
4.14199e-06
4.22254e-06
4.22254e-06
4.22254e-06
4.16389e-06
4.16389e-06
4.16389e-06
4.34013e-06
4.34013e-06
4.34013e-06
4.3183e-06
4.3183e-06
4.3183e-06
4.07479e-06
4.07479e-06
4.07479e-06
4.0972e-06
4.0972e-06
4.0972e-06
3.95192e-06
3.95192e-06
3.95192e-06
3.97407e-06
3.97407e-06
3.97407e-06
4.0468e-06
4.0468e-06
4.0468e-06
3.98812e-06
3.98812e-06
3.98812e-06
4.41629e-06
4.41629e-06
4.41629e-06
4.3788e-06
4.3788e-06
4.3788e-06
4.28899e-06
4.28899e-06
4.28899e-06
4.54147e-06
4.54147e-06
4.54147e-06
4.57912e-06
4.57912e-06
4.57912e-06
4.49772e-06
4.49772e-06
4.49772e-06
4.55731e-06
4.55731e-06
4.55731e-06
3.84377e-06
3.84377e-06
3.84377e-06
3.8794e-06
3.8794e-06
3.8794e-06
3.85735e-06
3.85735e-06
3.85735e-06
3.79888e-06
3.79888e-06
3.79888e-06
3.76265e-06
3.76265e-06
3.76265e-06
3.78549e-06
3.78549e-06
3.78549e-06
3.74961e-06
3.74961e-06
3.74961e-06
3.69143e-06
3.69143e-06
3.69143e-06
3.87031e-06
3.87031e-06
3.87031e-06
3.90643e-06
3.90643e-06
3.90643e-06
3.88423e-06
3.88423e-06
3.88423e-06
3.82534e-06
3.82534e-06
3.82534e-06
3.64838e-06
3.64838e-06
3.64838e-06
3.70731e-06
3.70731e-06
3.70731e-06
3.91087e-06
3.91087e-06
3.91087e-06
3.86547e-06
3.86547e-06
3.86547e-06
3.72021e-06
3.72021e-06
3.72021e-06
3.83844e-06
3.83844e-06
3.83844e-06
3.74326e-06
3.74326e-06
3.74326e-06
3.80227e-06
3.80227e-06
3.80227e-06
3.79599e-06
3.79599e-06
3.79599e-06
3.34049e-06
3.34049e-06
3.34049e-06
3.30478e-06
3.30478e-06
3.30478e-06
3.59063e-06
3.59063e-06
3.59063e-06
3.55514e-06
3.55514e-06
3.55514e-06
4.23005e-06
4.23005e-06
4.23005e-06
4.19308e-06
4.19308e-06
4.19308e-06
4.2733e-06
4.2733e-06
4.2733e-06
4.21513e-06
4.21513e-06
4.21513e-06
4.38302e-06
4.38302e-06
4.38302e-06
4.32457e-06
4.32457e-06
4.32457e-06
4.4046e-06
4.4046e-06
4.4046e-06
4.28841e-06
4.28841e-06
4.28841e-06
4.3681e-06
4.3681e-06
4.3681e-06
4.30985e-06
4.30985e-06
4.30985e-06
4.15705e-06
4.15705e-06
4.15705e-06
4.3084e-06
4.3084e-06
4.3084e-06
4.25094e-06
4.25094e-06
4.25094e-06
4.32885e-06
4.32885e-06
4.32885e-06
4.21439e-06
4.21439e-06