<VTKFile type="UnstructuredGrid" version="1.0">
<UnstructuredGrid>
<Piece NumberOfPoints="8859" NumberOfCells="2953">
<Points>
<DataArray type="Float64" NumberOfComponents="3" format="ascii">
0.5 3.01 13.49
0.512524 3.01 13.5125
0.487476 3.01 13.5125
0.17352 3.01 12.6125
0.160827 3.01 12.6342
0.148445 3.01 12.6125
0.122979 3.01 12.6559
0.110383 3.01 12.6342
0.135644 3.01 12.6342
0.135644 3.01 12.6342
0.110383 3.01 12.6342
0.123433 3.01 12.6125
0.123433 3.01 12.6125
0.148445 3.01 12.6125
0.135644 3.01 12.6342
0.135644 3.01 12.6342
0.148445 3.01 12.6125
0.160827 3.01 12.6342
0.17352 3.01 12.6125
0.198629 3.01 12.6125
0.185985 3.01 12.6342
0.185985 3.01 12.6342
0.160827 3.01 12.6342
0.17352 3.01 12.6125
0.0732297 3.01 12.6557
0.0586606 3.01 12.6338
0.0848754 3.01 12.6341
0.05 3.01 13.4453
0.05 3.01 13.4001
0.058509 3.01 13.4226
0.324276 3.01 12.6125
0.349395 3.01 12.6125
0.336827 3.01 12.6342
0.148138 3.01 12.6559
0.135644 3.01 12.6342
0.160827 3.01 12.6342
0.122979 3.01 12.6559
0.135644 3.01 12.6342
0.148138 3.01 12.6559
0.160827 3.01 12.6342
0.185985 3.01 12.6342
0.173316 3.01 12.6559
0.185806 3.01 12.6775
0.160572 3.01 12.6776
0.173316 3.01 12.6559
0.173316 3.01 12.6559
0.148138 3.01 12.6559
0.160827 3.01 12.6342
0.160572 3.01 12.6776
0.148138 3.01 12.6559
0.173316 3.01 12.6559
0.211137 3.01 12.6342
0.185985 3.01 12.6342
0.198629 3.01 12.6125
0.0979162 3.01 12.6558
0.110383 3.01 12.6342
0.122979 3.01 12.6559
0.122979 3.01 12.6559
0.109875 3.01 12.6775
0.0979162 3.01 12.6558
0.0732297 3.01 12.6557
0.0848754 3.01 12.6341
0.0979162 3.01 12.6558
0.0979162 3.01 12.6558
0.0848754 3.01 12.6341
0.110383 3.01 12.6342
0.0975729 3.01 12.699
0.109875 3.01 12.6775
0.122678 3.01 12.6991
0.0841718 3.01 12.6773
0.0577122 3.01 12.677
0.0732297 3.01 12.6557
0.0729308 3.01 12.6989
0.0577122 3.01 12.677
0.0841718 3.01 12.6773
0.0732297 3.01 12.6557
0.0979162 3.01 12.6558
0.0841718 3.01 12.6773
0.0841718 3.01 12.6773
0.0979162 3.01 12.6558
0.109875 3.01 12.6775
0.0975729 3.01 12.699
0.0729308 3.01 12.6989
0.0841718 3.01 12.6773
0.0841718 3.01 12.6773
0.109875 3.01 12.6775
0.0975729 3.01 12.699
0.073948 3.01 12.6125
0.0586606 3.01 12.6338
0.05 3.01 12.6125
0.073948 3.01 12.6125
0.0848754 3.01 12.6341
0.0586606 3.01 12.6338
0.05 3.01 13.4883
0.05 3.01 13.4453
0.0603641 3.01 13.467
0.0603641 3.01 13.467
0.0753197 3.01 13.489
0.05 3.01 13.4883
0.0709395 3.01 13.5125
0.05 3.01 13.5125
0.05 3.01 13.4883
0.05 3.01 13.4883
0.0753197 3.01 13.489
0.0709395 3.01 13.5125
0.0579641 3.01 13.1996
0.05 3.01 13.2217
0.05 3.01 13.1776
0.0841948 3.01 13.1118
0.097638 3.01 13.0899
0.109814 3.01 13.1118
0.0841948 3.01 13.1118
0.0730539 3.01 13.1337
0.0578646 3.01 13.1118
0.0580261 3.01 13.2438
0.05 3.01 13.2659
0.05 3.01 13.2217
0.942292 3.01 12.8074
0.95 3.01 12.7857
0.95 3.01 12.829
0.95 3.01 12.7423
0.95 3.01 12.7857
0.942332 3.01 12.764
0.73872 3.01 13.0245
0.726137 3.01 13.0028
0.75132 3.01 13.0028
0.751305 3.01 13.0463
0.726124 3.01 13.0463
0.73872 3.01 13.0245
0.713546 3.01 13.0245
0.726137 3.01 13.0028
0.73872 3.01 13.0245
0.73872 3.01 13.0245
0.726124 3.01 13.0463
0.713546 3.01 13.0245
0.814318 3.01 13.0681
0.789096 3.01 13.0681
0.801709 3.01 13.0463
0.7765 3.01 13.0463
0.789115 3.01 13.0245
0.801709 3.01 13.0463
0.801709 3.01 13.0463
0.789096 3.01 13.0681
0.7765 3.01 13.0463
0.7765 3.01 13.0463
0.789096 3.01 13.0681
0.763892 3.01 13.0681
0.763892 3.01 13.0681
0.751305 3.01 13.0463
0.7765 3.01 13.0463
0.95 3.01 13.5125
0.929061 3.01 13.5125
0.95 3.01 13.4883
0.95 3.01 13.3104
0.926844 3.01 13.3104
0.941913 3.01 13.2882
0.941913 3.01 13.2882
0.95 3.01 13.2659
0.95 3.01 13.3104
0.926866 3.01 13.2659
0.95 3.01 13.2659
0.941913 3.01 13.2882
0.941974 3.01 13.2438
0.95 3.01 13.2659
0.926866 3.01 13.2659
0.95 3.01 13.2217
0.95 3.01 13.2659
0.941974 3.01 13.2438
0.941974 3.01 13.2438
0.926895 3.01 13.2217
0.95 3.01 13.2217
0.6127 3.01 13.5125
0.625238 3.01 13.49
0.637734 3.01 13.5125
0.662757 3.01 13.5125
0.637734 3.01 13.5125
0.650275 3.01 13.49
0.650275 3.01 13.49
0.637734 3.01 13.5125
0.625238 3.01 13.49
0.600415 3.01 13.0464
0.587856 3.01 13.0682
0.575304 3.01 13.0464
0.575304 3.01 13.0464
0.587856 3.01 13.0682
0.562749 3.01 13.0682
0.336827 3.01 12.6342
0.349395 3.01 12.6125
0.361946 3.01 12.6342
0.223755 3.01 12.6125
0.211137 3.01 12.6342
0.198629 3.01 12.6125
0.185985 3.01 12.6342
0.211137 3.01 12.6342
0.198492 3.01 12.6559
0.185806 3.01 12.6775
0.173316 3.01 12.6559
0.198492 3.01 12.6559
0.198492 3.01 12.6559
0.173316 3.01 12.6559
0.185985 3.01 12.6342
0.0576202 3.01 12.7205
0.05 3.01 12.7423
0.05 3.01 12.6987
0.05 3.01 12.6987
0.0729308 3.01 12.6989
0.0576202 3.01 12.7205
0.05 3.01 12.6987
0.0577122 3.01 12.677
0.0729308 3.01 12.6989
0.135283 3.01 12.6775
0.109875 3.01 12.6775
0.122979 3.01 12.6559
0.135283 3.01 12.6775
0.122678 3.01 12.6991
0.109875 3.01 12.6775
0.122979 3.01 12.6559
0.148138 3.01 12.6559
0.135283 3.01 12.6775
0.135283 3.01 12.6775
0.148138 3.01 12.6559
0.160572 3.01 12.6776
0.123433 3.01 12.6125
0.110383 3.01 12.6342
0.0985513 3.01 12.6125
0.110383 3.01 12.6342
0.0848754 3.01 12.6341
0.0985513 3.01 12.6125
0.0848754 3.01 12.6341
0.073948 3.01 12.6125
0.0985513 3.01 12.6125
0.0603641 3.01 13.467
0.05 3.01 13.4453
0.0739464 3.01 13.4445
0.0739464 3.01 13.4445
0.05 3.01 13.4453
0.058509 3.01 13.4226
0.058509 3.01 13.4226
0.0849548 3.01 13.4221
0.0739464 3.01 13.4445
0.058509 3.01 13.4226
0.05 3.01 13.4001
0.0732725 3.01 13.3999
0.0732725 3.01 13.3999
0.0849548 3.01 13.4221
0.058509 3.01 13.4226
0.5 3.01 13.49
0.487476 3.01 13.5125
0.47495 3.01 13.49
0.097663 3.01 13.1337
0.0841948 3.01 13.1118
0.109814 3.01 13.1118
0.0730539 3.01 13.1337
0.0841948 3.01 13.1118
0.097663 3.01 13.1337
0.0578646 3.01 13.1118
0.0730539 3.01 13.1337
0.05 3.01 13.1337
0.05 3.01 13.1337
0.05 3.01 13.0899
0.0578646 3.01 13.1118
0.05 3.01 13.3104
0.05 3.01 13.2659
0.0580869 3.01 13.2882
0.05 3.01 13.2659
0.0580261 3.01 13.2438
0.073134 3.01 13.2659
0.073134 3.01 13.2659
0.0580869 3.01 13.2882
0.05 3.01 13.2659
0.942268 3.01 12.8507
0.95 3.01 12.829
0.95 3.01 12.8724
0.942292 3.01 12.8074
0.95 3.01 12.829
0.927025 3.01 12.829
0.927025 3.01 12.829
0.942268 3.01 12.8507
0.915919 3.01 12.8507
0.95 3.01 12.829
0.942268 3.01 12.8507
0.927025 3.01 12.829
0.927013 3.01 12.8724
0.942268 3.01 12.8507
0.95 3.01 12.8724
0.915919 3.01 12.8507
0.942268 3.01 12.8507
0.927013 3.01 12.8724
0.801738 3.01 12.9593
0.814364 3.01 12.9375
0.826957 3.01 12.9592
0.852174 3.01 12.9592
0.826957 3.01 12.9592
0.839609 3.01 12.9375
0.839609 3.01 12.9375
0.826957 3.01 12.9592
0.814364 3.01 12.9375
0.776516 3.01 13.0027
0.75132 3.01 13.0028
0.763923 3.01 12.981
0.776516 3.01 13.0027
0.801725 3.01 13.0027
0.789115 3.01 13.0245
0.738704 3.01 13.0681
0.751305 3.01 13.0463
0.763892 3.01 13.0681
0.726124 3.01 13.0463
0.751305 3.01 13.0463
0.738704 3.01 13.0681
0.915617 3.01 13.2881
0.902228 3.01 13.2659
0.926866 3.01 13.2659
0.926866 3.01 13.2659
0.941913 3.01 13.2882
0.915617 3.01 13.2881
0.915617 3.01 13.2881
0.941913 3.01 13.2882
0.926844 3.01 13.3104
0.915617 3.01 13.2881
0.926844 3.01 13.3104
0.902193 3.01 13.3104
0.926866 3.01 13.2659
0.902228 3.01 13.2659
0.915668 3.01 13.2438
0.902267 3.01 13.2217
0.926895 3.01 13.2217
0.915668 3.01 13.2438
0.915668 3.01 13.2438
0.941974 3.01 13.2438
0.926866 3.01 13.2659
0.926895 3.01 13.2217
0.941974 3.01 13.2438
0.915668 3.01 13.2438
0.902267 3.01 13.2217
0.915668 3.01 13.2438
0.890059 3.01 13.2438
0.890059 3.01 13.2438
0.915668 3.01 13.2438
0.902228 3.01 13.2659
0.826927 3.01 13.0463
0.814318 3.01 13.0681
0.801709 3.01 13.0463
0.864816 3.01 13.1118
0.877308 3.01 13.0899
0.890186 3.01 13.1118
0.877308 3.01 13.0899
0.864816 3.01 13.1118
0.852122 3.01 13.0899
0.890186 3.01 13.1118
0.877308 3.01 13.0899
0.902362 3.01 13.0899
0.902362 3.01 13.0899
0.915805 3.01 13.1118
0.890186 3.01 13.1118
0.902362 3.01 13.0899
0.926964 3.01 13.0899
0.915805 3.01 13.1118
0.915835 3.01 13.0681
0.926964 3.01 13.0899
0.902362 3.01 13.0899
0.942171 3.01 13.0681
0.926964 3.01 13.0899
0.915835 3.01 13.0681
0.915835 3.01 13.0681
0.926978 3.01 13.0463
0.942171 3.01 13.0681
0.942171 3.01 13.0681
0.926978 3.01 13.0463
0.95 3.01 13.0463
0.87737 3.01 12.9158
0.890277 3.01 12.8941
0.902417 3.01 12.9158
0.852144 3.01 13.0463
0.877329 3.01 13.0463
0.864842 3.01 13.0681
0.877308 3.01 13.0899
0.852122 3.01 13.0899
0.864842 3.01 13.0681
0.902396 3.01 13.0027
0.915858 3.01 13.0245
0.890234 3.01 13.0245
0.926997 3.01 12.9592
0.942237 3.01 12.9375
0.95 3.01 12.9592
0.91589 3.01 12.9375
0.942237 3.01 12.9375
0.926997 3.01 12.9592
0.942199 3.01 13.0245
0.95 3.01 13.0027
0.95 3.01 13.0463
0.95 3.01 13.0463
0.926978 3.01 13.0463
0.942199 3.01 13.0245
0.942199 3.01 13.0245
0.926978 3.01 13.0463
0.915858 3.01 13.0245
0.95 3.01 12.9592
0.95 3.01 13.0027
0.942221 3.01 12.981
0.942221 3.01 12.981
0.926997 3.01 12.9592
0.95 3.01 12.9592
0.915876 3.01 12.981
0.926997 3.01 12.9592
0.942221 3.01 12.981
0.926989 3.01 13.0027
0.915858 3.01 13.0245
0.902396 3.01 13.0027
0.902396 3.01 13.0027
0.915876 3.01 12.981
0.926989 3.01 13.0027
0.926989 3.01 13.0027
0.942199 3.01 13.0245
0.915858 3.01 13.0245
0.95 3.01 13.0027
0.942199 3.01 13.0245
0.926989 3.01 13.0027
0.915876 3.01 12.981
0.942221 3.01 12.981
0.926989 3.01 13.0027
0.926989 3.01 13.0027
0.942221 3.01 12.981
0.95 3.01 13.0027
0.91353 3.01 13.4669
0.926054 3.01 13.4445
0.939636 3.01 13.467
0.926728 3.01 13.3999
0.95 3.01 13.4001
0.941491 3.01 13.4226
0.926728 3.01 13.3999
0.941822 3.01 13.3775
0.95 3.01 13.4001
0.95 3.01 13.4453
0.95 3.01 13.4883
0.939636 3.01 13.467
0.95 3.01 13.4453
0.926054 3.01 13.4445
0.941491 3.01 13.4226
0.939636 3.01 13.467
0.926054 3.01 13.4445
0.95 3.01 13.4453
0.941491 3.01 13.4226
0.95 3.01 13.4001
0.95 3.01 13.4453
0.941869 3.01 13.3327
0.926844 3.01 13.3104
0.95 3.01 13.3104
0.762942 3.01 13.4673
0.75028 3.01 13.4899
0.737933 3.01 13.4673
0.71291 3.01 13.4674
0.725533 3.01 13.4449
0.737933 3.01 13.4673
0.71291 3.01 13.4674
0.737933 3.01 13.4673
0.725313 3.01 13.4899
0.725313 3.01 13.4899
0.737933 3.01 13.4673
[...]
<PointData Scalars="View Factor" >
<DataArray type="Float64" Name="View Factor" NumberOfComponents="1" format="ascii">
0.0023137
0.0023137
0.0023137
0.00424543
0.00424543
0.00424543
0.00418173
0.00418173
0.00418173
0.00422571
0.00422571
0.00422571
0.00424716
0.00424716
0.00424716
0.00422412
0.00422412
0.00422412
0.00424341
0.00424341
0.00424341
0.00422226
0.00422226
0.00422226
0.00418472
0.00418472
0.00418472
0.00246377
0.00246377
0.00246377
0.00422508
0.00422508
0.00422508
0.00418016
0.00418016
0.00418016
0.00415922
0.00415922
0.00415922
0.00417834
0.00417834
0.00417834
0.00409227
0.00409227
0.00409227
0.00415754
0.00415754
0.00415754
0.00411449
0.00411449
0.00411449
0.00422012
0.00422012
0.00422012
0.0041607
0.0041607
0.0041607
0.00411768
0.00411768
0.00411768
0.00416211
0.00416211
0.00416211
0.00418315
0.00418315
0.00418315
0.00403336
0.00403336
0.00403336
0.00409873
0.00409873
0.00409873
0.00405656
0.00405656
0.00405656
0.00411913
0.00411913
0.00411913
0.00409715
0.00409715
0.00409715
0.00403481
0.00403481
0.00403481
0.004055
0.004055
0.004055
0.00425104
0.00425104
0.00425104
0.00422851
0.00422851
0.00422851
0.0023956
0.0023956
0.0023956
0.00237354
0.00237354
0.00237354
0.00233944
0.00233944
0.00233944
0.0023509
0.0023509
0.0023509
0.00284678
0.00284678
0.00284678
0.00303154
0.00303154
0.00303154
0.00300274
0.00300274
0.00300274
0.00276536
0.00276536
0.00276536
0.00354883
0.00354883
0.00354883
0.00365707
0.00365707
0.00365707
0.00314663
0.00314663
0.00314663
0.00308591
0.00308591
0.00308591
0.00313415
0.00313415
0.00313415
0.00310375
0.00310375
0.00310375
0.00302704
0.00302704
0.00302704
0.00307438
0.00307438
0.00307438
0.00304469
0.00304469
0.00304469
0.00303286
0.00303286
0.00303286
0.00305046
0.00305046
0.00305046
0.00225157
0.00225157
0.00225157
0.0025562
0.0025562
0.0025562
0.0025788
0.0025788
0.0025788
0.00260511
0.00260511
0.00260511
0.00262994
0.00262994
0.00262994
0.00265324
0.00265324
0.00265324
0.00268039
0.00268039
0.00268039
0.00229964
0.00229964
0.00229964
0.00229648
0.00229648
0.00229648
0.00230888
0.00230888
0.00230888
0.00308588
0.00308588
0.00308588
0.00307305
0.00307305
0.00307305
0.00420109
0.00420109
0.00420109
0.00424109
0.00424109
0.00424109
0.00417623
0.00417623
0.00417623
0.00411257
0.00411257
0.00411257
0.00415559
0.00415559
0.00415559
0.00395369
0.00395369
0.00395369
0.00399453
0.00399453
0.00399453
0.0040362
0.0040362
0.0040362
0.00409566
0.00409566
0.00409566
0.00405349
0.00405349
0.00405349
0.00411618
0.00411618
0.00411618
0.00409407
0.00409407
0.00409407
0.00424862
0.00424862
0.00424862
0.00422708
0.00422708
0.00422708
0.00424984
0.00424984
0.00424984
0.00241775
0.00241775
0.00241775
0.00244059
0.00244059
0.00244059
0.00245243
0.00245243
0.00245243
0.00248755
0.00248755
0.00248755
0.00247577
0.00247577
0.00247577
0.00232584
0.00232584
0.00232584
0.00300212
0.00300212
0.00300212
0.00298785
0.00298785
0.00298785
0.00298836
0.00298836
0.00298836
0.00301775
0.00301775
0.00301775
0.00268647
0.00268647
0.00268647
0.0027387
0.0027387
0.0027387
0.0027124
0.0027124
0.0027124
0.00344457
0.00344457
0.00344457
0.00351627
0.00351627
0.00351627
0.00346802
0.00346802
0.00346802
0.00348148
0.00348148
0.00348148
0.00341317
0.00341317
0.00341317
0.00343382
0.00343382
0.00343382
0.00325325
0.00325325
0.00325325
0.0032465
0.0032465
0.0032465
0.00326587
0.00326587
0.00326587
0.00317159
0.00317159
0.00317159
0.00313477
0.00313477
0.00313477
0.00303851
0.00303851
0.00303851
0.00305606
0.00305606
0.00305606
0.00261058
0.00261058
0.00261058
0.00259532
0.00259532
0.00259532
0.00257083
0.00257083
0.00257083
0.00256153
0.00256153
0.00256153
0.00263548
0.00263548
0.00263548
0.00268607
0.00268607
0.00268607
0.00264506
0.00264506
0.00264506
0.00267031
0.00267031
0.00267031
0.00267608
0.00267608
0.00267608
0.00265075
0.00265075
0.00265075
0.00303874
0.00303874
0.00303874
0.00292277
0.00292277
0.00292277
0.00293997
0.00293997
0.00293997
0.00293376
0.00293376
0.00293376
0.00291648
0.00291648
0.00291648
0.00292741
0.00292741
0.00292741
0.0029557
0.0029557
0.0029557
0.00296647
0.00296647
0.00296647
0.00299518
0.00299518
0.00299518
0.00300657
0.00300657
0.00300657
0.00332898
0.00332898
0.00332898
0.00302631
0.00302631
0.00302631
0.00296843
0.00296843
0.00296843
0.00309034
0.00309034
0.00309034
0.00321783
0.00321783
0.00321783
0.00323701
0.00323701
0.00323701
0.00306304
0.00306304
0.00306304
0.00303573
0.00303573
0.00303573
0.00305359
0.00305359
0.00305359
0.00315347
0.00315347
0.00315347
0.0031866
0.0031866
0.0031866
0.00317445
0.00317445
0.00317445
0.00310198
0.00310198
0.00310198
0.00313225
0.00313225
0.00313225
0.00308329
0.00308329
0.00308329
0.00309504
0.00309504
0.00309504
0.00314371
0.00314371
0.00314371
0.00312521
0.00312521
0.00312521
0.0023185
0.0023185
0.0023185
0.00239255
0.00239255
0.00239255
0.00241521
0.00241521
0.00241521
0.00230405
0.00230405
0.00230405
0.00234813
0.00234813
0.00234813
0.00232663
0.00232663
0.00232663
0.00236842
0.00236842
0.00236842
0.00253211
0.00253211
0.00253211
0.00232597
0.00232597
0.00232597
0.00235166
0.00235166
0.00235166
0.00232964
0.00232964
0.00232964
0.0023169
0.0023169
0.0023169
0.00228629
0.00228629
0.00228629
0.00229525
0.00229525
0.00229525
0.00228268
0.00228268
0.00228268
0.00243982
0.00243982
0.00243982
0.0023964
0.0023964
0.0023964
0.00236458
0.00236458
0.00236458
0.00238698
0.00238698
0.00238698
0.00237163
0.00237163
0.00237163
0.00239411
0.00239411
0.00239411
0.00233383
0.00233383
0.00233383
0.002312
0.002312
0.002312
0.00230269
0.00230269
0.00230269
0.00315349
0.00315349
0.00315349
0.00306865
0.00306865
0.00306865
0.00298872
0.00298872
0.00298872
0.00295585
0.00295585
0.00295585
0.00298466
0.00298466
0.00298466
0.00300125
0.00300125
0.00300125
0.00304326
0.00304326
0.00304326
0.00303058
0.00303058
0.00303058
0.00295984
0.00295984
0.00295984
0.00294356
0.00294356
0.00294356
0.00279304
0.00279304
0.00279304
0.00296675
0.00296675
0.00296675
0.00298356
0.00298356
0.00298356
0.00299789
0.00299789
0.00299789
0.00294055
0.00294055
0.00294055
0.00423236
0.00423236
0.00423236
0.00423556
0.00423556
0.00423556
0.00421192
0.00421192
0.00421192
0.00416818
0.00416818
0.00416818
0.00411701
0.00411701
0.00411701
0.003228
0.003228
0.003228
0.00316549
0.00316549
0.00316549
0.00321538
0.00321538
0.00321538
0.00318408
0.00318408
0.00318408
0.00319013
0.00319013
0.00319013
0.00317751
0.00317751
0.00317751
0.00414494
0.00414494
0.00414494
0.00422101
0.00422101
0.00422101
0.00415752
0.00415752
0.00415752
0.0036057
0.0036057
0.0036057
0.00362541
0.00362541
0.00362541
0.00407884
0.00407884
0.00407884
0.00420772
0.00420772
0.00420772
0.00416398
0.00416398
0.00416398
0.00412097
0.00412097
0.00412097
0.00244088
0.00244088
0.00244088
0.00231615
0.00231615
0.00231615
0.00281926
0.00281926
0.00281926
0.00279212
0.00279212
0.00279212
0.0029589
0.0029589
0.0029589
0.00390365
0.00390365
0.00390365
0.00281814
0.00281814
0.00281814
0.00279102
0.00279102
0.00279102
0.00304598
0.00304598
0.00304598
0.00303072
0.00303072
0.00303072
0.00307664
0.00307664
0.00307664
0.00304671
0.00304671
0.00304671
0.00304724
0.00304724
0.00304724
0.00303217
0.00303217
0.00303217
0.00310756
0.00310756
0.00310756
0.00307717
0.00307717
0.00307717
0.00309204
0.00309204
0.00309204
0.00312248
0.00312248
0.00312248
0.00313806
0.00313806
0.00313806
0.00305574
0.00305574
0.00305574
0.00306728
0.00306728
0.00306728
0.00342114
0.00342114
0.00342114
0.00322153
0.00322153
0.00322153
0.00320905
0.00320905
0.00320905
0.00317784
0.00317784
0.00317784
0.00325897
0.00325897
0.00325897
0.00323956
0.00323956
0.00323956
0.00334914
0.00334914
0.00334914
0.0035377
0.0035377
0.0035377
0.00347235
0.00347235
0.00347235
0.00314079
0.00314079
0.00314079
0.00308023
0.00308023
0.00308023
0.00309232
0.00309232
0.00309232
0.00312256
0.00312256
0.00312256
0.00312844
0.00312844
0.00312844
0.00309812
0.00309812
0.00309812
0.00300919
0.00300919
0.00300919
0.00299736
0.00299736
0.00299736
0.00304397
0.00304397
0.00304397
0.00301458
0.00301458
0.00301458
0.00293335
0.00293335
0.00293335
0.00291676
0.00291676
0.00291676
0.00301264
0.00301264
0.00301264
0.00288861
0.00288861
0.00288861
0.0026917
0.0026917
0.0026917
0.00272304
0.00272304
0.00272304
0.00271747
0.00271747
0.00271747
0.00273326
0.00273326
0.00273326
0.00235712
0.00235712
0.00235712
0.00234795
0.00234795
0.00234795
0.0023609
0.0023609
0.0023609
0.00238325
0.00238325
0.00238325
0.00248477
0.00248477
0.00248477
0.00240298
0.00240298
0.00240298
0.00238051
0.00238051
0.00238051
0.0025048
0.0025048
0.0025048
0.00248582
0.00248582
0.00248582
0.00251427
0.00251427
0.00251427
0.0031592
0.0031592
0.0031592
0.00302104
0.00302104
0.00302104
0.00303261
0.00303261
0.00303261
0.00301486
0.00301486
0.00301486
0.00298588
0.00298588
0.00298588
0.00290083
0.00290083
0.00290083
0.00292887
0.00292887
0.00292887
0.00301323
0.00301323
0.00301323
0.00304918
0.00304918
0.00304918
0.00304248
0.00304248
0.00304248
0.00306055
0.00306055
0.00306055
0.00294921
0.00294921
0.00294921
0.00297564
0.00297564
0.00297564
0.00315096
0.00315096
0.00315096
0.00320803
0.00320803
0.00320803
0.00318891
0.00318891
0.00318891
0.0032765
0.0032765
0.0032765
0.00325188
0.00325188
0.00325188
0.00329642
0.00329642
0.00329642
0.00328391
0.00328391
0.00328391
0.00334152
0.00334152
0.00334152
0.00337462
0.00337462
0.00337462
0.00338749
0.00338749
0.00338749
0.00231034
0.00231034
0.00231034
0.00233623
0.00233623
0.00233623
0.00228484
0.00228484
0.00228484
0.00229726
0.00229726
0.00229726
0.00226407
0.00226407
0.00226407
0.00233181
0.00233181
0.00233181
0.00239785
0.00239785
0.00239785
0.00235356
0.00235356
0.00235356
0.00236175
0.00236175
0.00236175
0.00238383
0.00238383
0.00238383
0.00244865
0.00244865
0.00244865
0.00248125
0.00248125
0.00248125
0.00247186
0.00247186
0.00247186
0.00246724
0.00246724
0.00246724
0.00253738
0.00253738
0.00253738
0.0025226
0.0025226
0.0025226
0.00242906
0.00242906
0.00242906
0.00242042
0.00242042
0.00242042
0.00235876
0.00235876
0.00235876
0.00235526
0.00235526
0.00235526
0.00236816
0.00236816
0.00236816
0.0022898
0.0022898
0.0022898
0.00229882
0.00229882
0.00229882
0.0023205
0.0023205
0.0023205
0.0023332
0.0023332
0.0023332
0.00228002
0.00228002
0.00228002
0.0023144
0.0023144
0.0023144
0.00230156
0.00230156
0.00230156
0.00227127
0.00227127
0.00227127
0.0023132
0.0023132
0.0023132
0.00229157
0.00229157
0.00229157
0.00241914
0.00241914
0.00241914
0.0024325
0.0024325
0.0024325
0.00260379
0.00260379
0.00260379
0.00261419
0.00261419
0.00261419
0.00253234
0.00253234
0.00253234
0.00245562
0.00245562
0.00245562
0.00246533
0.00246533
0.00246533
0.00246305
0.00246305
0.00246305
0.00252243
0.00252243
0.00252243
0.00249862
0.00249862
0.00249862
0.00248881
0.00248881
0.00248881
0.00250262
0.00250262
0.00250262
0.0024001
0.0024001
0.0024001
0.00242653
0.00242653
0.00242653
0.00240369
0.00240369
0.00240369
0.0023906
0.0023906
0.0023906
0.00243622
0.00243622
0.00243622
0.00242289
0.00242289
0.00242289
0.00236216
0.00236216
0.00236216
0.00234002
0.00234002
0.00234002
0.00233066
0.00233066
0.00233066
0.00234326
0.00234326
0.00234326
0.00240717
0.00240717
0.00240717
0.00243005
0.00243005
0.00243005
0.00244331
0.00244331
0.00244331
0.00266954
0.00266954
0.00266954
0.00269526
0.00269526
0.00269526
0.00325354
0.00325354
0.00325354
0.00312803
0.00312803
0.00312803
0.0032707
0.0032707
0.0032707
0.00325558
0.00325558
0.00325558
0.00311171
0.00311171
0.00311171
0.00313979
0.00313979
0.00313979
0.0031569
0.0031569
0.0031569
0.00300637
0.00300637
0.00300637
0.00301947
0.00301947
0.00301947
0.00304571
0.00304571
0.00304571
0.00297726
0.00297726
0.00297726
0.00296432
0.00296432
0.00296432
0.00293567
0.00293567
0.00293567
0.00291999
0.00291999
0.00291999
0.00308136
0.00308136
0.00308136
0.00303892
0.00303892
0.00303892
0.00302636
0.00302636
0.00302636
0.00299709
0.00299709
0.00299709
0.00298044
0.00298044
0.00298044
0.00287928
0.00287928
0.00287928
0.00289182
0.00289182
0.00289182
0.00294745
0.00294745
0.00294745
0.00291519
0.00291519
0.00291519
0.00300319
0.00300319
0.00300319
0.00301618
0.00301618
0.00301618
0.00287005
0.00287005
0.00287005
0.00288227
0.00288227
0.00288227
0.00294285
0.00294285
0.00294285
0.00297149
0.00297149
0.00297149
0.00291235
0.00291235
0.00291235
0.00270226
0.00270226
0.00270226
0.00423847
0.00423847
0.00423847
0.00421494
0.00421494
0.00421494
0.00421768
0.00421768
0.00421768
0.00369687
0.00369687
0.00369687
0.00376959
0.00376959
0.00376959
0.0037344
0.0037344
0.0037344
0.00413234
0.00413234
0.00413234
0.00410881
0.00410881
0.00410881
0.00413438
0.00413438
0.00413438
0.00323428
0.00323428
0.00323428
0.00322151
0.00322151
0.00322151
0.00324036
0.00324036
0.00324036
0.00327234
0.00327234
0.00327234
0.003196
0.003196
0.003196
0.00322746
0.00322746
0.00322746
0.0042086
0.0042086
0.0042086
0.00416492
0.00416492
0.00416492
0.00422887
0.00422887
0.00422887
0.00420499
0.00420499
0.00420499
0.00415753
0.00415753
0.00415753
0.00413395
0.00413395
0.00413395
0.00409125
0.00409125
0.00409125
0.00408709
0.00408709
0.00408709
0.00406808
0.00406808
0.00406808
0.00400749
0.00400749
0.00400749
0.00402622
0.00402622
0.00402622
0.00420707
0.00420707
0.00420707
0.00413959
0.00413959
0.00413959
0.0035696
0.0035696
0.0035696
0.00349872
0.00349872
0.00349872
0.0041044
0.0041044
0.0041044
0.00414804
0.00414804
0.00414804
0.00410513
0.00410513
0.00410513
0.00417116
0.00417116
0.00417116
0.00259192
0.00259192
0.00259192
0.00253971
0.00253971
0.00253971
0.00247226
0.00247226
0.00247226
0.00247341
0.00247341
0.00247341
0.00248467
0.00248467
0.00248467
0.00254524
0.00254524
0.00254524
0.00250848
0.00250848
0.00250848
0.00252105
0.00252105
0.00252105
0.00248344
0.00248344
0.00248344
0.0024523
0.0024523
0.0024523
0.00251153
0.00251153
0.00251153
0.00253576
0.00253576
0.00253576
0.00232825
0.00232825
0.00232825
0.002385
0.002385
0.002385
0.00236257
0.00236257
0.00236257
0.00235028
0.00235028
0.00235028
0.00243063
0.00243063
0.00243063
0.00238948
0.00238948
0.00238948
0.00236699
0.00236699
0.00236699
0.00283217
0.00283217
0.00283217
0.00281879
0.00281879
0.00281879
0.00283273
0.00283273
0.00283273
0.00275176
0.00275176
0.00275176
0.00277846
0.00277846
0.00277846
0.00273825
0.00273825
0.00273825
0.00275121
0.00275121
0.00275121
0.00279166
0.00279166
0.00279166
0.00277791
0.00277791
0.00277791
0.00294423
0.00294423
0.00294423
0.00291497
0.00291497
0.00291497
0.00293087
0.00293087
0.00293087
0.0029594
0.0029594
0.0029594
0.00294483
0.00294483
0.00294483
0.00391287
0.00391287
0.00391287
0.00362138
0.00362138
0.00362138
0.00369536
0.00369536
0.00369536
0.00350412
0.00350412
0.00350412
0.00346925
0.00346925
0.00346925
0.00349961
0.00349961
0.00349961
0.00339632
0.00339632
0.00339632
0.00336257
0.00336257
0.00336257
0.00360675
0.00360675
0.00360675
0.00364253
0.00364253
0.00364253
0.00367959
0.00367959
0.00367959
0.0036432
0.0036432
0.0036432
0.00362457
0.00362457
0.00362457
0.00364039
0.00364039
0.00364039
0.0036774
0.0036774
0.0036774
0.00373559
0.00373559
0.00373559
0.00369785
0.00369785
0.00369785
0.00367863
0.00367863
0.00367863
0.00369673
0.00369673
0.00369673
0.00386387
0.00386387
0.00386387
0.00273763
0.00273763
0.00273763
0.00271136
0.00271136
0.00271136
0.00298714
0.00298714
0.00298714
0.0030013
0.0030013
0.0030013
0.0029582
0.0029582
0.0029582
0.00294344
0.00294344
0.00294344
0.00304506
0.00304506
0.00304506
0.00329668
0.00329668
0.00329668
0.00331265
0.00331265
0.00331265
0.00332936
0.00332936
0.00332936
0.00332876
0.00332876
0.00332876
0.00331194
0.00331194
0.00331194
0.00313751
0.00313751
0.00313751
0.00316847
0.00316847
0.00316847
0.00327728
0.00327728
0.00327728
0.0030759
0.0030759
0.0030759
0.00313676
0.00313676
0.00313676
0.00309139
0.00309139
0.00309139
0.00312182
0.00312182
0.00312182
0.00352799
0.00352799
0.00352799
0.00349298
0.00349298
0.00349298
0.0032981
0.0032981
0.0032981
0.00339528
0.00339528
0.00339528
0.00338234
0.00338234
0.00338234
0.00330374
0.00330374
0.00330374
0.0033364
0.0033364
0.0033364
0.00329111
0.00329111
0.00329111
0.00331087
0.00331087
0.00331087
0.00331781
0.00331781
0.00331781
0.00335066
0.00335066
0.00335066
0.00348967
0.00348967
0.00348967
0.00352457
0.00352457
0.00352457
0.00299192
0.00299192
0.00299192
0.00300363
0.00300363
0.00300363
0.00298631
0.00298631
0.00298631
0.0029576
0.0029576
0.0029576
0.00294613
0.00294613
0.00294613
0.00296313
0.00296313
0.00296313
0.00300263
0.00300263
0.00300263
0.00297369
0.00297369
0.00297369
0.00297871
0.00297871
0.00297871
0.00296185
0.00296185
0.00296185
0.00306148
0.00306148
0.00306148
0.00310919
0.00310919
0.00310919
0.0030914
0.0030914
0.0030914
0.00293819
0.00293819
0.00293819
0.00292164
0.00292164
0.00292164
0.00292636
0.00292636
0.00292636
0.00274375
0.00274375
0.00274375
0.00271762
0.00271762
0.00271762
0.00284566
0.00284566
0.00284566
0.00287175
0.00287175
0.00287175
0.00289481
0.00289481
0.00289481
0.00287793
0.00287793
0.00287793
0.00288397
0.00288397
0.00288397
0.00285642
0.00285642
0.00285642
0.00275367
0.00275367
0.00275367
0.00271176
0.00271176
0.00271176
0.00272754
0.00272754
0.00272754
0.00264097
0.00264097
0.00264097
0.00257632
0.00257632
0.00257632
0.00260087
0.00260087
0.00260087
0.002616
0.002616
0.002616
0.00260624
0.00260624
0.00260624
0.00253817
0.00253817
0.00253817
0.00237548
0.00237548
0.00237548
0.00234925
0.00234925
0.00234925
0.00237143
0.00237143
0.00237143
0.00238466
0.00238466
0.00238466
0.00238869
0.00238869
0.00238869
0.0023926
0.0023926
0.0023926
0.00237942
0.00237942
0.00237942
0.0024113
0.0024113
0.0024113
0.00236725
0.00236725
0.00236725
0.00233209
0.00233209
0.00233209
0.00234515
0.00234515
0.00234515
0.0023762
0.0023762
0.0023762
0.00243933
0.00243933
0.00243933
0.00241646
0.00241646
0.00241646
0.00240721
0.00240721
0.00240721
0.00242065
0.00242065
0.00242065
0.00252797
0.00252797
0.00252797
0.00250417
0.00250417
0.00250417
0.00249999
0.00249999
0.00249999
0.00247651
0.00247651
0.00247651
0.00249499
0.00249499
0.00249499
0.00250932
0.00250932
0.00250932
0.00312857
0.00312857
0.00312857
0.00306834
0.00306834
0.00306834
0.00308633
0.00308633
0.00308633
0.00311649
0.00311649
0.00311649
0.00306213
0.00306213
0.00306213
0.00312218
0.00312218
0.00312218
0.00308016
0.00308016
0.00308016
0.00311023
0.00311023
0.00311023
0.00307382
0.00307382
0.00307382
0.00310379
0.00310379
0.00310379
0.00320253
0.00320253
0.00320253
0.00317141
0.00317141
0.00317141
0.00315272
0.00315272
0.00315272
0.00321488
0.00321488
0.00321488
0.00319582
0.00319582
0.00319582
0.00316479
0.00316479
0.00316479
0.00294601
0.00294601
0.00294601
0.00298052
0.00298052
0.00298052
0.00295189
0.00295189
0.00295189
0.00293479
0.00293479
0.00293479
0.00299197
0.00299197
0.00299197
0.00297456
0.00297456
0.00297456
0.00296213
0.00296213
0.00296213
0.00297961
0.00297961
0.00297961
0.00297315
0.00297315
0.00297315
0.00300195
0.00300195
0.00300195
0.00300851
0.00300851
0.00300851
0.00301984
0.00301984
0.00301984
0.00290998
0.00290998
0.00290998
0.00292101
0.00292101
0.00292101
0.0028911
0.0028911
0.0028911
0.00286551
0.00286551
0.00286551
0.00288219
0.00288219
0.00288219
0.00311561
0.00311561
0.00311561
0.00314606
0.00314606
0.00314606
0.00310887
0.00310887
0.00310887
0.00309717
0.00309717
0.00309717
0.00313923
0.00313923
0.00313923
0.00315798
0.00315798
0.00315798
0.00322516
0.00322516
0.00322516
0.00324456
0.00324456
0.00324456
0.00319383
0.00319383
0.00319383
0.0031818
0.0031818
0.0031818
0.00320101
0.00320101
0.00320101
0.00323244
0.00323244
0.00323244
0.00337964
0.00337964
0.00337964
0.00336664
0.00336664
0.00336664
0.00324708
0.00324708
0.00324708
0.00334405
0.00334405
0.00334405
0.00225533
0.00225533
0.00225533
0.0023409
0.0023409
0.0023409
0.0023629
0.0023629
0.0023629
0.00238915
0.00238915
0.00238915
0.00236695
0.00236695
0.00236695
0.002394
0.002394
0.002394
0.00240286
0.00240286
0.00240286
0.0023717
0.0023717
0.0023717
0.00235836
0.00235836
0.00235836
0.00243491
0.00243491
0.00243491
0.0024076
0.0024076
0.0024076
0.00243031
0.00243031
0.00243031
0.00244411
0.00244411
0.00244411
0.00239859
0.00239859
0.00239859
0.00241212
0.00241212
0.00241212
0.00243435
0.00243435
0.00243435