<VTKFile type="UnstructuredGrid" version="1.0">
<UnstructuredGrid>
<Piece NumberOfPoints="8859" NumberOfCells="2953">
<Points>
<DataArray type="Float64" NumberOfComponents="3" format="ascii">
2.75455 1.50245 0.912625
2.76986 1.48714 0.924584
2.75465 1.50235 0.938328
2.78515 1.47185 0.861673
2.78516 1.47184 0.836515
2.8005 1.4565 0.84898
2.76981 1.48719 0.874362
2.78515 1.47185 0.861673
2.78514 1.47186 0.886856
2.72412 1.53288 0.96488
2.73952 1.51748 0.9725
2.70875 1.54825 0.9725
2.72412 1.53288 0.96488
2.73943 1.51757 0.949569
2.73952 1.51748 0.9725
2.75488 1.50212 0.964788
2.77036 1.48664 0.9725
2.73952 1.51748 0.9725
2.75488 1.50212 0.964788
2.73943 1.51757 0.949569
2.75465 1.50235 0.938328
2.73952 1.51748 0.9725
2.73943 1.51757 0.949569
2.75488 1.50212 0.964788
2.75465 1.50235 0.938328
2.76986 1.48714 0.924584
2.76997 1.48703 0.94927
2.76997 1.48703 0.94927
2.75488 1.50212 0.964788
2.75465 1.50235 0.938328
2.77036 1.48664 0.9725
2.75488 1.50212 0.964788
2.76997 1.48703 0.94927
2.76986 1.48714 0.924584
2.75455 1.50245 0.912625
2.76982 1.48718 0.899521
2.76981 1.48719 0.874362
2.78514 1.47186 0.886856
2.76982 1.48718 0.899521
2.7852 1.4718 0.937625
2.76997 1.48703 0.94927
2.76986 1.48714 0.924584
2.8005 1.4565 0.923949
2.8005 1.4565 0.948552
2.7852 1.4718 0.937625
2.8005 1.4565 0.823871
2.8005 1.4565 0.84898
2.78516 1.47184 0.836515
2.78515 1.47185 0.861673
2.8005 1.4565 0.84898
2.8005 1.4565 0.874055
2.8005 1.4565 0.874055
2.78514 1.47186 0.886856
2.78515 1.47185 0.861673
2.8005 1.4565 0.29652
2.8005 1.4565 0.321651
2.78518 1.47182 0.309069
2.78517 1.47183 0.76107
2.8005 1.4565 0.773613
2.78517 1.47183 0.786215
2.8005 1.4565 0.74848
2.8005 1.4565 0.773613
2.78517 1.47183 0.76107
2.78519 1.47181 0.635442
2.8005 1.4565 0.647992
2.78519 1.47181 0.660554
2.32274 1.93426 0.0805869
2.33845 1.91855 0.0725
2.33845 1.91855 0.095634
2.27541 1.98159 0.9725
2.24359 2.01341 0.9725
2.25954 1.99746 0.964321
2.78515 1.47185 0.912117
2.76982 1.48718 0.899521
2.78514 1.47186 0.886856
2.76986 1.48714 0.924584
2.76982 1.48718 0.899521
2.78515 1.47185 0.912117
2.78515 1.47185 0.912117
2.7852 1.4718 0.937625
2.76986 1.48714 0.924584
2.8005 1.4565 0.923949
2.7852 1.4718 0.937625
2.78515 1.47185 0.912117
2.78544 1.47156 0.963839
2.8005 1.4565 0.948552
2.8005 1.4565 0.9725
2.78544 1.47156 0.963839
2.7852 1.4718 0.937625
2.8005 1.4565 0.948552
2.8005 1.4565 0.9725
2.77036 1.48664 0.9725
2.78544 1.47156 0.963839
2.77036 1.48664 0.9725
2.76997 1.48703 0.94927
2.78544 1.47156 0.963839
2.76997 1.48703 0.94927
2.7852 1.4718 0.937625
2.78544 1.47156 0.963839
2.78517 1.47183 0.786215
2.8005 1.4565 0.773613
2.8005 1.4565 0.798745
2.78514 1.47186 0.886856
2.8005 1.4565 0.874055
2.8005 1.4565 0.899067
2.8005 1.4565 0.923949
2.78515 1.47185 0.912117
2.8005 1.4565 0.899067
2.8005 1.4565 0.899067
2.78515 1.47185 0.912117
2.78514 1.47186 0.886856
2.8005 1.4565 0.622885
2.8005 1.4565 0.647992
2.78519 1.47181 0.635442
2.78518 1.47182 0.309069
2.8005 1.4565 0.321651
2.78518 1.47182 0.334202
2.76985 1.48715 0.748526
2.75454 1.50246 0.735977
2.76986 1.48714 0.723383
2.78516 1.47184 0.811363
2.8005 1.4565 0.823871
2.78516 1.47184 0.836515
2.78516 1.47184 0.811363
2.8005 1.4565 0.798745
2.8005 1.4565 0.823871
2.78516 1.47184 0.811363
2.76984 1.48716 0.798839
2.78517 1.47183 0.786215
2.78517 1.47183 0.786215
2.8005 1.4565 0.798745
2.78516 1.47184 0.811363
2.76982 1.48718 0.849184
2.78515 1.47185 0.861673
2.76981 1.48719 0.874362
2.76982 1.48718 0.849184
2.78516 1.47184 0.836515
2.78515 1.47185 0.861673
2.75451 1.50249 0.81149
2.7392 1.5178 0.824146
2.73921 1.51779 0.798941
2.53996 1.71704 0.938376
2.52458 1.73242 0.924896
2.53996 1.71704 0.91275
2.49374 1.76326 0.773805
2.49375 1.76325 0.799
2.47832 1.77868 0.786392
2.8005 1.4565 0.0725
2.8005 1.4565 0.096448
2.78544 1.47156 0.0811606
2.27543 1.98157 0.949328
2.27541 1.98159 0.9725
2.25954 1.99746 0.964321
2.33845 1.91855 0.874462
2.32276 1.93424 0.88714
2.32275 1.93425 0.861854
2.25954 1.99746 0.964321
2.24359 2.01341 0.9725
2.24374 2.01326 0.949228
2.76987 1.48713 0.396996
2.75455 1.50245 0.384429
2.76987 1.48713 0.371878
2.8005 1.4565 0.547592
2.78519 1.47181 0.535047
2.8005 1.4565 0.5225
2.78519 1.47181 0.585237
2.8005 1.4565 0.572686
2.8005 1.4565 0.597784
2.76988 1.48712 0.497406
2.75456 1.50244 0.509952
2.75456 1.50244 0.484856
2.76988 1.48712 0.5225
2.75456 1.50244 0.509952
2.76988 1.48712 0.497406
2.78519 1.47181 0.535047
2.76988 1.48712 0.547594
2.76988 1.48712 0.5225
2.75455 1.50245 0.660571
2.76987 1.48713 0.673122
2.75455 1.50245 0.685697
2.72393 1.53307 0.635467
2.72392 1.53308 0.660589
2.70861 1.54839 0.648033
2.75456 1.50244 0.635455
2.73924 1.51776 0.622905
2.75456 1.50244 0.610346
2.75456 1.50244 0.610346
2.76987 1.48713 0.622894
2.75456 1.50244 0.635455
2.73924 1.51776 0.622905
2.73925 1.51775 0.597797
2.75456 1.50244 0.610346
2.75456 1.50244 0.610346
2.73925 1.51775 0.597797
2.75456 1.50244 0.585242
2.8005 1.4565 0.597784
2.8005 1.4565 0.622885
2.78519 1.47181 0.610337
2.78519 1.47181 0.610337
2.78519 1.47181 0.585237
2.8005 1.4565 0.597784
2.78519 1.47181 0.610337
2.8005 1.4565 0.622885
2.78519 1.47181 0.635442
2.78519 1.47181 0.635442
2.76987 1.48713 0.622894
2.78519 1.47181 0.610337
2.75454 1.50246 0.710831
2.73923 1.51777 0.698277
2.75455 1.50245 0.685697
2.75454 1.50246 0.710831
2.76986 1.48714 0.723383
2.75454 1.50246 0.735977
2.7086 1.5484 0.698302
2.72392 1.53308 0.68572
2.72392 1.53308 0.710864
2.72392 1.53308 0.710864
2.72392 1.53308 0.68572
2.73923 1.51777 0.698277
2.8005 1.4565 0.673105
2.78519 1.47181 0.660554
2.8005 1.4565 0.647992
2.75455 1.50245 0.685697
2.76987 1.48713 0.673122
2.76986 1.48714 0.698248
2.76986 1.48714 0.698248
2.75454 1.50246 0.710831
2.75455 1.50245 0.685697
2.76986 1.48714 0.723383
2.75454 1.50246 0.710831
2.76986 1.48714 0.698248
2.78517 1.47183 0.786215
2.76984 1.48716 0.798839
2.76985 1.48715 0.773678
2.76985 1.48715 0.773678
2.78517 1.47183 0.76107
2.78517 1.47183 0.786215
2.76985 1.48715 0.748526
2.78517 1.47183 0.76107
2.76985 1.48715 0.773678
2.73921 1.51779 0.798941
2.73921 1.51779 0.773753
2.75452 1.50248 0.786304
2.75452 1.50248 0.786304
2.75451 1.50249 0.81149
2.73921 1.51779 0.798941
2.76984 1.48716 0.798839
2.75451 1.50249 0.81149
2.75452 1.50248 0.786304
2.75452 1.50248 0.786304
2.76985 1.48715 0.773678
2.76984 1.48716 0.798839
2.7239 1.5331 0.786381
2.73921 1.51779 0.773753
2.73921 1.51779 0.798941
2.7239 1.5331 0.786381
2.70859 1.54841 0.799009
2.70859 1.54841 0.773807
2.76981 1.48719 0.874362
2.76982 1.48718 0.899521
2.75451 1.50249 0.887217
2.75451 1.50249 0.887217
2.76982 1.48718 0.899521
2.75455 1.50245 0.912625
2.7392 1.5178 0.824146
2.75451 1.50249 0.81149
2.75451 1.50249 0.836694
2.75451 1.50249 0.836694
2.7392 1.5178 0.849368
2.7392 1.5178 0.824146
2.67798 1.57902 0.673174
2.66266 1.59434 0.685749
2.66266 1.59434 0.660611
2.70859 1.54841 0.773807
2.70859 1.54841 0.748623
2.7239 1.5331 0.761192
2.7239 1.5331 0.761192
2.7239 1.5331 0.786381
2.70859 1.54841 0.773807
2.73921 1.51779 0.773753
2.7239 1.5331 0.786381
2.7239 1.5331 0.761192
2.73922 1.51778 0.748581
2.73921 1.51779 0.773753
2.7239 1.5331 0.761192
2.57068 1.68632 0.912763
2.57068 1.68632 0.93839
2.55533 1.70167 0.924907
2.55533 1.70167 0.924907
2.57068 1.68632 0.93839
2.55533 1.70167 0.949497
2.55533 1.70167 0.924907
2.55533 1.70167 0.949497
2.53996 1.71704 0.938376
2.53996 1.71704 0.938376
2.53996 1.71704 0.91275
2.55533 1.70167 0.924907
2.52458 1.73242 0.899845
2.53996 1.71704 0.91275
2.52458 1.73242 0.924896
2.50912 1.74788 0.53505
2.50912 1.74788 0.56015
2.49371 1.76329 0.547599
2.41633 1.84067 0.660564
2.40077 1.85623 0.647996
2.41632 1.84068 0.635447
2.41635 1.84065 0.710832
2.40081 1.85619 0.723393
2.40079 1.85621 0.698249
2.33845 1.91855 0.874462
2.32275 1.93425 0.861854
2.33843 1.91857 0.849241
2.33845 1.91855 0.899657
2.32276 1.93424 0.88714
2.33845 1.91855 0.874462
2.40087 1.85613 0.824121
2.40088 1.85612 0.849338
2.38531 1.87169 0.836717
2.30693 1.95007 0.773576
2.32265 1.93435 0.761025
2.32267 1.93433 0.786199
2.30684 1.95016 0.67303
2.29108 1.96592 0.685563
2.29106 1.96594 0.660458
2.32274 1.93426 0.964413
2.33845 1.91855 0.9725
2.30701 1.94999 0.9725
2.33845 1.91855 0.949366
2.33845 1.91855 0.9725
2.32274 1.93426 0.964413
2.35411 1.90289 0.964474
2.33845 1.91855 0.9725
2.33845 1.91855 0.949366
2.30704 1.94996 0.89961
2.30703 1.94997 0.924693
2.29128 1.96572 0.912459
2.55533 1.70167 0.9725
2.52458 1.73242 0.9725
2.53996 1.71704 0.964721
2.53996 1.71704 0.938376
2.55533 1.70167 0.949497
2.53996 1.71704 0.964721
2.53996 1.71704 0.964721
2.55533 1.70167 0.949497
2.55533 1.70167 0.9725
2.52458 1.73242 0.949489
2.52458 1.73242 0.924896
2.53996 1.71704 0.938376
2.53996 1.71704 0.938376
2.53996 1.71704 0.964721
2.52458 1.73242 0.949489
2.52458 1.73242 0.949489
2.53996 1.71704 0.964721
2.52458 1.73242 0.9725
2.41642 1.84058 0.836759
2.40088 1.85612 0.849338
2.40087 1.85613 0.824121
2.47831 1.77869 0.761204
2.49374 1.76326 0.748624
2.49374 1.76326 0.773805
2.49374 1.76326 0.773805
2.47832 1.77868 0.786392
2.47831 1.77869 0.761204
2.47833 1.77867 0.811596
2.47832 1.77868 0.786392
2.49375 1.76325 0.799
2.47833 1.77867 0.811596
2.49375 1.76325 0.799
2.49376 1.76324 0.824208
2.49376 1.76324 0.824208
2.47834 1.77866 0.836818
2.47833 1.77867 0.811596
2.47833 1.77867 0.811596
2.47834 1.77866 0.836818
2.46289 1.79411 0.824187
2.49377 1.76323 0.849427
2.47834 1.77866 0.836818
2.49376 1.76324 0.824208
2.49377 1.76323 0.874644
2.47835 1.77865 0.887342
2.47834 1.77866 0.862061
2.47834 1.77866 0.862061
2.49377 1.76323 0.849427
2.49377 1.76323 0.874644
2.47834 1.77866 0.836818
2.49377 1.76323 0.849427
2.47834 1.77866 0.862061
2.7852 1.4718 0.107375
2.78544 1.47156 0.0811606
2.8005 1.4565 0.096448
2.76997 1.48703 0.0957297
2.78544 1.47156 0.0811606
2.7852 1.4718 0.107375
2.64739 1.60961 0.0954754
2.64738 1.60962 0.0725
2.66272 1.59428 0.0802084
2.70875 1.54825 0.0725
2.6934 1.5636 0.0801683
2.67805 1.57895 0.0725
2.67805 1.57895 0.0725
2.66272 1.59428 0.0802084
[...]
<PointData Scalars="View Factor" >
<DataArray type="Float64" Name="View Factor" NumberOfComponents="1" format="ascii">
2.54432e-05
2.54432e-05
2.54432e-05
2.68562e-05
2.68562e-05
2.68562e-05
2.63787e-05
2.63787e-05
2.63787e-05
2.40702e-05
2.40702e-05
2.40702e-05
2.44372e-05
2.44372e-05
2.44372e-05
2.50508e-05
2.50508e-05
2.50508e-05
2.49823e-05
2.49823e-05
2.49823e-05
2.47645e-05
2.47645e-05
2.47645e-05
2.55414e-05
2.55414e-05
2.55414e-05
2.53085e-05
2.53085e-05
2.53085e-05
2.54146e-05
2.54146e-05
2.54146e-05
2.56751e-05
2.56751e-05
2.56751e-05
2.61446e-05
2.61446e-05
2.61446e-05
2.58693e-05
2.58693e-05
2.58693e-05
2.65259e-05
2.65259e-05
2.65259e-05
2.7096e-05
2.7096e-05
2.7096e-05
2.69515e-05
2.69515e-05
2.69515e-05
2.67118e-05
2.67118e-05
2.67118e-05
3.03635e-05
3.03635e-05
3.03635e-05
2.72918e-05
2.72918e-05
2.72918e-05
2.75355e-05
2.75355e-05
2.75355e-05
2.80357e-05
2.80357e-05
2.80357e-05
1.79104e-05
1.79104e-05
1.79104e-05
1.50529e-05
1.50529e-05
1.50529e-05
2.62401e-05
2.62401e-05
2.62401e-05
2.60049e-05
2.60049e-05
2.60049e-05
2.60999e-05
2.60999e-05
2.60999e-05
2.64296e-05
2.64296e-05
2.64296e-05
2.63889e-05
2.63889e-05
2.63889e-05
2.62916e-05
2.62916e-05
2.62916e-05
2.60214e-05
2.60214e-05
2.60214e-05
2.57411e-05
2.57411e-05
2.57411e-05
2.59648e-05
2.59648e-05
2.59648e-05
2.7388e-05
2.7388e-05
2.7388e-05
2.68082e-05
2.68082e-05
2.68082e-05
2.66662e-05
2.66662e-05
2.66662e-05
2.65716e-05
2.65716e-05
2.65716e-05
2.82874e-05
2.82874e-05
2.82874e-05
3.00919e-05
3.00919e-05
3.00919e-05
2.66555e-05
2.66555e-05
2.66555e-05
2.70014e-05
2.70014e-05
2.70014e-05
2.72415e-05
2.72415e-05
2.72415e-05
2.68068e-05
2.68068e-05
2.68068e-05
2.71446e-05
2.71446e-05
2.71446e-05
2.62827e-05
2.62827e-05
2.62827e-05
2.65215e-05
2.65215e-05
2.65215e-05
2.55585e-05
2.55585e-05
2.55585e-05
1.82232e-05
1.82232e-05
1.82232e-05
1.7244e-05
1.7244e-05
1.7244e-05
3.19148e-05
3.19148e-05
3.19148e-05
1.50395e-05
1.50395e-05
1.50395e-05
1.51163e-05
1.51163e-05
1.51163e-05
1.51165e-05
1.51165e-05
1.51165e-05
2.87617e-05
2.87617e-05
2.87617e-05
2.89067e-05
2.89067e-05
2.89067e-05
2.8595e-05
2.8595e-05
2.8595e-05
2.78834e-05
2.78834e-05
2.78834e-05
2.79861e-05
2.79861e-05
2.79861e-05
2.81937e-05
2.81937e-05
2.81937e-05
2.68461e-05
2.68461e-05
2.68461e-05
2.55991e-05
2.55991e-05
2.55991e-05
2.67874e-05
2.67874e-05
2.67874e-05
2.71377e-05
2.71377e-05
2.71377e-05
2.66834e-05
2.66834e-05
2.66834e-05
2.69328e-05
2.69328e-05
2.69328e-05
2.84407e-05
2.84407e-05
2.84407e-05
2.83426e-05
2.83426e-05
2.83426e-05
2.81887e-05
2.81887e-05
2.81887e-05
2.78384e-05
2.78384e-05
2.78384e-05
2.6358e-05
2.6358e-05
2.6358e-05
2.6557e-05
2.6557e-05
2.6557e-05
2.53223e-05
2.53223e-05
2.53223e-05
2.56668e-05
2.56668e-05
2.56668e-05
2.8135e-05
2.8135e-05
2.8135e-05
2.69476e-05
2.69476e-05
2.69476e-05
2.67027e-05
2.67027e-05
2.67027e-05
2.68027e-05
2.68027e-05
2.68027e-05
2.67096e-05
2.67096e-05
2.67096e-05
2.69523e-05
2.69523e-05
2.69523e-05
2.68557e-05
2.68557e-05
2.68557e-05
2.56944e-05
2.56944e-05
2.56944e-05
2.5794e-05
2.5794e-05
2.5794e-05
2.61315e-05
2.61315e-05
2.61315e-05
2.63711e-05
2.63711e-05
2.63711e-05
2.53563e-05
2.53563e-05
2.53563e-05
2.46821e-05
2.46821e-05
2.46821e-05
2.58129e-05
2.58129e-05
2.58129e-05
2.55767e-05
2.55767e-05
2.55767e-05
2.56567e-05
2.56567e-05
2.56567e-05
2.54206e-05
2.54206e-05
2.54206e-05
2.37289e-05
2.37289e-05
2.37289e-05
2.48144e-05
2.48144e-05
2.48144e-05
2.49181e-05
2.49181e-05
2.49181e-05
2.5257e-05
2.5257e-05
2.5257e-05
2.54951e-05
2.54951e-05
2.54951e-05
1.92088e-05
1.92088e-05
1.92088e-05
1.89939e-05
1.89939e-05
1.89939e-05
1.86665e-05
1.86665e-05
1.86665e-05
1.85515e-05
1.85515e-05
1.85515e-05
1.81095e-05
1.81095e-05
1.81095e-05
1.86837e-05
1.86837e-05
1.86837e-05
1.55756e-05
1.55756e-05
1.55756e-05
1.53839e-05
1.53839e-05
1.53839e-05
1.51387e-05
1.51387e-05
1.51387e-05
1.50582e-05
1.50582e-05
1.50582e-05
1.50103e-05
1.50103e-05
1.50103e-05
1.54794e-05
1.54794e-05
1.54794e-05
1.5892e-05
1.5892e-05
1.5892e-05
1.4832e-05
1.4832e-05
1.4832e-05
1.48209e-05
1.48209e-05
1.48209e-05
1.47859e-05
1.47859e-05
1.47859e-05
1.50862e-05
1.50862e-05
1.50862e-05
1.82173e-05
1.82173e-05
1.82173e-05
1.84511e-05
1.84511e-05
1.84511e-05
1.85703e-05
1.85703e-05
1.85703e-05
1.80116e-05
1.80116e-05
1.80116e-05
1.81245e-05
1.81245e-05
1.81245e-05
1.79188e-05
1.79188e-05
1.79188e-05
1.49769e-05
1.49769e-05
1.49769e-05
1.73358e-05
1.73358e-05
1.73358e-05
1.71209e-05
1.71209e-05
1.71209e-05
1.70296e-05
1.70296e-05
1.70296e-05
1.71527e-05
1.71527e-05
1.71527e-05
1.69382e-05
1.69382e-05
1.69382e-05
1.66018e-05
1.66018e-05
1.66018e-05
1.706e-05
1.706e-05
1.706e-05
1.67575e-05
1.67575e-05
1.67575e-05
1.69698e-05
1.69698e-05
1.69698e-05
1.68473e-05
1.68473e-05
1.68473e-05
3.1635e-05
3.1635e-05
3.1635e-05
3.12446e-05
3.12446e-05
3.12446e-05
2.63977e-05
2.63977e-05
2.63977e-05
2.80246e-05
2.80246e-05
2.80246e-05
2.68352e-05
2.68352e-05
2.68352e-05
1.84182e-05
1.84182e-05
1.84182e-05
1.83283e-05
1.83283e-05
1.83283e-05
1.84642e-05
1.84642e-05
1.84642e-05
1.85369e-05
1.85369e-05
1.85369e-05
1.81257e-05
1.81257e-05
1.81257e-05
1.79833e-05
1.79833e-05
1.79833e-05
1.81106e-05
1.81106e-05
1.81106e-05
1.78421e-05
1.78421e-05
1.78421e-05
1.77704e-05
1.77704e-05
1.77704e-05
1.48927e-05
1.48927e-05
1.48927e-05
1.50639e-05
1.50639e-05
1.50639e-05
1.50066e-05
1.50066e-05
1.50066e-05
1.59929e-05
1.59929e-05
1.59929e-05
1.5931e-05
1.5931e-05
1.5931e-05
1.53886e-05
1.53886e-05
1.53886e-05
3.0259e-05
3.0259e-05
3.0259e-05
2.92226e-05
2.92226e-05
2.92226e-05
2.84481e-05
2.84481e-05
2.84481e-05
2.81886e-05
2.81886e-05
2.81886e-05
2.86038e-05
2.86038e-05
2.86038e-05
2.83429e-05
2.83429e-05
2.83429e-05
2.7977e-05
2.7977e-05
2.7977e-05
2.7869e-05
2.7869e-05
2.7869e-05
2.81314e-05
2.81314e-05
2.81314e-05
2.84992e-05
2.84992e-05
2.84992e-05
2.24567e-05
2.24567e-05
2.24567e-05
2.22045e-05
2.22045e-05
2.22045e-05
2.20972e-05
2.20972e-05
2.20972e-05
2.80219e-05
2.80219e-05
2.80219e-05
3.0197e-05
3.0197e-05
3.0197e-05
2.35101e-05
2.35101e-05
2.35101e-05
2.2813e-05
2.2813e-05
2.2813e-05
2.49027e-05
2.49027e-05
2.49027e-05
2.33006e-05
2.33006e-05
2.33006e-05
2.44915e-05
2.44915e-05
2.44915e-05
2.43783e-05
2.43783e-05
2.43783e-05
2.40225e-05
2.40225e-05
2.40225e-05
2.37801e-05
2.37801e-05
2.37801e-05
2.75235e-05
2.75235e-05
2.75235e-05
2.90641e-05
2.90641e-05
2.90641e-05
2.88062e-05
2.88062e-05
2.88062e-05
2.84482e-05
2.84482e-05
2.84482e-05
2.8345e-05
2.8345e-05
2.8345e-05
2.86032e-05
2.86032e-05
2.86032e-05
2.89632e-05
2.89632e-05
2.89632e-05
2.17688e-05
2.17688e-05
2.17688e-05
2.20076e-05
2.20076e-05
2.20076e-05
2.40394e-05
2.40394e-05
2.40394e-05
2.4154e-05
2.4154e-05
2.4154e-05
2.39111e-05
2.39111e-05
2.39111e-05
2.35544e-05
2.35544e-05
2.35544e-05
2.21274e-05
2.21274e-05
2.21274e-05
2.20056e-05
2.20056e-05
2.20056e-05
2.153e-05
2.153e-05
2.153e-05
2.18889e-05
2.18889e-05
2.18889e-05
2.36808e-05
2.36808e-05
2.36808e-05
2.34386e-05
2.34386e-05
2.34386e-05
2.74389e-05
2.74389e-05
2.74389e-05
2.70914e-05
2.70914e-05
2.70914e-05
2.69904e-05
2.69904e-05
2.69904e-05
2.76873e-05
2.76873e-05
2.76873e-05
2.75885e-05
2.75885e-05
2.75885e-05
2.72392e-05
2.72392e-05
2.72392e-05
2.59474e-05
2.59474e-05
2.59474e-05
2.66421e-05
2.66421e-05
2.66421e-05
2.65415e-05
2.65415e-05
2.65415e-05
2.61922e-05
2.61922e-05
2.61922e-05
2.51734e-05
2.51734e-05
2.51734e-05
2.57691e-05
2.57691e-05
2.57691e-05
2.54161e-05
2.54161e-05
2.54161e-05
2.79904e-05
2.79904e-05
2.79904e-05
2.75365e-05
2.75365e-05
2.75365e-05
2.78897e-05
2.78897e-05
2.78897e-05
2.72849e-05
2.72849e-05
2.72849e-05
2.73868e-05
2.73868e-05
2.73868e-05
2.77381e-05
2.77381e-05
2.77381e-05
2.62544e-05
2.62544e-05
2.62544e-05
2.59088e-05
2.59088e-05
2.59088e-05
2.58066e-05
2.58066e-05
2.58066e-05
2.64996e-05
2.64996e-05
2.64996e-05
2.60511e-05
2.60511e-05
2.60511e-05
2.63986e-05
2.63986e-05
2.63986e-05
2.54603e-05
2.54603e-05
2.54603e-05
2.53555e-05
2.53555e-05
2.53555e-05
2.50082e-05
2.50082e-05
2.50082e-05
2.5218e-05
2.5218e-05
2.5218e-05
2.61141e-05
2.61141e-05
2.61141e-05
2.57704e-05
2.57704e-05
2.57704e-05
2.62142e-05
2.62142e-05
2.62142e-05
2.59727e-05
2.59727e-05
2.59727e-05
2.50842e-05
2.50842e-05
2.50842e-05
2.75414e-05
2.75414e-05
2.75414e-05
2.78881e-05
2.78881e-05
2.78881e-05
2.79837e-05
2.79837e-05
2.79837e-05
2.72933e-05
2.72933e-05
2.72933e-05
2.76839e-05
2.76839e-05
2.76839e-05
2.69976e-05
2.69976e-05
2.69976e-05
2.74389e-05
2.74389e-05
2.74389e-05
2.70976e-05
2.70976e-05
2.70976e-05
2.78333e-05
2.78333e-05
2.78333e-05
2.77338e-05
2.77338e-05
2.77338e-05
2.73891e-05
2.73891e-05
2.73891e-05
2.71466e-05
2.71466e-05
2.71466e-05
2.72451e-05
2.72451e-05
2.72451e-05
2.7588e-05
2.7588e-05
2.7588e-05
2.58351e-05
2.58351e-05
2.58351e-05
2.65154e-05
2.65154e-05
2.65154e-05
2.59342e-05
2.59342e-05
2.59342e-05
2.62735e-05
2.62735e-05
2.62735e-05
2.60753e-05
2.60753e-05
2.60753e-05
2.64164e-05
2.64164e-05
2.64164e-05
2.52221e-05
2.52221e-05
2.52221e-05
2.51196e-05
2.51196e-05
2.51196e-05
2.47825e-05
2.47825e-05
2.47825e-05
2.59494e-05
2.59494e-05
2.59494e-05
2.52856e-05
2.52856e-05
2.52856e-05
2.5854e-05
2.5854e-05
2.5854e-05
2.55202e-05
2.55202e-05
2.55202e-05
2.57158e-05
2.57158e-05
2.57158e-05
2.53838e-05
2.53838e-05
2.53838e-05
2.48871e-05
2.48871e-05
2.48871e-05
2.51152e-05
2.51152e-05
2.51152e-05
2.4329e-05
2.4329e-05
2.4329e-05
2.456e-05
2.456e-05
2.456e-05
2.44583e-05
2.44583e-05
2.44583e-05
2.51489e-05
2.51489e-05
2.51489e-05
2.46873e-05
2.46873e-05
2.46873e-05
2.52467e-05
2.52467e-05
2.52467e-05
2.50161e-05
2.50161e-05
2.50161e-05
2.59923e-05
2.59923e-05
2.59923e-05
2.66652e-05
2.66652e-05
2.66652e-05
2.64251e-05
2.64251e-05
2.64251e-05
2.609e-05
2.609e-05
2.609e-05
2.65685e-05
2.65685e-05
2.65685e-05
2.62316e-05
2.62316e-05
2.62316e-05
2.14206e-05
2.14206e-05
2.14206e-05
2.13047e-05
2.13047e-05
2.13047e-05
2.24649e-05
2.24649e-05
2.24649e-05
2.17687e-05
2.17687e-05
2.17687e-05
2.38376e-05
2.38376e-05
2.38376e-05
1.91929e-05
1.91929e-05
1.91929e-05
1.88961e-05
1.88961e-05
1.88961e-05
1.9104e-05
1.9104e-05
1.9104e-05
1.84539e-05
1.84539e-05
1.84539e-05
1.90403e-05
1.90403e-05
1.90403e-05
2.12919e-05
2.12919e-05
2.12919e-05
2.14119e-05
2.14119e-05
2.14119e-05
1.56347e-05
1.56347e-05
1.56347e-05
1.54401e-05
1.54401e-05
1.54401e-05
1.55496e-05
1.55496e-05
1.55496e-05
1.59214e-05
1.59214e-05
1.59214e-05
1.59345e-05
1.59345e-05
1.59345e-05
1.59582e-05
1.59582e-05
1.59582e-05
1.51966e-05
1.51966e-05
1.51966e-05
1.50346e-05
1.50346e-05
1.50346e-05
1.50707e-05
1.50707e-05
1.50707e-05
1.50496e-05
1.50496e-05
1.50496e-05
1.51031e-05
1.51031e-05
1.51031e-05
1.51245e-05
1.51245e-05
1.51245e-05
1.50323e-05
1.50323e-05
1.50323e-05
1.50894e-05
1.50894e-05
1.50894e-05
1.52755e-05
1.52755e-05
1.52755e-05
1.52406e-05
1.52406e-05
1.52406e-05
1.53467e-05
1.53467e-05
1.53467e-05
1.53829e-05
1.53829e-05
1.53829e-05
1.54424e-05
1.54424e-05
1.54424e-05
1.54048e-05
1.54048e-05
1.54048e-05
1.50783e-05
1.50783e-05
1.50783e-05
1.51129e-05
1.51129e-05
1.51129e-05
1.55396e-05
1.55396e-05
1.55396e-05
1.55625e-05
1.55625e-05
1.55625e-05
1.56087e-05
1.56087e-05
1.56087e-05
1.59153e-05
1.59153e-05
1.59153e-05
1.47298e-05
1.47298e-05
1.47298e-05
1.46277e-05
1.46277e-05
1.46277e-05
1.51525e-05
1.51525e-05
1.51525e-05
1.51299e-05
1.51299e-05
1.51299e-05
1.72377e-05
1.72377e-05
1.72377e-05
1.75929e-05
1.75929e-05
1.75929e-05
1.70527e-05
1.70527e-05
1.70527e-05
1.68333e-05
1.68333e-05
1.68333e-05
1.77722e-05
1.77722e-05
1.77722e-05
1.55093e-05
1.55093e-05
1.55093e-05
1.64781e-05
1.64781e-05
1.64781e-05
1.66914e-05
1.66914e-05
1.66914e-05
1.64248e-05
1.64248e-05
1.64248e-05
1.57602e-05
1.57602e-05
1.57602e-05
3.15859e-05
3.15859e-05
3.15859e-05
3.11365e-05
3.11365e-05
3.11365e-05
2.92857e-05
2.92857e-05
2.92857e-05
2.9556e-05
2.9556e-05
2.9556e-05
2.9213e-05
2.9213e-05
2.9213e-05
1.83067e-05
1.83067e-05
1.83067e-05
1.82826e-05
1.82826e-05
1.82826e-05
1.82472e-05
1.82472e-05
1.82472e-05
1.82607e-05
1.82607e-05
1.82607e-05
1.8192e-05
1.8192e-05
1.8192e-05
1.81704e-05
1.81704e-05
1.81704e-05
1.81468e-05
1.81468e-05
1.81468e-05
1.80709e-05
1.80709e-05
1.80709e-05
1.82971e-05
1.82971e-05
1.82971e-05
1.83153e-05
1.83153e-05
1.83153e-05
1.83424e-05
1.83424e-05
1.83424e-05
1.84444e-05
1.84444e-05
1.84444e-05
1.83997e-05
1.83997e-05
1.83997e-05
1.85239e-05
1.85239e-05
1.85239e-05
1.83853e-05
1.83853e-05
1.83853e-05
1.7563e-05
1.7563e-05
1.7563e-05
1.66414e-05
1.66414e-05
1.66414e-05
1.74238e-05
1.74238e-05
1.74238e-05
1.71998e-05
1.71998e-05
1.71998e-05
1.7293e-05
1.7293e-05
1.7293e-05
1.72233e-05
1.72233e-05
1.72233e-05
1.72015e-05
1.72015e-05
1.72015e-05
1.71777e-05
1.71777e-05
1.71777e-05
1.76719e-05
1.76719e-05
1.76719e-05
1.72507e-05
1.72507e-05
1.72507e-05
1.67656e-05
1.67656e-05
1.67656e-05
1.67501e-05
1.67501e-05
1.67501e-05
1.66837e-05
1.66837e-05
1.66837e-05
1.76138e-05
1.76138e-05
1.76138e-05
1.75695e-05
1.75695e-05
1.75695e-05
1.77037e-05
1.77037e-05
1.77037e-05
1.77493e-05
1.77493e-05
1.77493e-05
1.77241e-05
1.77241e-05
1.77241e-05
1.72917e-05
1.72917e-05
1.72917e-05
1.78646e-05
1.78646e-05
1.78646e-05
1.79616e-05
1.79616e-05
1.79616e-05
1.78892e-05
1.78892e-05
1.78892e-05
1.62466e-05
1.62466e-05
1.62466e-05
1.61846e-05
1.61846e-05
1.61846e-05
1.62316e-05
1.62316e-05
1.62316e-05
1.60612e-05
1.60612e-05
1.60612e-05
1.60872e-05
1.60872e-05
1.60872e-05
1.6149e-05
1.6149e-05
1.6149e-05
1.68963e-05
1.68963e-05
1.68963e-05
1.66288e-05
1.66288e-05
1.66288e-05
1.6486e-05
1.6486e-05
1.6486e-05
1.65102e-05
1.65102e-05
1.65102e-05
1.48749e-05
1.48749e-05
1.48749e-05
1.49106e-05
1.49106e-05
1.49106e-05
1.49702e-05
1.49702e-05
1.49702e-05
1.49915e-05
1.49915e-05
1.49915e-05
1.49289e-05
1.49289e-05
1.49289e-05
1.49827e-05
1.49827e-05
1.49827e-05
1.49422e-05
1.49422e-05
1.49422e-05
1.5002e-05
1.5002e-05
1.5002e-05
1.50196e-05
1.50196e-05
1.50196e-05
1.65645e-05
1.65645e-05
1.65645e-05
1.64761e-05
1.64761e-05
1.64761e-05
1.64981e-05
1.64981e-05
1.64981e-05
1.5908e-05
1.5908e-05
1.5908e-05
1.58612e-05
1.58612e-05
1.58612e-05
1.59236e-05
1.59236e-05
1.59236e-05
1.59475e-05
1.59475e-05
1.59475e-05
1.60274e-05
1.60274e-05
1.60274e-05
1.59419e-05
1.59419e-05
1.59419e-05
1.59638e-05
1.59638e-05
1.59638e-05
1.59826e-05
1.59826e-05
1.59826e-05
1.54109e-05
1.54109e-05
1.54109e-05
1.54566e-05
1.54566e-05
1.54566e-05
1.56707e-05
1.56707e-05
1.56707e-05
1.56918e-05
1.56918e-05
1.56918e-05
1.54264e-05
1.54264e-05
1.54264e-05
1.51556e-05
1.51556e-05
1.51556e-05
1.51703e-05
1.51703e-05
1.51703e-05
1.52346e-05
1.52346e-05
1.52346e-05
1.5101e-05
1.5101e-05
1.5101e-05
1.50807e-05
1.50807e-05
1.50807e-05
1.50948e-05
1.50948e-05
1.50948e-05
1.5133e-05
1.5133e-05
1.5133e-05
1.51183e-05
1.51183e-05
1.51183e-05
1.51776e-05
1.51776e-05
1.51776e-05
2.88918e-05
2.88918e-05
2.88918e-05
2.87674e-05
2.87674e-05
2.87674e-05
2.83721e-05
2.83721e-05
2.83721e-05
2.81028e-05
2.81028e-05
2.81028e-05
2.71864e-05
2.71864e-05
2.71864e-05
2.75812e-05
2.75812e-05
2.75812e-05
2.7709e-05
2.7709e-05
2.7709e-05
2.24883e-05
2.24883e-05
2.24883e-05
3.09558e-05
3.09558e-05
3.09558e-05
3.05662e-05
3.05662e-05
3.05662e-05
2.9394e-05
2.9394e-05
2.9394e-05
2.97852e-05
2.97852e-05
2.97852e-05
2.82923e-05
2.82923e-05
2.82923e-05
2.80355e-05
2.80355e-05
2.80355e-05
2.81408e-05
2.81408e-05
2.81408e-05
2.85017e-05
2.85017e-05
2.85017e-05
2.95429e-05
2.95429e-05
2.95429e-05
2.8813e-05
2.8813e-05
2.8813e-05
2.78248e-05
2.78248e-05
2.78248e-05
2.70982e-05
2.70982e-05
2.70982e-05
2.73546e-05
2.73546e-05
2.73546e-05
2.77194e-05
2.77194e-05
2.77194e-05
1.95857e-05
1.95857e-05
1.95857e-05
2.00594e-05
2.00594e-05
2.00594e-05
2.06158e-05
2.06158e-05
2.06158e-05
1.99975e-05
1.99975e-05
1.99975e-05
1.96229e-05
1.96229e-05
1.96229e-05
1.94891e-05
1.94891e-05
1.94891e-05
2.02404e-05
2.02404e-05
2.02404e-05
1.97313e-05
1.97313e-05
1.97313e-05
2.0108e-05
2.0108e-05
2.0108e-05
2.01301e-05
2.01301e-05
2.01301e-05
1.93822e-05
1.93822e-05
1.93822e-05
1.89042e-05
1.89042e-05
1.89042e-05
1.7231e-05
1.7231e-05
1.7231e-05
1.91132e-05
1.91132e-05
1.91132e-05
1.76166e-05
1.76166e-05
1.76166e-05
2.3236e-05
2.3236e-05
2.3236e-05
2.02957e-05
2.02957e-05
2.02957e-05
2.01676e-05
2.01676e-05
2.01676e-05
2.11336e-05
2.11336e-05
2.11336e-05
2.17479e-05
2.17479e-05
2.17479e-05
2.15045e-05
2.15045e-05
2.15045e-05
2.23356e-05
2.23356e-05
2.23356e-05
2.60033e-05
2.60033e-05
2.60033e-05
2.46879e-05
2.46879e-05
2.46879e-05
2.45638e-05
2.45638e-05
2.45638e-05
2.41706e-05
2.41706e-05
2.41706e-05
2.40326e-05
2.40326e-05
2.40326e-05
2.08608e-05
2.08608e-05
2.08608e-05
2.21101e-05
2.21101e-05
2.21101e-05
2.13546e-05
2.13546e-05
2.13546e-05
2.86545e-05
2.86545e-05
2.86545e-05
2.82847e-05
2.82847e-05
2.82847e-05
2.3108e-05
2.3108e-05
2.3108e-05
2.38482e-05
2.38482e-05
2.38482e-05
2.37292e-05
2.37292e-05
2.37292e-05
2.33585e-05
2.33585e-05
2.33585e-05
2.45698e-05
2.45698e-05
2.45698e-05
2.32145e-05
2.32145e-05
2.32145e-05
2.42865e-05
2.42865e-05
2.42865e-05
2.99304e-05
2.99304e-05
2.99304e-05
3.00318e-05
3.00318e-05
3.00318e-05
2.98676e-05
2.98676e-05
2.98676e-05
2.91308e-05
2.91308e-05
2.91308e-05
2.93923e-05
2.93923e-05
2.93923e-05
2.97623e-05
2.97623e-05
2.97623e-05
2.97047e-05
2.97047e-05
2.97047e-05
2.94406e-05
2.94406e-05
2.94406e-05
2.90747e-05
2.90747e-05
2.90747e-05
2.89708e-05
2.89708e-05
2.89708e-05
2.92352e-05
2.92352e-05
2.92352e-05
2.96031e-05
2.96031e-05
2.96031e-05
2.84943e-05
2.84943e-05
2.84943e-05
2.81402e-05
2.81402e-05
2.81402e-05
2.8039e-05
2.8039e-05
2.8039e-05
2.87503e-05
2.87503e-05
2.87503e-05
2.82943e-05
2.82943e-05
2.82943e-05
2.86503e-05
2.86503e-05
2.86503e-05
2.36356e-05
2.36356e-05
2.36356e-05
2.30492e-05
2.30492e-05
2.30492e-05
2.33982e-05
2.33982e-05
2.33982e-05
2.35241e-05
2.35241e-05
2.35241e-05
2.45545e-05
2.45545e-05
2.45545e-05
2.38582e-05
2.38582e-05
2.38582e-05
2.39675e-05
2.39675e-05
2.39675e-05
2.43147e-05
2.43147e-05
2.43147e-05
2.39856e-05
2.39856e-05
2.39856e-05
2.40963e-05
2.40963e-05
2.40963e-05
2.44454e-05
2.44454e-05
2.44454e-05
2.46856e-05
2.46856e-05
2.46856e-05
2.55561e-05
2.55561e-05
2.55561e-05
2.48464e-05
2.48464e-05
2.48464e-05
2.53091e-05
2.53091e-05
2.53091e-05
2.49552e-05
2.49552e-05
2.49552e-05
2.6018e-05
2.6018e-05
2.6018e-05
2.59111e-05
2.59111e-05
2.59111e-05
2.45118e-05
2.45118e-05
2.45118e-05
2.46238e-05
2.46238e-05
2.46238e-05
2.36535e-05
2.36535e-05
2.36535e-05
2.37646e-05
2.37646e-05
2.37646e-05
2.42484e-05
2.42484e-05
2.42484e-05
2.38945e-05
2.38945e-05
2.38945e-05
2.67344e-05
2.67344e-05
2.67344e-05
2.64803e-05
2.64803e-05
2.64803e-05
2.5834e-05
2.5834e-05
2.5834e-05
2.7418e-05
2.7418e-05
2.7418e-05
2.76736e-05
2.76736e-05
2.76736e-05
2.72048e-05
2.72048e-05
2.72048e-05
2.75677e-05
2.75677e-05
2.75677e-05
2.29365e-05
2.29365e-05
2.29365e-05
2.31732e-05
2.31732e-05
2.31732e-05
2.30617e-05
2.30617e-05
2.30617e-05
2.27098e-05
2.27098e-05
2.27098e-05
2.24713e-05
2.24713e-05
2.24713e-05
2.25865e-05
2.25865e-05
2.25865e-05
2.23502e-05
2.23502e-05
2.23502e-05
2.20012e-05
2.20012e-05
2.20012e-05
2.31851e-05
2.31851e-05
2.31851e-05
2.34253e-05
2.34253e-05
2.34253e-05
2.33127e-05
2.33127e-05
2.33127e-05
2.2957e-05
2.2957e-05
2.2957e-05
2.18886e-05
2.18886e-05
2.18886e-05
2.22445e-05
2.22445e-05
2.22445e-05
2.35653e-05
2.35653e-05
2.35653e-05
2.3334e-05
2.3334e-05
2.3334e-05
2.23654e-05
2.23654e-05
2.23654e-05
2.30809e-05
2.30809e-05
2.30809e-05
2.24832e-05
2.24832e-05
2.24832e-05
2.28401e-05
2.28401e-05
2.28401e-05
2.29785e-05
2.29785e-05
2.29785e-05
2.01854e-05
2.01854e-05
2.01854e-05
1.9949e-05
1.9949e-05
1.9949e-05
2.16448e-05
2.16448e-05
2.16448e-05
2.14078e-05
2.14078e-05
2.14078e-05
2.52809e-05
2.52809e-05
2.52809e-05
2.50357e-05
2.50357e-05
2.50357e-05
2.54928e-05
2.54928e-05
2.54928e-05
2.51436e-05
2.51436e-05
2.51436e-05
2.62275e-05
2.62275e-05
2.62275e-05
2.58755e-05
2.58755e-05
2.58755e-05
2.63322e-05
2.63322e-05
2.63322e-05
2.5632e-05
2.5632e-05
2.5632e-05
2.6087e-05
2.6087e-05
2.6087e-05
2.57369e-05
2.57369e-05
2.57369e-05
2.46068e-05
2.46068e-05
2.46068e-05
2.55317e-05
2.55317e-05
2.55317e-05
2.5189e-05
2.5189e-05
2.5189e-05
2.56309e-05
2.56309e-05
2.56309e-05
2.49484e-05
2.49484e-05
2.49484e-05
2.53906e-05