<VTKFile type="UnstructuredGrid" version="1.0">
<UnstructuredGrid>
<Piece NumberOfPoints="8859" NumberOfCells="2953">
<Points>
<DataArray type="Float64" NumberOfComponents="3" format="ascii">
3.01 0.5 6.175
3.01 0.487476 6.1975
3.01 0.512524 6.1975
3.01 0.17352 5.2975
3.01 0.148445 5.2975
3.01 0.160827 5.31922
3.01 0.122979 5.34089
3.01 0.135644 5.31922
3.01 0.110383 5.31921
3.01 0.135644 5.31922
3.01 0.123433 5.2975
3.01 0.110383 5.31921
3.01 0.123433 5.2975
3.01 0.135644 5.31922
3.01 0.148445 5.2975
3.01 0.135644 5.31922
3.01 0.160827 5.31922
3.01 0.148445 5.2975
3.01 0.17352 5.2975
3.01 0.185985 5.3192
3.01 0.198629 5.2975
3.01 0.185985 5.3192
3.01 0.17352 5.2975
3.01 0.160827 5.31922
3.01 0.0732297 5.34067
3.01 0.0848754 5.31914
3.01 0.0586606 5.31881
3.01 0.05 6.13027
3.01 0.058509 6.10756
3.01 0.05 6.0851
3.01 0.324276 5.2975
3.01 0.336827 5.31916
3.01 0.349395 5.2975
3.01 0.148138 5.3409
3.01 0.160827 5.31922
3.01 0.135644 5.31922
3.01 0.122979 5.34089
3.01 0.148138 5.3409
3.01 0.135644 5.31922
3.01 0.160827 5.31922
3.01 0.173316 5.34089
3.01 0.185985 5.3192
3.01 0.185806 5.36255
3.01 0.173316 5.34089
3.01 0.160572 5.36255
3.01 0.173316 5.34089
3.01 0.160827 5.31922
3.01 0.148138 5.3409
3.01 0.160572 5.36255
3.01 0.173316 5.34089
3.01 0.148138 5.3409
3.01 0.211137 5.31919
3.01 0.198629 5.2975
3.01 0.185985 5.3192
3.01 0.0979162 5.34084
3.01 0.122979 5.34089
3.01 0.110383 5.31921
3.01 0.122979 5.34089
3.01 0.0979162 5.34084
3.01 0.109875 5.36249
3.01 0.0732297 5.34067
3.01 0.0979162 5.34084
3.01 0.0848754 5.31914
3.01 0.0979162 5.34084
3.01 0.110383 5.31921
3.01 0.0848754 5.31914
3.01 0.0975729 5.38404
3.01 0.122678 5.38414
3.01 0.109875 5.36249
3.01 0.0841718 5.36235
3.01 0.0732297 5.34067
3.01 0.0577122 5.36202
3.01 0.0729308 5.38388
3.01 0.0841718 5.36235
3.01 0.0577122 5.36202
3.01 0.0732297 5.34067
3.01 0.0841718 5.36235
3.01 0.0979162 5.34084
3.01 0.0841718 5.36235
3.01 0.109875 5.36249
3.01 0.0979162 5.34084
3.01 0.0975729 5.38404
3.01 0.0841718 5.36235
3.01 0.0729308 5.38388
3.01 0.0841718 5.36235
3.01 0.0975729 5.38404
3.01 0.109875 5.36249
3.01 0.073948 5.2975
3.01 0.05 5.2975
3.01 0.0586606 5.31881
3.01 0.073948 5.2975
3.01 0.0586606 5.31881
3.01 0.0848754 5.31914
3.01 0.05 6.17329
3.01 0.0603641 6.15197
3.01 0.05 6.13027
3.01 0.0603641 6.15197
3.01 0.05 6.17329
3.01 0.0753197 6.17399
3.01 0.0709395 6.1975
3.01 0.05 6.17329
3.01 0.05 6.1975
3.01 0.05 6.17329
3.01 0.0709395 6.1975
3.01 0.0753197 6.17399
3.01 0.0579641 5.88463
3.01 0.05 5.86261
3.01 0.05 5.90669
3.01 0.0841948 5.79679
3.01 0.109814 5.7968
3.01 0.097638 5.77493
3.01 0.0841948 5.79679
3.01 0.0578646 5.7968
3.01 0.0730539 5.8187
3.01 0.0580261 5.9288
3.01 0.05 5.90669
3.01 0.05 5.95095
3.01 0.942292 5.49236
3.01 0.95 5.51404
3.01 0.95 5.47067
3.01 0.95 5.42726
3.01 0.942332 5.44897
3.01 0.95 5.47067
3.01 0.73872 5.70953
3.01 0.75132 5.68775
3.01 0.726137 5.68776
3.01 0.751305 5.73132
3.01 0.73872 5.70953
3.01 0.726124 5.73133
3.01 0.713546 5.70954
3.01 0.73872 5.70953
3.01 0.726137 5.68776
3.01 0.73872 5.70953
3.01 0.713546 5.70954
3.01 0.726124 5.73133
3.01 0.814318 5.75311
3.01 0.801709 5.7313
3.01 0.789096 5.75312
3.01 0.7765 5.73131
3.01 0.801709 5.7313
3.01 0.789115 5.70951
3.01 0.801709 5.7313
3.01 0.7765 5.73131
3.01 0.789096 5.75312
3.01 0.7765 5.73131
3.01 0.763892 5.75314
3.01 0.789096 5.75312
3.01 0.763892 5.75314
3.01 0.7765 5.73131
3.01 0.751305 5.73132
3.01 0.95 6.1975
3.01 0.95 6.17329
3.01 0.929061 6.1975
3.01 0.95 5.9954
3.01 0.941913 5.97315
3.01 0.926844 5.9954
3.01 0.941913 5.97315
3.01 0.95 5.9954
3.01 0.95 5.95095
3.01 0.926866 5.95094
3.01 0.941913 5.97315
3.01 0.95 5.95095
3.01 0.941974 5.9288
3.01 0.926866 5.95094
3.01 0.95 5.95095
3.01 0.95 5.90669
3.01 0.941974 5.9288
3.01 0.95 5.95095
3.01 0.941974 5.9288
3.01 0.95 5.90669
3.01 0.926895 5.90669
3.01 0.6127 6.1975
3.01 0.637734 6.1975
3.01 0.625238 6.17498
3.01 0.662757 6.1975
3.01 0.650275 6.17497
3.01 0.637734 6.1975
3.01 0.650275 6.17497
3.01 0.625238 6.17498
3.01 0.637734 6.1975
3.01 0.600415 5.73137
3.01 0.575304 5.73137
3.01 0.587856 5.7532
3.01 0.575304 5.73137
3.01 0.562749 5.7532
3.01 0.587856 5.7532
3.01 0.336827 5.31916
3.01 0.361946 5.31916
3.01 0.349395 5.2975
3.01 0.223755 5.2975
3.01 0.198629 5.2975
3.01 0.211137 5.31919
3.01 0.185985 5.3192
3.01 0.198492 5.34088
3.01 0.211137 5.31919
3.01 0.185806 5.36255
3.01 0.198492 5.34088
3.01 0.173316 5.34089
3.01 0.198492 5.34088
3.01 0.185985 5.3192
3.01 0.173316 5.34089
3.01 0.0576202 5.40553
3.01 0.05 5.38374
3.01 0.05 5.42726
3.01 0.05 5.38374
3.01 0.0576202 5.40553
3.01 0.0729308 5.38388
3.01 0.05 5.38374
3.01 0.0729308 5.38388
3.01 0.0577122 5.36202
3.01 0.135283 5.36254
3.01 0.122979 5.34089
3.01 0.109875 5.36249
3.01 0.135283 5.36254
3.01 0.109875 5.36249
3.01 0.122678 5.38414
3.01 0.122979 5.34089
3.01 0.135283 5.36254
3.01 0.148138 5.3409
3.01 0.135283 5.36254
3.01 0.160572 5.36255
3.01 0.148138 5.3409
3.01 0.123433 5.2975
3.01 0.0985513 5.2975
3.01 0.110383 5.31921
3.01 0.110383 5.31921
3.01 0.0985513 5.2975
3.01 0.0848754 5.31914
3.01 0.0848754 5.31914
3.01 0.0985513 5.2975
3.01 0.073948 5.2975
3.01 0.0603641 6.15197
3.01 0.0739464 6.12949
3.01 0.05 6.13027
3.01 0.0739464 6.12949
3.01 0.058509 6.10756
3.01 0.05 6.13027
3.01 0.058509 6.10756
3.01 0.0739464 6.12949
3.01 0.0849548 6.10711
3.01 0.058509 6.10756
3.01 0.0732725 6.08488
3.01 0.05 6.0851
3.01 0.0732725 6.08488
3.01 0.058509 6.10756
3.01 0.0849548 6.10711
3.01 0.5 6.175
3.01 0.47495 6.175
3.01 0.487476 6.1975
3.01 0.097663 5.8187
3.01 0.109814 5.7968
3.01 0.0841948 5.79679
3.01 0.0730539 5.8187
3.01 0.097663 5.8187
3.01 0.0841948 5.79679
3.01 0.0578646 5.7968
3.01 0.05 5.8187
3.01 0.0730539 5.8187
3.01 0.05 5.8187
3.01 0.0578646 5.7968
3.01 0.05 5.77492
3.01 0.05 5.9954
3.01 0.0580869 5.97315
3.01 0.05 5.95095
3.01 0.05 5.95095
3.01 0.073134 5.95094
3.01 0.0580261 5.9288
3.01 0.073134 5.95094
3.01 0.05 5.95095
3.01 0.0580869 5.97315
3.01 0.942268 5.53573
3.01 0.95 5.55741
3.01 0.95 5.51404
3.01 0.942292 5.49236
3.01 0.927025 5.51404
3.01 0.95 5.51404
3.01 0.927025 5.51404
3.01 0.915919 5.53572
3.01 0.942268 5.53573
3.01 0.95 5.51404
3.01 0.927025 5.51404
3.01 0.942268 5.53573
3.01 0.927013 5.55741
3.01 0.95 5.55741
3.01 0.942268 5.53573
3.01 0.915919 5.53572
3.01 0.927013 5.55741
3.01 0.942268 5.53573
3.01 0.801738 5.64425
3.01 0.826957 5.64425
3.01 0.814364 5.62253
3.01 0.852174 5.64424
3.01 0.839609 5.62252
3.01 0.826957 5.64425
3.01 0.839609 5.62252
3.01 0.814364 5.62253
3.01 0.826957 5.64425
3.01 0.776516 5.68775
3.01 0.763923 5.666
3.01 0.75132 5.68775
3.01 0.776516 5.68775
3.01 0.789115 5.70951
3.01 0.801725 5.68774
3.01 0.738704 5.75315
3.01 0.763892 5.75314
3.01 0.751305 5.73132
3.01 0.726124 5.73133
3.01 0.738704 5.75315
3.01 0.751305 5.73132
3.01 0.915617 5.97314
3.01 0.926866 5.95094
3.01 0.902228 5.95094
3.01 0.926866 5.95094
3.01 0.915617 5.97314
3.01 0.941913 5.97315
3.01 0.915617 5.97314
3.01 0.926844 5.9954
3.01 0.941913 5.97315
3.01 0.915617 5.97314
3.01 0.902193 5.99538
3.01 0.926844 5.9954
3.01 0.926866 5.95094
3.01 0.915668 5.92879
3.01 0.902228 5.95094
3.01 0.902267 5.90668
3.01 0.915668 5.92879
3.01 0.926895 5.90669
3.01 0.915668 5.92879
3.01 0.926866 5.95094
3.01 0.941974 5.9288
3.01 0.926895 5.90669
3.01 0.915668 5.92879
3.01 0.941974 5.9288
3.01 0.902267 5.90668
3.01 0.890059 5.92879
3.01 0.915668 5.92879
3.01 0.890059 5.92879
3.01 0.902228 5.95094
3.01 0.915668 5.92879
3.01 0.826927 5.73129
3.01 0.801709 5.7313
3.01 0.814318 5.75311
3.01 0.864816 5.7968
3.01 0.890186 5.7968
3.01 0.877308 5.77493
3.01 0.877308 5.77493
3.01 0.852122 5.77494
3.01 0.864816 5.7968
3.01 0.890186 5.7968
3.01 0.902362 5.77493
3.01 0.877308 5.77493
3.01 0.902362 5.77493
3.01 0.890186 5.7968
3.01 0.915805 5.79679
3.01 0.902362 5.77493
3.01 0.915805 5.79679
3.01 0.926964 5.77492
3.01 0.915835 5.75309
3.01 0.902362 5.77493
3.01 0.926964 5.77492
3.01 0.942171 5.75309
3.01 0.915835 5.75309
3.01 0.926964 5.77492
3.01 0.915835 5.75309
3.01 0.942171 5.75309
3.01 0.926978 5.73127
3.01 0.942171 5.75309
3.01 0.95 5.73127
3.01 0.926978 5.73127
3.01 0.87737 5.60081
3.01 0.902417 5.6008
3.01 0.890277 5.57911
3.01 0.852144 5.73128
3.01 0.864842 5.75309
3.01 0.877329 5.73128
3.01 0.877308 5.77493
3.01 0.864842 5.75309
3.01 0.852122 5.77494
3.01 0.902396 5.68772
3.01 0.890234 5.70949
3.01 0.915858 5.70948
3.01 0.926997 5.64423
3.01 0.95 5.64423
3.01 0.942237 5.62251
3.01 0.91589 5.62251
3.01 0.926997 5.64423
3.01 0.942237 5.62251
3.01 0.942199 5.70948
3.01 0.95 5.73127
3.01 0.95 5.68771
3.01 0.95 5.73127
3.01 0.942199 5.70948
3.01 0.926978 5.73127
3.01 0.942199 5.70948
3.01 0.915858 5.70948
3.01 0.926978 5.73127
3.01 0.95 5.64423
3.01 0.942221 5.66597
3.01 0.95 5.68771
3.01 0.942221 5.66597
3.01 0.95 5.64423
3.01 0.926997 5.64423
3.01 0.915876 5.66597
3.01 0.942221 5.66597
3.01 0.926997 5.64423
3.01 0.926989 5.68771
3.01 0.902396 5.68772
3.01 0.915858 5.70948
3.01 0.902396 5.68772
3.01 0.926989 5.68771
3.01 0.915876 5.66597
3.01 0.926989 5.68771
3.01 0.915858 5.70948
3.01 0.942199 5.70948
3.01 0.95 5.68771
3.01 0.926989 5.68771
3.01 0.942199 5.70948
3.01 0.915876 5.66597
3.01 0.926989 5.68771
3.01 0.942221 5.66597
3.01 0.926989 5.68771
3.01 0.95 5.68771
3.01 0.942221 5.66597
3.01 0.91353 6.15185
3.01 0.939636 6.15197
3.01 0.926054 6.12949
3.01 0.926728 6.08488
3.01 0.941491 6.10756
3.01 0.95 6.0851
3.01 0.926728 6.08488
3.01 0.95 6.0851
3.01 0.941822 6.06254
3.01 0.95 6.13027
3.01 0.939636 6.15197
3.01 0.95 6.17329
3.01 0.95 6.13027
3.01 0.941491 6.10756
3.01 0.926054 6.12949
3.01 0.939636 6.15197
3.01 0.95 6.13027
3.01 0.926054 6.12949
3.01 0.941491 6.10756
3.01 0.95 6.13027
3.01 0.95 6.0851
3.01 0.941869 6.01772
3.01 0.95 5.9954
3.01 0.926844 5.9954
3.01 0.762942 6.15228
3.01 0.737933 6.15234
3.01 0.75028 6.17489
3.01 0.71291 6.15239
3.01 0.737933 6.15234
3.01 0.725533 6.12985
3.01 0.71291 6.15239
3.01 0.725313 6.17492
3.01 0.737933 6.15234
3.01 0.725313 6.17492
3.01 0.75028 6.17489
3.01 0.737933 6.15234
3.01 0.737693 6.1975
[...]
<PointData Scalars="View Factor" >
<DataArray type="Float64" Name="View Factor" NumberOfComponents="1" format="ascii">
0.428424
0.428424
0.428424
0.651291
0.651291
0.651291
0.650908
0.650908
0.650908
0.65154
0.65154
0.65154
0.651659
0.651659
0.651659
0.651203
0.651203
0.651203
0.650858
0.650858
0.650858
0.650803
0.650803
0.650803
0.651405
0.651405
0.651405
0.470802
0.470802
0.470802
0.646842
0.646842
0.646842
0.650571
0.650571
0.650571
0.650394
0.650394
0.650394
0.65017
0.65017
0.65017
0.648614
0.648614
0.648614
0.650025
0.650025
0.650025
0.649247
0.649247
0.649247
0.650337
0.650337
0.650337
0.650699
0.650699
0.650699
0.649922
0.649922
0.649922
0.650945
0.650945
0.650945
0.651184
0.651184
0.651184
0.648076
0.648076
0.648076
0.649856
0.649856
0.649856
0.648934
0.648934
0.648934
0.65017
0.65017
0.65017
0.649632
0.649632
0.649632
0.648325
0.648325
0.648325
0.648709
0.648709
0.648709
0.652389
0.652389
0.652389
0.652034
0.652034
0.652034
0.453178
0.453178
0.453178
0.447244
0.447244
0.447244
0.437874
0.437874
0.437874
0.441045
0.441045
0.441045
0.550451
0.550451
0.550451
0.577974
0.577974
0.577974
0.57417
0.57417
0.57417
0.536168
0.536168
0.536168
0.582838
0.582838
0.582838
0.587421
0.587421
0.587421
0.573145
0.573145
0.573145
0.56671
0.56671
0.56671
0.572671
0.572671
0.572671
0.569447
0.569447
0.569447
0.555791
0.555791
0.555791
0.562067
0.562067
0.562067
0.558725
0.558725
0.558725
0.558211
0.558211
0.558211
0.561092
0.561092
0.561092
0.399621
0.399621
0.399621
0.472079
0.472079
0.472079
0.476036
0.476036
0.476036
0.481679
0.481679
0.481679
0.486347
0.486347
0.486347
0.490018
0.490018
0.490018
0.495416
0.495416
0.495416
0.422678
0.422678
0.422678
0.421327
0.421327
0.421327
0.424998
0.424998
0.424998
0.57458
0.57458
0.57458
0.5736
0.5736
0.5736
0.646115
0.646115
0.646115
0.650359
0.650359
0.650359
0.649705
0.649705
0.649705
0.648815
0.648815
0.648815
0.649593
0.649593
0.649593
0.646308
0.646308
0.646308
0.647438
0.647438
0.647438
0.648514
0.648514
0.648514
0.649353
0.649353
0.649353
0.648429
0.648429
0.648429
0.649616
0.649616
0.649616
0.649014
0.649014
0.649014
0.651964
0.651964
0.651964
0.651816
0.651816
0.651816
0.652206
0.652206
0.652206
0.459013
0.459013
0.459013
0.464919
0.464919
0.464919
0.467921
0.467921
0.467921
0.476694
0.476694
0.476694
0.473771
0.473771
0.473771
0.431935
0.431935
0.431935
0.573981
0.573981
0.573981
0.572044
0.572044
0.572044
0.572199
0.572199
0.572199
0.576282
0.576282
0.576282
0.521014
0.521014
0.521014
0.53118
0.53118
0.53118
0.526129
0.526129
0.526129
0.577426
0.577426
0.577426
0.582192
0.582192
0.582192
0.580992
0.580992
0.580992
0.580386
0.580386
0.580386
0.576491
0.576491
0.576491
0.57904
0.57904
0.57904
0.577434
0.577434
0.577434
0.574718
0.574718
0.574718
0.577417
0.577417
0.577417
0.573912
0.573912
0.573912
0.56845
0.56845
0.56845
0.560511
0.560511
0.560511
0.56334
0.56334
0.56334
0.484447
0.484447
0.484447
0.480605
0.480605
0.480605
0.475793
0.475793
0.475793
0.474797
0.474797
0.474797
0.48914
0.48914
0.48914
0.498257
0.498257
0.498257
0.489964
0.489964
0.489964
0.49451
0.49451
0.49451
0.497371
0.497371
0.497371
0.492801
0.492801
0.492801
0.556235
0.556235
0.556235
0.537155
0.537155
0.537155
0.54039
0.54039
0.54039
0.537563
0.537563
0.537563
0.534251
0.534251
0.534251
0.534611
0.534611
0.534611
0.538166
0.538166
0.538166
0.538273
0.538273
0.538273
0.541671
0.541671
0.541671
0.541886
0.541886
0.541886
0.576362
0.576362
0.576362
0.55087
0.55087
0.55087
0.543982
0.543982
0.543982
0.554456
0.554456
0.554456
0.562538
0.562538
0.562538
0.565336
0.565336
0.565336
0.547267
0.547267
0.547267
0.545127
0.545127
0.545127
0.548171
0.548171
0.548171
0.556102
0.556102
0.556102
0.559879
0.559879
0.559879
0.560003
0.560003
0.560003
0.554468
0.554468
0.554468
0.557435
0.557435
0.557435
0.551275
0.551275
0.551275
0.551319
0.551319
0.551319
0.557191
0.557191
0.557191
0.554269
0.554269
0.554269
0.418186
0.418186
0.418186
0.435949
0.435949
0.435949
0.441323
0.441323
0.441323
0.413423
0.413423
0.413423
0.425066
0.425066
0.425066
0.419659
0.419659
0.419659
0.429656
0.429656
0.429656
0.467152
0.467152
0.467152
0.426941
0.426941
0.426941
0.434444
0.434444
0.434444
0.42862
0.42862
0.42862
0.424865
0.424865
0.424865
0.416835
0.416835
0.416835
0.41898
0.41898
0.41898
0.415188
0.415188
0.415188
0.458461
0.458461
0.458461
0.445933
0.445933
0.445933
0.438161
0.438161
0.438161
0.443916
0.443916
0.443916
0.441264
0.441264
0.441264
0.447053
0.447053
0.447053
0.43228
0.43228
0.43228
0.426321
0.426321
0.426321
0.42396
0.42396
0.42396
0.587149
0.587149
0.587149
0.572025
0.572025
0.572025
0.563969
0.563969
0.563969
0.558608
0.558608
0.558608
0.56251
0.56251
0.56251
0.565165
0.565165
0.565165
0.570006
0.570006
0.570006
0.568918
0.568918
0.568918
0.560057
0.560057
0.560057
0.557351
0.557351
0.557351
0.534449
0.534449
0.534449
0.55577
0.55577
0.55577
0.55859
0.55859
0.55859
0.552306
0.552306
0.552306
0.545036
0.545036
0.545036
0.648459
0.648459
0.648459
0.649161
0.649161
0.649161
0.64854
0.64854
0.64854
0.64791
0.64791
0.64791
0.624813
0.624813
0.624813
0.577276
0.577276
0.577276
0.571492
0.571492
0.571492
0.577102
0.577102
0.577102
0.574204
0.574204
0.574204
0.576569
0.576569
0.576569
0.576212
0.576212
0.576212
0.647199
0.647199
0.647199
0.645924
0.645924
0.645924
0.630297
0.630297
0.630297
0.627296
0.627296
0.627296
0.628714
0.628714
0.628714
0.649539
0.649539
0.649539
0.65186
0.65186
0.65186
0.651139
0.651139
0.651139
0.650366
0.650366
0.650366
0.464959
0.464959
0.464959
0.429384
0.429384
0.429384
0.545756
0.545756
0.545756
0.540995
0.540995
0.540995
0.567894
0.567894
0.567894
0.642966
0.642966
0.642966
0.545401
0.545401
0.545401
0.540643
0.540643
0.540643
0.579813
0.579813
0.579813
0.577727
0.577727
0.577727
0.583866
0.583866
0.583866
0.58003
0.58003
0.58003
0.580188
0.580188
0.580188
0.578164
0.578164
0.578164
0.587795
0.587795
0.587795
0.584025
0.584025
0.584025
0.585837
0.585837
0.585837
0.589517
0.589517
0.589517
0.591385
0.591385
0.591385
0.554165
0.554165
0.554165
0.554329
0.554329
0.554329
0.579784
0.579784
0.579784
0.574704
0.574704
0.574704
0.5746
0.5746
0.5746
0.571715
0.571715
0.571715
0.574624
0.574624
0.574624
0.571865
0.571865
0.571865
0.579051
0.579051
0.579051
0.584616
0.584616
0.584616
0.599317
0.599317
0.599317
0.570858
0.570858
0.570858
0.564448
0.564448
0.564448
0.564909
0.564909
0.564909
0.568108
0.568108
0.568108
0.570448
0.570448
0.570448
0.567237
0.567237
0.567237
0.556997
0.556997
0.556997
0.556298
0.556298
0.556298
0.562695
0.562695
0.562695
0.559168
0.559168
0.559168
0.549997
0.549997
0.549997
0.547043
0.547043
0.547043
0.562302
0.562302
0.562302
0.53054
0.53054
0.53054
0.501016
0.501016
0.501016
0.508123
0.508123
0.508123
0.505459
0.505459
0.505459
0.50899
0.50899
0.50899
0.434744
0.434744
0.434744
0.432746
0.432746
0.432746
0.436493
0.436493
0.436493
0.442228
0.442228
0.442228
0.466357
0.466357
0.466357
0.443999
0.443999
0.443999
0.438442
0.438442
0.438442
0.467088
0.467088
0.467088
0.464035
0.464035
0.464035
0.468523
0.468523
0.468523
0.568946
0.568946
0.568946
0.553245
0.553245
0.553245
0.553618
0.553618
0.553618
0.550569
0.550569
0.550569
0.547116
0.547116
0.547116
0.536164
0.536164
0.536164
0.539914
0.539914
0.539914
0.544981
0.544981
0.544981
0.551267
0.551267
0.551267
0.548241
0.548241
0.548241
0.551334
0.551334
0.551334
0.535108
0.535108
0.535108
0.537557
0.537557
0.537557
0.560406
0.560406
0.560406
0.569161
0.569161
0.569161
0.566294
0.566294
0.566294
0.571136
0.571136
0.571136
0.571688
0.571688
0.571688
0.573963
0.573963
0.573963
0.57424
0.57424
0.57424
0.575922
0.575922
0.575922
0.578171
0.578171
0.578171
0.577684
0.577684
0.577684
0.419408
0.419408
0.419408
0.427153
0.427153
0.427153
0.408799
0.408799
0.408799
0.41267
0.41267
0.41267
0.403408
0.403408
0.403408
0.422238
0.422238
0.422238
0.438588
0.438588
0.438588
0.427728
0.427728
0.427728
0.429081
0.429081
0.429081
0.434491
0.434491
0.434491
0.454927
0.454927
0.454927
0.46184
0.46184
0.46184
0.460294
0.460294
0.460294
0.458051
0.458051
0.458051
0.469846
0.469846
0.469846
0.465916
0.465916
0.465916
0.445223
0.445223
0.445223
0.443949
0.443949
0.443949
0.437606
0.437606
0.437606
0.436063
0.436063
0.436063
0.43975
0.43975
0.43975
0.418407
0.418407
0.418407
0.420596
0.420596
0.420596
0.426497
0.426497
0.426497
0.430222
0.430222
0.430222
0.411744
0.411744
0.411744
0.421421
0.421421
0.421421
0.41755
0.41755
0.41755
0.409784
0.409784
0.409784
0.423155
0.423155
0.423155
0.417286
0.417286
0.417286
0.451592
0.451592
0.451592
0.455252
0.455252
0.455252
0.494517
0.494517
0.494517
0.496175
0.496175
0.496175
0.477019
0.477019
0.477019
0.460826
0.460826
0.460826
0.462719
0.462719
0.462719
0.464071
0.464071
0.464071
0.475321
0.475321
0.475321
0.469979
0.469979
0.469979
0.468181
0.468181
0.468181
0.471769
0.471769
0.471769
0.44759
0.44759
0.44759
0.454864
0.454864
0.454864
0.449168
0.449168
0.449168
0.445523
0.445523
0.445523
0.456897
0.456897
0.456897
0.453268
0.453268
0.453268
0.439074
0.439074
0.439074
0.433201
0.433201
0.433201
0.430943
0.430943
0.430943
0.434581
0.434581
0.434581
0.450668
0.450668
0.450668
0.45638
0.45638
0.45638
0.459947
0.459947
0.459947
0.510877
0.510877
0.510877
0.515811
0.515811
0.515811
0.601833
0.601833
0.601833
0.588426
0.588426
0.588426
0.603696
0.603696
0.603696
0.602425
0.602425
0.602425
0.586319
0.586319
0.586319
0.586006
0.586006
0.586006
0.588244
0.588244
0.588244
0.570056
0.570056
0.570056
0.571467
0.571467
0.571467
0.574146
0.574146
0.574146
0.566107
0.566107
0.566107
0.564594
0.564594
0.564594
0.560486
0.560486
0.560486
0.557897
0.557897
0.557897
0.572955
0.572955
0.572955
0.568441
0.568441
0.568441
0.567402
0.567402
0.567402
0.563658
0.563658
0.563658
0.560964
0.560964
0.560964
0.551962
0.551962
0.551962
0.553638
0.553638
0.553638
0.558754
0.558754
0.558754
0.55329
0.55329
0.55329
0.568991
0.568991
0.568991
0.570362
0.570362
0.570362
0.548749
0.548749
0.548749
0.550306
0.550306
0.550306
0.553728
0.553728
0.553728
0.557598
0.557598
0.557598
0.541251
0.541251
0.541251
0.509646
0.509646
0.509646
0.649794
0.649794
0.649794
0.649207
0.649207
0.649207
0.649805
0.649805
0.649805
0.589843
0.589843
0.589843
0.591184
0.591184
0.591184
0.591098
0.591098
0.591098
0.62904
0.62904
0.62904
0.616521
0.616521
0.616521
0.623953
0.623953
0.623953
0.579721
0.579721
0.579721
0.579479
0.579479
0.579479
0.582043
0.582043
0.582043
0.584809
0.584809
0.584809
0.578816
0.578816
0.578816
0.581737
0.581737
0.581737
0.647803
0.647803
0.647803
0.647174
0.647174
0.647174
0.647686
0.647686
0.647686
0.646995
0.646995
0.646995
0.645487
0.645487
0.645487
0.64467
0.64467
0.64467
0.643897
0.643897
0.643897
0.642907
0.642907
0.642907
0.642989
0.642989
0.642989
0.642062
0.642062
0.642062
0.642073
0.642073
0.642073
0.642709
0.642709
0.642709
0.630985
0.630985
0.630985
0.625189
0.625189
0.625189
0.62067
0.62067
0.62067
0.637511
0.637511
0.637511
0.6479
0.6479
0.6479
0.647123
0.647123
0.647123
0.648576
0.648576
0.648576
0.500421
0.500421
0.500421
0.488279
0.488279
0.488279
0.472541
0.472541
0.472541
0.472927
0.472927
0.472927
0.475654
0.475654
0.475654
0.490145
0.490145
0.490145
0.481429
0.481429
0.481429
0.484476
0.484476
0.484476
0.475241
0.475241
0.475241
0.467845
0.467845
0.467845
0.482509
0.482509
0.482509
0.488263
0.488263
0.488263
0.432871
0.432871
0.432871
0.448327
0.448327
0.448327
0.442355
0.442355
0.442355
0.438901
0.438901
0.438901
0.46012
0.46012
0.46012
0.450017
0.450017
0.450017
0.444026
0.444026
0.444026
0.547856
0.547856
0.547856
0.545607
0.545607
0.545607
0.548036
0.548036
0.548036
0.533608
0.533608
0.533608
0.538516
0.538516
0.538516
0.531035
0.531035
0.531035
0.533433
0.533433
0.533433
0.540847
0.540847
0.540847
0.538338
0.538338
0.538338
0.565684
0.565684
0.565684
0.561139
0.561139
0.561139
0.563829
0.563829
0.563829
0.568049
0.568049
0.568049
0.56587
0.56587
0.56587
0.64499
0.64499
0.64499
0.631394
0.631394
0.631394
0.635331
0.635331
0.635331
0.622156
0.622156
0.622156
0.619739
0.619739
0.619739
0.624427
0.624427
0.624427
0.616674
0.616674
0.616674
0.613843
0.613843
0.613843
0.631257
0.631257
0.631257
0.63312
0.63312
0.63312
0.635092
0.635092
0.635092
0.63329
0.63329
0.63329
0.632195
0.632195
0.632195
0.632588
0.632588
0.632588
0.634557
0.634557
0.634557
0.637752
0.637752
0.637752
0.635932
0.635932
0.635932
0.634856
0.634856
0.634856
0.635663
0.635663
0.635663
0.6416
0.6416
0.6416
0.530835
0.530835
0.530835
0.525787
0.525787
0.525787
0.571829
0.571829
0.571829
0.573736
0.573736
0.573736
0.567681
0.567681
0.567681
0.565441
0.565441
0.565441
0.579537
0.579537
0.579537
0.607988
0.607988
0.607988
0.609393
0.609393
0.609393
0.610948
0.610948
0.610948
0.610783
0.610783
0.610783
0.609194
0.609194
0.609194
0.591224
0.591224
0.591224
0.594746
0.594746
0.594746
0.605571
0.605571
0.605571
0.583648
0.583648
0.583648
0.591004
0.591004
0.591004
0.585645
0.585645
0.585645
0.589324
0.589324
0.589324
0.603548
0.603548
0.603548
0.601519
0.601519
0.601519
0.579994
0.579994
0.579994
0.580873
0.580873
0.580873
0.581313
0.581313
0.581313
0.576981
0.576981
0.576981
0.579393
0.579393
0.579393
0.577189
0.577189
0.577189
0.579859
0.579859
0.579859
0.5826
0.5826
0.5826
0.585036
0.585036
0.585036
0.583701
0.583701
0.583701
0.585519
0.585519
0.585519
0.554078
0.554078
0.554078
0.554711
0.554711
0.554711
0.55174
0.55174
0.55174
0.548097
0.548097
0.548097
0.54741
0.54741
0.54741
0.550419
0.550419
0.550419
0.558406
0.558406
0.558406
0.55472
0.55472
0.55472
0.556707
0.556707
0.556707
0.553842
0.553842
0.553842
0.565474
0.565474
0.565474
0.571544
0.571544
0.571544
0.568856
0.568856
0.568856
0.551912
0.551912
0.551912
0.549004
0.549004
0.549004
0.550862
0.550862
0.550862
0.517565
0.517565
0.517565
0.51302
0.51302
0.51302
0.528369
0.528369
0.528369
0.527208
0.527208
0.527208
0.533424
0.533424
0.533424
0.53012
0.53012
0.53012
0.532909
0.532909
0.532909
0.529021
0.529021
0.529021
0.510525
0.510525
0.510525
0.502677
0.502677
0.502677
0.506234
0.506234
0.506234
0.491852
0.491852
0.491852
0.478555
0.478555
0.478555
0.483392
0.483392
0.483392
0.487135
0.487135
0.487135
0.486032
0.486032
0.486032
0.473647
0.473647
0.473647
0.438601
0.438601
0.438601
0.430992
0.430992
0.430992
0.436653
0.436653
0.436653
0.440455
0.440455
0.440455
0.44237
0.44237
0.44237
0.444194
0.444194
0.444194
0.440458
0.440458
0.440458
0.447983
0.447983
0.447983
0.434604
0.434604
0.434604
0.425103
0.425103
0.425103
0.428976
0.428976
0.428976
0.436319
0.436319
0.436319
0.453276
0.453276
0.453276
0.447797
0.447797
0.447797
0.446042
0.446042
0.446042
0.449802
0.449802
0.449802
0.468631
0.468631
0.468631
0.463549
0.463549
0.463549
0.464748
0.464748
0.464748
0.459525
0.459525
0.459525
0.462283
0.462283
0.462283
0.466103
0.466103
0.466103
0.565918
0.565918
0.565918
0.559563
0.559563
0.559563
0.56246
0.56246
0.56246
0.565645
0.565645
0.565645
0.55693
0.55693
0.55693
0.563255
0.563255
0.563255
0.559884
0.559884
0.559884
0.563054
0.563054
0.563054
0.557176
0.557176
0.557176
0.560331
0.560331
0.560331
0.571969
0.571969
0.571969
0.569096
0.569096
0.569096
0.566269
0.566269
0.566269
0.572
0.572
0.572
0.569202
0.569202
0.569202
0.566344
0.566344
0.566344
0.543087
0.543087
0.543087
0.549281
0.549281
0.549281
0.545654
0.545654
0.545654
0.542539
0.542539
0.542539
0.549776
0.549776
0.549776
0.546697
0.546697
0.546697
0.541137
0.541137
0.541137
0.544321
0.544321
0.544321
0.541379
0.541379
0.541379
0.544796
0.544796
0.544796
0.547756
0.547756
0.547756
0.547989
0.547989
0.547989
0.531186
0.531186
0.531186
0.531573
0.531573
0.531573
0.52697
0.52697
0.52697
0.52421
0.52421
0.52421
0.527495
0.527495
0.527495
0.560459
0.560459
0.560459
0.563458
0.563458
0.563458
0.557528
0.557528
0.557528
0.557468
0.557468
0.557468
0.560511
0.560511
0.560511
0.56345
0.56345
0.56345
0.565752
0.565752
0.565752
0.568599
0.568599
0.568599
0.563076
0.563076
0.563076
0.563234
0.563234
0.563234
0.566184
0.566184
0.566184
0.568874
0.568874
0.568874
0.574403
0.574403
0.574403
0.574852
0.574852
0.574852
0.564068
0.564068
0.564068
0.571172
0.571172
0.571172
0.401682
0.401682
0.401682
0.426854
0.426854
0.426854
0.432443
0.432443
0.432443
0.43713
0.43713
0.43713
0.43168
0.43168
0.43168
0.439561
0.439561
0.439561
0.441094
0.441094
0.441094
0.434073
0.434073
0.434073
0.430156
0.430156
0.430156
0.451135
0.451135
0.451135
0.443455
0.443455
0.443455
0.448874
0.448874
0.448874
0.452712
0.452712
0.452712
0.441843
0.441843
0.441843
0.445685
0.445685
0.445685
0.447878
0.447878
0.447878
0.453166
0.453166
0.453166
0.446482
0.446482
0.446482
0.450368
0.450368
0.450368
0.457082
0.457082
0.457082
0.45568
0.45568
0.45568
0.460854
0.460854
0.460854
0.450502
0.450502
0.450502
0.459701
0.459701
0.459701
0.454517
0.454517
0.454517
0.422137
0.422137
0.422137
0.423604
0.423604
0.423604
0.419904
0.419904
0.419904
0.429534
0.429534
0.429534
0.431749
0.431749
0.431749
0.428053
0.428053
0.428053
0.413463
0.413463
0.413463
0.425183
0.425183
0.425183
0.430967
0.430967
0.430967
0.429104
0.429104
0.429104
0.432912
0.432912
0.432912
0.413668
0.413668
0.413668
0.421368
0.421368
0.421368
0.411661
0.411661
0.411661
0.415516
0.415516
0.415516
0.4195
0.4195
0.4195
0.423344
0.423344
0.423344
0.459077
0.459077
0.459077
0.457239
0.457239
0.457239
0.460916
0.460916
0.460916
0.451708
0.451708
0.451708
0.453523
0.453523
0.453523
0.449832
0.449832
0.449832
0.492743
0.492743
0.492743
0.478885
0.478885
0.478885
0.477131
0.477131
0.477131
0.484121
0.484121
0.484121
0.487621
0.487621
0.487621
0.498823
0.498823
0.498823
0.503647
0.503647
0.503647
0.504969
0.504969
0.504969
0.469308
0.469308
0.469308
0.470815
0.470815
0.470815
0.473418
0.473418
0.473418
0.468097
0.468097
0.468097
0.48546
0.48546
0.48546
0.482034
0.482034
0.482034
0.475086
0.475086
0.475086
0.46249
0.46249
0.46249
0.466066
0.466066
0.466066
0.464435
0.464435
0.464435
0.471566
0.471566
0.471566
0.469916
0.469916
0.469916
0.47347
0.47347
0.47347
0.478075
0.478075
0.478075
0.484895
0.484895
0.484895
0.483503
0.483503
0.483503
0.486897
0.486897
0.486897
0.466998
0.466998
0.466998
0.474619
0.474619
0.474619
0.47662
0.47662
0.47662
0.473132
0.473132
0.473132
0.467616
0.467616
0.467616
0.465573
0.465573
0.465573
0.469087
0.469087
0.469087
0.435889
0.435889
0.435889
0.436948
0.436948
0.436948
0.43094
0.43094
0.43094
0.427403
0.427403
0.427403
0.597985
0.597985
0.597985
0.591935
0.591935
0.591935
0.593334
0.593334
0.593334
0.596684
0.596684
0.596684
0.598638
0.598638
0.598638
0.589527
0.589527
0.589527
0.582185
0.582185
0.582185
0.584295
0.584295
0.584295
0.587968
0.587968
0.587968
0.599228
0.599228
0.599228
0.592519
0.592519
0.592519
0.597304
0.597304
0.597304
0.593951
0.593951
0.593951
0.6073
0.6073
0.6073
0.604258
0.604258
0.604258
0.604757
0.604757
0.604757
0.602954
0.602954
0.602954
0.593041
0.593041
0.593041
0.594505
0.594505
0.594505
0.59786
0.59786
0.59786
0.599755
0.599755
0.599755
0.591569
0.591569
0.591569
0.578992
0.578992
0.578992
0.584907
0.584907
0.584907
0.58125
0.58125
0.58125
0.57518
0.57518
0.57518
0.572831
0.572831
0.572831
0.572499
0.572499
0.572499
0.565544
0.565544
0.565544
0.567094
0.567094
0.567094
0.568013
0.568013
0.568013
0.57105
0.57105
0.57105
0.575258
0.575258
0.575258
0.576566
0.576566
0.576566
0.582527
0.582527
0.582527
0.580198
0.580198
0.580198
0.576114
0.576114
0.576114
0.572959
0.572959
0.572959
0.575414
0.575414
0.575414
0.574184
0.574184
0.574184
0.559473
0.559473
0.559473
0.562483
0.562483
0.562483
0.563574
0.563574
0.563574
0.565048
0.565048
0.565048
0.552895
0.552895
0.552895
0.554608
0.554608
0.554608
0.561431
0.561431
0.561431
0.558873
0.558873
0.558873
0.570358
0.570358
0.570358
0.565032
0.565032
0.565032
0.568596
0.568596
0.568596
0.571235
0.571235
0.571235
0.488257
0.488257
0.488257
0.493587
0.493587
0.493587
0.496883
0.496883
0.496883
0.509072
0.509072
0.509072
0.503998
0.503998
0.503998
0.502094
0.502094
0.502094
0.51895
0.51895
0.51895
0.525117
0.525117
0.525117
0.532814
0.532814
0.532814
0.528143
0.528143
0.528143
0.49079
0.49079
0.49079
0.546554
0.546554
0.546554
0.550962
0.550962
0.550962
0.555996
0.555996
0.555996
0.55723
0.55723
0.55723
0.554543
0.554543
0.554543
0.544863
0.544863