<VTKFile type="UnstructuredGrid" version="1.0">
<UnstructuredGrid>
<Piece NumberOfPoints="8859" NumberOfCells="2953">
<Points>
<DataArray type="Float64" NumberOfComponents="3" format="ascii">
2.75455 1.50245 8.22762
2.76986 1.48714 8.23958
2.75465 1.50235 8.25333
2.78515 1.47185 8.17667
2.78516 1.47184 8.15152
2.8005 1.4565 8.16398
2.76981 1.48719 8.18936
2.78515 1.47185 8.17667
2.78514 1.47186 8.20186
2.72412 1.53288 8.27988
2.73952 1.51748 8.2875
2.70875 1.54825 8.2875
2.72412 1.53288 8.27988
2.73943 1.51757 8.26457
2.73952 1.51748 8.2875
2.75488 1.50212 8.27979
2.77036 1.48664 8.2875
2.73952 1.51748 8.2875
2.75488 1.50212 8.27979
2.73943 1.51757 8.26457
2.75465 1.50235 8.25333
2.73952 1.51748 8.2875
2.73943 1.51757 8.26457
2.75488 1.50212 8.27979
2.75465 1.50235 8.25333
2.76986 1.48714 8.23958
2.76997 1.48703 8.26427
2.76997 1.48703 8.26427
2.75488 1.50212 8.27979
2.75465 1.50235 8.25333
2.77036 1.48664 8.2875
2.75488 1.50212 8.27979
2.76997 1.48703 8.26427
2.76986 1.48714 8.23958
2.75455 1.50245 8.22762
2.76982 1.48718 8.21452
2.76981 1.48719 8.18936
2.78514 1.47186 8.20186
2.76982 1.48718 8.21452
2.7852 1.4718 8.25262
2.76997 1.48703 8.26427
2.76986 1.48714 8.23958
2.8005 1.4565 8.23895
2.8005 1.4565 8.26355
2.7852 1.4718 8.25262
2.8005 1.4565 8.13887
2.8005 1.4565 8.16398
2.78516 1.47184 8.15152
2.78515 1.47185 8.17667
2.8005 1.4565 8.16398
2.8005 1.4565 8.18906
2.8005 1.4565 8.18906
2.78514 1.47186 8.20186
2.78515 1.47185 8.17667
2.8005 1.4565 7.61152
2.8005 1.4565 7.63665
2.78518 1.47182 7.62407
2.78517 1.47183 8.07607
2.8005 1.4565 8.08861
2.78517 1.47183 8.10121
2.8005 1.4565 8.06348
2.8005 1.4565 8.08861
2.78517 1.47183 8.07607
2.78519 1.47181 7.95044
2.8005 1.4565 7.96299
2.78519 1.47181 7.97555
2.32274 1.93426 7.39559
2.33845 1.91855 7.3875
2.33845 1.91855 7.41063
2.27541 1.98159 8.2875
2.24359 2.01341 8.2875
2.25954 1.99746 8.27932
2.78515 1.47185 8.22712
2.76982 1.48718 8.21452
2.78514 1.47186 8.20186
2.76986 1.48714 8.23958
2.76982 1.48718 8.21452
2.78515 1.47185 8.22712
2.78515 1.47185 8.22712
2.7852 1.4718 8.25262
2.76986 1.48714 8.23958
2.8005 1.4565 8.23895
2.7852 1.4718 8.25262
2.78515 1.47185 8.22712
2.78544 1.47156 8.27884
2.8005 1.4565 8.26355
2.8005 1.4565 8.2875
2.78544 1.47156 8.27884
2.7852 1.4718 8.25262
2.8005 1.4565 8.26355
2.8005 1.4565 8.2875
2.77036 1.48664 8.2875
2.78544 1.47156 8.27884
2.77036 1.48664 8.2875
2.76997 1.48703 8.26427
2.78544 1.47156 8.27884
2.76997 1.48703 8.26427
2.7852 1.4718 8.25262
2.78544 1.47156 8.27884
2.78517 1.47183 8.10121
2.8005 1.4565 8.08861
2.8005 1.4565 8.11374
2.78514 1.47186 8.20186
2.8005 1.4565 8.18906
2.8005 1.4565 8.21407
2.8005 1.4565 8.23895
2.78515 1.47185 8.22712
2.8005 1.4565 8.21407
2.8005 1.4565 8.21407
2.78515 1.47185 8.22712
2.78514 1.47186 8.20186
2.8005 1.4565 7.93788
2.8005 1.4565 7.96299
2.78519 1.47181 7.95044
2.78518 1.47182 7.62407
2.8005 1.4565 7.63665
2.78518 1.47182 7.6492
2.76985 1.48715 8.06353
2.75454 1.50246 8.05098
2.76986 1.48714 8.03838
2.78516 1.47184 8.12636
2.8005 1.4565 8.13887
2.78516 1.47184 8.15152
2.78516 1.47184 8.12636
2.8005 1.4565 8.11374
2.8005 1.4565 8.13887
2.78516 1.47184 8.12636
2.76984 1.48716 8.11384
2.78517 1.47183 8.10121
2.78517 1.47183 8.10121
2.8005 1.4565 8.11374
2.78516 1.47184 8.12636
2.76982 1.48718 8.16418
2.78515 1.47185 8.17667
2.76981 1.48719 8.18936
2.76982 1.48718 8.16418
2.78516 1.47184 8.15152
2.78515 1.47185 8.17667
2.75451 1.50249 8.12649
2.7392 1.5178 8.13915
2.73921 1.51779 8.11394
2.53996 1.71704 8.25338
2.52458 1.73242 8.2399
2.53996 1.71704 8.22775
2.49374 1.76326 8.0888
2.49375 1.76325 8.114
2.47832 1.77868 8.10139
2.8005 1.4565 7.3875
2.8005 1.4565 7.41145
2.78544 1.47156 7.39616
2.27543 1.98157 8.26433
2.27541 1.98159 8.2875
2.25954 1.99746 8.27932
2.33845 1.91855 8.18946
2.32276 1.93424 8.20214
2.32275 1.93425 8.17685
2.25954 1.99746 8.27932
2.24359 2.01341 8.2875
2.24374 2.01326 8.26423
2.76987 1.48713 7.712
2.75455 1.50245 7.69943
2.76987 1.48713 7.68688
2.8005 1.4565 7.86259
2.78519 1.47181 7.85005
2.8005 1.4565 7.8375
2.78519 1.47181 7.90024
2.8005 1.4565 7.88769
2.8005 1.4565 7.91278
2.76988 1.48712 7.81241
2.75456 1.50244 7.82495
2.75456 1.50244 7.79986
2.76988 1.48712 7.8375
2.75456 1.50244 7.82495
2.76988 1.48712 7.81241
2.78519 1.47181 7.85005
2.76988 1.48712 7.86259
2.76988 1.48712 7.8375
2.75455 1.50245 7.97557
2.76987 1.48713 7.98812
2.75455 1.50245 8.0007
2.72393 1.53307 7.95047
2.72392 1.53308 7.97559
2.70861 1.54839 7.96303
2.75456 1.50244 7.95045
2.73924 1.51776 7.9379
2.75456 1.50244 7.92535
2.75456 1.50244 7.92535
2.76987 1.48713 7.93789
2.75456 1.50244 7.95045
2.73924 1.51776 7.9379
2.73925 1.51775 7.9128
2.75456 1.50244 7.92535
2.75456 1.50244 7.92535
2.73925 1.51775 7.9128
2.75456 1.50244 7.90024
2.8005 1.4565 7.91278
2.8005 1.4565 7.93788
2.78519 1.47181 7.92534
2.78519 1.47181 7.92534
2.78519 1.47181 7.90024
2.8005 1.4565 7.91278
2.78519 1.47181 7.92534
2.8005 1.4565 7.93788
2.78519 1.47181 7.95044
2.78519 1.47181 7.95044
2.76987 1.48713 7.93789
2.78519 1.47181 7.92534
2.75454 1.50246 8.02583
2.73923 1.51777 8.01328
2.75455 1.50245 8.0007
2.75454 1.50246 8.02583
2.76986 1.48714 8.03838
2.75454 1.50246 8.05098
2.7086 1.5484 8.0133
2.72392 1.53308 8.00072
2.72392 1.53308 8.02586
2.72392 1.53308 8.02586
2.72392 1.53308 8.00072
2.73923 1.51777 8.01328
2.8005 1.4565 7.9881
2.78519 1.47181 7.97555
2.8005 1.4565 7.96299
2.75455 1.50245 8.0007
2.76987 1.48713 7.98812
2.76986 1.48714 8.01325
2.76986 1.48714 8.01325
2.75454 1.50246 8.02583
2.75455 1.50245 8.0007
2.76986 1.48714 8.03838
2.75454 1.50246 8.02583
2.76986 1.48714 8.01325
2.78517 1.47183 8.10121
2.76984 1.48716 8.11384
2.76985 1.48715 8.08868
2.76985 1.48715 8.08868
2.78517 1.47183 8.07607
2.78517 1.47183 8.10121
2.76985 1.48715 8.06353
2.78517 1.47183 8.07607
2.76985 1.48715 8.08868
2.73921 1.51779 8.11394
2.73921 1.51779 8.08875
2.75452 1.50248 8.1013
2.75452 1.50248 8.1013
2.75451 1.50249 8.12649
2.73921 1.51779 8.11394
2.76984 1.48716 8.11384
2.75451 1.50249 8.12649
2.75452 1.50248 8.1013
2.75452 1.50248 8.1013
2.76985 1.48715 8.08868
2.76984 1.48716 8.11384
2.7239 1.5331 8.10138
2.73921 1.51779 8.08875
2.73921 1.51779 8.11394
2.7239 1.5331 8.10138
2.70859 1.54841 8.11401
2.70859 1.54841 8.08881
2.76981 1.48719 8.18936
2.76982 1.48718 8.21452
2.75451 1.50249 8.20222
2.75451 1.50249 8.20222
2.76982 1.48718 8.21452
2.75455 1.50245 8.22762
2.7392 1.5178 8.13915
2.75451 1.50249 8.12649
2.75451 1.50249 8.15169
2.75451 1.50249 8.15169
2.7392 1.5178 8.16437
2.7392 1.5178 8.13915
2.67798 1.57902 7.98817
2.66266 1.59434 8.00075
2.66266 1.59434 7.97561
2.70859 1.54841 8.08881
2.70859 1.54841 8.06362
2.7239 1.5331 8.07619
2.7239 1.5331 8.07619
2.7239 1.5331 8.10138
2.70859 1.54841 8.08881
2.73921 1.51779 8.08875
2.7239 1.5331 8.10138
2.7239 1.5331 8.07619
2.73922 1.51778 8.06358
2.73921 1.51779 8.08875
2.7239 1.5331 8.07619
2.57068 1.68632 8.22776
2.57068 1.68632 8.25339
2.55533 1.70167 8.23991
2.55533 1.70167 8.23991
2.57068 1.68632 8.25339
2.55533 1.70167 8.2645
2.55533 1.70167 8.23991
2.55533 1.70167 8.2645
2.53996 1.71704 8.25338
2.53996 1.71704 8.25338
2.53996 1.71704 8.22775
2.55533 1.70167 8.23991
2.52458 1.73242 8.21484
2.53996 1.71704 8.22775
2.52458 1.73242 8.2399
2.50912 1.74788 7.85005
2.50912 1.74788 7.87515
2.49371 1.76329 7.8626
2.41633 1.84067 7.97556
2.40077 1.85623 7.963
2.41632 1.84068 7.95045
2.41635 1.84065 8.02583
2.40081 1.85619 8.03839
2.40079 1.85621 8.01325
2.33845 1.91855 8.18946
2.32275 1.93425 8.17685
2.33843 1.91857 8.16424
2.33845 1.91855 8.21466
2.32276 1.93424 8.20214
2.33845 1.91855 8.18946
2.40087 1.85613 8.13912
2.40088 1.85612 8.16434
2.38531 1.87169 8.15172
2.30693 1.95007 8.08858
2.32265 1.93435 8.07603
2.32267 1.93433 8.1012
2.30684 1.95016 7.98803
2.29108 1.96592 8.00056
2.29106 1.96594 7.97546
2.32274 1.93426 8.27941
2.33845 1.91855 8.2875
2.30701 1.94999 8.2875
2.33845 1.91855 8.26437
2.33845 1.91855 8.2875
2.32274 1.93426 8.27941
2.35411 1.90289 8.27947
2.33845 1.91855 8.2875
2.33845 1.91855 8.26437
2.30704 1.94996 8.21461
2.30703 1.94997 8.23969
2.29128 1.96572 8.22746
2.55533 1.70167 8.2875
2.52458 1.73242 8.2875
2.53996 1.71704 8.27972
2.53996 1.71704 8.25338
2.55533 1.70167 8.2645
2.53996 1.71704 8.27972
2.53996 1.71704 8.27972
2.55533 1.70167 8.2645
2.55533 1.70167 8.2875
2.52458 1.73242 8.26449
2.52458 1.73242 8.2399
2.53996 1.71704 8.25338
2.53996 1.71704 8.25338
2.53996 1.71704 8.27972
2.52458 1.73242 8.26449
2.52458 1.73242 8.26449
2.53996 1.71704 8.27972
2.52458 1.73242 8.2875
2.41642 1.84058 8.15176
2.40088 1.85612 8.16434
2.40087 1.85613 8.13912
2.47831 1.77869 8.0762
2.49374 1.76326 8.06362
2.49374 1.76326 8.0888
2.49374 1.76326 8.0888
2.47832 1.77868 8.10139
2.47831 1.77869 8.0762
2.47833 1.77867 8.1266
2.47832 1.77868 8.10139
2.49375 1.76325 8.114
2.47833 1.77867 8.1266
2.49375 1.76325 8.114
2.49376 1.76324 8.13921
2.49376 1.76324 8.13921
2.47834 1.77866 8.15182
2.47833 1.77867 8.1266
2.47833 1.77867 8.1266
2.47834 1.77866 8.15182
2.46289 1.79411 8.13919
2.49377 1.76323 8.16443
2.47834 1.77866 8.15182
2.49376 1.76324 8.13921
2.49377 1.76323 8.18964
2.47835 1.77865 8.20234
2.47834 1.77866 8.17706
2.47834 1.77866 8.17706
2.49377 1.76323 8.16443
2.49377 1.76323 8.18964
2.47834 1.77866 8.15182
2.49377 1.76323 8.16443
2.47834 1.77866 8.17706
2.7852 1.4718 7.42238
2.78544 1.47156 7.39616
2.8005 1.4565 7.41145
2.76997 1.48703 7.41073
2.78544 1.47156 7.39616
2.7852 1.4718 7.42238
2.64739 1.60961 7.41048
2.64738 1.60962 7.3875
2.66272 1.59428 7.39521
2.70875 1.54825 7.3875
2.6934 1.5636 7.39517
2.67805 1.57895 7.3875
2.67805 1.57895 7.3875
2.66272 1.59428 7.39521
2.64738 1.60962 7.3875
2.19638 2.06062 7.42397
2.1963 2.0607 7.39786
2.2122 2.0448 7.41145
2.2122 2.0448 7.41145
2.22771 2.02929 7.39601
2.22802 2.02898 7.42245
2.18073 2.07627 7.41282
2.1963 2.0607 7.39786
2.19638 2.06062 7.42397
2.18073 2.07627 7.41282
2.18123 2.07577 7.3875
2.1963 2.0607 7.39786
2.27543 1.98157 7.41067
2.27541 1.98159 7.3875
2.29123 1.96577 7.39563
2.30701 1.94999 7.3875
[...]
<PointData Scalars="View Factor" >
<DataArray type="Float64" Name="View Factor" NumberOfComponents="1" format="ascii">
0.000916151
0.000916151
0.000916151
0.000917304
0.000917304
0.000917304
0.000916957
0.000916957
0.000916957
0.000893183
0.000893183
0.000893183
0.000902301
0.000902301
0.000902301
0.000931325
0.000931325
0.000931325
0.000915892
0.000915892
0.000915892
0.000914942
0.000914942
0.000914942
0.000928128
0.000928128
0.000928128
0.000928349
0.000928349
0.000928349
0.000940215
0.000940215
0.000940215
0.000916271
0.000916271
0.000916271
0.000916707
0.000916707
0.000916707
0.000940439
0.000940439
0.000940439
0.000965102
0.000965102
0.000965102
0.000917448
0.000917448
0.000917448
0.0009291
0.0009291
0.0009291
0.000928993
0.000928993
0.000928993
0.000709753
0.000709753
0.000709753
0.000883349
0.000883349
0.000883349
0.000883535
0.000883535
0.000883535
0.00083017
0.00083017
0.00083017
0.000345098
0.000345098
0.000345098
0.00052788
0.00052788
0.00052788
0.000928668
0.000928668
0.000928668
0.000928472
0.000928472
0.000928472
0.00094068
0.00094068
0.00094068
0.000952964
0.000952964
0.000952964
0.000977514
0.000977514
0.000977514
0.000965462
0.000965462
0.000965462
0.000969071
0.000969071
0.000969071
0.000952649
0.000952649
0.000952649
0.000953077
0.000953077
0.000953077
0.000894666
0.000894666
0.000894666
0.000940924
0.000940924
0.000940924
0.000952922
0.000952922
0.000952922
0.000940834
0.000940834
0.000940834
0.000830404
0.000830404
0.000830404
0.000709409
0.000709409
0.000709409
0.000838898
0.000838898
0.000838898
0.000905795
0.000905795
0.000905795
0.000905969
0.000905969
0.000905969
0.000882905
0.000882905
0.000882905
0.000894506
0.000894506
0.000894506
0.000905184
0.000905184
0.000905184
0.000905409
0.000905409
0.000905409
0.00084765
0.00084765
0.00084765
0.000645869
0.000645869
0.000645869
0.00055162
0.00055162
0.00055162
0.000638926
0.000638926
0.000638926
0.000525203
0.000525203
0.000525203
0.000500708
0.000500708
0.000500708
0.000526585
0.000526585
0.000526585
0.000707249
0.000707249
0.000707249
0.000790758
0.000790758
0.000790758
0.000810277
0.000810277
0.000810277
0.0007416
0.0007416
0.0007416
0.000751128
0.000751128
0.000751128
0.000770424
0.000770424
0.000770424
0.000807823
0.000807823
0.000807823
0.000754993
0.000754993
0.000754993
0.00077757
0.00077757
0.00077757
0.000788173
0.000788173
0.000788173
0.000767564
0.000767564
0.000767564
0.000768103
0.000768103
0.000768103
0.000820263
0.000820263
0.000820263
0.000809996
0.000809996
0.000809996
0.000820005
0.000820005
0.000820005
0.000809392
0.000809392
0.000809392
0.000806855
0.000806855
0.000806855
0.000828104
0.000828104
0.000828104
0.000773881
0.000773881
0.000773881
0.000784875
0.000784875
0.000784875
0.000840701
0.000840701
0.000840701
0.00081829
0.00081829
0.00081829
0.000817864
0.000817864
0.000817864
0.000828493
0.000828493
0.000828493
0.000871624
0.000871624
0.000871624
0.000871895
0.000871895
0.000871895
0.000860757
0.000860757
0.000860757
0.000837096
0.000837096
0.000837096
0.000848151
0.000848151
0.000848151
0.000859729
0.000859729
0.000859729
0.000860109
0.000860109
0.000860109
0.000825601
0.000825601
0.000825601
0.000802599
0.000802599
0.000802599
0.00090463
0.00090463
0.00090463
0.000904416
0.000904416
0.000904416
0.000858877
0.000858877
0.000858877
0.000858419
0.000858419
0.000858419
0.000710165
0.000710165
0.000710165
0.000792632
0.000792632
0.000792632
0.000803294
0.000803294
0.000803294
0.000814709
0.000814709
0.000814709
0.000815307
0.000815307
0.000815307
0.00068248
0.00068248
0.00068248
0.000680573
0.000680573
0.000680573
0.000668282
0.000668282
0.000668282
0.000658064
0.000658064
0.000658064
0.000635642
0.000635642
0.000635642
0.000506174
0.000506174
0.000506174
0.000448214
0.000448214
0.000448214
0.000461995
0.000461995
0.000461995
0.000497497
0.000497497
0.000497497
0.000503698
0.000503698
0.000503698
0.000491193
0.000491193
0.000491193
0.000476968
0.000476968
0.000476968
0.000455178
0.000455178
0.000455178
0.000524968
0.000524968
0.000524968
0.000522721
0.000522721
0.000522721
0.000522555
0.000522555
0.000522555
0.000510931
0.000510931
0.000510931
0.000666731
0.000666731
0.000666731
0.000666582
0.000666582
0.000666582
0.000676626
0.000676626
0.000676626
0.000643735
0.000643735
0.000643735
0.000654225
0.000654225
0.000654225
0.000651767
0.000651767
0.000651767
0.000491373
0.000491373
0.000491373
0.00054482
0.00054482
0.00054482
0.000542568
0.000542568
0.000542568
0.00054936
0.00054936
0.00054936
0.000558528
0.000558528
0.000558528
0.000556267
0.000556267
0.000556267
0.000544732
0.000544732
0.000544732
0.000565574
0.000565574
0.000565574
0.000570412
0.000570412
0.000570412
0.000572704
0.000572704
0.000572704
0.000563288
0.000563288
0.000563288
0.000638261
0.000638261
0.000638261
0.000630001
0.000630001
0.000630001
0.000524607
0.000524607
0.000524607
0.000555209
0.000555209
0.000555209
0.00053089
0.00053089
0.00053089
0.000353698
0.000353698
0.000353698
0.000352072
0.000352072
0.000352072
0.000354551
0.000354551
0.000354551
0.000353017
0.000353017
0.000353017
0.000346987
0.000346987
0.000346987
0.000344201
0.000344201
0.000344201
0.000345351
0.000345351
0.000345351
0.00038209
0.00038209
0.00038209
0.000383816
0.000383816
0.000383816
0.000523259
0.000523259
0.000523259
0.00051438
0.00051438
0.00051438
0.000517288
0.000517288
0.000517288
0.000453194
0.000453194
0.000453194
0.000455651
0.000455651
0.000455651
0.000489555
0.000489555
0.000489555
0.000701027
0.000701027
0.000701027
0.000771818
0.000771818
0.000771818
0.000724419
0.000724419
0.000724419
0.000723925
0.000723925
0.000723925
0.000715778
0.000715778
0.000715778
0.000715279
0.000715279
0.000715279
0.000705675
0.000705675
0.000705675
0.000696698
0.000696698
0.000696698
0.00069726
0.00069726
0.00069726
0.000706747
0.000706747
0.000706747
0.00044359
0.00044359
0.00044359
0.000441837
0.000441837
0.000441837
0.000434019
0.000434019
0.000434019
0.000688413
0.000688413
0.000688413
0.000718237
0.000718237
0.000718237
0.000690784
0.000690784
0.000690784
0.000669444
0.000669444
0.000669444
0.000733565
0.000733565
0.000733565
0.000654461
0.000654461
0.000654461
0.000677234
0.000677234
0.000677234
0.000668073
0.000668073
0.000668073
0.000657906
0.000657906
0.000657906
0.000656797
0.000656797
0.000656797
0.000731636
0.000731636
0.000731636
0.000781217
0.000781217
0.000781217
0.000780919
0.000780919
0.000780919
0.000770821
0.000770821
0.000770821
0.000761158
0.000761158
0.000761158
0.000761538
0.000761538
0.000761538
0.000771512
0.000771512
0.000771512
0.000588412
0.000588412
0.000588412
0.000589861
0.000589861
0.000589861
0.000641085
0.000641085
0.000641085
0.000649976
0.000649976
0.000649976
0.00064886
0.00064886
0.00064886
0.000638766
0.000638766
0.000638766
0.000582797
0.000582797
0.000582797
0.000574418
0.000574418
0.000574418
0.000571407
0.000571407
0.000571407
0.000581338
0.000581338
0.000581338
0.000631114
0.000631114
0.000631114
0.000629913
0.000629913
0.000629913
0.000819082
0.000819082
0.000819082
0.00080827
0.00080827
0.00080827
0.000797935
0.000797935
0.000797935
0.000819422
0.000819422
0.000819422
0.000809041
0.000809041
0.000809041
0.000798365
0.000798365
0.000798365
0.000765714
0.000765714
0.000765714
0.000787199
0.000787199
0.000787199
0.000777013
0.000777013
0.000777013
0.000766351
0.000766351
0.000766351
0.000715808
0.000715808
0.000715808
0.00072705
0.00072705
0.00072705
0.000716666
0.000716666
0.000716666
0.000799515
0.000799515
0.000799515
0.000779021
0.000779021
0.000779021
0.000789432
0.000789432
0.000789432
0.000778574
0.000778574
0.000778574
0.000788625
0.000788625
0.000788625
0.000799168
0.000799168
0.000799168
0.000796435
0.000796435
0.000796435
0.0007855
0.0007855
0.0007855
0.000775219
0.000775219
0.000775219
0.000796952
0.000796952
0.000796952
0.000775838
0.000775838
0.000775838
0.000786637
0.000786637
0.000786637
0.000764363
0.000764363
0.000764363
0.000754273
0.000754273
0.000754273
0.000743492
0.000743492
0.000743492
0.000763648
0.000763648
0.000763648
0.000806347
0.000806347
0.000806347
0.000795274
0.000795274
0.000795274
0.000816955
0.000816955
0.000816955
0.000816444
0.000816444
0.000816444
0.000773136
0.000773136
0.000773136
0.000829554
0.000829554
0.000829554
0.000840439
0.000840439
0.000840439
0.000851162
0.000851162
0.000851162
0.000829237
0.000829237
0.000829237
0.000872575
0.000872575
0.000872575
0.000850128
0.000850128
0.000850128
0.000872376
0.000872376
0.000872376
0.000861067
0.000861067
0.000861067
0.000861784
0.000861784
0.000861784
0.000850966
0.000850966
0.000850966
0.000839941
0.000839941
0.000839941
0.000839583
0.000839583
0.000839583
0.000850396
0.000850396
0.000850396
0.000861559
0.000861559
0.000861559
0.000826661
0.000826661
0.000826661
0.000849386
0.000849386
0.000849386
0.000837572
0.000837572
0.000837572
0.000849007
0.000849007
0.000849007
0.000827162
0.000827162
0.000827162
0.000838454
0.000838454
0.000838454
0.000836009
0.000836009
0.000836009
0.000825016
0.000825016
0.000825016
0.000813456
0.000813456
0.000813456
0.00089324
0.00089324
0.00089324
0.000869346
0.000869346
0.000869346
0.000881646
0.000881646
0.000881646
0.000869785
0.000869785
0.000869785
0.000892907
0.000892907
0.000892907
0.000880903
0.000880903
0.000880903
0.000903394
0.000903394
0.000903394
0.000903865
0.000903865
0.000903865
0.000890827
0.000890827
0.000890827
0.000890996
0.000890996
0.000890996
0.000879251
0.000879251
0.000879251
0.000880512
0.000880512
0.000880512
0.000879635
0.000879635
0.000879635
0.000892273
0.000892273
0.000892273
0.000891861
0.000891861
0.000891861
0.000870596
0.000870596
0.000870596
0.000894048
0.000894048
0.000894048
0.000893806
0.000893806
0.000893806
0.000882
0.000882
0.000882
0.000882607
0.000882607
0.000882607
0.000870946
0.000870946
0.000870946
0.000626824
0.000626824
0.000626824
0.000617702
0.000617702
0.000617702
0.000658776
0.000658776
0.000658776
0.000637467
0.000637467
0.000637467
0.000720004
0.000720004
0.000720004
0.000704216
0.000704216
0.000704216
0.000689075
0.000689075
0.000689075
0.000691331
0.000691331
0.000691331
0.000504188
0.000504188
0.000504188
0.000516241
0.000516241
0.000516241
0.000569874
0.000569874
0.000569874
0.000578357
0.000578357
0.000578357
0.000445436
0.000445436
0.000445436
0.000467475
0.000467475
0.000467475
0.000450882
0.000450882
0.000450882
0.000437464
0.000437464
0.000437464
0.000440325
0.000440325
0.000440325
0.000437612
0.000437612
0.000437612
0.00049456
0.00049456
0.00049456
0.000506983
0.000506983
0.000506983
0.000507263
0.000507263
0.000507263
0.000510554
0.000510554
0.000510554
0.000497312
0.000497312
0.000497312
0.000494192
0.000494192
0.000494192
0.00049714
0.00049714
0.00049714
0.0004941
0.0004941
0.0004941
0.000479059
0.000479059
0.000479059
0.000479041
0.000479041
0.000479041
0.000479277
0.000479277
0.000479277
0.000479475
0.000479475
0.000479475
0.000476676
0.000476676
0.000476676
0.000467441
0.000467441
0.000467441
0.000491013
0.000491013
0.000491013
0.000491018
0.000491018
0.000491018
0.00047424
0.00047424
0.00047424
0.000471197
0.000471197
0.000471197
0.000465216
0.000465216
0.000465216
0.000452241
0.000452241
0.000452241
0.000524425
0.000524425
0.000524425
0.000524554
0.000524554
0.000524554
0.000500989
0.000500989
0.000500989
0.000504266
0.000504266
0.000504266
0.000629384
0.000629384
0.000629384
0.000639349
0.000639349
0.000639349
0.000512008
0.000512008
0.000512008
0.000509733
0.000509733
0.000509733
0.000549157
0.000549157
0.000549157
0.000555664
0.000555664
0.000555664
0.000535605
0.000535605
0.000535605
0.000537969
0.000537969
0.000537969
0.000558579
0.000558579
0.000558579
0.000534923
0.000534923
0.000534923
0.000628537
0.000628537
0.000628537
0.000622655
0.000622655
0.000622655
0.000588783
0.000588783
0.000588783
0.000589862
0.000589862
0.000589862
0.000579634
0.000579634
0.000579634
0.00034923
0.00034923
0.00034923
0.00035137
0.00035137
0.00035137
0.000346815
0.000346815
0.000346815
0.0003486
0.0003486
0.0003486
0.000350099
0.000350099
0.000350099
0.000347483
0.000347483
0.000347483
0.000349541
0.000349541
0.000349541
0.000351362
0.000351362
0.000351362
0.00035454
0.00035454
0.00035454
0.000357753
0.000357753
0.000357753
0.000355351
0.000355351
0.000355351
0.000351418
0.000351418
0.000351418
0.000350602
0.000350602
0.000350602
0.000350911
0.000350911
0.000350911
0.000348676
0.000348676
0.000348676
0.000369082
0.000369082
0.000369082
0.000423844
0.000423844
0.000423844
0.000372898
0.000372898
0.000372898
0.000418001
0.000418001
0.000418001
0.000413179
0.000413179
0.000413179
0.000415072
0.000415072
0.000415072
0.000411225
0.000411225
0.000411225
0.00041409
0.00041409
0.00041409
0.000394578
0.000394578
0.000394578
0.000405581
0.000405581
0.000405581
0.000440044
0.000440044
0.000440044
0.000422431
0.000422431
0.000422431
0.000424544
0.000424544
0.000424544
0.000378102
0.000378102
0.000378102
0.000377444
0.000377444
0.000377444
0.000379557
0.000379557
0.000379557
0.000380354
0.000380354
0.000380354
0.000382948
0.000382948
0.000382948
0.000385036
0.000385036
0.000385036
0.000385688
0.000385688
0.000385688
0.000381348
0.000381348
0.000381348
0.000383025
0.000383025
0.000383025
0.000412006
0.000412006
0.000412006
0.000414464
0.000414464
0.000414464
0.000425104
0.000425104
0.000425104
0.000419488
0.000419488
0.000419488
0.000417042
0.000417042
0.000417042
0.000414516
0.000414516
0.000414516
0.000455927
0.000455927
0.000455927
0.000440565
0.000440565
0.000440565
0.000415803
0.000415803
0.000415803
0.000413196
0.000413196
0.000413196
0.000519863
0.000519863
0.000519863
0.000520138
0.000520138
0.000520138
0.000516911
0.000516911
0.000516911
0.000513618
0.000513618
0.000513618
0.000523635
0.000523635
0.000523635
0.000520899
0.000520899
0.000520899
0.000526076
0.000526076
0.000526076
0.000524614
0.000524614
0.000524614
0.000521383
0.000521383
0.000521383
0.000453775
0.000453775
0.000453775
0.000459187
0.000459187
0.000459187
0.000455916
0.000455916
0.000455916
0.000458652
0.000458652
0.000458652
0.000464777
0.000464777
0.000464777
0.000462293
0.000462293
0.000462293
0.000459211
0.000459211
0.000459211
0.000460512
0.000460512
0.000460512
0.000466069
0.000466069
0.000466069
0.000462942
0.000462942
0.000462942
0.000466806
0.000466806
0.000466806
0.000486352
0.000486352
0.000486352
0.000480056
0.000480056
0.000480056
0.000479332
0.000479332
0.000479332
0.000476146
0.000476146
0.000476146
0.000490027
0.000490027
0.000490027
0.000527365
0.000527365
0.000527365
0.000530274
0.000530274
0.000530274
0.000529133
0.000529133
0.000529133
0.00051486
0.00051486
0.00051486
0.000518252
0.000518252
0.000518252
0.000522554
0.000522554
0.000522554
0.000523241
0.000523241
0.000523241
0.000518834
0.000518834
0.000518834
0.000516
0.000516
0.000516
0.000580571
0.000580571
0.000580571
0.000573482
0.000573482
0.000573482
0.000565318
0.000565318
0.000565318
0.000564175
0.000564175
0.000564175
0.000540875
0.000540875
0.000540875
0.000549018
0.000549018
0.000549018
0.00055598
0.00055598
0.00055598
0.000505964
0.000505964
0.000505964
0.000629599
0.000629599
0.000629599
0.00062129
0.00062129
0.00062129
0.000596496
0.000596496
0.000596496
0.000604753
0.000604753
0.000604753
0.0007332
0.0007332
0.0007332
0.000732698
0.000732698
0.000732698
0.000742073
0.000742073
0.000742073
0.00075198
0.00075198
0.00075198
0.000753432
0.000753432
0.000753432
0.000734087
0.000734087
0.000734087
0.000714203
0.000714203
0.000714203
0.000694759
0.000694759
0.000694759
0.000695425
0.000695425
0.000695425
0.000705082
0.000705082
0.000705082
0.000499856
0.000499856
0.000499856
0.000503451
0.000503451
0.000503451
0.000474521
0.000474521
0.000474521
0.000463783
0.000463783
0.000463783
0.000454762
0.000454762
0.000454762
0.000447614
0.000447614
0.000447614
0.000465548
0.000465548
0.000465548
0.000449448
0.000449448
0.000449448
0.000458361
0.000458361
0.000458361
0.000471054
0.000471054
0.000471054
0.000452911
0.000452911
0.000452911
0.000449103
0.000449103
0.000449103
0.000367474
0.000367474
0.000367474
0.000438655
0.000438655
0.000438655
0.000375988
0.000375988
0.000375988
0.000551702
0.000551702
0.000551702
0.00050522
0.00050522
0.00050522
0.000497512
0.000497512
0.000497512
0.000504246
0.000504246
0.000504246
0.000515022
0.000515022
0.000515022
0.000513456
0.000513456
0.000513456
0.000448612
0.000448612
0.000448612
0.000516481
0.000516481
0.000516481
0.000497714
0.000497714
0.000497714
0.000490618
0.000490618
0.000490618
0.000482474
0.000482474
0.000482474
0.000475939
0.000475939
0.000475939
0.0004762
0.0004762
0.0004762
0.000497125
0.000497125
0.000497125
0.00047946
0.00047946
0.00047946
0.000698361
0.000698361
0.000698361
0.000688988
0.000688988
0.000688988
0.000558296
0.000558296
0.000558296
0.000576893
0.000576893
0.000576893
0.00056884
0.00056884
0.00056884
0.000559594
0.000559594
0.000559594
0.000611012
0.000611012
0.000611012
0.00059667
0.00059667
0.00059667
0.000642166
0.000642166
0.000642166
0.000717864
0.000717864
0.000717864
0.000726846
0.000726846
0.000726846
0.000735578
0.000735578
0.000735578
0.000716686
0.000716686
0.000716686
0.000717143
0.000717143
0.000717143
0.000726527
0.000726527
0.000726527
0.00074444
0.00074444
0.00074444
0.000744112
0.000744112
0.000744112
0.000734498
0.000734498
0.000734498
0.000725329
0.000725329
0.000725329
0.000725734
0.000725734
0.000725734
0.000735231
0.000735231
0.000735231
0.000800178
0.000800178
0.000800178
0.000789826
0.000789826
0.000789826
0.000779882
0.000779882
0.000779882
0.000800444
0.000800444
0.000800444
0.000780246
0.000780246
0.000780246
0.000790469
0.000790469
0.000790469
0.000682391
0.000682391
0.000682391
0.000670656
0.000670656
0.000670656
0.000681264
0.000681264
0.000681264
0.00067299
0.00067299
0.00067299
0.000722861
0.000722861
0.000722861
0.000701471
0.000701471
0.000701471
0.000711174
0.000711174
0.000711174
0.000721936
0.000721936
0.000721936
0.000692945
0.000692945
0.000692945
0.000702503
0.000702503
0.000702503
0.000713132
0.000713132
0.000713132
0.00071407
0.00071407
0.00071407
0.000707967
0.000707967
0.000707967
0.000687473
0.000687473
0.000687473
0.000707142
0.000707142
0.000707142
0.000696832
0.000696832
0.000696832
0.00072777
0.00072777
0.00072777
0.000718224
0.000718224
0.000718224
0.000660019
0.000660019
0.000660019
0.00066908
0.00066908
0.00066908
0.000664809
0.000664809
0.000664809
0.000674093
0.000674093
0.000674093
0.000676214
0.000676214
0.000676214
0.000665921
0.000665921
0.000665921
0.00068505
0.00068505
0.00068505
0.000684299
0.000684299
0.000684299
0.000691016
0.000691016
0.000691016
0.00072228
0.00072228
0.00072228
0.000722855
0.000722855
0.000722855
0.000703848
0.000703848
0.000703848
0.000713624
0.000713624
0.000713624
0.000661294
0.000661294
0.000661294
0.000662513
0.000662513
0.000662513
0.000653256
0.000653256
0.000653256
0.000642856
0.000642856
0.000642856
0.000641577
0.000641577
0.000641577
0.00065076
0.00065076
0.00065076
0.000649466
0.000649466
0.000649466
0.000638877
0.000638877
0.000638877
0.000645376
0.000645376
0.000645376
0.000646577
0.000646577
0.000646577
0.000637569
0.000637569
0.000637569
0.000627423
0.000627423
0.000627423
0.00059703
0.00059703
0.00059703
0.000607158
0.000607158
0.000607158
0.000622368
0.000622368
0.000622368
0.000605127
0.000605127
0.000605127
0.000599864
0.000599864
0.000599864
0.000619891
0.000619891
0.000619891
0.000608532
0.000608532
0.000608532
0.000618608
0.000618608
0.000618608
0.000579955
0.000579955
0.000579955
0.000511278
0.000511278
0.000511278
0.000509511
0.000509511
0.000509511
0.000564606
0.000564606
0.000564606
0.000563057
0.000563057
0.000563057
0.000725452
0.000725452
0.000725452
0.000724642
0.000724642
0.000724642
0.000745056
0.000745056
0.000745056
0.000734407
0.000734407
0.000734407
0.000747186
0.000747186
0.000747186
0.000736729
0.000736729
0.000736729
0.000757034
0.000757034
0.000757034
0.000735966
0.000735966
0.000735966
0.000756379
0.000756379
0.000756379
0.000745792
0.000745792
0.000745792
0.000771616
0.000771616
0.000771616
0.000794633
0.000794633
0.000794633
0.0007835
0.0007835
0.0007835
0.000805233
0.000805233
0.000805233
0.00078281
0.00078281
0.00078281
0.000804637
0.000804637