<VTKFile type="UnstructuredGrid" version="1.0">
<UnstructuredGrid>
<Piece NumberOfPoints="8859" NumberOfCells="2953">
<Points>
<DataArray type="Float64" NumberOfComponents="3" format="ascii">
2.04744 2.20956 9.27262
2.06275 2.19425 9.28458
2.04754 2.20946 9.29833
2.07804 2.17896 9.22167
2.07805 2.17895 9.19652
2.0934 2.1636 9.20898
2.06271 2.19429 9.23436
2.07804 2.17896 9.22167
2.07804 2.17896 9.24686
2.01701 2.23999 9.32488
2.03242 2.22458 9.3325
2.00164 2.25536 9.3325
2.01701 2.23999 9.32488
2.03232 2.22468 9.30957
2.03242 2.22458 9.3325
2.04777 2.20923 9.32479
2.06326 2.19374 9.3325
2.03242 2.22458 9.3325
2.04777 2.20923 9.32479
2.03232 2.22468 9.30957
2.04754 2.20946 9.29833
2.03242 2.22458 9.3325
2.03232 2.22468 9.30957
2.04777 2.20923 9.32479
2.04754 2.20946 9.29833
2.06275 2.19425 9.28458
2.06287 2.19413 9.30927
2.06287 2.19413 9.30927
2.04777 2.20923 9.32479
2.04754 2.20946 9.29833
2.06326 2.19374 9.3325
2.04777 2.20923 9.32479
2.06287 2.19413 9.30927
2.06275 2.19425 9.28458
2.04744 2.20956 9.27262
2.06271 2.19429 9.25952
2.06271 2.19429 9.23436
2.07804 2.17896 9.24686
2.06271 2.19429 9.25952
2.07809 2.17891 9.29762
2.06287 2.19413 9.30927
2.06275 2.19425 9.28458
2.0934 2.1636 9.28395
2.0934 2.1636 9.30855
2.07809 2.17891 9.29762
2.0934 2.1636 9.18387
2.0934 2.1636 9.20898
2.07805 2.17895 9.19652
2.07804 2.17896 9.22167
2.0934 2.1636 9.20898
2.0934 2.1636 9.23406
2.0934 2.1636 9.23406
2.07804 2.17896 9.24686
2.07804 2.17896 9.22167
2.0934 2.1636 8.65652
2.0934 2.1636 8.68165
2.07807 2.17893 8.66907
2.07807 2.17893 9.12107
2.0934 2.1636 9.13361
2.07806 2.17894 9.14621
2.0934 2.1636 9.10848
2.0934 2.1636 9.13361
2.07807 2.17893 9.12107
2.07808 2.17892 8.99544
2.0934 2.1636 9.00799
2.07808 2.17892 9.02055
1.61564 2.64136 8.44059
1.63134 2.62566 8.4325
1.63134 2.62566 8.45563
1.5683 2.6887 9.3325
1.53648 2.72052 9.3325
1.55243 2.70457 9.32432
2.07804 2.17896 9.27212
2.06271 2.19429 9.25952
2.07804 2.17896 9.24686
2.06275 2.19425 9.28458
2.06271 2.19429 9.25952
2.07804 2.17896 9.27212
2.07804 2.17896 9.27212
2.07809 2.17891 9.29762
2.06275 2.19425 9.28458
2.0934 2.1636 9.28395
2.07809 2.17891 9.29762
2.07804 2.17896 9.27212
2.07833 2.17867 9.32384
2.0934 2.1636 9.30855
2.0934 2.1636 9.3325
2.07833 2.17867 9.32384
2.07809 2.17891 9.29762
2.0934 2.1636 9.30855
2.0934 2.1636 9.3325
2.06326 2.19374 9.3325
2.07833 2.17867 9.32384
2.06326 2.19374 9.3325
2.06287 2.19413 9.30927
2.07833 2.17867 9.32384
2.06287 2.19413 9.30927
2.07809 2.17891 9.29762
2.07833 2.17867 9.32384
2.07806 2.17894 9.14621
2.0934 2.1636 9.13361
2.0934 2.1636 9.15874
2.07804 2.17896 9.24686
2.0934 2.1636 9.23406
2.0934 2.1636 9.25907
2.0934 2.1636 9.28395
2.07804 2.17896 9.27212
2.0934 2.1636 9.25907
2.0934 2.1636 9.25907
2.07804 2.17896 9.27212
2.07804 2.17896 9.24686
2.0934 2.1636 8.98289
2.0934 2.1636 9.00799
2.07808 2.17892 8.99544
2.07807 2.17893 8.66907
2.0934 2.1636 8.68165
2.07807 2.17893 8.6942
2.06275 2.19425 9.10853
2.04743 2.20957 9.09598
2.06275 2.19425 9.08338
2.07806 2.17894 9.17136
2.0934 2.1636 9.18387
2.07805 2.17895 9.19652
2.07806 2.17894 9.17136
2.0934 2.1636 9.15874
2.0934 2.1636 9.18387
2.07806 2.17894 9.17136
2.06273 2.19427 9.15884
2.07806 2.17894 9.14621
2.07806 2.17894 9.14621
2.0934 2.1636 9.15874
2.07806 2.17894 9.17136
2.06271 2.19429 9.20918
2.07804 2.17896 9.22167
2.06271 2.19429 9.23436
2.06271 2.19429 9.20918
2.07805 2.17895 9.19652
2.07804 2.17896 9.22167
2.04741 2.20959 9.17149
2.03209 2.22491 9.18415
2.0321 2.2249 9.15894
1.83285 2.42415 9.29838
1.81747 2.43953 9.2849
1.83285 2.42415 9.27275
1.78664 2.47036 9.1338
1.78664 2.47036 9.159
1.77121 2.48579 9.14639
2.0934 2.1636 8.4325
2.0934 2.1636 8.45645
2.07833 2.17867 8.44116
1.56833 2.68867 9.30933
1.5683 2.6887 9.3325
1.55243 2.70457 9.32432
1.63134 2.62566 9.23446
1.61565 2.64135 9.24714
1.61564 2.64136 9.22185
1.55243 2.70457 9.32432
1.53648 2.72052 9.3325
1.53664 2.72036 9.30923
2.06276 2.19424 8.757
2.04745 2.20955 8.74443
2.06276 2.19424 8.73188
2.0934 2.1636 8.90759
2.07808 2.17892 8.89505
2.0934 2.1636 8.8825
2.07808 2.17892 8.94524
2.0934 2.1636 8.93269
2.0934 2.1636 8.95778
2.06277 2.19423 8.85741
2.04745 2.20955 8.86995
2.04745 2.20955 8.84486
2.06277 2.19423 8.8825
2.04745 2.20955 8.86995
2.06277 2.19423 8.85741
2.07808 2.17892 8.89505
2.06277 2.19423 8.90759
2.06277 2.19423 8.8825
2.04745 2.20955 9.02057
2.06276 2.19424 9.03312
2.04744 2.20956 9.0457
2.01682 2.24018 8.99547
2.01682 2.24018 9.02059
2.0015 2.2555 9.00803
2.04745 2.20955 8.99545
2.03214 2.22486 8.9829
2.04745 2.20955 8.97035
2.04745 2.20955 8.97035
2.06277 2.19423 8.98289
2.04745 2.20955 8.99545
2.03214 2.22486 8.9829
2.03214 2.22486 8.9578
2.04745 2.20955 8.97035
2.04745 2.20955 8.97035
2.03214 2.22486 8.9578
2.04745 2.20955 8.94524
2.0934 2.1636 8.95778
2.0934 2.1636 8.98289
2.07808 2.17892 8.97034
2.07808 2.17892 8.97034
2.07808 2.17892 8.94524
2.0934 2.1636 8.95778
2.07808 2.17892 8.97034
2.0934 2.1636 8.98289
2.07808 2.17892 8.99544
2.07808 2.17892 8.99544
2.06277 2.19423 8.98289
2.07808 2.17892 8.97034
2.04744 2.20956 9.07083
2.03213 2.22487 9.05828
2.04744 2.20956 9.0457
2.04744 2.20956 9.07083
2.06275 2.19425 9.08338
2.04743 2.20957 9.09598
2.0015 2.2555 9.0583
2.01681 2.24019 9.04572
2.01681 2.24019 9.07086
2.01681 2.24019 9.07086
2.01681 2.24019 9.04572
2.03213 2.22487 9.05828
2.0934 2.1636 9.0331
2.07808 2.17892 9.02055
2.0934 2.1636 9.00799
2.04744 2.20956 9.0457
2.06276 2.19424 9.03312
2.06276 2.19424 9.05825
2.06276 2.19424 9.05825
2.04744 2.20956 9.07083
2.04744 2.20956 9.0457
2.06275 2.19425 9.08338
2.04744 2.20956 9.07083
2.06276 2.19424 9.05825
2.07806 2.17894 9.14621
2.06273 2.19427 9.15884
2.06274 2.19426 9.13368
2.06274 2.19426 9.13368
2.07807 2.17893 9.12107
2.07806 2.17894 9.14621
2.06275 2.19425 9.10853
2.07807 2.17893 9.12107
2.06274 2.19426 9.13368
2.0321 2.2249 9.15894
2.03211 2.22489 9.13375
2.04742 2.20958 9.1463
2.04742 2.20958 9.1463
2.04741 2.20959 9.17149
2.0321 2.2249 9.15894
2.06273 2.19427 9.15884
2.04741 2.20959 9.17149
2.04742 2.20958 9.1463
2.04742 2.20958 9.1463
2.06274 2.19426 9.13368
2.06273 2.19427 9.15884
2.01679 2.24021 9.14638
2.03211 2.22489 9.13375
2.0321 2.2249 9.15894
2.01679 2.24021 9.14638
2.00148 2.25552 9.15901
2.00148 2.25552 9.13381
2.06271 2.19429 9.23436
2.06271 2.19429 9.25952
2.04741 2.20959 9.24722
2.04741 2.20959 9.24722
2.06271 2.19429 9.25952
2.04744 2.20956 9.27262
2.03209 2.22491 9.18415
2.04741 2.20959 9.17149
2.0474 2.2096 9.19669
2.0474 2.2096 9.19669
2.03209 2.22491 9.20937
2.03209 2.22491 9.18415
1.97087 2.28613 9.03317
1.95555 2.30145 9.04575
1.95555 2.30145 9.02061
2.00148 2.25552 9.13381
2.00149 2.25551 9.10862
2.0168 2.2402 9.12119
2.0168 2.2402 9.12119
2.01679 2.24021 9.14638
2.00148 2.25552 9.13381
2.03211 2.22489 9.13375
2.01679 2.24021 9.14638
2.0168 2.2402 9.12119
2.03211 2.22489 9.10858
2.03211 2.22489 9.13375
2.0168 2.2402 9.12119
1.86358 2.39342 9.27276
1.86358 2.39342 9.29839
1.84822 2.40878 9.28491
1.84822 2.40878 9.28491
1.86358 2.39342 9.29839
1.84822 2.40878 9.3095
1.84822 2.40878 9.28491
1.84822 2.40878 9.3095
1.83285 2.42415 9.29838
1.83285 2.42415 9.29838
1.83285 2.42415 9.27275
1.84822 2.40878 9.28491
1.81747 2.43953 9.25984
1.83285 2.42415 9.27275
1.81747 2.43953 9.2849
1.80202 2.45498 8.89505
1.80202 2.45498 8.92015
1.7866 2.4704 8.9076
1.70922 2.54778 9.02056
1.69367 2.56333 9.008
1.70922 2.54778 8.99545
1.70924 2.54776 9.07083
1.6937 2.5633 9.08339
1.69369 2.56331 9.05825
1.63134 2.62566 9.23446
1.61564 2.64136 9.22185
1.63132 2.62568 9.20924
1.63135 2.62565 9.25966
1.61565 2.64135 9.24714
1.63134 2.62566 9.23446
1.69376 2.56324 9.18412
1.69378 2.56322 9.20934
1.6782 2.5788 9.19672
1.59983 2.65717 9.13358
1.61554 2.64146 9.12103
1.61557 2.64143 9.1462
1.59973 2.65727 9.03303
1.58397 2.67303 9.04556
1.58396 2.67304 9.02046
1.61564 2.64136 9.32441
1.63134 2.62566 9.3325
1.5999 2.6571 9.3325
1.63134 2.62566 9.30937
1.63134 2.62566 9.3325
1.61564 2.64136 9.32441
1.647 2.61 9.32447
1.63134 2.62566 9.3325
1.63134 2.62566 9.30937
1.59993 2.65707 9.25961
1.59992 2.65708 9.28469
1.58418 2.67282 9.27246
1.84822 2.40878 9.3325
1.81747 2.43953 9.3325
1.83285 2.42415 9.32472
1.83285 2.42415 9.29838
1.84822 2.40878 9.3095
1.83285 2.42415 9.32472
1.83285 2.42415 9.32472
1.84822 2.40878 9.3095
1.84822 2.40878 9.3325
1.81747 2.43953 9.30949
1.81747 2.43953 9.2849
1.83285 2.42415 9.29838
1.83285 2.42415 9.29838
1.83285 2.42415 9.32472
1.81747 2.43953 9.30949
1.81747 2.43953 9.30949
1.83285 2.42415 9.32472
1.81747 2.43953 9.3325
1.70931 2.54769 9.19676
1.69378 2.56322 9.20934
1.69376 2.56324 9.18412
1.7712 2.4858 9.1212
1.78663 2.47037 9.10862
1.78664 2.47036 9.1338
1.78664 2.47036 9.1338
1.77121 2.48579 9.14639
1.7712 2.4858 9.1212
1.77122 2.48578 9.1716
1.77121 2.48579 9.14639
1.78664 2.47036 9.159
1.77122 2.48578 9.1716
1.78664 2.47036 9.159
1.78665 2.47035 9.18421
1.78665 2.47035 9.18421
1.77123 2.48577 9.19682
1.77122 2.48578 9.1716
1.77122 2.48578 9.1716
1.77123 2.48577 9.19682
1.75578 2.50122 9.18419
1.78666 2.47034 9.20943
1.77123 2.48577 9.19682
1.78665 2.47035 9.18421
1.78666 2.47034 9.23464
1.77124 2.48576 9.24734
1.77124 2.48576 9.22206
1.77124 2.48576 9.22206
1.78666 2.47034 9.20943
1.78666 2.47034 9.23464
1.77123 2.48577 9.19682
1.78666 2.47034 9.20943
1.77124 2.48576 9.22206
2.07809 2.17891 8.46738
2.07833 2.17867 8.44116
2.0934 2.1636 8.45645
2.06287 2.19413 8.45573
2.07833 2.17867 8.44116
2.07809 2.17891 8.46738
1.94028 2.31672 8.45548
1.94028 2.31672 8.4325
1.95561 2.30139 8.44021
2.00164 2.25536 8.4325
1.98629 2.27071 8.44017
1.97095 2.28605 8.4325
1.97095 2.28605 8.4325
1.95561 2.30139 8.44021
1.94028 2.31672 8.4325
1.48928 2.76772 8.46897
1.48919 2.76781 8.44286
1.50509 2.75191 8.45645
1.50509 2.75191 8.45645
1.5206 2.7364 8.44101
1.52092 2.73608 8.46745
1.47362 2.78338 8.45782
1.48919 2.76781 8.44286
1.48928 2.76772 8.46897
1.47362 2.78338 8.45782
1.47412 2.78288 8.4325
1.48919 2.76781 8.44286
1.56833 2.68867 8.45567
1.5683 2.6887 8.4325
1.58412 2.67288 8.44063
[...]
<PointData Scalars="View Factor" >
<DataArray type="Float64" Name="View Factor" NumberOfComponents="1" format="ascii">
1.05484e-05
1.05484e-05
1.05484e-05
1.06164e-05
1.06164e-05
1.06164e-05
1.05939e-05
1.05939e-05
1.05939e-05
1.05573e-05
1.05573e-05
1.05573e-05
1.05442e-05
1.05442e-05
1.05442e-05
1.04739e-05
1.04739e-05
1.04739e-05
1.05242e-05
1.05242e-05
1.05242e-05
1.05155e-05
1.05155e-05
1.05155e-05
1.05097e-05
1.05097e-05
1.05097e-05
1.04961e-05
1.04961e-05
1.04961e-05
1.04597e-05
1.04597e-05
1.04597e-05
1.05602e-05
1.05602e-05
1.05602e-05
1.05827e-05
1.05827e-05
1.05827e-05
1.0482e-05
1.0482e-05
1.0482e-05
1.04269e-05
1.04269e-05
1.04269e-05
1.06277e-05
1.06277e-05
1.06277e-05
1.05769e-05
1.05769e-05
1.05769e-05
1.05657e-05
1.05657e-05
1.05657e-05
1.17664e-05
1.17664e-05
1.17664e-05
1.07703e-05
1.07703e-05
1.07703e-05
1.07818e-05
1.07818e-05
1.07818e-05
1.10329e-05
1.10329e-05
1.10329e-05
2.20366e-05
2.20366e-05
2.20366e-05
2.02873e-05
2.02873e-05
2.02873e-05
1.05424e-05
1.05424e-05
1.05424e-05
1.05322e-05
1.05322e-05
1.05322e-05
1.04935e-05
1.04935e-05
1.04935e-05
1.04659e-05
1.04659e-05
1.04659e-05
1.03775e-05
1.03775e-05
1.03775e-05
1.04143e-05
1.04143e-05
1.04143e-05
1.03892e-05
1.03892e-05
1.03892e-05
1.04323e-05
1.04323e-05
1.04323e-05
1.04417e-05
1.04417e-05
1.04417e-05
1.07301e-05
1.07301e-05
1.07301e-05
1.05266e-05
1.05266e-05
1.05266e-05
1.04766e-05
1.04766e-05
1.04766e-05
1.05144e-05
1.05144e-05
1.05144e-05
1.10448e-05
1.10448e-05
1.10448e-05
1.17533e-05
1.17533e-05
1.17533e-05
1.09214e-05
1.09214e-05
1.09214e-05
1.06674e-05
1.06674e-05
1.06674e-05
1.06787e-05
1.06787e-05
1.06787e-05
1.07474e-05
1.07474e-05
1.07474e-05
1.07187e-05
1.07187e-05
1.07187e-05
1.06335e-05
1.06335e-05
1.06335e-05
1.06448e-05
1.06448e-05
1.06448e-05
1.08233e-05
1.08233e-05
1.08233e-05
1.39351e-05
1.39351e-05
1.39351e-05
1.54315e-05
1.54315e-05
1.54315e-05
1.22998e-05
1.22998e-05
1.22998e-05
2.00641e-05
2.00641e-05
2.00641e-05
1.90148e-05
1.90148e-05
1.90148e-05
2.0562e-05
2.0562e-05
2.0562e-05
1.16887e-05
1.16887e-05
1.16887e-05
1.12607e-05
1.12607e-05
1.12607e-05
1.11521e-05
1.11521e-05
1.11521e-05
1.14514e-05
1.14514e-05
1.14514e-05
1.14072e-05
1.14072e-05
1.14072e-05
1.13213e-05
1.13213e-05
1.13213e-05
1.10687e-05
1.10687e-05
1.10687e-05
1.12443e-05
1.12443e-05
1.12443e-05
1.12066e-05
1.12066e-05
1.12066e-05
1.11762e-05
1.11762e-05
1.11762e-05
1.1249e-05
1.1249e-05
1.1249e-05
1.12618e-05
1.12618e-05
1.12618e-05
1.10983e-05
1.10983e-05
1.10983e-05
1.114e-05
1.114e-05
1.114e-05
1.10863e-05
1.10863e-05
1.10863e-05
1.11161e-05
1.11161e-05
1.11161e-05
1.10454e-05
1.10454e-05
1.10454e-05
1.09625e-05
1.09625e-05
1.09625e-05
1.11362e-05
1.11362e-05
1.11362e-05
1.11058e-05
1.11058e-05
1.11058e-05
1.09916e-05
1.09916e-05
1.09916e-05
1.10272e-05
1.10272e-05
1.10272e-05
1.10155e-05
1.10155e-05
1.10155e-05
1.09741e-05
1.09741e-05
1.09741e-05
1.07877e-05
1.07877e-05
1.07877e-05
1.07992e-05
1.07992e-05
1.07992e-05
1.08397e-05
1.08397e-05
1.08397e-05
1.08755e-05
1.08755e-05
1.08755e-05
1.08347e-05
1.08347e-05
1.08347e-05
1.08054e-05
1.08054e-05
1.08054e-05
1.08168e-05
1.08168e-05
1.08168e-05
1.09051e-05
1.09051e-05
1.09051e-05
1.09641e-05
1.09641e-05
1.09641e-05
1.06111e-05
1.06111e-05
1.06111e-05
1.06005e-05
1.06005e-05
1.06005e-05
1.07827e-05
1.07827e-05
1.07827e-05
1.07714e-05
1.07714e-05
1.07714e-05
1.13462e-05
1.13462e-05
1.13462e-05
1.10188e-05
1.10188e-05
1.10188e-05
1.09763e-05
1.09763e-05
1.09763e-05
1.09463e-05
1.09463e-05
1.09463e-05
1.09577e-05
1.09577e-05
1.09577e-05
1.3209e-05
1.3209e-05
1.3209e-05
1.32979e-05
1.32979e-05
1.32979e-05
1.35392e-05
1.35392e-05
1.35392e-05
1.3693e-05
1.3693e-05
1.3693e-05
1.40895e-05
1.40895e-05
1.40895e-05
1.57669e-05
1.57669e-05
1.57669e-05
1.77808e-05
1.77808e-05
1.77808e-05
1.76957e-05
1.76957e-05
1.76957e-05
1.89354e-05
1.89354e-05
1.89354e-05
1.88464e-05
1.88464e-05
1.88464e-05
1.75214e-05
1.75214e-05
1.75214e-05
1.96444e-05
1.96444e-05
1.96444e-05
2.05533e-05
2.05533e-05
2.05533e-05
1.87979e-05
1.87979e-05
1.87979e-05
1.85785e-05
1.85785e-05
1.85785e-05
1.83323e-05
1.83323e-05
1.83323e-05
1.9501e-05
1.9501e-05
1.9501e-05
1.36948e-05
1.36948e-05
1.36948e-05
1.36277e-05
1.36277e-05
1.36277e-05
1.3477e-05
1.3477e-05
1.3477e-05
1.40236e-05
1.40236e-05
1.40236e-05
1.38688e-05
1.38688e-05
1.38688e-05
1.39587e-05
1.39587e-05
1.39587e-05
1.72715e-05
1.72715e-05
1.72715e-05
1.55083e-05
1.55083e-05
1.55083e-05
1.55942e-05
1.55942e-05
1.55942e-05
1.55207e-05
1.55207e-05
1.55207e-05
1.5357e-05
1.5357e-05
1.5357e-05
1.54445e-05
1.54445e-05
1.54445e-05
1.56928e-05
1.56928e-05
1.56928e-05
1.52842e-05
1.52842e-05
1.52842e-05
1.52967e-05
1.52967e-05
1.52967e-05
1.521e-05
1.521e-05
1.521e-05
1.53689e-05
1.53689e-05
1.53689e-05
1.22881e-05
1.22881e-05
1.22881e-05
1.23216e-05
1.23216e-05
1.23216e-05
1.31381e-05
1.31381e-05
1.31381e-05
1.26605e-05
1.26605e-05
1.26605e-05
1.28733e-05
1.28733e-05
1.28733e-05
2.56507e-05
2.56507e-05
2.56507e-05
2.507e-05
2.507e-05
2.507e-05
2.59411e-05
2.59411e-05
2.59411e-05
2.6143e-05
2.6143e-05
2.6143e-05
2.35046e-05
2.35046e-05
2.35046e-05
2.23633e-05
2.23633e-05
2.23633e-05
2.32469e-05
2.32469e-05
2.32469e-05
2.5271e-05
2.5271e-05
2.5271e-05
2.50654e-05
2.50654e-05
2.50654e-05
1.90701e-05
1.90701e-05
1.90701e-05
1.9579e-05
1.9579e-05
1.9579e-05
1.94099e-05
1.94099e-05
1.94099e-05
2.09973e-05
2.09973e-05
2.09973e-05
2.08152e-05
2.08152e-05
2.08152e-05
1.99632e-05
1.99632e-05
1.99632e-05
1.18112e-05
1.18112e-05
1.18112e-05
1.13707e-05
1.13707e-05
1.13707e-05
1.1575e-05
1.1575e-05
1.1575e-05
1.15616e-05
1.15616e-05
1.15616e-05
1.16317e-05
1.16317e-05
1.16317e-05
1.1619e-05
1.1619e-05
1.1619e-05
1.16507e-05
1.16507e-05
1.16507e-05
1.16951e-05
1.16951e-05
1.16951e-05
1.17077e-05
1.17077e-05
1.17077e-05
1.16759e-05
1.16759e-05
1.16759e-05
1.59836e-05
1.59836e-05
1.59836e-05
1.60887e-05
1.60887e-05
1.60887e-05
1.62968e-05
1.62968e-05
1.62968e-05
1.17524e-05
1.17524e-05
1.17524e-05
1.17088e-05
1.17088e-05
1.17088e-05
1.16402e-05
1.16402e-05
1.16402e-05
1.21486e-05
1.21486e-05
1.21486e-05
1.13065e-05
1.13065e-05
1.13065e-05
1.2167e-05
1.2167e-05
1.2167e-05
1.15795e-05
1.15795e-05
1.15795e-05
1.16249e-05
1.16249e-05
1.16249e-05
1.1869e-05
1.1869e-05
1.1869e-05
1.19693e-05
1.19693e-05
1.19693e-05
1.14825e-05
1.14825e-05
1.14825e-05
1.13155e-05
1.13155e-05
1.13155e-05
1.13032e-05
1.13032e-05
1.13032e-05
1.13336e-05
1.13336e-05
1.13336e-05
1.13764e-05
1.13764e-05
1.13764e-05
1.13888e-05
1.13888e-05
1.13888e-05
1.13582e-05
1.13582e-05
1.13582e-05
1.35877e-05
1.35877e-05
1.35877e-05
1.34892e-05
1.34892e-05
1.34892e-05
1.20862e-05
1.20862e-05
1.20862e-05
1.19263e-05
1.19263e-05
1.19263e-05
1.20266e-05
1.20266e-05
1.20266e-05
1.22862e-05
1.22862e-05
1.22862e-05
1.3555e-05
1.3555e-05
1.3555e-05
1.37206e-05
1.37206e-05
1.37206e-05
1.39135e-05
1.39135e-05
1.39135e-05
1.36518e-05
1.36518e-05
1.36518e-05
1.23471e-05
1.23471e-05
1.23471e-05
1.24468e-05
1.24468e-05
1.24468e-05
1.10507e-05
1.10507e-05
1.10507e-05
1.10805e-05
1.10805e-05
1.10805e-05
1.11223e-05
1.11223e-05
1.11223e-05
1.10625e-05
1.10625e-05
1.10625e-05
1.11042e-05
1.11042e-05
1.11042e-05
1.11342e-05
1.11342e-05
1.11342e-05
1.12135e-05
1.12135e-05
1.12135e-05
1.11525e-05
1.11525e-05
1.11525e-05
1.11947e-05
1.11947e-05
1.11947e-05
1.12253e-05
1.12253e-05
1.12253e-05
1.14155e-05
1.14155e-05
1.14155e-05
1.13978e-05
1.13978e-05
1.13978e-05
1.14292e-05
1.14292e-05
1.14292e-05
1.117e-05
1.117e-05
1.117e-05
1.12424e-05
1.12424e-05
1.12424e-05
1.12121e-05
1.12121e-05
1.12121e-05
1.12313e-05
1.12313e-05
1.12313e-05
1.11881e-05
1.11881e-05
1.11881e-05
1.1158e-05
1.1158e-05
1.1158e-05
1.10871e-05
1.10871e-05
1.10871e-05
1.11174e-05
1.11174e-05
1.11174e-05
1.11595e-05
1.11595e-05
1.11595e-05
1.10988e-05
1.10988e-05
1.10988e-05
1.11712e-05
1.11712e-05
1.11712e-05
1.11408e-05
1.11408e-05
1.11408e-05
1.11902e-05
1.11902e-05
1.11902e-05
1.12317e-05
1.12317e-05
1.12317e-05
1.12627e-05
1.12627e-05
1.12627e-05
1.11794e-05
1.11794e-05
1.11794e-05
1.10338e-05
1.10338e-05
1.10338e-05
1.10639e-05
1.10639e-05
1.10639e-05
1.09923e-05
1.09923e-05
1.09923e-05
1.09807e-05
1.09807e-05
1.09807e-05
1.11247e-05
1.11247e-05
1.11247e-05
1.10083e-05
1.10083e-05
1.10083e-05
1.09788e-05
1.09788e-05
1.09788e-05
1.09387e-05
1.09387e-05
1.09387e-05
1.09974e-05
1.09974e-05
1.09974e-05
1.08338e-05
1.08338e-05
1.08338e-05
1.0892e-05
1.0892e-05
1.0892e-05
1.08222e-05
1.08222e-05
1.08222e-05
1.08512e-05
1.08512e-05
1.08512e-05
1.08861e-05
1.08861e-05
1.08861e-05
1.09278e-05
1.09278e-05
1.09278e-05
1.09571e-05
1.09571e-05
1.09571e-05
1.09446e-05
1.09446e-05
1.09446e-05
1.09036e-05
1.09036e-05
1.09036e-05
1.08744e-05
1.08744e-05
1.08744e-05
1.0928e-05
1.0928e-05
1.0928e-05
1.08689e-05
1.08689e-05
1.08689e-05
1.08869e-05
1.08869e-05
1.08869e-05
1.08575e-05
1.08575e-05
1.08575e-05
1.09394e-05
1.09394e-05
1.09394e-05
1.09098e-05
1.09098e-05
1.09098e-05
1.08528e-05
1.08528e-05
1.08528e-05
1.08937e-05
1.08937e-05
1.08937e-05
1.09236e-05
1.09236e-05
1.09236e-05
1.06621e-05
1.06621e-05
1.06621e-05
1.07188e-05
1.07188e-05
1.07188e-05
1.07021e-05
1.07021e-05
1.07021e-05
1.0731e-05
1.0731e-05
1.0731e-05
1.06499e-05
1.06499e-05
1.06499e-05
1.06786e-05
1.06786e-05
1.06786e-05
1.05662e-05
1.05662e-05
1.05662e-05
1.05767e-05
1.05767e-05
1.05767e-05
1.05824e-05
1.05824e-05
1.05824e-05
1.05949e-05
1.05949e-05
1.05949e-05
1.06342e-05
1.06342e-05
1.06342e-05
1.06691e-05
1.06691e-05
1.06691e-05
1.06458e-05
1.06458e-05
1.06458e-05
1.0629e-05
1.0629e-05
1.0629e-05
1.06171e-05
1.06171e-05
1.06171e-05
1.07536e-05
1.07536e-05
1.07536e-05
1.06959e-05
1.06959e-05
1.06959e-05
1.06846e-05
1.06846e-05
1.06846e-05
1.07134e-05
1.07134e-05
1.07134e-05
1.0736e-05
1.0736e-05
1.0736e-05
1.07649e-05
1.07649e-05
1.07649e-05
1.31658e-05
1.31658e-05
1.31658e-05
1.33265e-05
1.33265e-05
1.33265e-05
1.24027e-05
1.24027e-05
1.24027e-05
1.29113e-05
1.29113e-05
1.29113e-05
1.1303e-05
1.1303e-05
1.1303e-05
1.2977e-05
1.2977e-05
1.2977e-05
1.32369e-05
1.32369e-05
1.32369e-05
1.31452e-05
1.31452e-05
1.31452e-05
1.58584e-05
1.58584e-05
1.58584e-05
1.55057e-05
1.55057e-05
1.55057e-05
1.40113e-05
1.40113e-05
1.40113e-05
1.38481e-05
1.38481e-05
1.38481e-05
1.79568e-05
1.79568e-05
1.79568e-05
1.86317e-05
1.86317e-05
1.86317e-05
1.78668e-05
1.78668e-05
1.78668e-05
1.92689e-05
1.92689e-05
1.92689e-05
1.96159e-05
1.96159e-05
1.96159e-05
1.95325e-05
1.95325e-05
1.95325e-05
1.91079e-05
1.91079e-05
1.91079e-05
1.89254e-05
1.89254e-05
1.89254e-05
1.91749e-05
1.91749e-05
1.91749e-05
1.92516e-05
1.92516e-05
1.92516e-05
1.86847e-05
1.86847e-05
1.86847e-05
1.86066e-05
1.86066e-05
1.86066e-05
1.81849e-05
1.81849e-05
1.81849e-05
1.83557e-05
1.83557e-05
1.83557e-05
1.84515e-05
1.84515e-05
1.84515e-05
1.81981e-05
1.81981e-05
1.81981e-05
1.89588e-05
1.89588e-05
1.89588e-05
1.92133e-05
1.92133e-05
1.92133e-05
1.93886e-05
1.93886e-05
1.93886e-05
1.83757e-05
1.83757e-05
1.83757e-05
1.80215e-05
1.80215e-05
1.80215e-05
1.82725e-05
1.82725e-05
1.82725e-05
1.98198e-05
1.98198e-05
1.98198e-05
1.97402e-05
1.97402e-05
1.97402e-05
1.95782e-05
1.95782e-05
1.95782e-05
2.04713e-05
2.04713e-05
2.04713e-05
1.80583e-05
1.80583e-05
1.80583e-05
1.73256e-05
1.73256e-05
1.73256e-05
1.92655e-05
1.92655e-05
1.92655e-05
1.93451e-05
1.93451e-05
1.93451e-05
1.44207e-05
1.44207e-05
1.44207e-05
1.41994e-05
1.41994e-05
1.41994e-05
1.60775e-05
1.60775e-05
1.60775e-05
1.61643e-05
1.61643e-05
1.61643e-05
1.53301e-05
1.53301e-05
1.53301e-05
1.58038e-05
1.58038e-05
1.58038e-05
1.58567e-05
1.58567e-05
1.58567e-05
1.57702e-05
1.57702e-05
1.57702e-05
1.55425e-05
1.55425e-05
1.55425e-05
1.60356e-05
1.60356e-05
1.60356e-05
1.23518e-05
1.23518e-05
1.23518e-05
1.23661e-05
1.23661e-05
1.23661e-05
1.24922e-05
1.24922e-05
1.24922e-05
1.25039e-05
1.25039e-05
1.25039e-05
1.25579e-05
1.25579e-05
1.25579e-05
2.46891e-05
2.46891e-05
2.46891e-05
2.47777e-05
2.47777e-05
2.47777e-05
2.41304e-05
2.41304e-05
2.41304e-05
2.43928e-05
2.43928e-05
2.43928e-05
2.41897e-05
2.41897e-05
2.41897e-05
2.38e-05
2.38e-05
2.38e-05
2.38951e-05
2.38951e-05
2.38951e-05
2.36819e-05
2.36819e-05
2.36819e-05
2.51465e-05
2.51465e-05
2.51465e-05
2.55193e-05
2.55193e-05
2.55193e-05
2.54375e-05
2.54375e-05
2.54375e-05
2.55684e-05
2.55684e-05
2.55684e-05
2.52788e-05
2.52788e-05
2.52788e-05
2.58968e-05
2.58968e-05
2.58968e-05
2.50239e-05
2.50239e-05
2.50239e-05
2.27259e-05
2.27259e-05
2.27259e-05
2.24319e-05
2.24319e-05
2.24319e-05
2.23318e-05
2.23318e-05
2.23318e-05
2.47754e-05
2.47754e-05
2.47754e-05
2.48969e-05
2.48969e-05
2.48969e-05
2.46966e-05
2.46966e-05
2.46966e-05
2.43419e-05
2.43419e-05
2.43419e-05
2.44199e-05
2.44199e-05
2.44199e-05
2.53893e-05
2.53893e-05
2.53893e-05
2.41816e-05
2.41816e-05
2.41816e-05
2.4103e-05
2.4103e-05
2.4103e-05
2.28962e-05
2.28962e-05
2.28962e-05
2.27036e-05
2.27036e-05
2.27036e-05
2.38409e-05
2.38409e-05
2.38409e-05
2.35559e-05
2.35559e-05
2.35559e-05
2.44119e-05
2.44119e-05
2.44119e-05
2.46979e-05
2.46979e-05
2.46979e-05
2.47795e-05
2.47795e-05
2.47795e-05
2.27608e-05
2.27608e-05
2.27608e-05
2.56393e-05
2.56393e-05
2.56393e-05
2.57649e-05
2.57649e-05
2.57649e-05
2.55582e-05
2.55582e-05
2.55582e-05
1.89344e-05
1.89344e-05
1.89344e-05
1.87558e-05
1.87558e-05
1.87558e-05
2.0171e-05
2.0171e-05
2.0171e-05
1.83974e-05
1.83974e-05
1.83974e-05
1.83096e-05
1.83096e-05
1.83096e-05
1.84881e-05
1.84881e-05
1.84881e-05
1.70784e-05
1.70784e-05
1.70784e-05
1.74253e-05
1.74253e-05
1.74253e-05
2.09105e-05
2.09105e-05
2.09105e-05
2.08258e-05
2.08258e-05
2.08258e-05
1.87416e-05
1.87416e-05
1.87416e-05
1.89888e-05
1.89888e-05
1.89888e-05
1.91615e-05
1.91615e-05
1.91615e-05
1.90796e-05
1.90796e-05
1.90796e-05
1.93175e-05
1.93175e-05
1.93175e-05
1.94853e-05
1.94853e-05
1.94853e-05
1.95377e-05
1.95377e-05
1.95377e-05
1.98152e-05
1.98152e-05
1.98152e-05
1.97338e-05
1.97338e-05
1.97338e-05
2.39457e-05
2.39457e-05
2.39457e-05
2.383e-05
2.383e-05
2.383e-05
2.37546e-05
2.37546e-05
2.37546e-05
2.08962e-05
2.08962e-05
2.08962e-05
2.10528e-05
2.10528e-05
2.10528e-05
2.12365e-05
2.12365e-05
2.12365e-05
2.11581e-05
2.11581e-05
2.11581e-05
2.16826e-05
2.16826e-05
2.16826e-05
2.15757e-05
2.15757e-05
2.15757e-05
2.14982e-05
2.14982e-05
2.14982e-05
2.18371e-05
2.18371e-05
2.18371e-05
1.98845e-05
1.98845e-05
1.98845e-05
1.97243e-05
1.97243e-05
1.97243e-05
2.09284e-05
2.09284e-05
2.09284e-05
2.08495e-05
2.08495e-05
2.08495e-05
2.02174e-05
2.02174e-05
2.02174e-05
2.08124e-05
2.08124e-05
2.08124e-05
2.10359e-05
2.10359e-05
2.10359e-05
2.13127e-05
2.13127e-05
2.13127e-05
1.98284e-05
1.98284e-05
1.98284e-05
1.99078e-05
1.99078e-05
1.99078e-05
2.02297e-05
2.02297e-05
2.02297e-05
2.04791e-05
2.04791e-05
2.04791e-05
2.01573e-05
2.01573e-05
2.01573e-05
2.03289e-05
2.03289e-05
2.03289e-05
1.25267e-05
1.25267e-05
1.25267e-05
1.25721e-05
1.25721e-05
1.25721e-05
1.26071e-05
1.26071e-05
1.26071e-05
1.25964e-05
1.25964e-05
1.25964e-05
1.27121e-05
1.27121e-05
1.27121e-05
1.26765e-05
1.26765e-05
1.26765e-05
1.26316e-05
1.26316e-05
1.26316e-05
1.47156e-05
1.47156e-05
1.47156e-05
1.23067e-05
1.23067e-05
1.23067e-05
1.23405e-05
1.23405e-05
1.23405e-05
1.24424e-05
1.24424e-05
1.24424e-05
1.24083e-05
1.24083e-05
1.24083e-05
1.15188e-05
1.15188e-05
1.15188e-05
1.15063e-05
1.15063e-05
1.15063e-05
1.14628e-05
1.14628e-05
1.14628e-05
1.14319e-05
1.14319e-05
1.14319e-05
1.1482e-05
1.1482e-05
1.1482e-05
1.15438e-05
1.15438e-05
1.15438e-05
1.1593e-05
1.1593e-05
1.1593e-05
1.16575e-05
1.16575e-05
1.16575e-05
1.16699e-05
1.16699e-05
1.16699e-05
1.16381e-05
1.16381e-05
1.16381e-05
1.56409e-05
1.56409e-05
1.56409e-05
1.54501e-05
1.54501e-05
1.54501e-05
1.58339e-05
1.58339e-05
1.58339e-05
1.62039e-05
1.62039e-05
1.62039e-05
1.6477e-05
1.6477e-05
1.6477e-05
1.66545e-05
1.66545e-05
1.66545e-05
1.61071e-05
1.61071e-05
1.61071e-05
1.65589e-05
1.65589e-05
1.65589e-05
1.62846e-05
1.62846e-05
1.62846e-05
1.60281e-05
1.60281e-05
1.60281e-05
1.65734e-05
1.65734e-05
1.65734e-05
1.67629e-05
1.67629e-05
1.67629e-05
1.89493e-05
1.89493e-05
1.89493e-05
1.69285e-05
1.69285e-05
1.69285e-05
1.8668e-05
1.8668e-05
1.8668e-05
1.36889e-05
1.36889e-05
1.36889e-05
1.53532e-05
1.53532e-05
1.53532e-05
1.5526e-05
1.5526e-05
1.5526e-05
1.51376e-05
1.51376e-05
1.51376e-05
1.47701e-05
1.47701e-05
1.47701e-05
1.48677e-05
1.48677e-05
1.48677e-05
1.59071e-05
1.59071e-05
1.59071e-05
1.3422e-05
1.3422e-05
1.3422e-05
1.42059e-05
1.42059e-05
1.42059e-05
1.4384e-05
1.4384e-05
1.4384e-05
1.46678e-05
1.46678e-05
1.46678e-05
1.48442e-05
1.48442e-05
1.48442e-05
1.57366e-05
1.57366e-05
1.57366e-05
1.499e-05
1.499e-05
1.499e-05
1.55388e-05
1.55388e-05
1.55388e-05
1.17332e-05
1.17332e-05
1.17332e-05
1.17652e-05
1.17652e-05
1.17652e-05
1.36219e-05
1.36219e-05
1.36219e-05
1.30847e-05
1.30847e-05
1.30847e-05
1.32518e-05
1.32518e-05
1.32518e-05
1.35208e-05
1.35208e-05
1.35208e-05
1.2324e-05
1.2324e-05
1.2324e-05
1.29943e-05
1.29943e-05
1.29943e-05
1.1984e-05
1.1984e-05
1.1984e-05
1.16949e-05
1.16949e-05
1.16949e-05
1.16516e-05
1.16516e-05
1.16516e-05
1.15947e-05
1.15947e-05
1.15947e-05
1.16571e-05
1.16571e-05
1.16571e-05
1.16709e-05
1.16709e-05
1.16709e-05
1.16396e-05
1.16396e-05
1.16396e-05
1.15381e-05
1.15381e-05
1.15381e-05
1.15254e-05
1.15254e-05
1.15254e-05
1.15564e-05
1.15564e-05
1.15564e-05
1.16003e-05
1.16003e-05
1.16003e-05
1.1613e-05
1.1613e-05
1.1613e-05
1.15819e-05
1.15819e-05
1.15819e-05
1.11941e-05
1.11941e-05
1.11941e-05
1.12242e-05
1.12242e-05
1.12242e-05
1.12666e-05
1.12666e-05
1.12666e-05
1.12063e-05
1.12063e-05
1.12063e-05
1.12787e-05
1.12787e-05
1.12787e-05
1.12485e-05
1.12485e-05
1.12485e-05
1.16971e-05
1.16971e-05
1.16971e-05
1.20507e-05
1.20507e-05
1.20507e-05
1.17961e-05
1.17961e-05
1.17961e-05
1.18538e-05
1.18538e-05
1.18538e-05
1.13379e-05
1.13379e-05
1.13379e-05
1.14007e-05
1.14007e-05
1.14007e-05
1.13573e-05
1.13573e-05
1.13573e-05
1.13257e-05
1.13257e-05
1.13257e-05
1.14565e-05
1.14565e-05
1.14565e-05
1.14129e-05
1.14129e-05
1.14129e-05
1.13811e-05
1.13811e-05
1.13811e-05
1.13933e-05
1.13933e-05
1.13933e-05
1.14829e-05
1.14829e-05
1.14829e-05
1.15473e-05
1.15473e-05
1.15473e-05
1.14723e-05
1.14723e-05
1.14723e-05
1.15043e-05
1.15043e-05
1.15043e-05
1.14088e-05
1.14088e-05
1.14088e-05
1.14513e-05
1.14513e-05
1.14513e-05
1.16811e-05
1.16811e-05
1.16811e-05
1.16359e-05
1.16359e-05
1.16359e-05
1.19099e-05
1.19099e-05
1.19099e-05
1.17544e-05
1.17544e-05
1.17544e-05
1.15676e-05
1.15676e-05
1.15676e-05
1.18105e-05
1.18105e-05
1.18105e-05
1.16895e-05
1.16895e-05
1.16895e-05
1.16762e-05
1.16762e-05
1.16762e-05
1.1596e-05
1.1596e-05
1.1596e-05
1.15243e-05
1.15243e-05
1.15243e-05
1.15375e-05
1.15375e-05
1.15375e-05
1.16132e-05
1.16132e-05
1.16132e-05
1.15814e-05
1.15814e-05
1.15814e-05
1.22075e-05
1.22075e-05
1.22075e-05
1.21097e-05
1.21097e-05
1.21097e-05
1.22663e-05
1.22663e-05
1.22663e-05
1.25229e-05
1.25229e-05
1.25229e-05
1.26206e-05
1.26206e-05
1.26206e-05
1.24629e-05
1.24629e-05
1.24629e-05
1.25601e-05
1.25601e-05
1.25601e-05
1.28151e-05
1.28151e-05
1.28151e-05
1.23265e-05
1.23265e-05
1.23265e-05
1.22277e-05
1.22277e-05
1.22277e-05
1.23864e-05
1.23864e-05
1.23864e-05
1.26456e-05
1.26456e-05
1.26456e-05
1.34237e-05
1.34237e-05
1.34237e-05
1.31643e-05
1.31643e-05
1.31643e-05
1.25075e-05
1.25075e-05
1.25075e-05
1.28316e-05
1.28316e-05
1.28316e-05
1.32284e-05
1.32284e-05
1.32284e-05
1.27072e-05
1.27072e-05
1.27072e-05
1.30663e-05
1.30663e-05
1.30663e-05
1.28063e-05
1.28063e-05
1.28063e-05
1.33241e-05
1.33241e-05
1.33241e-05
1.52801e-05
1.52801e-05
1.52801e-05
1.53755e-05
1.53755e-05
1.53755e-05
1.39837e-05
1.39837e-05
1.39837e-05
1.40798e-05
1.40798e-05
1.40798e-05
1.13731e-05
1.13731e-05
1.13731e-05
1.13618e-05
1.13618e-05
1.13618e-05
1.1287e-05
1.1287e-05
1.1287e-05
1.13182e-05
1.13182e-05
1.13182e-05
1.13225e-05
1.13225e-05
1.13225e-05
1.13536e-05
1.13536e-05
1.13536e-05
1.12797e-05
1.12797e-05
1.12797e-05
1.13418e-05
1.13418e-05
1.13418e-05
1.12679e-05
1.12679e-05
1.12679e-05
1.12988e-05
1.12988e-05
1.12988e-05
1.11008e-05
1.11008e-05
1.11008e-05
1.10514e-05
1.10514e-05
1.10514e-05
1.10817e-05
1.10817e-05
1.10817e-05
1.10107e-05
1.10107e-05
1.10107e-05
1.10702e-05
1.10702e-05