<VTKFile type="UnstructuredGrid" version="1.0">
<UnstructuredGrid>
<Piece NumberOfPoints="8859" NumberOfCells="2953">
<Points>
<DataArray type="Float64" NumberOfComponents="3" format="ascii">
2.04744 2.20956 10.3176
2.06275 2.19425 10.3296
2.04754 2.20946 10.3433
2.07804 2.17896 10.2667
2.07805 2.17895 10.2415
2.0934 2.1636 10.254
2.06271 2.19429 10.2794
2.07804 2.17896 10.2667
2.07804 2.17896 10.2919
2.01701 2.23999 10.3699
2.03242 2.22458 10.3775
2.00164 2.25536 10.3775
2.01701 2.23999 10.3699
2.03232 2.22468 10.3546
2.03242 2.22458 10.3775
2.04777 2.20923 10.3698
2.06326 2.19374 10.3775
2.03242 2.22458 10.3775
2.04777 2.20923 10.3698
2.03232 2.22468 10.3546
2.04754 2.20946 10.3433
2.03242 2.22458 10.3775
2.03232 2.22468 10.3546
2.04777 2.20923 10.3698
2.04754 2.20946 10.3433
2.06275 2.19425 10.3296
2.06287 2.19413 10.3543
2.06287 2.19413 10.3543
2.04777 2.20923 10.3698
2.04754 2.20946 10.3433
2.06326 2.19374 10.3775
2.04777 2.20923 10.3698
2.06287 2.19413 10.3543
2.06275 2.19425 10.3296
2.04744 2.20956 10.3176
2.06271 2.19429 10.3045
2.06271 2.19429 10.2794
2.07804 2.17896 10.2919
2.06271 2.19429 10.3045
2.07809 2.17891 10.3426
2.06287 2.19413 10.3543
2.06275 2.19425 10.3296
2.0934 2.1636 10.3289
2.0934 2.1636 10.3536
2.07809 2.17891 10.3426
2.0934 2.1636 10.2289
2.0934 2.1636 10.254
2.07805 2.17895 10.2415
2.07804 2.17896 10.2667
2.0934 2.1636 10.254
2.0934 2.1636 10.2791
2.0934 2.1636 10.2791
2.07804 2.17896 10.2919
2.07804 2.17896 10.2667
2.0934 2.1636 9.70152
2.0934 2.1636 9.72665
2.07807 2.17893 9.71407
2.07807 2.17893 10.1661
2.0934 2.1636 10.1786
2.07806 2.17894 10.1912
2.0934 2.1636 10.1535
2.0934 2.1636 10.1786
2.07807 2.17893 10.1661
2.07808 2.17892 10.0404
2.0934 2.1636 10.053
2.07808 2.17892 10.0656
1.61564 2.64136 9.48559
1.63134 2.62566 9.4775
1.63134 2.62566 9.50063
1.5683 2.6887 10.3775
1.53648 2.72052 10.3775
1.55243 2.70457 10.3693
2.07804 2.17896 10.3171
2.06271 2.19429 10.3045
2.07804 2.17896 10.2919
2.06275 2.19425 10.3296
2.06271 2.19429 10.3045
2.07804 2.17896 10.3171
2.07804 2.17896 10.3171
2.07809 2.17891 10.3426
2.06275 2.19425 10.3296
2.0934 2.1636 10.3289
2.07809 2.17891 10.3426
2.07804 2.17896 10.3171
2.07833 2.17867 10.3688
2.0934 2.1636 10.3536
2.0934 2.1636 10.3775
2.07833 2.17867 10.3688
2.07809 2.17891 10.3426
2.0934 2.1636 10.3536
2.0934 2.1636 10.3775
2.06326 2.19374 10.3775
2.07833 2.17867 10.3688
2.06326 2.19374 10.3775
2.06287 2.19413 10.3543
2.07833 2.17867 10.3688
2.06287 2.19413 10.3543
2.07809 2.17891 10.3426
2.07833 2.17867 10.3688
2.07806 2.17894 10.1912
2.0934 2.1636 10.1786
2.0934 2.1636 10.2037
2.07804 2.17896 10.2919
2.0934 2.1636 10.2791
2.0934 2.1636 10.3041
2.0934 2.1636 10.3289
2.07804 2.17896 10.3171
2.0934 2.1636 10.3041
2.0934 2.1636 10.3041
2.07804 2.17896 10.3171
2.07804 2.17896 10.2919
2.0934 2.1636 10.0279
2.0934 2.1636 10.053
2.07808 2.17892 10.0404
2.07807 2.17893 9.71407
2.0934 2.1636 9.72665
2.07807 2.17893 9.7392
2.06275 2.19425 10.1535
2.04743 2.20957 10.141
2.06275 2.19425 10.1284
2.07806 2.17894 10.2164
2.0934 2.1636 10.2289
2.07805 2.17895 10.2415
2.07806 2.17894 10.2164
2.0934 2.1636 10.2037
2.0934 2.1636 10.2289
2.07806 2.17894 10.2164
2.06273 2.19427 10.2038
2.07806 2.17894 10.1912
2.07806 2.17894 10.1912
2.0934 2.1636 10.2037
2.07806 2.17894 10.2164
2.06271 2.19429 10.2542
2.07804 2.17896 10.2667
2.06271 2.19429 10.2794
2.06271 2.19429 10.2542
2.07805 2.17895 10.2415
2.07804 2.17896 10.2667
2.04741 2.20959 10.2165
2.03209 2.22491 10.2291
2.0321 2.2249 10.2039
1.83285 2.42415 10.3434
1.81747 2.43953 10.3299
1.83285 2.42415 10.3177
1.78664 2.47036 10.1788
1.78664 2.47036 10.204
1.77121 2.48579 10.1914
2.0934 2.1636 9.4775
2.0934 2.1636 9.50145
2.07833 2.17867 9.48616
1.56833 2.68867 10.3543
1.5683 2.6887 10.3775
1.55243 2.70457 10.3693
1.63134 2.62566 10.2795
1.61565 2.64135 10.2921
1.61564 2.64136 10.2669
1.55243 2.70457 10.3693
1.53648 2.72052 10.3775
1.53664 2.72036 10.3542
2.06276 2.19424 9.802
2.04745 2.20955 9.78943
2.06276 2.19424 9.77688
2.0934 2.1636 9.95259
2.07808 2.17892 9.94005
2.0934 2.1636 9.9275
2.07808 2.17892 9.99024
2.0934 2.1636 9.97769
2.0934 2.1636 10.0028
2.06277 2.19423 9.90241
2.04745 2.20955 9.91495
2.04745 2.20955 9.88986
2.06277 2.19423 9.9275
2.04745 2.20955 9.91495
2.06277 2.19423 9.90241
2.07808 2.17892 9.94005
2.06277 2.19423 9.95259
2.06277 2.19423 9.9275
2.04745 2.20955 10.0656
2.06276 2.19424 10.0781
2.04744 2.20956 10.0907
2.01682 2.24018 10.0405
2.01682 2.24018 10.0656
2.0015 2.2555 10.053
2.04745 2.20955 10.0405
2.03214 2.22486 10.0279
2.04745 2.20955 10.0153
2.04745 2.20955 10.0153
2.06277 2.19423 10.0279
2.04745 2.20955 10.0405
2.03214 2.22486 10.0279
2.03214 2.22486 10.0028
2.04745 2.20955 10.0153
2.04745 2.20955 10.0153
2.03214 2.22486 10.0028
2.04745 2.20955 9.99024
2.0934 2.1636 10.0028
2.0934 2.1636 10.0279
2.07808 2.17892 10.0153
2.07808 2.17892 10.0153
2.07808 2.17892 9.99024
2.0934 2.1636 10.0028
2.07808 2.17892 10.0153
2.0934 2.1636 10.0279
2.07808 2.17892 10.0404
2.07808 2.17892 10.0404
2.06277 2.19423 10.0279
2.07808 2.17892 10.0153
2.04744 2.20956 10.1158
2.03213 2.22487 10.1033
2.04744 2.20956 10.0907
2.04744 2.20956 10.1158
2.06275 2.19425 10.1284
2.04743 2.20957 10.141
2.0015 2.2555 10.1033
2.01681 2.24019 10.0907
2.01681 2.24019 10.1159
2.01681 2.24019 10.1159
2.01681 2.24019 10.0907
2.03213 2.22487 10.1033
2.0934 2.1636 10.0781
2.07808 2.17892 10.0656
2.0934 2.1636 10.053
2.04744 2.20956 10.0907
2.06276 2.19424 10.0781
2.06276 2.19424 10.1032
2.06276 2.19424 10.1032
2.04744 2.20956 10.1158
2.04744 2.20956 10.0907
2.06275 2.19425 10.1284
2.04744 2.20956 10.1158
2.06276 2.19424 10.1032
2.07806 2.17894 10.1912
2.06273 2.19427 10.2038
2.06274 2.19426 10.1787
2.06274 2.19426 10.1787
2.07807 2.17893 10.1661
2.07806 2.17894 10.1912
2.06275 2.19425 10.1535
2.07807 2.17893 10.1661
2.06274 2.19426 10.1787
2.0321 2.2249 10.2039
2.03211 2.22489 10.1788
2.04742 2.20958 10.1913
2.04742 2.20958 10.1913
2.04741 2.20959 10.2165
2.0321 2.2249 10.2039
2.06273 2.19427 10.2038
2.04741 2.20959 10.2165
2.04742 2.20958 10.1913
2.04742 2.20958 10.1913
2.06274 2.19426 10.1787
2.06273 2.19427 10.2038
2.01679 2.24021 10.1914
2.03211 2.22489 10.1788
2.0321 2.2249 10.2039
2.01679 2.24021 10.1914
2.00148 2.25552 10.204
2.00148 2.25552 10.1788
2.06271 2.19429 10.2794
2.06271 2.19429 10.3045
2.04741 2.20959 10.2922
2.04741 2.20959 10.2922
2.06271 2.19429 10.3045
2.04744 2.20956 10.3176
2.03209 2.22491 10.2291
2.04741 2.20959 10.2165
2.0474 2.2096 10.2417
2.0474 2.2096 10.2417
2.03209 2.22491 10.2544
2.03209 2.22491 10.2291
1.97087 2.28613 10.0782
1.95555 2.30145 10.0907
1.95555 2.30145 10.0656
2.00148 2.25552 10.1788
2.00149 2.25551 10.1536
2.0168 2.2402 10.1662
2.0168 2.2402 10.1662
2.01679 2.24021 10.1914
2.00148 2.25552 10.1788
2.03211 2.22489 10.1788
2.01679 2.24021 10.1914
2.0168 2.2402 10.1662
2.03211 2.22489 10.1536
2.03211 2.22489 10.1788
2.0168 2.2402 10.1662
1.86358 2.39342 10.3178
1.86358 2.39342 10.3434
1.84822 2.40878 10.3299
1.84822 2.40878 10.3299
1.86358 2.39342 10.3434
1.84822 2.40878 10.3545
1.84822 2.40878 10.3299
1.84822 2.40878 10.3545
1.83285 2.42415 10.3434
1.83285 2.42415 10.3434
1.83285 2.42415 10.3177
1.84822 2.40878 10.3299
1.81747 2.43953 10.3048
1.83285 2.42415 10.3177
1.81747 2.43953 10.3299
1.80202 2.45498 9.94005
1.80202 2.45498 9.96515
1.7866 2.4704 9.9526
1.70922 2.54778 10.0656
1.69367 2.56333 10.053
1.70922 2.54778 10.0404
1.70924 2.54776 10.1158
1.6937 2.5633 10.1284
1.69369 2.56331 10.1032
1.63134 2.62566 10.2795
1.61564 2.64136 10.2669
1.63132 2.62568 10.2542
1.63135 2.62565 10.3047
1.61565 2.64135 10.2921
1.63134 2.62566 10.2795
1.69376 2.56324 10.2291
1.69378 2.56322 10.2543
1.6782 2.5788 10.2417
1.59983 2.65717 10.1786
1.61554 2.64146 10.166
1.61557 2.64143 10.1912
1.59973 2.65727 10.078
1.58397 2.67303 10.0906
1.58396 2.67304 10.0655
1.61564 2.64136 10.3694
1.63134 2.62566 10.3775
1.5999 2.6571 10.3775
1.63134 2.62566 10.3544
1.63134 2.62566 10.3775
1.61564 2.64136 10.3694
1.647 2.61 10.3695
1.63134 2.62566 10.3775
1.63134 2.62566 10.3544
1.59993 2.65707 10.3046
1.59992 2.65708 10.3297
1.58418 2.67282 10.3175
1.84822 2.40878 10.3775
1.81747 2.43953 10.3775
1.83285 2.42415 10.3697
1.83285 2.42415 10.3434
1.84822 2.40878 10.3545
1.83285 2.42415 10.3697
1.83285 2.42415 10.3697
1.84822 2.40878 10.3545
1.84822 2.40878 10.3775
1.81747 2.43953 10.3545
1.81747 2.43953 10.3299
1.83285 2.42415 10.3434
1.83285 2.42415 10.3434
1.83285 2.42415 10.3697
1.81747 2.43953 10.3545
1.81747 2.43953 10.3545
1.83285 2.42415 10.3697
1.81747 2.43953 10.3775
1.70931 2.54769 10.2418
1.69378 2.56322 10.2543
1.69376 2.56324 10.2291
1.7712 2.4858 10.1662
1.78663 2.47037 10.1536
1.78664 2.47036 10.1788
1.78664 2.47036 10.1788
1.77121 2.48579 10.1914
1.7712 2.4858 10.1662
1.77122 2.48578 10.2166
1.77121 2.48579 10.1914
1.78664 2.47036 10.204
1.77122 2.48578 10.2166
1.78664 2.47036 10.204
1.78665 2.47035 10.2292
1.78665 2.47035 10.2292
1.77123 2.48577 10.2418
1.77122 2.48578 10.2166
1.77122 2.48578 10.2166
1.77123 2.48577 10.2418
1.75578 2.50122 10.2292
1.78666 2.47034 10.2544
1.77123 2.48577 10.2418
1.78665 2.47035 10.2292
1.78666 2.47034 10.2796
1.77124 2.48576 10.2923
1.77124 2.48576 10.2671
1.77124 2.48576 10.2671
1.78666 2.47034 10.2544
1.78666 2.47034 10.2796
1.77123 2.48577 10.2418
1.78666 2.47034 10.2544
1.77124 2.48576 10.2671
2.07809 2.17891 9.51238
2.07833 2.17867 9.48616
2.0934 2.1636 9.50145
2.06287 2.19413 9.50073
2.07833 2.17867 9.48616
2.07809 2.17891 9.51238
1.94028 2.31672 9.50048
1.94028 2.31672 9.4775
1.95561 2.30139 9.48521
2.00164 2.25536 9.4775
1.98629 2.27071 9.48517
1.97095 2.28605 9.4775
1.97095 2.28605 9.4775
1.95561 2.30139 9.48521
1.94028 2.31672 9.4775
1.48928 2.76772 9.51397
1.48919 2.76781 9.48786
1.50509 2.75191 9.50145
1.50509 2.75191 9.50145
1.5206 2.7364 9.48601
1.52092 2.73608 9.51245
1.47362 2.78338 9.50282
1.48919 2.76781 9.48786
1.48928 2.76772 9.51397
1.47362 2.78338 9.50282
1.47412 2.78288 9.4775
1.48919 2.76781 9.48786
1.56833 2.68867 9.50067
[...]
<PointData Scalars="View Factor" >
<DataArray type="Float64" Name="View Factor" NumberOfComponents="1" format="ascii">
2.00781e-05
2.00781e-05
2.00781e-05
2.02548e-05
2.02548e-05
2.02548e-05
2.01961e-05
2.01961e-05
2.01961e-05
2.0071e-05
2.0071e-05
2.0071e-05
2.00494e-05
2.00494e-05
2.00494e-05
1.99075e-05
1.99075e-05
1.99075e-05
2.00168e-05
2.00168e-05
2.00168e-05
1.99934e-05
1.99934e-05
1.99934e-05
1.99959e-05
1.99959e-05
1.99959e-05
1.9962e-05
1.9962e-05
1.9962e-05
1.98848e-05
1.98848e-05
1.98848e-05
2.01085e-05
2.01085e-05
2.01085e-05
2.0167e-05
2.0167e-05
2.0167e-05
1.99422e-05
1.99422e-05
1.99422e-05
1.98361e-05
1.98361e-05
1.98361e-05
2.02843e-05
2.02843e-05
2.02843e-05
2.01709e-05
2.01709e-05
2.01709e-05
2.01415e-05
2.01415e-05
2.01415e-05
2.2861e-05
2.2861e-05
2.2861e-05
2.05995e-05
2.05995e-05
2.05995e-05
2.06297e-05
2.06297e-05
2.06297e-05
2.11901e-05
2.11901e-05
2.11901e-05
4.32966e-05
4.32966e-05
4.32966e-05
3.86735e-05
3.86735e-05
3.86735e-05
2.00815e-05
2.00815e-05
2.00815e-05
2.00541e-05
2.00541e-05
2.00541e-05
1.99715e-05
1.99715e-05
1.99715e-05
1.99182e-05
1.99182e-05
1.99182e-05
1.97262e-05
1.97262e-05
1.97262e-05
1.98039e-05
1.98039e-05
1.98039e-05
1.97439e-05
1.97439e-05
1.97439e-05
1.98318e-05
1.98318e-05
1.98318e-05
1.98567e-05
1.98567e-05
1.98567e-05
2.05137e-05
2.05137e-05
2.05137e-05
2.00584e-05
2.00584e-05
2.00584e-05
1.99468e-05
1.99468e-05
1.99468e-05
2.00276e-05
2.00276e-05
2.00276e-05
2.12215e-05
2.12215e-05
2.12215e-05
2.28261e-05
2.28261e-05
2.28261e-05
2.09172e-05
2.09172e-05
2.09172e-05
2.03689e-05
2.03689e-05
2.03689e-05
2.03986e-05
2.03986e-05
2.03986e-05
2.05396e-05
2.05396e-05
2.05396e-05
2.04838e-05
2.04838e-05
2.04838e-05
2.02805e-05
2.02805e-05
2.02805e-05
2.03099e-05
2.03099e-05
2.03099e-05
2.06802e-05
2.06802e-05
2.06802e-05
2.65675e-05
2.65675e-05
2.65675e-05
2.95641e-05
2.95641e-05
2.95641e-05
2.40872e-05
2.40872e-05
2.40872e-05
3.82571e-05
3.82571e-05
3.82571e-05
3.63526e-05
3.63526e-05
3.63526e-05
3.921e-05
3.921e-05
3.921e-05
2.26544e-05
2.26544e-05
2.26544e-05
2.17097e-05
2.17097e-05
2.17097e-05
2.14639e-05
2.14639e-05
2.14639e-05
2.21092e-05
2.21092e-05
2.21092e-05
2.20141e-05
2.20141e-05
2.20141e-05
2.18286e-05
2.18286e-05
2.18286e-05
2.12445e-05
2.12445e-05
2.12445e-05
2.1606e-05
2.1606e-05
2.1606e-05
2.15466e-05
2.15466e-05
2.15466e-05
2.14869e-05
2.14869e-05
2.14869e-05
2.16381e-05
2.16381e-05
2.16381e-05
2.16709e-05
2.16709e-05
2.16709e-05
2.13423e-05
2.13423e-05
2.13423e-05
2.14321e-05
2.14321e-05
2.14321e-05
2.13107e-05
2.13107e-05
2.13107e-05
2.13689e-05
2.13689e-05
2.13689e-05
2.11832e-05
2.11832e-05
2.11832e-05
2.10054e-05
2.10054e-05
2.10054e-05
2.13623e-05
2.13623e-05
2.13623e-05
2.13021e-05
2.13021e-05
2.13021e-05
2.11015e-05
2.11015e-05
2.11015e-05
2.11552e-05
2.11552e-05
2.11552e-05
2.11245e-05
2.11245e-05
2.11245e-05
2.10358e-05
2.10358e-05
2.10358e-05
2.06257e-05
2.06257e-05
2.06257e-05
2.06557e-05
2.06557e-05
2.06557e-05
2.07423e-05
2.07423e-05
2.07423e-05
2.07972e-05
2.07972e-05
2.07972e-05
2.07098e-05
2.07098e-05
2.07098e-05
2.06526e-05
2.06526e-05
2.06526e-05
2.06824e-05
2.06824e-05
2.06824e-05
2.08553e-05
2.08553e-05
2.08553e-05
2.09717e-05
2.09717e-05
2.09717e-05
2.0222e-05
2.0222e-05
2.0222e-05
2.01937e-05
2.01937e-05
2.01937e-05
2.05934e-05
2.05934e-05
2.05934e-05
2.05639e-05
2.05639e-05
2.05639e-05
2.17943e-05
2.17943e-05
2.17943e-05
2.10935e-05
2.10935e-05
2.10935e-05
2.10028e-05
2.10028e-05
2.10028e-05
2.09437e-05
2.09437e-05
2.09437e-05
2.09735e-05
2.09735e-05
2.09735e-05
2.51784e-05
2.51784e-05
2.51784e-05
2.53386e-05
2.53386e-05
2.53386e-05
2.58002e-05
2.58002e-05
2.58002e-05
2.61042e-05
2.61042e-05
2.61042e-05
2.68743e-05
2.68743e-05
2.68743e-05
3.04481e-05
3.04481e-05
3.04481e-05
3.42385e-05
3.42385e-05
3.42385e-05
3.40029e-05
3.40029e-05
3.40029e-05
3.62152e-05
3.62152e-05
3.62152e-05
3.60142e-05
3.60142e-05
3.60142e-05
3.35285e-05
3.35285e-05
3.35285e-05
3.76844e-05
3.76844e-05
3.76844e-05
3.95655e-05
3.95655e-05
3.95655e-05
3.58254e-05
3.58254e-05
3.58254e-05
3.54145e-05
3.54145e-05
3.54145e-05
3.49436e-05
3.49436e-05
3.49436e-05
3.72399e-05
3.72399e-05
3.72399e-05
2.60711e-05
2.60711e-05
2.60711e-05
2.59577e-05
2.59577e-05
2.59577e-05
2.56606e-05
2.56606e-05
2.56606e-05
2.67261e-05
2.67261e-05
2.67261e-05
2.64185e-05
2.64185e-05
2.64185e-05
2.65808e-05
2.65808e-05
2.65808e-05
3.30485e-05
3.30485e-05
3.30485e-05
2.97355e-05
2.97355e-05
2.97355e-05
2.98891e-05
2.98891e-05
2.98891e-05
2.97228e-05
2.97228e-05
2.97228e-05
2.93966e-05
2.93966e-05
2.93966e-05
2.95524e-05
2.95524e-05
2.95524e-05
3.00293e-05
3.00293e-05
3.00293e-05
2.92323e-05
2.92323e-05
2.92323e-05
2.92205e-05
2.92205e-05
2.92205e-05
2.90663e-05
2.90663e-05
2.90663e-05
2.93834e-05
2.93834e-05
2.93834e-05
2.40547e-05
2.40547e-05
2.40547e-05
2.41218e-05
2.41218e-05
2.41218e-05
2.57603e-05
2.57603e-05
2.57603e-05
2.48202e-05
2.48202e-05
2.48202e-05
2.52461e-05
2.52461e-05
2.52461e-05
5.04041e-05
5.04041e-05
5.04041e-05
4.92605e-05
4.92605e-05
4.92605e-05
5.0976e-05
5.0976e-05
5.0976e-05
5.13969e-05
5.13969e-05
5.13969e-05
4.6193e-05
4.6193e-05
4.6193e-05
4.39531e-05
4.39531e-05
4.39531e-05
4.56967e-05
4.56967e-05
4.56967e-05
4.9372e-05
4.9372e-05
4.9372e-05
4.8948e-05
4.8948e-05
4.8948e-05
3.63557e-05
3.63557e-05
3.63557e-05
3.73736e-05
3.73736e-05
3.73736e-05
3.70348e-05
3.70348e-05
3.70348e-05
4.04403e-05
4.04403e-05
4.04403e-05
4.00716e-05
4.00716e-05
4.00716e-05
3.82346e-05
3.82346e-05
3.82346e-05
2.29585e-05
2.29585e-05
2.29585e-05
2.19591e-05
2.19591e-05
2.19591e-05
2.23954e-05
2.23954e-05
2.23954e-05
2.23607e-05
2.23607e-05
2.23607e-05
2.25244e-05
2.25244e-05
2.25244e-05
2.24909e-05
2.24909e-05
2.24909e-05
2.25536e-05
2.25536e-05
2.25536e-05
2.26502e-05
2.26502e-05
2.26502e-05
2.26837e-05
2.26837e-05
2.26837e-05
2.26206e-05
2.26206e-05
2.26206e-05
3.13625e-05
3.13625e-05
3.13625e-05
3.15575e-05
3.15575e-05
3.15575e-05
3.19873e-05
3.19873e-05
3.19873e-05
2.27809e-05
2.27809e-05
2.27809e-05
2.27292e-05
2.27292e-05
2.27292e-05
2.23797e-05
2.23797e-05
2.23797e-05
2.33604e-05
2.33604e-05
2.33604e-05
2.17294e-05
2.17294e-05
2.17294e-05
2.3445e-05
2.3445e-05
2.3445e-05
2.23263e-05
2.23263e-05
2.23263e-05
2.24243e-05
2.24243e-05
2.24243e-05
2.2897e-05
2.2897e-05
2.2897e-05
2.30816e-05
2.30816e-05
2.30816e-05
2.21708e-05
2.21708e-05
2.21708e-05
2.1834e-05
2.1834e-05
2.1834e-05
2.18013e-05
2.18013e-05
2.18013e-05
2.18609e-05
2.18609e-05
2.18609e-05
2.19535e-05
2.19535e-05
2.19535e-05
2.19861e-05
2.19861e-05
2.19861e-05
2.19262e-05
2.19262e-05
2.19262e-05
2.62358e-05
2.62358e-05
2.62358e-05
2.60563e-05
2.60563e-05
2.60563e-05
2.33468e-05
2.33468e-05
2.33468e-05
2.30273e-05
2.30273e-05
2.30273e-05
2.32121e-05
2.32121e-05
2.32121e-05
2.37149e-05
2.37149e-05
2.37149e-05
2.62058e-05
2.62058e-05
2.62058e-05
2.6538e-05
2.6538e-05
2.6538e-05
2.68904e-05
2.68904e-05
2.68904e-05
2.63828e-05
2.63828e-05
2.63828e-05
2.38526e-05
2.38526e-05
2.38526e-05
2.40359e-05
2.40359e-05
2.40359e-05
2.12169e-05
2.12169e-05
2.12169e-05
2.12753e-05
2.12753e-05
2.12753e-05
2.13653e-05
2.13653e-05
2.13653e-05
2.1248e-05
2.1248e-05
2.1248e-05
2.13375e-05
2.13375e-05
2.13375e-05
2.13964e-05
2.13964e-05
2.13964e-05
2.1545e-05
2.1545e-05
2.1545e-05
2.14247e-05
2.14247e-05
2.14247e-05
2.15155e-05
2.15155e-05
2.15155e-05
2.15759e-05
2.15759e-05
2.15759e-05
2.19764e-05
2.19764e-05
2.19764e-05
2.19479e-05
2.19479e-05
2.19479e-05
2.20104e-05
2.20104e-05
2.20104e-05
2.14906e-05
2.14906e-05
2.14906e-05
2.16409e-05
2.16409e-05
2.16409e-05
2.15814e-05
2.15814e-05
2.15814e-05
2.16108e-05
2.16108e-05
2.16108e-05
2.15182e-05
2.15182e-05
2.15182e-05
2.1459e-05
2.1459e-05
2.1459e-05
2.12729e-05
2.12729e-05
2.12729e-05
2.13325e-05
2.13325e-05
2.13325e-05
2.14231e-05
2.14231e-05
2.14231e-05
2.13035e-05
2.13035e-05
2.13035e-05
2.14538e-05
2.14538e-05
2.14538e-05
2.13938e-05
2.13938e-05
2.13938e-05
2.14838e-05
2.14838e-05
2.14838e-05
2.15739e-05
2.15739e-05
2.15739e-05
2.16353e-05
2.16353e-05
2.16353e-05
2.14548e-05
2.14548e-05
2.14548e-05
2.11528e-05
2.11528e-05
2.11528e-05
2.12121e-05
2.12121e-05
2.12121e-05
2.10637e-05
2.10637e-05
2.10637e-05
2.10335e-05
2.10335e-05
2.10335e-05
2.13321e-05
2.13321e-05
2.13321e-05
2.11264e-05
2.11264e-05
2.11264e-05
2.1069e-05
2.1069e-05
2.1069e-05
2.09824e-05
2.09824e-05
2.09824e-05
2.1097e-05
2.1097e-05
2.1097e-05
2.07464e-05
2.07464e-05
2.07464e-05
2.08598e-05
2.08598e-05
2.08598e-05
2.0716e-05
2.0716e-05
2.0716e-05
2.07725e-05
2.07725e-05
2.07725e-05
2.0864e-05
2.0864e-05
2.0864e-05
2.0953e-05
2.0953e-05
2.0953e-05
2.10101e-05
2.10101e-05
2.10101e-05
2.0978e-05
2.0978e-05
2.0978e-05
2.08902e-05
2.08902e-05
2.08902e-05
2.08333e-05
2.08333e-05
2.08333e-05
2.0915e-05
2.0915e-05
2.0915e-05
2.07994e-05
2.07994e-05
2.07994e-05
2.0827e-05
2.0827e-05
2.0827e-05
2.07694e-05
2.07694e-05
2.07694e-05
2.0945e-05
2.0945e-05
2.0945e-05
2.0887e-05
2.0887e-05
2.0887e-05
2.07379e-05
2.07379e-05
2.07379e-05
2.08257e-05
2.08257e-05
2.08257e-05
2.08845e-05
2.08845e-05
2.08845e-05
2.0336e-05
2.0336e-05
2.0336e-05
2.04469e-05
2.04469e-05
2.04469e-05
2.04212e-05
2.04212e-05
2.04212e-05
2.04776e-05
2.04776e-05
2.04776e-05
2.03051e-05
2.03051e-05
2.03051e-05
2.03611e-05
2.03611e-05
2.03611e-05
2.01057e-05
2.01057e-05
2.01057e-05
2.01332e-05
2.01332e-05
2.01332e-05
2.013e-05
2.013e-05
2.013e-05
2.01616e-05
2.01616e-05
2.01616e-05
2.02453e-05
2.02453e-05
2.02453e-05
2.03348e-05
2.03348e-05
2.03348e-05
2.02752e-05
2.02752e-05
2.02752e-05
2.02491e-05
2.02491e-05
2.02491e-05
2.02191e-05
2.02191e-05
2.02191e-05
2.05365e-05
2.05365e-05
2.05365e-05
2.04243e-05
2.04243e-05
2.04243e-05
2.03948e-05
2.03948e-05
2.03948e-05
2.04507e-05
2.04507e-05
2.04507e-05
2.05099e-05
2.05099e-05
2.05099e-05
2.05662e-05
2.05662e-05
2.05662e-05
2.53235e-05
2.53235e-05
2.53235e-05
2.56439e-05
2.56439e-05
2.56439e-05
2.38507e-05
2.38507e-05
2.38507e-05
2.48323e-05
2.48323e-05
2.48323e-05
2.1701e-05
2.1701e-05
2.1701e-05
2.46996e-05
2.46996e-05
2.46996e-05
2.52018e-05
2.52018e-05
2.52018e-05
2.50357e-05
2.50357e-05
2.50357e-05
3.06128e-05
3.06128e-05
3.06128e-05
2.99418e-05
2.99418e-05
2.99418e-05
2.70685e-05
2.70685e-05
2.70685e-05
2.67406e-05
2.67406e-05
2.67406e-05
3.45923e-05
3.45923e-05
3.45923e-05
3.5779e-05
3.5779e-05
3.5779e-05
3.43906e-05
3.43906e-05
3.43906e-05
3.71769e-05
3.71769e-05
3.71769e-05
3.78333e-05
3.78333e-05
3.78333e-05
3.76873e-05
3.76873e-05
3.76873e-05
3.65611e-05
3.65611e-05
3.65611e-05
3.61508e-05
3.61508e-05
3.61508e-05
3.66292e-05
3.66292e-05
3.66292e-05
3.67619e-05
3.67619e-05
3.67619e-05
3.57339e-05
3.57339e-05
3.57339e-05
3.5598e-05
3.5598e-05
3.5598e-05
3.47743e-05
3.47743e-05
3.47743e-05
3.51162e-05
3.51162e-05
3.51162e-05
3.53731e-05
3.53731e-05
3.53731e-05
3.48855e-05
3.48855e-05
3.48855e-05
3.63496e-05
3.63496e-05
3.63496e-05
3.68394e-05
3.68394e-05
3.68394e-05
3.7192e-05
3.7192e-05
3.7192e-05
3.52856e-05
3.52856e-05
3.52856e-05
3.44892e-05
3.44892e-05
3.44892e-05
3.49714e-05
3.49714e-05
3.49714e-05
3.80381e-05
3.80381e-05
3.80381e-05
3.79003e-05
3.79003e-05
3.79003e-05
3.76192e-05
3.76192e-05
3.76192e-05
3.94239e-05
3.94239e-05
3.94239e-05
3.44115e-05
3.44115e-05
3.44115e-05
3.30101e-05
3.30101e-05
3.30101e-05
3.68336e-05
3.68336e-05
3.68336e-05
3.6971e-05
3.6971e-05
3.6971e-05
2.74566e-05
2.74566e-05
2.74566e-05
2.70409e-05
2.70409e-05
2.70409e-05
3.08951e-05
3.08951e-05
3.08951e-05
3.10501e-05
3.10501e-05
3.10501e-05
2.94173e-05
2.94173e-05
2.94173e-05
3.01187e-05
3.01187e-05
3.01187e-05
3.03561e-05
3.03561e-05
3.03561e-05
3.02024e-05
3.02024e-05
3.02024e-05
2.96917e-05
2.96917e-05
2.96917e-05
3.06371e-05
3.06371e-05
3.06371e-05
2.41969e-05
2.41969e-05
2.41969e-05
2.42195e-05
2.42195e-05
2.42195e-05
2.44649e-05
2.44649e-05
2.44649e-05
2.44963e-05
2.44963e-05
2.44963e-05
2.46108e-05
2.46108e-05
2.46108e-05
4.85297e-05
4.85297e-05
4.85297e-05
4.86843e-05
4.86843e-05
4.86843e-05
4.74418e-05
4.74418e-05
4.74418e-05
4.79452e-05
4.79452e-05
4.79452e-05
4.75246e-05
4.75246e-05
4.75246e-05
4.67758e-05
4.67758e-05
4.67758e-05
4.69437e-05
4.69437e-05
4.69437e-05
4.65022e-05
4.65022e-05
4.65022e-05
4.93881e-05
4.93881e-05
4.93881e-05
5.01001e-05
5.01001e-05
5.01001e-05
4.99608e-05
4.99608e-05
4.99608e-05
5.0264e-05
5.0264e-05
5.0264e-05
4.96934e-05
4.96934e-05
4.96934e-05
5.09267e-05
5.09267e-05
5.09267e-05
4.9205e-05
4.9205e-05
4.9205e-05
4.44416e-05
4.44416e-05
4.44416e-05
4.34326e-05
4.34326e-05
4.34326e-05
4.36292e-05
4.36292e-05
4.36292e-05
4.80891e-05
4.80891e-05
4.80891e-05
4.83669e-05
4.83669e-05
4.83669e-05
4.79564e-05
4.79564e-05
4.79564e-05
4.7285e-05
4.7285e-05
4.7285e-05
4.74171e-05
4.74171e-05
4.74171e-05
4.94969e-05
4.94969e-05
4.94969e-05
4.70129e-05
4.70129e-05
4.70129e-05
4.66011e-05
4.66011e-05
4.66011e-05
4.43533e-05
4.43533e-05
4.43533e-05
4.39606e-05
4.39606e-05
4.39606e-05
4.65687e-05
4.65687e-05
4.65687e-05
4.60099e-05
4.60099e-05
4.60099e-05
4.7688e-05
4.7688e-05
4.7688e-05
4.82486e-05
4.82486e-05
4.82486e-05
4.8388e-05
4.8388e-05
4.8388e-05
4.43747e-05
4.43747e-05
4.43747e-05
5.00722e-05
5.00722e-05
5.00722e-05
5.0362e-05
5.0362e-05
5.0362e-05
4.99351e-05
4.99351e-05
4.99351e-05
3.66834e-05
3.66834e-05
3.66834e-05
3.63203e-05
3.63203e-05
3.63203e-05
3.90063e-05
3.90063e-05
3.90063e-05
3.55937e-05
3.55937e-05
3.55937e-05
3.5438e-05
3.5438e-05
3.5438e-05
3.57998e-05
3.57998e-05
3.57998e-05
3.29905e-05
3.29905e-05
3.29905e-05
3.36916e-05
3.36916e-05
3.36916e-05
4.05102e-05
4.05102e-05
4.05102e-05
4.03625e-05
4.03625e-05
4.03625e-05
3.574e-05
3.574e-05
3.574e-05
3.62132e-05
3.62132e-05
3.62132e-05
3.6559e-05
3.6559e-05
3.6559e-05
3.64174e-05
3.64174e-05
3.64174e-05
3.6829e-05
3.6829e-05
3.6829e-05
3.71634e-05
3.71634e-05
3.71634e-05
3.72409e-05
3.72409e-05
3.72409e-05
3.77808e-05
3.77808e-05
3.77808e-05
3.7639e-05
3.7639e-05
3.7639e-05
4.61988e-05
4.61988e-05
4.61988e-05
4.59364e-05
4.59364e-05
4.59364e-05
4.58096e-05
4.58096e-05
4.58096e-05
4.02113e-05
4.02113e-05
4.02113e-05
4.04808e-05
4.04808e-05
4.04808e-05
4.08519e-05
4.08519e-05
4.08519e-05
4.0717e-05
4.0717e-05
4.0717e-05
4.17303e-05
4.17303e-05
4.17303e-05
4.14897e-05
4.14897e-05
4.14897e-05
4.1357e-05
4.1357e-05
4.1357e-05
4.19943e-05
4.19943e-05
4.19943e-05
3.80991e-05
3.80991e-05
3.80991e-05
3.78227e-05
3.78227e-05
3.78227e-05
4.0157e-05
4.0157e-05
4.0157e-05
4.00219e-05
4.00219e-05
4.00219e-05
3.87234e-05
3.87234e-05
3.87234e-05
3.96894e-05
3.96894e-05
3.96894e-05
4.01064e-05
4.01064e-05
4.01064e-05
4.06469e-05
4.06469e-05
4.06469e-05
3.78514e-05
3.78514e-05
3.78514e-05
3.79883e-05
3.79883e-05
3.79883e-05
3.85889e-05
3.85889e-05
3.85889e-05
3.90665e-05
3.90665e-05
3.90665e-05
3.84661e-05
3.84661e-05
3.84661e-05
3.88102e-05
3.88102e-05
3.88102e-05
2.45347e-05
2.45347e-05
2.45347e-05
2.46348e-05
2.46348e-05
2.46348e-05
2.47057e-05
2.47057e-05
2.47057e-05
2.46761e-05
2.46761e-05
2.46761e-05
2.49205e-05
2.49205e-05
2.49205e-05
2.48477e-05
2.48477e-05
2.48477e-05
2.47478e-05
2.47478e-05
2.47478e-05
2.86772e-05
2.86772e-05
2.86772e-05
2.40821e-05
2.40821e-05
2.40821e-05
2.41499e-05
2.41499e-05
2.41499e-05
2.43548e-05
2.43548e-05
2.43548e-05
2.4286e-05
2.4286e-05
2.4286e-05
2.22674e-05
2.22674e-05
2.22674e-05
2.22346e-05
2.22346e-05
2.22346e-05
2.21403e-05
2.21403e-05
2.21403e-05
2.20793e-05
2.20793e-05
2.20793e-05
2.2212e-05
2.2212e-05
2.2212e-05
2.23337e-05
2.23337e-05
2.23337e-05
2.2423e-05
2.2423e-05
2.2423e-05
2.25509e-05
2.25509e-05
2.25509e-05
2.25838e-05
2.25838e-05
2.25838e-05
2.25205e-05
2.25205e-05
2.25205e-05
3.02927e-05
3.02927e-05
3.02927e-05
2.99473e-05
2.99473e-05
2.99473e-05
3.08254e-05
3.08254e-05
3.08254e-05
3.15351e-05
3.15351e-05
3.15351e-05
3.20686e-05
3.20686e-05
3.20686e-05
3.24294e-05
3.24294e-05
3.24294e-05
3.13595e-05
3.13595e-05
3.13595e-05
3.22563e-05
3.22563e-05
3.22563e-05
3.17198e-05
3.17198e-05
3.17198e-05
3.11782e-05
3.11782e-05
3.11782e-05
3.22429e-05
3.22429e-05
3.22429e-05
3.25853e-05
3.25853e-05
3.25853e-05
3.70451e-05
3.70451e-05
3.70451e-05
3.2965e-05
3.2965e-05
3.2965e-05
3.64929e-05
3.64929e-05
3.64929e-05
2.66008e-05
2.66008e-05
2.66008e-05
2.97717e-05
2.97717e-05
2.97717e-05
3.01204e-05
3.01204e-05
3.01204e-05
2.94145e-05
2.94145e-05
2.94145e-05
2.87097e-05
2.87097e-05
2.87097e-05
2.8888e-05
2.8888e-05
2.8888e-05
3.11846e-05
3.11846e-05
3.11846e-05
2.6319e-05
2.6319e-05
2.6319e-05
2.78378e-05
2.78378e-05
2.78378e-05
2.82015e-05
2.82015e-05
2.82015e-05
2.87599e-05
2.87599e-05
2.87599e-05
2.91184e-05
2.91184e-05
2.91184e-05
3.06484e-05
3.06484e-05
3.06484e-05
2.9214e-05
2.9214e-05
2.9214e-05
3.02879e-05
3.02879e-05
3.02879e-05
2.27512e-05
2.27512e-05
2.27512e-05
2.28147e-05
2.28147e-05
2.28147e-05
2.64474e-05
2.64474e-05
2.64474e-05
2.54008e-05
2.54008e-05
2.54008e-05
2.57373e-05
2.57373e-05
2.57373e-05
2.62616e-05
2.62616e-05
2.62616e-05
2.38885e-05
2.38885e-05
2.38885e-05
2.51499e-05
2.51499e-05
2.51499e-05
2.31587e-05
2.31587e-05
2.31587e-05
2.26931e-05
2.26931e-05
2.26931e-05
2.25986e-05
2.25986e-05
2.25986e-05
2.24687e-05
2.24687e-05
2.24687e-05
2.25919e-05
2.25919e-05
2.25919e-05
2.26275e-05
2.26275e-05
2.26275e-05
2.25657e-05
2.25657e-05
2.25657e-05
2.23399e-05
2.23399e-05
2.23399e-05
2.23061e-05
2.23061e-05
2.23061e-05
2.23672e-05
2.23672e-05
2.23672e-05
2.24623e-05
2.24623e-05
2.24623e-05
2.24961e-05
2.24961e-05
2.24961e-05
2.24347e-05
2.24347e-05
2.24347e-05
2.15543e-05
2.15543e-05
2.15543e-05
2.16132e-05
2.16132e-05
2.16132e-05
2.17045e-05
2.17045e-05
2.17045e-05
2.15864e-05
2.15864e-05
2.15864e-05
2.17366e-05
2.17366e-05
2.17366e-05
2.16774e-05
2.16774e-05
2.16774e-05
2.25081e-05
2.25081e-05
2.25081e-05
2.31812e-05
2.31812e-05
2.31812e-05
2.26898e-05
2.26898e-05
2.26898e-05
2.282e-05
2.282e-05
2.282e-05
2.17919e-05
2.17919e-05
2.17919e-05
2.19177e-05
2.19177e-05
2.19177e-05
2.18238e-05
2.18238e-05
2.18238e-05
2.17607e-05
2.17607e-05
2.17607e-05
2.20434e-05
2.20434e-05
2.20434e-05
2.19489e-05
2.19489e-05
2.19489e-05
2.18854e-05
2.18854e-05
2.18854e-05
2.19168e-05
2.19168e-05
2.19168e-05
2.21332e-05
2.21332e-05
2.21332e-05
2.22617e-05
2.22617e-05
2.22617e-05
2.2104e-05
2.2104e-05
2.2104e-05
2.21679e-05
2.21679e-05
2.21679e-05
2.19778e-05
2.19778e-05
2.19778e-05
2.20702e-05
2.20702e-05
2.20702e-05
2.25521e-05
2.25521e-05
2.25521e-05
2.24542e-05
2.24542e-05
2.24542e-05
2.29479e-05
2.29479e-05
2.29479e-05
2.26374e-05
2.26374e-05
2.26374e-05
2.22952e-05
2.22952e-05
2.22952e-05
2.27651e-05
2.27651e-05
2.27651e-05
2.26149e-05
2.26149e-05
2.26149e-05
2.25807e-05
2.25807e-05
2.25807e-05
2.23889e-05
2.23889e-05
2.23889e-05
2.22622e-05
2.22622e-05
2.22622e-05
2.22964e-05
2.22964e-05
2.22964e-05
2.24546e-05
2.24546e-05
2.24546e-05
2.23916e-05
2.23916e-05
2.23916e-05
2.34937e-05
2.34937e-05
2.34937e-05
2.33142e-05
2.33142e-05
2.33142e-05
2.36269e-05
2.36269e-05
2.36269e-05
2.41229e-05
2.41229e-05
2.41229e-05
2.43017e-05
2.43017e-05
2.43017e-05
2.39867e-05
2.39867e-05
2.39867e-05
2.41646e-05
2.41646e-05
2.41646e-05
2.46568e-05
2.46568e-05
2.46568e-05
2.37629e-05
2.37629e-05
2.37629e-05
2.35815e-05
2.35815e-05
2.35815e-05
2.38989e-05
2.38989e-05
2.38989e-05
2.44007e-05
2.44007e-05
2.44007e-05
2.59076e-05
2.59076e-05
2.59076e-05
2.5405e-05
2.5405e-05
2.5405e-05
2.41738e-05
2.41738e-05
2.41738e-05
2.48233e-05
2.48233e-05
2.48233e-05
2.55507e-05
2.55507e-05
2.55507e-05
2.45405e-05
2.45405e-05
2.45405e-05
2.52258e-05
2.52258e-05
2.52258e-05
2.47222e-05
2.47222e-05
2.47222e-05
2.58121e-05
2.58121e-05
2.58121e-05
2.96038e-05
2.96038e-05
2.96038e-05
2.97766e-05
2.97766e-05
2.97766e-05
2.70486e-05
2.70486e-05
2.70486e-05
2.72241e-05
2.72241e-05
2.72241e-05
2.18841e-05
2.18841e-05
2.18841e-05
2.1854e-05
2.1854e-05
2.1854e-05
2.16981e-05
2.16981e-05
2.16981e-05
2.17601e-05
2.17601e-05
2.17601e-05
2.17912e-05
2.17912e-05
2.17912e-05
2.18529e-05
2.18529e-05
2.18529e-05
2.16988e-05
2.16988e-05
2.16988e-05
2.18218e-05
2.18218e-05
2.18218e-05
2.16677e-05
2.16677e-05
2.16677e-05
2.1729e-05
2.1729e-05
2.1729e-05
2.12706e-05
2.12706e-05
2.12706e-05
2.11804e-05
2.11804e-05
2.11804e-05
2.12402e-05
2.12402e-05
2.12402e-05
2.10925e-05
2.10925e-05
2.10925e-05
2.12102e-05
2.12102e-05
2.12102e-05
2.10639e-05
2.10639e-05