<VTKFile type="UnstructuredGrid" version="1.0">
<UnstructuredGrid>
<Piece NumberOfPoints="8859" NumberOfCells="2953">
<Points>
<DataArray type="Float64" NumberOfComponents="3" format="ascii">
3.01 0.5 1.995
3.01 0.487476 2.0175
3.01 0.512524 2.0175
3.01 0.17352 1.1175
3.01 0.148445 1.1175
3.01 0.160827 1.13922
3.01 0.122979 1.16089
3.01 0.135644 1.13922
3.01 0.110383 1.13921
3.01 0.135644 1.13922
3.01 0.123433 1.1175
3.01 0.110383 1.13921
3.01 0.123433 1.1175
3.01 0.135644 1.13922
3.01 0.148445 1.1175
3.01 0.135644 1.13922
3.01 0.160827 1.13922
3.01 0.148445 1.1175
3.01 0.17352 1.1175
3.01 0.185985 1.1392
3.01 0.198629 1.1175
3.01 0.185985 1.1392
3.01 0.17352 1.1175
3.01 0.160827 1.13922
3.01 0.0732297 1.16067
3.01 0.0848754 1.13914
3.01 0.0586606 1.13881
3.01 0.05 1.95027
3.01 0.058509 1.92756
3.01 0.05 1.9051
3.01 0.324276 1.1175
3.01 0.336827 1.13916
3.01 0.349395 1.1175
3.01 0.148138 1.1609
3.01 0.160827 1.13922
3.01 0.135644 1.13922
3.01 0.122979 1.16089
3.01 0.148138 1.1609
3.01 0.135644 1.13922
3.01 0.160827 1.13922
3.01 0.173316 1.16089
3.01 0.185985 1.1392
3.01 0.185806 1.18255
3.01 0.173316 1.16089
3.01 0.160572 1.18255
3.01 0.173316 1.16089
3.01 0.160827 1.13922
3.01 0.148138 1.1609
3.01 0.160572 1.18255
3.01 0.173316 1.16089
3.01 0.148138 1.1609
3.01 0.211137 1.13919
3.01 0.198629 1.1175
3.01 0.185985 1.1392
3.01 0.0979162 1.16084
3.01 0.122979 1.16089
3.01 0.110383 1.13921
3.01 0.122979 1.16089
3.01 0.0979162 1.16084
3.01 0.109875 1.18249
3.01 0.0732297 1.16067
3.01 0.0979162 1.16084
3.01 0.0848754 1.13914
3.01 0.0979162 1.16084
3.01 0.110383 1.13921
3.01 0.0848754 1.13914
3.01 0.0975729 1.20404
3.01 0.122678 1.20414
3.01 0.109875 1.18249
3.01 0.0841718 1.18235
3.01 0.0732297 1.16067
3.01 0.0577122 1.18202
3.01 0.0729308 1.20388
3.01 0.0841718 1.18235
3.01 0.0577122 1.18202
3.01 0.0732297 1.16067
3.01 0.0841718 1.18235
3.01 0.0979162 1.16084
3.01 0.0841718 1.18235
3.01 0.109875 1.18249
3.01 0.0979162 1.16084
3.01 0.0975729 1.20404
3.01 0.0841718 1.18235
3.01 0.0729308 1.20388
3.01 0.0841718 1.18235
3.01 0.0975729 1.20404
3.01 0.109875 1.18249
3.01 0.073948 1.1175
3.01 0.05 1.1175
3.01 0.0586606 1.13881
3.01 0.073948 1.1175
3.01 0.0586606 1.13881
3.01 0.0848754 1.13914
3.01 0.05 1.99329
3.01 0.0603641 1.97197
3.01 0.05 1.95027
3.01 0.0603641 1.97197
3.01 0.05 1.99329
3.01 0.0753197 1.99399
3.01 0.0709395 2.0175
3.01 0.05 1.99329
3.01 0.05 2.0175
3.01 0.05 1.99329
3.01 0.0709395 2.0175
3.01 0.0753197 1.99399
3.01 0.0579641 1.70463
3.01 0.05 1.68261
3.01 0.05 1.72669
3.01 0.0841948 1.6168
3.01 0.109814 1.6168
3.01 0.097638 1.59493
3.01 0.0841948 1.6168
3.01 0.0578646 1.6168
3.01 0.0730539 1.6387
3.01 0.0580261 1.7488
3.01 0.05 1.72669
3.01 0.05 1.77095
3.01 0.942292 1.31236
3.01 0.95 1.33404
3.01 0.95 1.29067
3.01 0.95 1.24726
3.01 0.942332 1.26897
3.01 0.95 1.29067
3.01 0.73872 1.52953
3.01 0.75132 1.50775
3.01 0.726137 1.50776
3.01 0.751305 1.55132
3.01 0.73872 1.52953
3.01 0.726124 1.55133
3.01 0.713546 1.52954
3.01 0.73872 1.52953
3.01 0.726137 1.50776
3.01 0.73872 1.52953
3.01 0.713546 1.52954
3.01 0.726124 1.55133
3.01 0.814318 1.57311
3.01 0.801709 1.5513
3.01 0.789096 1.57312
3.01 0.7765 1.55131
3.01 0.801709 1.5513
3.01 0.789115 1.52951
3.01 0.801709 1.5513
3.01 0.7765 1.55131
3.01 0.789096 1.57312
3.01 0.7765 1.55131
3.01 0.763892 1.57314
3.01 0.789096 1.57312
3.01 0.763892 1.57314
3.01 0.7765 1.55131
3.01 0.751305 1.55132
3.01 0.95 2.0175
3.01 0.95 1.99329
3.01 0.929061 2.0175
3.01 0.95 1.8154
3.01 0.941913 1.79315
3.01 0.926844 1.8154
3.01 0.941913 1.79315
3.01 0.95 1.8154
3.01 0.95 1.77095
3.01 0.926866 1.77094
3.01 0.941913 1.79315
3.01 0.95 1.77095
3.01 0.941974 1.7488
3.01 0.926866 1.77094
3.01 0.95 1.77095
3.01 0.95 1.72669
3.01 0.941974 1.7488
3.01 0.95 1.77095
3.01 0.941974 1.7488
3.01 0.95 1.72669
3.01 0.926895 1.72669
3.01 0.6127 2.0175
3.01 0.637734 2.0175
3.01 0.625238 1.99498
3.01 0.662757 2.0175
3.01 0.650275 1.99497
3.01 0.637734 2.0175
3.01 0.650275 1.99497
3.01 0.625238 1.99498
3.01 0.637734 2.0175
3.01 0.600415 1.55137
3.01 0.575304 1.55137
3.01 0.587856 1.5732
3.01 0.575304 1.55137
3.01 0.562749 1.5732
3.01 0.587856 1.5732
3.01 0.336827 1.13916
3.01 0.361946 1.13916
3.01 0.349395 1.1175
3.01 0.223755 1.1175
3.01 0.198629 1.1175
3.01 0.211137 1.13919
3.01 0.185985 1.1392
3.01 0.198492 1.16088
3.01 0.211137 1.13919
3.01 0.185806 1.18255
3.01 0.198492 1.16088
3.01 0.173316 1.16089
3.01 0.198492 1.16088
3.01 0.185985 1.1392
3.01 0.173316 1.16089
3.01 0.0576202 1.22553
3.01 0.05 1.20374
3.01 0.05 1.24726
3.01 0.05 1.20374
3.01 0.0576202 1.22553
3.01 0.0729308 1.20388
3.01 0.05 1.20374
3.01 0.0729308 1.20388
3.01 0.0577122 1.18202
3.01 0.135283 1.18254
3.01 0.122979 1.16089
3.01 0.109875 1.18249
3.01 0.135283 1.18254
3.01 0.109875 1.18249
3.01 0.122678 1.20414
3.01 0.122979 1.16089
3.01 0.135283 1.18254
3.01 0.148138 1.1609
3.01 0.135283 1.18254
3.01 0.160572 1.18255
3.01 0.148138 1.1609
3.01 0.123433 1.1175
3.01 0.0985513 1.1175
3.01 0.110383 1.13921
3.01 0.110383 1.13921
3.01 0.0985513 1.1175
3.01 0.0848754 1.13914
3.01 0.0848754 1.13914
3.01 0.0985513 1.1175
3.01 0.073948 1.1175
3.01 0.0603641 1.97197
3.01 0.0739464 1.94949
3.01 0.05 1.95027
3.01 0.0739464 1.94949
3.01 0.058509 1.92756
3.01 0.05 1.95027
3.01 0.058509 1.92756
3.01 0.0739464 1.94949
3.01 0.0849548 1.92711
3.01 0.058509 1.92756
3.01 0.0732725 1.90488
3.01 0.05 1.9051
3.01 0.0732725 1.90488
3.01 0.058509 1.92756
3.01 0.0849548 1.92711
3.01 0.5 1.995
3.01 0.47495 1.995
3.01 0.487476 2.0175
3.01 0.097663 1.6387
3.01 0.109814 1.6168
3.01 0.0841948 1.6168
3.01 0.0730539 1.6387
3.01 0.097663 1.6387
3.01 0.0841948 1.6168
3.01 0.0578646 1.6168
3.01 0.05 1.6387
3.01 0.0730539 1.6387
3.01 0.05 1.6387
3.01 0.0578646 1.6168
3.01 0.05 1.59492
3.01 0.05 1.8154
3.01 0.0580869 1.79315
3.01 0.05 1.77095
3.01 0.05 1.77095
3.01 0.073134 1.77094
3.01 0.0580261 1.7488
3.01 0.073134 1.77094
3.01 0.05 1.77095
3.01 0.0580869 1.79315
3.01 0.942268 1.35573
3.01 0.95 1.37741
3.01 0.95 1.33404
3.01 0.942292 1.31236
3.01 0.927025 1.33404
3.01 0.95 1.33404
3.01 0.927025 1.33404
3.01 0.915919 1.35572
3.01 0.942268 1.35573
3.01 0.95 1.33404
3.01 0.927025 1.33404
3.01 0.942268 1.35573
3.01 0.927013 1.37741
3.01 0.95 1.37741
3.01 0.942268 1.35573
3.01 0.915919 1.35572
3.01 0.927013 1.37741
3.01 0.942268 1.35573
3.01 0.801738 1.46425
3.01 0.826957 1.46425
3.01 0.814364 1.44253
3.01 0.852174 1.46424
3.01 0.839609 1.44252
3.01 0.826957 1.46425
3.01 0.839609 1.44252
3.01 0.814364 1.44253
3.01 0.826957 1.46425
3.01 0.776516 1.50775
3.01 0.763923 1.486
3.01 0.75132 1.50775
3.01 0.776516 1.50775
3.01 0.789115 1.52951
3.01 0.801725 1.50774
3.01 0.738704 1.57315
3.01 0.763892 1.57314
3.01 0.751305 1.55132
3.01 0.726124 1.55133
3.01 0.738704 1.57315
3.01 0.751305 1.55132
3.01 0.915617 1.79314
3.01 0.926866 1.77094
3.01 0.902228 1.77094
3.01 0.926866 1.77094
3.01 0.915617 1.79314
3.01 0.941913 1.79315
3.01 0.915617 1.79314
3.01 0.926844 1.8154
3.01 0.941913 1.79315
3.01 0.915617 1.79314
3.01 0.902193 1.81538
3.01 0.926844 1.8154
3.01 0.926866 1.77094
3.01 0.915668 1.74879
3.01 0.902228 1.77094
3.01 0.902267 1.72668
3.01 0.915668 1.74879
3.01 0.926895 1.72669
3.01 0.915668 1.74879
3.01 0.926866 1.77094
3.01 0.941974 1.7488
3.01 0.926895 1.72669
3.01 0.915668 1.74879
3.01 0.941974 1.7488
3.01 0.902267 1.72668
3.01 0.890059 1.74879
3.01 0.915668 1.74879
3.01 0.890059 1.74879
3.01 0.902228 1.77094
3.01 0.915668 1.74879
3.01 0.826927 1.55129
3.01 0.801709 1.5513
3.01 0.814318 1.57311
3.01 0.864816 1.6168
3.01 0.890186 1.6168
3.01 0.877308 1.59493
3.01 0.877308 1.59493
3.01 0.852122 1.59494
3.01 0.864816 1.6168
3.01 0.890186 1.6168
3.01 0.902362 1.59493
3.01 0.877308 1.59493
3.01 0.902362 1.59493
3.01 0.890186 1.6168
3.01 0.915805 1.6168
3.01 0.902362 1.59493
3.01 0.915805 1.6168
3.01 0.926964 1.59492
3.01 0.915835 1.57309
3.01 0.902362 1.59493
3.01 0.926964 1.59492
3.01 0.942171 1.57309
3.01 0.915835 1.57309
3.01 0.926964 1.59492
3.01 0.915835 1.57309
3.01 0.942171 1.57309
3.01 0.926978 1.55127
3.01 0.942171 1.57309
3.01 0.95 1.55127
3.01 0.926978 1.55127
3.01 0.87737 1.42081
3.01 0.902417 1.4208
3.01 0.890277 1.39911
3.01 0.852144 1.55128
3.01 0.864842 1.57309
3.01 0.877329 1.55128
3.01 0.877308 1.59493
3.01 0.864842 1.57309
3.01 0.852122 1.59494
3.01 0.902396 1.50772
3.01 0.890234 1.52949
3.01 0.915858 1.52948
3.01 0.926997 1.46423
3.01 0.95 1.46423
3.01 0.942237 1.44251
3.01 0.91589 1.44251
3.01 0.926997 1.46423
3.01 0.942237 1.44251
3.01 0.942199 1.52948
3.01 0.95 1.55127
3.01 0.95 1.50771
3.01 0.95 1.55127
3.01 0.942199 1.52948
3.01 0.926978 1.55127
3.01 0.942199 1.52948
3.01 0.915858 1.52948
3.01 0.926978 1.55127
3.01 0.95 1.46423
3.01 0.942221 1.48597
3.01 0.95 1.50771
3.01 0.942221 1.48597
3.01 0.95 1.46423
3.01 0.926997 1.46423
3.01 0.915876 1.48597
3.01 0.942221 1.48597
3.01 0.926997 1.46423
3.01 0.926989 1.50771
3.01 0.902396 1.50772
3.01 0.915858 1.52948
3.01 0.902396 1.50772
3.01 0.926989 1.50771
3.01 0.915876 1.48597
3.01 0.926989 1.50771
3.01 0.915858 1.52948
3.01 0.942199 1.52948
3.01 0.95 1.50771
3.01 0.926989 1.50771
3.01 0.942199 1.52948
3.01 0.915876 1.48597
3.01 0.926989 1.50771
3.01 0.942221 1.48597
3.01 0.926989 1.50771
3.01 0.95 1.50771
3.01 0.942221 1.48597
3.01 0.91353 1.97185
3.01 0.939636 1.97197
3.01 0.926054 1.94949
3.01 0.926728 1.90488
3.01 0.941491 1.92756
3.01 0.95 1.9051
3.01 0.926728 1.90488
3.01 0.95 1.9051
3.01 0.941822 1.88254
3.01 0.95 1.95027
3.01 0.939636 1.97197
3.01 0.95 1.99329
3.01 0.95 1.95027
3.01 0.941491 1.92756
3.01 0.926054 1.94949
3.01 0.939636 1.97197
3.01 0.95 1.95027
3.01 0.926054 1.94949
3.01 0.941491 1.92756
3.01 0.95 1.95027
3.01 0.95 1.9051
3.01 0.941869 1.83772
3.01 0.95 1.8154
3.01 0.926844 1.8154
3.01 0.762942 1.97228
3.01 0.737933 1.97234
3.01 0.75028 1.99489
3.01 0.71291 1.97239
3.01 0.737933 1.97234
3.01 0.725533 1.94985
3.01 0.71291 1.97239
3.01 0.725313 1.99492
3.01 0.737933 1.97234
3.01 0.725313 1.99492
3.01 0.75028 1.99489
3.01 0.737933 1.97234
3.01 0.737693 2.0175
3.01 0.725313 1.99492
[...]
<PointData Scalars="View Factor" >
<DataArray type="Float64" Name="View Factor" NumberOfComponents="1" format="ascii">
8.02861e-05
8.02861e-05
8.02861e-05
0.000105469
0.000105469
0.000105469
0.000104763
0.000104763
0.000104763
0.000105242
0.000105242
0.000105242
0.000105479
0.000105479
0.000105479
0.000105233
0.000105233
0.000105233
0.000105458
0.000105458
0.000105458
0.000105223
0.000105223
0.000105223
0.000104783
0.000104783
0.000104783
8.24867e-05
8.24867e-05
8.24867e-05
0.000105358
0.000105358
0.000105358
0.000104754
0.000104754
0.000104754
0.00010452
0.00010452
0.00010452
0.000104744
0.000104744
0.000104744
0.000103795
0.000103795
0.000103795
0.000104511
0.000104511
0.000104511
0.000104036
0.000104036
0.000104036
0.000105211
0.000105211
0.000105211
0.000104529
0.000104529
0.000104529
0.000104055
0.000104055
0.000104055
0.000104538
0.000104538
0.000104538
0.000104771
0.000104771
0.000104771
0.000103116
0.000103116
0.000103116
0.000103836
0.000103836
0.000103836
0.000103367
0.000103367
0.000103367
0.000104065
0.000104065
0.000104065
0.000103824
0.000103824
0.000103824
0.000103126
0.000103126
0.000103126
0.000103355
0.000103355
0.000103355
0.000105502
0.000105502
0.000105502
0.00010526
0.00010526
0.00010526
8.14117e-05
8.14117e-05
8.14117e-05
8.10603e-05
8.10603e-05
8.10603e-05
8.05111e-05
8.05111e-05
8.05111e-05
8.06969e-05
8.06969e-05
8.06969e-05
8.81888e-05
8.81888e-05
8.81888e-05
9.07641e-05
9.07641e-05
9.07641e-05
9.03665e-05
9.03665e-05
9.03665e-05
8.70212e-05
8.70212e-05
8.70212e-05
9.84245e-05
9.84245e-05
9.84245e-05
9.9759e-05
9.9759e-05
9.9759e-05
9.28509e-05
9.28509e-05
9.28509e-05
9.2031e-05
9.2031e-05
9.2031e-05
9.26645e-05
9.26645e-05
9.26645e-05
9.22544e-05
9.22544e-05
9.22544e-05
9.13214e-05
9.13214e-05
9.13214e-05
9.19509e-05
9.19509e-05
9.19509e-05
9.15445e-05
9.15445e-05
9.15445e-05
9.13623e-05
9.13623e-05
9.13623e-05
9.15849e-05
9.15849e-05
9.15849e-05
7.97557e-05
7.97557e-05
7.97557e-05
8.46671e-05
8.46671e-05
8.46671e-05
8.5029e-05
8.5029e-05
8.5029e-05
8.54203e-05
8.54203e-05
8.54203e-05
8.57991e-05
8.57991e-05
8.57991e-05
8.61654e-05
8.61654e-05
8.61654e-05
8.65614e-05
8.65614e-05
8.65614e-05
8.01659e-05
8.01659e-05
8.01659e-05
8.01388e-05
8.01388e-05
8.01388e-05
8.03301e-05
8.03301e-05
8.03301e-05
9.18313e-05
9.18313e-05
9.18313e-05
9.16429e-05
9.16429e-05
9.16429e-05
0.000105107
0.000105107
0.000105107
0.000105446
0.000105446
0.000105446
0.000104732
0.000104732
0.000104732
0.000104025
0.000104025
0.000104025
0.0001045
0.0001045
0.0001045
0.000102205
0.000102205
0.000102205
0.000102668
0.000102668
0.000102668
0.000103137
0.000103137
0.000103137
0.000103814
0.000103814
0.000103814
0.000103344
0.000103344
0.000103344
0.000104045
0.000104045
0.000104045
0.000103805
0.000103805
0.000103805
0.000105487
0.000105487
0.000105487
0.00010525
0.00010525
0.00010525
0.000105494
0.000105494
0.000105494
8.1764e-05
8.1764e-05
8.1764e-05
8.21241e-05
8.21241e-05
8.21241e-05
8.23113e-05
8.23113e-05
8.23113e-05
8.2858e-05
8.2858e-05
8.2858e-05
8.2676e-05
8.2676e-05
8.2676e-05
8.04747e-05
8.04747e-05
8.04747e-05
9.03621e-05
9.03621e-05
9.03621e-05
9.0164e-05
9.0164e-05
9.0164e-05
9.01677e-05
9.01677e-05
9.01677e-05
9.05695e-05
9.05695e-05
9.05695e-05
8.58681e-05
8.58681e-05
8.58681e-05
8.66348e-05
8.66348e-05
8.66348e-05
8.62504e-05
8.62504e-05
8.62504e-05
9.71127e-05
9.71127e-05
9.71127e-05
9.80015e-05
9.80015e-05
9.80015e-05
9.73706e-05
9.73706e-05
9.73706e-05
9.75641e-05
9.75641e-05
9.75641e-05
9.66967e-05
9.66967e-05
9.66967e-05
9.69367e-05
9.69367e-05
9.69367e-05
9.43879e-05
9.43879e-05
9.43879e-05
9.43427e-05
9.43427e-05
9.43427e-05
9.45754e-05
9.45754e-05
9.45754e-05
9.32236e-05
9.32236e-05
9.32236e-05
9.27697e-05
9.27697e-05
9.27697e-05
9.14019e-05
9.14019e-05
9.14019e-05
9.16239e-05
9.16239e-05
9.16239e-05
8.54634e-05
8.54634e-05
8.54634e-05
8.52515e-05
8.52515e-05
8.52515e-05
8.48748e-05
8.48748e-05
8.48748e-05
8.47098e-05
8.47098e-05
8.47098e-05
8.58425e-05
8.58425e-05
8.58425e-05
8.66054e-05
8.66054e-05
8.66054e-05
8.60094e-05
8.60094e-05
8.60094e-05
8.63907e-05
8.63907e-05
8.63907e-05
8.64353e-05
8.64353e-05
8.64353e-05
8.60538e-05
8.60538e-05
8.60538e-05
9.15028e-05
9.15028e-05
9.15028e-05
8.99888e-05
8.99888e-05
8.99888e-05
9.02103e-05
9.02103e-05
9.02103e-05
9.01655e-05
9.01655e-05
9.01655e-05
8.99432e-05
8.99432e-05
8.99432e-05
9.01196e-05
9.01196e-05
9.01196e-05
9.05188e-05
9.05188e-05
9.05188e-05
9.0694e-05
9.0694e-05
9.0694e-05
9.10959e-05
9.10959e-05
9.10959e-05
9.12755e-05
9.12755e-05
9.12755e-05
9.55137e-05
9.55137e-05
9.55137e-05
9.14154e-05
9.14154e-05
9.14154e-05
9.06101e-05
9.06101e-05
9.06101e-05
9.23621e-05
9.23621e-05
9.23621e-05
9.41497e-05
9.41497e-05
9.41497e-05
9.4382e-05
9.4382e-05
9.4382e-05
9.20713e-05
9.20713e-05
9.20713e-05
9.16801e-05
9.16801e-05
9.16801e-05
9.19053e-05
9.19053e-05
9.19053e-05
9.33027e-05
9.33027e-05
9.33027e-05
9.37329e-05
9.37329e-05
9.37329e-05
9.35481e-05
9.35481e-05
9.35481e-05
9.25434e-05
9.25434e-05
9.25434e-05
9.29542e-05
9.29542e-05
9.29542e-05
9.2313e-05
9.2313e-05
9.2313e-05
9.24951e-05
9.24951e-05
9.24951e-05
9.31343e-05
9.31343e-05
9.31343e-05
9.29057e-05
9.29057e-05
9.29057e-05
8.08466e-05
8.08466e-05
8.08466e-05
8.20762e-05
8.20762e-05
8.20762e-05
8.24419e-05
8.24419e-05
8.24419e-05
8.06377e-05
8.06377e-05
8.06377e-05
8.13529e-05
8.13529e-05
8.13529e-05
8.09989e-05
8.09989e-05
8.09989e-05
8.16964e-05
8.16964e-05
8.16964e-05
8.42927e-05
8.42927e-05
8.42927e-05
8.07341e-05
8.07341e-05
8.07341e-05
8.1124e-05
8.1124e-05
8.1124e-05
8.07648e-05
8.07648e-05
8.07648e-05
8.05705e-05
8.05705e-05
8.05705e-05
8.00513e-05
8.00513e-05
8.00513e-05
8.02137e-05
8.02137e-05
8.02137e-05
8.00203e-05
8.00203e-05
8.00203e-05
8.24686e-05
8.24686e-05
8.24686e-05
8.18472e-05
8.18472e-05
8.18472e-05
8.13193e-05
8.13193e-05
8.13193e-05
8.1681e-05
8.1681e-05
8.1681e-05
8.13777e-05
8.13777e-05
8.13777e-05
8.17396e-05
8.17396e-05
8.17396e-05
8.07135e-05
8.07135e-05
8.07135e-05
8.03568e-05
8.03568e-05
8.03568e-05
8.01921e-05
8.01921e-05
8.01921e-05
9.25959e-05
9.25959e-05
9.25959e-05
9.16123e-05
9.16123e-05
9.16123e-05
9.046e-05
9.046e-05
9.046e-05
9.00311e-05
9.00311e-05
9.00311e-05
9.04313e-05
9.04313e-05
9.04313e-05
9.06466e-05
9.06466e-05
9.06466e-05
9.12371e-05
9.12371e-05
9.12371e-05
9.10497e-05
9.10497e-05
9.10497e-05
9.00596e-05
9.00596e-05
9.00596e-05
8.9846e-05
8.9846e-05
8.9846e-05
8.76939e-05
8.76939e-05
8.76939e-05
9.0304e-05
9.0304e-05
9.0304e-05
9.05214e-05
9.05214e-05
9.05214e-05
9.0918e-05
9.0918e-05
9.0918e-05
9.01168e-05
9.01168e-05
9.01168e-05
0.000105398
0.000105398
0.000105398
0.000105415
0.000105415
0.000105415
0.000105167
0.000105167
0.000105167
0.000104688
0.000104688
0.000104688
0.000104637
0.000104637
0.000104637
9.4013e-05
9.4013e-05
9.4013e-05
9.31821e-05
9.31821e-05
9.31821e-05
9.38257e-05
9.38257e-05
9.38257e-05
9.341e-05
9.341e-05
9.341e-05
9.34511e-05
9.34511e-05
9.34511e-05
9.32638e-05
9.32638e-05
9.32638e-05
0.000104441
0.000104441
0.000104441
0.000105335
0.000105335
0.000105335
0.000104983
0.000104983
0.000104983
9.82362e-05
9.82362e-05
9.82362e-05
9.8466e-05
9.8466e-05
9.8466e-05
0.000103612
0.000103612
0.000103612
0.000105031
0.000105031
0.000105031
0.000104554
0.000104554
0.000104554
0.000104081
0.000104081
0.000104081
8.21317e-05
8.21317e-05
8.21317e-05
8.0307e-05
8.0307e-05
8.0307e-05
8.77974e-05
8.77974e-05
8.77974e-05
8.74082e-05
8.74082e-05
8.74082e-05
8.97647e-05
8.97647e-05
8.97647e-05
0.000101682
0.000101682
0.000101682
8.77892e-05
8.77892e-05
8.77892e-05
8.74001e-05
8.74001e-05
8.74001e-05
9.0963e-05
9.0963e-05
9.0963e-05
9.07583e-05
9.07583e-05
9.07583e-05
9.1373e-05
9.1373e-05
9.1373e-05
9.09681e-05
9.09681e-05
9.09681e-05
9.09718e-05
9.09718e-05
9.09718e-05
9.07685e-05
9.07685e-05
9.07685e-05
9.17842e-05
9.17842e-05
9.17842e-05
9.13767e-05
9.13767e-05
9.13767e-05
9.15783e-05
9.15783e-05
9.15783e-05
9.1986e-05
9.1986e-05
9.1986e-05
9.21921e-05
9.21921e-05
9.21921e-05
9.18209e-05
9.18209e-05
9.18209e-05
9.20013e-05
9.20013e-05
9.20013e-05
9.67483e-05
9.67483e-05
9.67483e-05
9.39695e-05
9.39695e-05
9.39695e-05
9.3783e-05
9.3783e-05
9.3783e-05
9.33677e-05
9.33677e-05
9.33677e-05
9.45293e-05
9.45293e-05
9.45293e-05
9.42962e-05
9.42962e-05
9.42962e-05
9.5751e-05
9.5751e-05
9.5751e-05
9.82456e-05
9.82456e-05
9.82456e-05
9.70766e-05
9.70766e-05
9.70766e-05
9.28109e-05
9.28109e-05
9.28109e-05
9.19916e-05
9.19916e-05
9.19916e-05
9.21754e-05
9.21754e-05
9.21754e-05
9.2585e-05
9.2585e-05
9.2585e-05
9.26254e-05
9.26254e-05
9.26254e-05
9.22156e-05
9.22156e-05
9.22156e-05
9.09979e-05
9.09979e-05
9.09979e-05
9.08157e-05
9.08157e-05
9.08157e-05
9.14401e-05
9.14401e-05
9.14401e-05
9.10359e-05
9.10359e-05
9.10359e-05
8.98701e-05
8.98701e-05
8.98701e-05
8.96535e-05
8.96535e-05
8.96535e-05
9.09235e-05
9.09235e-05
9.09235e-05
8.95466e-05
8.95466e-05
8.95466e-05
8.66487e-05
8.66487e-05
8.66487e-05
8.70752e-05
8.70752e-05
8.70752e-05
8.70328e-05
8.70328e-05
8.70328e-05
8.72467e-05
8.72467e-05
8.72467e-05
8.12578e-05
8.12578e-05
8.12578e-05
8.10933e-05
8.10933e-05
8.10933e-05
8.12889e-05
8.12889e-05
8.12889e-05
8.16504e-05
8.16504e-05
8.16504e-05
8.32809e-05
8.32809e-05
8.32809e-05
8.20804e-05
8.20804e-05
8.20804e-05
8.17178e-05
8.17178e-05
8.17178e-05
8.37134e-05
8.37134e-05
8.37134e-05
8.33803e-05
8.33803e-05
8.33803e-05
8.38796e-05
8.38796e-05
8.38796e-05
9.31392e-05
9.31392e-05
9.31392e-05
9.12792e-05
9.12792e-05
9.12792e-05
9.14597e-05
9.14597e-05
9.14597e-05
9.12356e-05
9.12356e-05
9.12356e-05
9.08328e-05
9.08328e-05
9.08328e-05
8.96356e-05
8.96356e-05
8.96356e-05
9.00328e-05
9.00328e-05
9.00328e-05
9.13228e-05
9.13228e-05
9.13228e-05
9.17749e-05
9.17749e-05
9.17749e-05
9.17277e-05
9.17277e-05
9.17277e-05
9.19542e-05
9.19542e-05
9.19542e-05
9.04721e-05
9.04721e-05
9.04721e-05
9.08578e-05
9.08578e-05
9.08578e-05
9.31841e-05
9.31841e-05
9.31841e-05
9.38784e-05
9.38784e-05
9.38784e-05
9.36466e-05
9.36466e-05
9.36466e-05
9.48533e-05
9.48533e-05
9.48533e-05
9.44818e-05
9.44818e-05
9.44818e-05
9.50897e-05
9.50897e-05
9.50897e-05
9.49027e-05
9.49027e-05
9.49027e-05
9.5701e-05
9.5701e-05
9.5701e-05
9.61282e-05
9.61282e-05
9.61282e-05
9.63178e-05
9.63178e-05
9.63178e-05
8.0604e-05
8.0604e-05
8.0604e-05
8.09966e-05
8.09966e-05
8.09966e-05
8.03057e-05
8.03057e-05
8.03057e-05
8.04944e-05
8.04944e-05
8.04944e-05
7.99533e-05
7.99533e-05
7.99533e-05
8.10469e-05
8.10469e-05
8.10469e-05
8.2124e-05
8.2124e-05
8.2124e-05
8.14041e-05
8.14041e-05
8.14041e-05
8.15579e-05
8.15579e-05
8.15579e-05
8.19172e-05
8.19172e-05
8.19172e-05
8.28104e-05
8.28104e-05
8.28104e-05
8.33436e-05
8.33436e-05
8.33436e-05
8.31778e-05
8.31778e-05
8.31778e-05
8.31404e-05
8.31404e-05
8.31404e-05
8.43353e-05
8.43353e-05
8.43353e-05
8.41259e-05
8.41259e-05
8.41259e-05
8.26463e-05
8.26463e-05
8.26463e-05
8.24874e-05
8.24874e-05
8.24874e-05
8.11831e-05
8.11831e-05
8.11831e-05
8.1154e-05
8.1154e-05
8.1154e-05
8.13489e-05
8.13489e-05
8.13489e-05
8.00814e-05
8.00814e-05
8.00814e-05
8.02442e-05
8.02442e-05
8.02442e-05
8.06009e-05
8.06009e-05
8.06009e-05
8.07948e-05
8.07948e-05
8.07948e-05
8.00841e-05
8.00841e-05
8.00841e-05
8.06377e-05
8.06377e-05
8.06377e-05
8.04421e-05
8.04421e-05
8.04421e-05
7.99221e-05
7.99221e-05
7.99221e-05
8.05394e-05
8.05394e-05
8.05394e-05
8.01824e-05
8.01824e-05
8.01824e-05
8.22112e-05
8.22112e-05
8.22112e-05
8.24092e-05
8.24092e-05
8.24092e-05
8.50416e-05
8.50416e-05
8.50416e-05
8.52147e-05
8.52147e-05
8.52147e-05
8.4023e-05
8.4023e-05
8.4023e-05
8.27758e-05
8.27758e-05
8.27758e-05
8.29442e-05
8.29442e-05
8.29442e-05
8.28357e-05
8.28357e-05
8.28357e-05
8.38533e-05
8.38533e-05
8.38533e-05
8.34821e-05
8.34821e-05
8.34821e-05
8.33131e-05
8.33131e-05
8.33131e-05
8.35139e-05
8.35139e-05
8.35139e-05
8.18775e-05
8.18775e-05
8.18775e-05
8.22713e-05
8.22713e-05
8.22713e-05
8.19069e-05
8.19069e-05
8.19069e-05
8.17107e-05
8.17107e-05
8.17107e-05
8.24394e-05
8.24394e-05
8.24394e-05
8.22417e-05
8.22417e-05
8.22417e-05
8.12114e-05
8.12114e-05
8.12114e-05
8.08521e-05
8.08521e-05
8.08521e-05
8.06868e-05
8.06868e-05
8.06868e-05
8.08793e-05
8.08793e-05
8.08793e-05
8.19354e-05
8.19354e-05
8.19354e-05
8.23e-05
8.23e-05
8.23e-05
8.2497e-05
8.2497e-05
8.2497e-05
8.59189e-05
8.59189e-05
8.59189e-05
8.63013e-05
8.63013e-05
8.63013e-05
9.37759e-05
9.37759e-05
9.37759e-05
9.21227e-05
9.21227e-05
9.21227e-05
9.39919e-05
9.39919e-05
9.39919e-05
9.37896e-05
9.37896e-05
9.37896e-05
9.1911e-05
9.1911e-05
9.1911e-05
9.24021e-05
9.24021e-05
9.24021e-05
9.26191e-05
9.26191e-05
9.26191e-05
9.05851e-05
9.05851e-05
9.05851e-05
9.07753e-05
9.07753e-05
9.07753e-05
9.11558e-05
9.11558e-05
9.11558e-05
9.01839e-05
9.01839e-05
9.01839e-05
8.99947e-05
8.99947e-05
8.99947e-05
8.95961e-05
8.95961e-05
8.95961e-05
8.93869e-05
8.93869e-05
8.93869e-05
9.17999e-05
9.17999e-05
9.17999e-05
9.12068e-05
9.12068e-05
9.12068e-05
9.102e-05
9.102e-05
9.102e-05
9.06172e-05
9.06172e-05
9.06172e-05
9.04013e-05
9.04013e-05
9.04013e-05
8.88042e-05
8.88042e-05
8.88042e-05
8.8991e-05
8.8991e-05
8.8991e-05
8.98739e-05
8.98739e-05
8.98739e-05
8.94484e-05
8.94484e-05
8.94484e-05
9.05626e-05
9.05626e-05
9.05626e-05
9.0752e-05
9.0752e-05
9.0752e-05
8.87366e-05
8.87366e-05
8.87366e-05
8.89214e-05
8.89214e-05
8.89214e-05
8.99382e-05
8.99382e-05
8.99382e-05
9.03377e-05
9.03377e-05
9.03377e-05
8.9719e-05
8.9719e-05
8.9719e-05
8.66355e-05
8.66355e-05
8.66355e-05
0.000105431
0.000105431
0.000105431
0.000105183
0.000105183
0.000105183
0.000105198
0.000105198
0.000105198
0.000100226
0.000100226
0.000100226
0.000101118
0.000101118
0.000101118
0.000100679
0.000100679
0.000100679
0.000104724
0.000104724
0.000104724
0.000104709
0.000104709
0.000104709
0.000104853
0.000104853
0.000104853
9.40552e-05
9.40552e-05
9.40552e-05
9.3867e-05
9.3867e-05
9.3867e-05
9.4096e-05
9.4096e-05
9.4096e-05
9.45152e-05
9.45152e-05
9.45152e-05
9.34908e-05
9.34908e-05
9.34908e-05
9.3907e-05
9.3907e-05
9.3907e-05
0.000105148
0.000105148
0.000105148
0.00010467
0.00010467
0.00010467
0.000105379
0.000105379
0.000105379
0.000105128
0.000105128
0.000105128
0.000104629
0.000104629
0.000104629
0.00010438
0.00010438
0.00010438
0.000103906
0.000103906
0.000103906
0.000103883
0.000103883
0.000103883
0.000103659
0.000103659
0.000103659
0.000102967
0.000102967
0.000102967
0.00010319
0.00010319
0.00010319
0.000105258
0.000105258
0.000105258
0.000104764
0.000104764
0.000104764
9.77968e-05
9.77968e-05
9.77968e-05
9.6925e-05
9.6925e-05
9.6925e-05
0.000104214
0.000104214
0.000104214
0.000104458
0.000104458
0.000104458
0.000103984
0.000103984
0.000103984
0.000104705
0.000104705
0.000104705
8.44964e-05
8.44964e-05
8.44964e-05
8.37225e-05
8.37225e-05
8.37225e-05
8.26496e-05
8.26496e-05
8.26496e-05
8.26598e-05
8.26598e-05
8.26598e-05
8.28388e-05
8.28388e-05
8.28388e-05
8.37694e-05
8.37694e-05
8.37694e-05
8.32079e-05
8.32079e-05
8.32079e-05
8.33979e-05
8.33979e-05
8.33979e-05
8.2828e-05
8.2828e-05
8.2828e-05
8.23128e-05
8.23128e-05
8.23128e-05
8.32291e-05
8.32291e-05
8.32291e-05
8.36011e-05
8.36011e-05
8.36011e-05
8.04951e-05
8.04951e-05
8.04951e-05
8.14024e-05
8.14024e-05
8.14024e-05
8.1042e-05
8.1042e-05
8.1042e-05
8.08526e-05
8.08526e-05
8.08526e-05
8.21287e-05
8.21287e-05
8.21287e-05
8.144e-05
8.144e-05
8.144e-05
8.10792e-05
8.10792e-05
8.10792e-05
8.7987e-05
8.7987e-05
8.7987e-05
8.7794e-05
8.7794e-05
8.7794e-05
8.79911e-05
8.79911e-05
8.79911e-05
8.68261e-05
8.68261e-05
8.68261e-05
8.72129e-05
8.72129e-05
8.72129e-05
8.66315e-05
8.66315e-05
8.66315e-05
8.68221e-05
8.68221e-05
8.68221e-05
8.74049e-05
8.74049e-05
8.74049e-05
8.72088e-05
8.72088e-05
8.72088e-05
8.95634e-05
8.95634e-05
8.95634e-05
8.9161e-05
8.9161e-05
8.9161e-05
8.93713e-05
8.93713e-05
8.93713e-05
8.97683e-05
8.97683e-05
8.97683e-05
8.95677e-05
8.95677e-05
8.95677e-05
0.00010174
0.00010174
0.00010174
9.83337e-05
9.83337e-05
9.83337e-05
9.92211e-05
9.92211e-05
9.92211e-05
9.69592e-05
9.69592e-05
9.69592e-05
9.65266e-05
9.65266e-05
9.65266e-05
9.68253e-05
9.68253e-05
9.68253e-05
9.55358e-05
9.55358e-05
9.55358e-05
9.51097e-05
9.51097e-05
9.51097e-05
9.81357e-05
9.81357e-05
9.81357e-05
9.85724e-05
9.85724e-05
9.85724e-05
9.90165e-05
9.90165e-05
9.90165e-05
9.85764e-05
9.85764e-05
9.85764e-05
9.83537e-05
9.83537e-05
9.83537e-05
9.8559e-05
9.8559e-05
9.8559e-05
9.90028e-05
9.90028e-05
9.90028e-05
9.96844e-05
9.96844e-05
9.96844e-05
9.92367e-05
9.92367e-05
9.92367e-05
9.90105e-05
9.90105e-05
9.90105e-05
9.92297e-05
9.92297e-05
9.92297e-05
0.000101224
0.000101224
0.000101224
8.66269e-05
8.66269e-05
8.66269e-05
8.62427e-05
8.62427e-05
8.62427e-05
9.0159e-05
9.0159e-05
9.0159e-05
9.03563e-05
9.03563e-05
9.03563e-05
8.97597e-05
8.97597e-05
8.97597e-05
8.95577e-05
8.95577e-05
8.95577e-05
9.09565e-05
9.09565e-05
9.09565e-05
9.42664e-05
9.42664e-05
9.42664e-05
9.44742e-05
9.44742e-05
9.44742e-05
9.46866e-05
9.46866e-05
9.46866e-05
9.46826e-05
9.46826e-05
9.46826e-05
9.44694e-05
9.44694e-05
9.44694e-05
9.21884e-05
9.21884e-05
9.21884e-05
9.2599e-05
9.2599e-05
9.2599e-05
9.40359e-05
9.40359e-05
9.40359e-05
9.13678e-05
9.13678e-05
9.13678e-05
9.21831e-05
9.21831e-05
9.21831e-05
9.15737e-05
9.15737e-05
9.15737e-05
9.19814e-05
9.19814e-05
9.19814e-05
9.77509e-05
9.77509e-05
9.77509e-05
9.73147e-05
9.73147e-05
9.73147e-05
9.49968e-05
9.49968e-05
9.49968e-05
9.63685e-05
9.63685e-05
9.63685e-05
9.61785e-05
9.61785e-05
9.61785e-05
9.51382e-05
9.51382e-05
9.51382e-05
9.55625e-05
9.55625e-05
9.55625e-05
9.49505e-05
9.49505e-05
9.49505e-05
9.51853e-05
9.51853e-05
9.51853e-05
9.52311e-05
9.52311e-05
9.52311e-05
9.5656e-05
9.5656e-05
9.5656e-05
9.76164e-05
9.76164e-05
9.76164e-05
9.80541e-05
9.80541e-05
9.80541e-05
9.07772e-05
9.07772e-05
9.07772e-05
9.09586e-05
9.09586e-05
9.09586e-05
9.07374e-05
9.07374e-05
9.07374e-05
9.03367e-05
9.03367e-05
9.03367e-05
9.01568e-05
9.01568e-05
9.01568e-05
9.03761e-05
9.03761e-05
9.03761e-05
9.08529e-05
9.08529e-05
9.08529e-05
9.04513e-05
9.04513e-05
9.04513e-05
9.0487e-05
9.0487e-05
9.0487e-05
9.02691e-05
9.02691e-05
9.02691e-05
9.16617e-05
9.16617e-05
9.16617e-05
9.2292e-05
9.2292e-05
9.2292e-05
9.2069e-05
9.2069e-05
9.2069e-05
8.99047e-05
8.99047e-05
8.99047e-05
8.96887e-05
8.96887e-05
8.96887e-05
8.97226e-05
8.97226e-05
8.97226e-05
8.72314e-05
8.72314e-05
8.72314e-05
8.68459e-05
8.68459e-05
8.68459e-05
8.88464e-05
8.88464e-05
8.88464e-05
8.93266e-05
8.93266e-05
8.93266e-05
8.95918e-05
8.95918e-05
8.95918e-05
8.9372e-05
8.9372e-05
8.9372e-05
8.94161e-05
8.94161e-05
8.94161e-05
8.90217e-05
8.90217e-05
8.90217e-05
8.75896e-05
8.75896e-05
8.75896e-05
8.69892e-05
8.69892e-05
8.69892e-05
8.72032e-05
8.72032e-05
8.72032e-05
8.58854e-05
8.58854e-05
8.58854e-05
8.49185e-05
8.49185e-05
8.49185e-05
8.52954e-05
8.52954e-05
8.52954e-05
8.55061e-05
8.55061e-05
8.55061e-05
8.53377e-05
8.53377e-05
8.53377e-05
8.42518e-05
8.42518e-05
8.42518e-05
8.1587e-05
8.1587e-05
8.1587e-05
8.11932e-05
8.11932e-05
8.11932e-05
8.1554e-05
8.1554e-05
8.1554e-05
8.17516e-05
8.17516e-05
8.17516e-05
8.17843e-05
8.17843e-05
8.17843e-05
8.18162e-05
8.18162e-05
8.18162e-05
8.16191e-05
8.16191e-05
8.16191e-05
8.21478e-05
8.21478e-05
8.21478e-05
8.15197e-05
8.15197e-05
8.15197e-05
8.09625e-05
8.09625e-05
8.09625e-05
8.11594e-05
8.11594e-05
8.11594e-05
8.16824e-05
8.16824e-05
8.16824e-05
8.2645e-05
8.2645e-05
8.2645e-05
8.22798e-05
8.22798e-05
8.22798e-05
8.21147e-05
8.21147e-05
8.21147e-05
8.23137e-05
8.23137e-05
8.23137e-05
8.41695e-05
8.41695e-05
8.41695e-05
8.37974e-05
8.37974e-05
8.37974e-05
8.36745e-05
8.36745e-05
8.36745e-05
8.33051e-05
8.33051e-05
8.33051e-05
8.36336e-05
8.36336e-05
8.36336e-05
8.38396e-05
8.38396e-05
8.38396e-05
9.27271e-05
9.27271e-05
9.27271e-05
9.19089e-05
9.19089e-05
9.19089e-05
9.21339e-05
9.21339e-05
9.21339e-05
9.25432e-05
9.25432e-05
9.25432e-05
9.18656e-05
9.18656e-05
9.18656e-05
9.26831e-05
9.26831e-05
9.26831e-05
9.20911e-05
9.20911e-05
9.20911e-05
9.25e-05
9.25e-05
9.25e-05
9.20469e-05
9.20469e-05
9.20469e-05
9.24555e-05
9.24555e-05
9.24555e-05
9.3739e-05
9.3739e-05
9.3739e-05
9.33239e-05
9.33239e-05
9.33239e-05
9.30949e-05
9.30949e-05
9.30949e-05
9.39247e-05
9.39247e-05
9.39247e-05
9.36935e-05
9.36935e-05