<VTKFile type="UnstructuredGrid" version="1.0">
<UnstructuredGrid>
<Piece NumberOfPoints="8859" NumberOfCells="2953">
<Points>
<DataArray type="Float64" NumberOfComponents="3" format="ascii">
0.5 3.01 11.4
0.512524 3.01 11.4225
0.487476 3.01 11.4225
0.17352 3.01 10.5225
0.160827 3.01 10.5442
0.148445 3.01 10.5225
0.122979 3.01 10.5659
0.110383 3.01 10.5442
0.135644 3.01 10.5442
0.135644 3.01 10.5442
0.110383 3.01 10.5442
0.123433 3.01 10.5225
0.123433 3.01 10.5225
0.148445 3.01 10.5225
0.135644 3.01 10.5442
0.135644 3.01 10.5442
0.148445 3.01 10.5225
0.160827 3.01 10.5442
0.17352 3.01 10.5225
0.198629 3.01 10.5225
0.185985 3.01 10.5442
0.185985 3.01 10.5442
0.160827 3.01 10.5442
0.17352 3.01 10.5225
0.0732297 3.01 10.5657
0.0586606 3.01 10.5438
0.0848754 3.01 10.5441
0.05 3.01 11.3553
0.05 3.01 11.3101
0.058509 3.01 11.3326
0.324276 3.01 10.5225
0.349395 3.01 10.5225
0.336827 3.01 10.5442
0.148138 3.01 10.5659
0.135644 3.01 10.5442
0.160827 3.01 10.5442
0.122979 3.01 10.5659
0.135644 3.01 10.5442
0.148138 3.01 10.5659
0.160827 3.01 10.5442
0.185985 3.01 10.5442
0.173316 3.01 10.5659
0.185806 3.01 10.5875
0.160572 3.01 10.5876
0.173316 3.01 10.5659
0.173316 3.01 10.5659
0.148138 3.01 10.5659
0.160827 3.01 10.5442
0.160572 3.01 10.5876
0.148138 3.01 10.5659
0.173316 3.01 10.5659
0.211137 3.01 10.5442
0.185985 3.01 10.5442
0.198629 3.01 10.5225
0.0979162 3.01 10.5658
0.110383 3.01 10.5442
0.122979 3.01 10.5659
0.122979 3.01 10.5659
0.109875 3.01 10.5875
0.0979162 3.01 10.5658
0.0732297 3.01 10.5657
0.0848754 3.01 10.5441
0.0979162 3.01 10.5658
0.0979162 3.01 10.5658
0.0848754 3.01 10.5441
0.110383 3.01 10.5442
0.0975729 3.01 10.609
0.109875 3.01 10.5875
0.122678 3.01 10.6091
0.0841718 3.01 10.5873
0.0577122 3.01 10.587
0.0732297 3.01 10.5657
0.0729308 3.01 10.6089
0.0577122 3.01 10.587
0.0841718 3.01 10.5873
0.0732297 3.01 10.5657
0.0979162 3.01 10.5658
0.0841718 3.01 10.5873
0.0841718 3.01 10.5873
0.0979162 3.01 10.5658
0.109875 3.01 10.5875
0.0975729 3.01 10.609
0.0729308 3.01 10.6089
0.0841718 3.01 10.5873
0.0841718 3.01 10.5873
0.109875 3.01 10.5875
0.0975729 3.01 10.609
0.073948 3.01 10.5225
0.0586606 3.01 10.5438
0.05 3.01 10.5225
0.073948 3.01 10.5225
0.0848754 3.01 10.5441
0.0586606 3.01 10.5438
0.05 3.01 11.3983
0.05 3.01 11.3553
0.0603641 3.01 11.377
0.0603641 3.01 11.377
0.0753197 3.01 11.399
0.05 3.01 11.3983
0.0709395 3.01 11.4225
0.05 3.01 11.4225
0.05 3.01 11.3983
0.05 3.01 11.3983
0.0753197 3.01 11.399
0.0709395 3.01 11.4225
0.0579641 3.01 11.1096
0.05 3.01 11.1317
0.05 3.01 11.0876
0.0841948 3.01 11.0218
0.097638 3.01 10.9999
0.109814 3.01 11.0218
0.0841948 3.01 11.0218
0.0730539 3.01 11.0437
0.0578646 3.01 11.0218
0.0580261 3.01 11.1538
0.05 3.01 11.1759
0.05 3.01 11.1317
0.942292 3.01 10.7174
0.95 3.01 10.6957
0.95 3.01 10.739
0.95 3.01 10.6523
0.95 3.01 10.6957
0.942332 3.01 10.674
0.73872 3.01 10.9345
0.726137 3.01 10.9128
0.75132 3.01 10.9128
0.751305 3.01 10.9563
0.726124 3.01 10.9563
0.73872 3.01 10.9345
0.713546 3.01 10.9345
0.726137 3.01 10.9128
0.73872 3.01 10.9345
0.73872 3.01 10.9345
0.726124 3.01 10.9563
0.713546 3.01 10.9345
0.814318 3.01 10.9781
0.789096 3.01 10.9781
0.801709 3.01 10.9563
0.7765 3.01 10.9563
0.789115 3.01 10.9345
0.801709 3.01 10.9563
0.801709 3.01 10.9563
0.789096 3.01 10.9781
0.7765 3.01 10.9563
0.7765 3.01 10.9563
0.789096 3.01 10.9781
0.763892 3.01 10.9781
0.763892 3.01 10.9781
0.751305 3.01 10.9563
0.7765 3.01 10.9563
0.95 3.01 11.4225
0.929061 3.01 11.4225
0.95 3.01 11.3983
0.95 3.01 11.2204
0.926844 3.01 11.2204
0.941913 3.01 11.1982
0.941913 3.01 11.1982
0.95 3.01 11.1759
0.95 3.01 11.2204
0.926866 3.01 11.1759
0.95 3.01 11.1759
0.941913 3.01 11.1982
0.941974 3.01 11.1538
0.95 3.01 11.1759
0.926866 3.01 11.1759
0.95 3.01 11.1317
0.95 3.01 11.1759
0.941974 3.01 11.1538
0.941974 3.01 11.1538
0.926895 3.01 11.1317
0.95 3.01 11.1317
0.6127 3.01 11.4225
0.625238 3.01 11.4
0.637734 3.01 11.4225
0.662757 3.01 11.4225
0.637734 3.01 11.4225
0.650275 3.01 11.4
0.650275 3.01 11.4
0.637734 3.01 11.4225
0.625238 3.01 11.4
0.600415 3.01 10.9564
0.587856 3.01 10.9782
0.575304 3.01 10.9564
0.575304 3.01 10.9564
0.587856 3.01 10.9782
0.562749 3.01 10.9782
0.336827 3.01 10.5442
0.349395 3.01 10.5225
0.361946 3.01 10.5442
0.223755 3.01 10.5225
0.211137 3.01 10.5442
0.198629 3.01 10.5225
0.185985 3.01 10.5442
0.211137 3.01 10.5442
0.198492 3.01 10.5659
0.185806 3.01 10.5875
0.173316 3.01 10.5659
0.198492 3.01 10.5659
0.198492 3.01 10.5659
0.173316 3.01 10.5659
0.185985 3.01 10.5442
0.0576202 3.01 10.6305
0.05 3.01 10.6523
0.05 3.01 10.6087
0.05 3.01 10.6087
0.0729308 3.01 10.6089
0.0576202 3.01 10.6305
0.05 3.01 10.6087
0.0577122 3.01 10.587
0.0729308 3.01 10.6089
0.135283 3.01 10.5875
0.109875 3.01 10.5875
0.122979 3.01 10.5659
0.135283 3.01 10.5875
0.122678 3.01 10.6091
0.109875 3.01 10.5875
0.122979 3.01 10.5659
0.148138 3.01 10.5659
0.135283 3.01 10.5875
0.135283 3.01 10.5875
0.148138 3.01 10.5659
0.160572 3.01 10.5876
0.123433 3.01 10.5225
0.110383 3.01 10.5442
0.0985513 3.01 10.5225
0.110383 3.01 10.5442
0.0848754 3.01 10.5441
0.0985513 3.01 10.5225
0.0848754 3.01 10.5441
0.073948 3.01 10.5225
0.0985513 3.01 10.5225
0.0603641 3.01 11.377
0.05 3.01 11.3553
0.0739464 3.01 11.3545
0.0739464 3.01 11.3545
0.05 3.01 11.3553
0.058509 3.01 11.3326
0.058509 3.01 11.3326
0.0849548 3.01 11.3321
0.0739464 3.01 11.3545
0.058509 3.01 11.3326
0.05 3.01 11.3101
0.0732725 3.01 11.3099
0.0732725 3.01 11.3099
0.0849548 3.01 11.3321
0.058509 3.01 11.3326
0.5 3.01 11.4
0.487476 3.01 11.4225
0.47495 3.01 11.4
0.097663 3.01 11.0437
0.0841948 3.01 11.0218
0.109814 3.01 11.0218
0.0730539 3.01 11.0437
0.0841948 3.01 11.0218
0.097663 3.01 11.0437
0.0578646 3.01 11.0218
0.0730539 3.01 11.0437
0.05 3.01 11.0437
0.05 3.01 11.0437
0.05 3.01 10.9999
0.0578646 3.01 11.0218
0.05 3.01 11.2204
0.05 3.01 11.1759
0.0580869 3.01 11.1982
0.05 3.01 11.1759
0.0580261 3.01 11.1538
0.073134 3.01 11.1759
0.073134 3.01 11.1759
0.0580869 3.01 11.1982
0.05 3.01 11.1759
0.942268 3.01 10.7607
0.95 3.01 10.739
0.95 3.01 10.7824
0.942292 3.01 10.7174
0.95 3.01 10.739
0.927025 3.01 10.739
0.927025 3.01 10.739
0.942268 3.01 10.7607
0.915919 3.01 10.7607
0.95 3.01 10.739
0.942268 3.01 10.7607
0.927025 3.01 10.739
0.927013 3.01 10.7824
0.942268 3.01 10.7607
0.95 3.01 10.7824
0.915919 3.01 10.7607
0.942268 3.01 10.7607
0.927013 3.01 10.7824
0.801738 3.01 10.8693
0.814364 3.01 10.8475
0.826957 3.01 10.8692
0.852174 3.01 10.8692
0.826957 3.01 10.8692
0.839609 3.01 10.8475
0.839609 3.01 10.8475
0.826957 3.01 10.8692
0.814364 3.01 10.8475
0.776516 3.01 10.9127
0.75132 3.01 10.9128
0.763923 3.01 10.891
0.776516 3.01 10.9127
0.801725 3.01 10.9127
0.789115 3.01 10.9345
0.738704 3.01 10.9781
0.751305 3.01 10.9563
0.763892 3.01 10.9781
0.726124 3.01 10.9563
0.751305 3.01 10.9563
0.738704 3.01 10.9781
0.915617 3.01 11.1981
0.902228 3.01 11.1759
0.926866 3.01 11.1759
0.926866 3.01 11.1759
0.941913 3.01 11.1982
0.915617 3.01 11.1981
0.915617 3.01 11.1981
0.941913 3.01 11.1982
0.926844 3.01 11.2204
0.915617 3.01 11.1981
0.926844 3.01 11.2204
0.902193 3.01 11.2204
0.926866 3.01 11.1759
0.902228 3.01 11.1759
0.915668 3.01 11.1538
0.902267 3.01 11.1317
0.926895 3.01 11.1317
0.915668 3.01 11.1538
0.915668 3.01 11.1538
0.941974 3.01 11.1538
0.926866 3.01 11.1759
0.926895 3.01 11.1317
0.941974 3.01 11.1538
0.915668 3.01 11.1538
0.902267 3.01 11.1317
0.915668 3.01 11.1538
0.890059 3.01 11.1538
0.890059 3.01 11.1538
0.915668 3.01 11.1538
0.902228 3.01 11.1759
0.826927 3.01 10.9563
0.814318 3.01 10.9781
0.801709 3.01 10.9563
0.864816 3.01 11.0218
0.877308 3.01 10.9999
0.890186 3.01 11.0218
0.877308 3.01 10.9999
0.864816 3.01 11.0218
0.852122 3.01 10.9999
0.890186 3.01 11.0218
0.877308 3.01 10.9999
0.902362 3.01 10.9999
0.902362 3.01 10.9999
0.915805 3.01 11.0218
0.890186 3.01 11.0218
0.902362 3.01 10.9999
0.926964 3.01 10.9999
0.915805 3.01 11.0218
0.915835 3.01 10.9781
0.926964 3.01 10.9999
0.902362 3.01 10.9999
0.942171 3.01 10.9781
0.926964 3.01 10.9999
0.915835 3.01 10.9781
0.915835 3.01 10.9781
0.926978 3.01 10.9563
0.942171 3.01 10.9781
0.942171 3.01 10.9781
0.926978 3.01 10.9563
0.95 3.01 10.9563
0.87737 3.01 10.8258
0.890277 3.01 10.8041
0.902417 3.01 10.8258
0.852144 3.01 10.9563
0.877329 3.01 10.9563
0.864842 3.01 10.9781
0.877308 3.01 10.9999
0.852122 3.01 10.9999
0.864842 3.01 10.9781
0.902396 3.01 10.9127
0.915858 3.01 10.9345
0.890234 3.01 10.9345
0.926997 3.01 10.8692
0.942237 3.01 10.8475
0.95 3.01 10.8692
0.91589 3.01 10.8475
0.942237 3.01 10.8475
0.926997 3.01 10.8692
0.942199 3.01 10.9345
0.95 3.01 10.9127
0.95 3.01 10.9563
0.95 3.01 10.9563
0.926978 3.01 10.9563
0.942199 3.01 10.9345
0.942199 3.01 10.9345
0.926978 3.01 10.9563
0.915858 3.01 10.9345
0.95 3.01 10.8692
0.95 3.01 10.9127
0.942221 3.01 10.891
0.942221 3.01 10.891
0.926997 3.01 10.8692
0.95 3.01 10.8692
0.915876 3.01 10.891
0.926997 3.01 10.8692
0.942221 3.01 10.891
0.926989 3.01 10.9127
0.915858 3.01 10.9345
0.902396 3.01 10.9127
0.902396 3.01 10.9127
0.915876 3.01 10.891
0.926989 3.01 10.9127
0.926989 3.01 10.9127
0.942199 3.01 10.9345
0.915858 3.01 10.9345
0.95 3.01 10.9127
0.942199 3.01 10.9345
0.926989 3.01 10.9127
0.915876 3.01 10.891
0.942221 3.01 10.891
0.926989 3.01 10.9127
0.926989 3.01 10.9127
0.942221 3.01 10.891
0.95 3.01 10.9127
0.91353 3.01 11.3769
0.926054 3.01 11.3545
0.939636 3.01 11.377
0.926728 3.01 11.3099
0.95 3.01 11.3101
0.941491 3.01 11.3326
0.926728 3.01 11.3099
0.941822 3.01 11.2875
0.95 3.01 11.3101
0.95 3.01 11.3553
0.95 3.01 11.3983
0.939636 3.01 11.377
0.95 3.01 11.3553
0.926054 3.01 11.3545
0.941491 3.01 11.3326
0.939636 3.01 11.377
0.926054 3.01 11.3545
0.95 3.01 11.3553
0.941491 3.01 11.3326
0.95 3.01 11.3101
0.95 3.01 11.3553
0.941869 3.01 11.2427
0.926844 3.01 11.2204
0.95 3.01 11.2204
0.762942 3.01 11.3773
0.75028 3.01 11.3999
0.737933 3.01 11.3773
0.71291 3.01 11.3774
0.725533 3.01 11.3549
0.737933 3.01 11.3773
0.71291 3.01 11.3774
0.737933 3.01 11.3773
0.725313 3.01 11.3999
0.725313 3.01 11.3999
0.737933 3.01 11.3773
[...]
<PointData Scalars="View Factor" >
<DataArray type="Float64" Name="View Factor" NumberOfComponents="1" format="ascii">
4.96177e-06
4.96177e-06
4.96177e-06
5.61468e-06
5.61468e-06
5.61468e-06
5.59765e-06
5.59765e-06
5.59765e-06
5.60909e-06
5.60909e-06
5.60909e-06
5.61478e-06
5.61478e-06
5.61478e-06
5.609e-06
5.609e-06
5.609e-06
5.61456e-06
5.61456e-06
5.61456e-06
5.60889e-06
5.60889e-06
5.60889e-06
5.59798e-06
5.59798e-06
5.59798e-06
5.02102e-06
5.02102e-06
5.02102e-06
5.61348e-06
5.61348e-06
5.61348e-06
5.59756e-06
5.59756e-06
5.59756e-06
5.5919e-06
5.5919e-06
5.5919e-06
5.59745e-06
5.59745e-06
5.59745e-06
5.57469e-06
5.57469e-06
5.57469e-06
5.5918e-06
5.5918e-06
5.5918e-06
5.58042e-06
5.58042e-06
5.58042e-06
5.60877e-06
5.60877e-06
5.60877e-06
5.59201e-06
5.59201e-06
5.59201e-06
5.58064e-06
5.58064e-06
5.58064e-06
5.59215e-06
5.59215e-06
5.59215e-06
5.59777e-06
5.59777e-06
5.59777e-06
5.55803e-06
5.55803e-06
5.55803e-06
5.57528e-06
5.57528e-06
5.57528e-06
5.56398e-06
5.56398e-06
5.56398e-06
5.58081e-06
5.58081e-06
5.58081e-06
5.57506e-06
5.57506e-06
5.57506e-06
5.5582e-06
5.5582e-06
5.5582e-06
5.56375e-06
5.56375e-06
5.56375e-06
5.6151e-06
5.6151e-06
5.6151e-06
5.60936e-06
5.60936e-06
5.60936e-06
4.99066e-06
4.99066e-06
4.99066e-06
4.98069e-06
4.98069e-06
4.98069e-06
4.96502e-06
4.96502e-06
4.96502e-06
4.97034e-06
4.97034e-06
4.97034e-06
5.17777e-06
5.17777e-06
5.17777e-06
5.24643e-06
5.24643e-06
5.24643e-06
5.23586e-06
5.23586e-06
5.23586e-06
5.14625e-06
5.14625e-06
5.14625e-06
5.45671e-06
5.45671e-06
5.45671e-06
5.49002e-06
5.49002e-06
5.49002e-06
5.30895e-06
5.30895e-06
5.30895e-06
5.28754e-06
5.28754e-06
5.28754e-06
5.30383e-06
5.30383e-06
5.30383e-06
5.29312e-06
5.29312e-06
5.29312e-06
5.27032e-06
5.27032e-06
5.27032e-06
5.28658e-06
5.28658e-06
5.28658e-06
5.2759e-06
5.2759e-06
5.2759e-06
5.27082e-06
5.27082e-06
5.27082e-06
5.27639e-06
5.27639e-06
5.27639e-06
4.95478e-06
4.95478e-06
4.95478e-06
5.09378e-06
5.09378e-06
5.09378e-06
5.10402e-06
5.10402e-06
5.10402e-06
5.11463e-06
5.11463e-06
5.11463e-06
5.12507e-06
5.12507e-06
5.12507e-06
5.13534e-06
5.13534e-06
5.13534e-06
5.14599e-06
5.14599e-06
5.14599e-06
4.96015e-06
4.96015e-06
4.96015e-06
4.95978e-06
4.95978e-06
4.95978e-06
4.96507e-06
4.96507e-06
4.96507e-06
5.27937e-06
5.27937e-06
5.27937e-06
5.27422e-06
5.27422e-06
5.27422e-06
5.60764e-06
5.60764e-06
5.60764e-06
5.61443e-06
5.61443e-06
5.61443e-06
5.59733e-06
5.59733e-06
5.59733e-06
5.58031e-06
5.58031e-06
5.58031e-06
5.59169e-06
5.59169e-06
5.59169e-06
5.5358e-06
5.5358e-06
5.5358e-06
5.54707e-06
5.54707e-06
5.54707e-06
5.55841e-06
5.55841e-06
5.55841e-06
5.57491e-06
5.57491e-06
5.57491e-06
5.5636e-06
5.5636e-06
5.5636e-06
5.58053e-06
5.58053e-06
5.58053e-06
5.5748e-06
5.5748e-06
5.5748e-06
5.61487e-06
5.61487e-06
5.61487e-06
5.60919e-06
5.60919e-06
5.60919e-06
5.61496e-06
5.61496e-06
5.61496e-06
5.00065e-06
5.00065e-06
5.00065e-06
5.01082e-06
5.01082e-06
5.01082e-06
5.01612e-06
5.01612e-06
5.01612e-06
5.03146e-06
5.03146e-06
5.03146e-06
5.02637e-06
5.02637e-06
5.02637e-06
4.96701e-06
4.96701e-06
4.96701e-06
5.23581e-06
5.23581e-06
5.23581e-06
5.23054e-06
5.23054e-06
5.23054e-06
5.23058e-06
5.23058e-06
5.23058e-06
5.24119e-06
5.24119e-06
5.24119e-06
5.11483e-06
5.11483e-06
5.11483e-06
5.13576e-06
5.13576e-06
5.13576e-06
5.12529e-06
5.12529e-06
5.12529e-06
5.42367e-06
5.42367e-06
5.42367e-06
5.44587e-06
5.44587e-06
5.44587e-06
5.42964e-06
5.42964e-06
5.42964e-06
5.43485e-06
5.43485e-06
5.43485e-06
5.41291e-06
5.41291e-06
5.41291e-06
5.41867e-06
5.41867e-06
5.41867e-06
5.35052e-06
5.35052e-06
5.35052e-06
5.34998e-06
5.34998e-06
5.34998e-06
5.35566e-06
5.35566e-06
5.35566e-06
5.31921e-06
5.31921e-06
5.31921e-06
5.30798e-06
5.30798e-06
5.30798e-06
5.2713e-06
5.2713e-06
5.2713e-06
5.27686e-06
5.27686e-06
5.27686e-06
5.11519e-06
5.11519e-06
5.11519e-06
5.10968e-06
5.10968e-06
5.10968e-06
5.09925e-06
5.09925e-06
5.09925e-06
5.09434e-06
5.09434e-06
5.09434e-06
5.12563e-06
5.12563e-06
5.12563e-06
5.14655e-06
5.14655e-06
5.14655e-06
5.13056e-06
5.13056e-06
5.13056e-06
5.14101e-06
5.14101e-06
5.14101e-06
5.14159e-06
5.14159e-06
5.14159e-06
5.13113e-06
5.13113e-06
5.13113e-06
5.2754e-06
5.2754e-06
5.2754e-06
5.23688e-06
5.23688e-06
5.23688e-06
5.24245e-06
5.24245e-06
5.24245e-06
5.2419e-06
5.2419e-06
5.2419e-06
5.23631e-06
5.23631e-06
5.23631e-06
5.24133e-06
5.24133e-06
5.24133e-06
5.25194e-06
5.25194e-06
5.25194e-06
5.25694e-06
5.25694e-06
5.25694e-06
5.26758e-06
5.26758e-06
5.26758e-06
5.27263e-06
5.27263e-06
5.27263e-06
5.38137e-06
5.38137e-06
5.38137e-06
5.27434e-06
5.27434e-06
5.27434e-06
5.25306e-06
5.25306e-06
5.25306e-06
5.30019e-06
5.30019e-06
5.30019e-06
5.34769e-06
5.34769e-06
5.34769e-06
5.35336e-06
5.35336e-06
5.35336e-06
5.29378e-06
5.29378e-06
5.29378e-06
5.28329e-06
5.28329e-06
5.28329e-06
5.2889e-06
5.2889e-06
5.2889e-06
5.32595e-06
5.32595e-06
5.32595e-06
5.3369e-06
5.3369e-06
5.3369e-06
5.33179e-06
5.33179e-06
5.33179e-06
5.30526e-06
5.30526e-06
5.30526e-06
5.31598e-06
5.31598e-06
5.31598e-06
5.29959e-06
5.29959e-06
5.29959e-06
5.30467e-06
5.30467e-06
5.30467e-06
5.32103e-06
5.32103e-06
5.32103e-06
5.31539e-06
5.31539e-06
5.31539e-06
4.98575e-06
4.98575e-06
4.98575e-06
5.0211e-06
5.0211e-06
5.0211e-06
5.03145e-06
5.03145e-06
5.03145e-06
4.98026e-06
4.98026e-06
4.98026e-06
5.00053e-06
5.00053e-06
5.00053e-06
4.9904e-06
4.9904e-06
4.9904e-06
5.01051e-06
5.01051e-06
5.01051e-06
5.08337e-06
5.08337e-06
5.08337e-06
4.97867e-06
4.97867e-06
4.97867e-06
4.98933e-06
4.98933e-06
4.98933e-06
4.97907e-06
4.97907e-06
4.97907e-06
4.97375e-06
4.97375e-06
4.97375e-06
4.9586e-06
4.9586e-06
4.9586e-06
4.96351e-06
4.96351e-06
4.96351e-06
4.95818e-06
4.95818e-06
4.95818e-06
5.02631e-06
5.02631e-06
5.02631e-06
5.00989e-06
5.00989e-06
5.00989e-06
4.99466e-06
4.99466e-06
4.99466e-06
5.00494e-06
5.00494e-06
5.00494e-06
4.99542e-06
4.99542e-06
4.99542e-06
5.00569e-06
5.00569e-06
5.00569e-06
4.97564e-06
4.97564e-06
4.97564e-06
4.96542e-06
4.96542e-06
4.96542e-06
4.9605e-06
4.9605e-06
4.9605e-06
5.29723e-06
5.29723e-06
5.29723e-06
5.27385e-06
5.27385e-06
5.27385e-06
5.24264e-06
5.24264e-06
5.24264e-06
5.23167e-06
5.23167e-06
5.23167e-06
5.24228e-06
5.24228e-06
5.24228e-06
5.24777e-06
5.24777e-06
5.24777e-06
5.26355e-06
5.26355e-06
5.26355e-06
5.25841e-06
5.25841e-06
5.25841e-06
5.23202e-06
5.23202e-06
5.23202e-06
5.22655e-06
5.22655e-06
5.22655e-06
5.16866e-06
5.16866e-06
5.16866e-06
5.24073e-06
5.24073e-06
5.24073e-06
5.24624e-06
5.24624e-06
5.24624e-06
5.25968e-06
5.25968e-06
5.25968e-06
5.23845e-06
5.23845e-06
5.23845e-06
5.61391e-06
5.61391e-06
5.61391e-06
5.6141e-06
5.6141e-06
5.6141e-06
5.60828e-06
5.60828e-06
5.60828e-06
5.59686e-06
5.59686e-06
5.59686e-06
5.60251e-06
5.60251e-06
5.60251e-06
5.34024e-06
5.34024e-06
5.34024e-06
5.31871e-06
5.31871e-06
5.31871e-06
5.3351e-06
5.3351e-06
5.3351e-06
5.32434e-06
5.32434e-06
5.32434e-06
5.32483e-06
5.32483e-06
5.32483e-06
5.31969e-06
5.31969e-06
5.31969e-06
5.59106e-06
5.59106e-06
5.59106e-06
5.61323e-06
5.61323e-06
5.61323e-06
5.60939e-06
5.60939e-06
5.60939e-06
5.43962e-06
5.43962e-06
5.43962e-06
5.44523e-06
5.44523e-06
5.44523e-06
5.56986e-06
5.56986e-06
5.56986e-06
5.60386e-06
5.60386e-06
5.60386e-06
5.59248e-06
5.59248e-06
5.59248e-06
5.58113e-06
5.58113e-06
5.58113e-06
5.01108e-06
5.01108e-06
5.01108e-06
4.96206e-06
4.96206e-06
4.96206e-06
5.16725e-06
5.16725e-06
5.16725e-06
5.15674e-06
5.15674e-06
5.15674e-06
5.21995e-06
5.21995e-06
5.21995e-06
5.52375e-06
5.52375e-06
5.52375e-06
5.16715e-06
5.16715e-06
5.16715e-06
5.15664e-06
5.15664e-06
5.15664e-06
5.2517e-06
5.2517e-06
5.2517e-06
5.24635e-06
5.24635e-06
5.24635e-06
5.26241e-06
5.26241e-06
5.26241e-06
5.25177e-06
5.25177e-06
5.25177e-06
5.25181e-06
5.25181e-06
5.25181e-06
5.24648e-06
5.24648e-06
5.24648e-06
5.27312e-06
5.27312e-06
5.27312e-06
5.26245e-06
5.26245e-06
5.26245e-06
5.26776e-06
5.26776e-06
5.26776e-06
5.27843e-06
5.27843e-06
5.27843e-06
5.28379e-06
5.28379e-06
5.28379e-06
5.285e-06
5.285e-06
5.285e-06
5.29007e-06
5.29007e-06
5.29007e-06
5.41351e-06
5.41351e-06
5.41351e-06
5.33972e-06
5.33972e-06
5.33972e-06
5.3346e-06
5.3346e-06
5.3346e-06
5.32383e-06
5.32383e-06
5.32383e-06
5.35511e-06
5.35511e-06
5.35511e-06
5.34943e-06
5.34943e-06
5.34943e-06
5.3871e-06
5.3871e-06
5.3871e-06
5.45167e-06
5.45167e-06
5.45167e-06
5.41732e-06
5.41732e-06
5.41732e-06
5.30848e-06
5.30848e-06
5.30848e-06
5.28707e-06
5.28707e-06
5.28707e-06
5.29217e-06
5.29217e-06
5.29217e-06
5.30287e-06
5.30287e-06
5.30287e-06
5.30336e-06
5.30336e-06
5.30336e-06
5.29265e-06
5.29265e-06
5.29265e-06
5.26065e-06
5.26065e-06
5.26065e-06
5.25556e-06
5.25556e-06
5.25556e-06
5.27176e-06
5.27176e-06
5.27176e-06
5.26111e-06
5.26111e-06
5.26111e-06
5.2297e-06
5.2297e-06
5.2297e-06
5.22419e-06
5.22419e-06
5.22419e-06
5.25687e-06
5.25687e-06
5.25687e-06
5.22573e-06
5.22573e-06
5.22573e-06
5.1471e-06
5.1471e-06
5.1471e-06
5.15811e-06
5.15811e-06
5.15811e-06
5.15758e-06
5.15758e-06
5.15758e-06
5.16309e-06
5.16309e-06
5.16309e-06
4.99388e-06
4.99388e-06
4.99388e-06
4.98894e-06
4.98894e-06
4.98894e-06
4.99427e-06
4.99427e-06
4.99427e-06
5.00455e-06
5.00455e-06
5.00455e-06
5.0508e-06
5.0508e-06
5.0508e-06
5.01857e-06
5.01857e-06
5.01857e-06
5.00828e-06
5.00828e-06
5.00828e-06
5.06479e-06
5.06479e-06
5.06479e-06
5.05491e-06
5.05491e-06
5.05491e-06
5.06973e-06
5.06973e-06
5.06973e-06
5.3182e-06
5.3182e-06
5.3182e-06
5.26981e-06
5.26981e-06
5.26981e-06
5.27488e-06
5.27488e-06
5.27488e-06
5.26928e-06
5.26928e-06
5.26928e-06
5.25864e-06
5.25864e-06
5.25864e-06
5.22683e-06
5.22683e-06
5.22683e-06
5.23742e-06
5.23742e-06
5.23742e-06
5.27321e-06
5.27321e-06
5.27321e-06
5.28445e-06
5.28445e-06
5.28445e-06
5.28387e-06
5.28387e-06
5.28387e-06
5.28949e-06
5.28949e-06
5.28949e-06
5.25136e-06
5.25136e-06
5.25136e-06
5.2618e-06
5.2618e-06
5.2618e-06
5.32163e-06
5.32163e-06
5.32163e-06
5.33864e-06
5.33864e-06
5.33864e-06
5.33297e-06
5.33297e-06
5.33297e-06
5.36479e-06
5.36479e-06
5.36479e-06
5.35455e-06
5.35455e-06
5.35455e-06
5.37051e-06
5.37051e-06
5.37051e-06
5.36538e-06
5.36538e-06
5.36538e-06
5.38651e-06
5.38651e-06
5.38651e-06
5.39741e-06
5.39741e-06
5.39741e-06
5.40258e-06
5.40258e-06
5.40258e-06
4.97703e-06
4.97703e-06
4.97703e-06
4.98773e-06
4.98773e-06
4.98773e-06
4.97051e-06
4.97051e-06
4.97051e-06
4.97564e-06
4.97564e-06
4.97564e-06
4.96027e-06
4.96027e-06
4.96027e-06
4.99117e-06
4.99117e-06
4.99117e-06
5.02184e-06
5.02184e-06
5.02184e-06
5.00138e-06
5.00138e-06
5.00138e-06
5.00608e-06
5.00608e-06
5.00608e-06
5.0163e-06
5.0163e-06
5.0163e-06
5.03918e-06
5.03918e-06
5.03918e-06
5.05444e-06
5.05444e-06
5.05444e-06
5.04951e-06
5.04951e-06
5.04951e-06
5.04903e-06
5.04903e-06
5.04903e-06
5.08394e-06
5.08394e-06
5.08394e-06
5.07843e-06
5.07843e-06
5.07843e-06
5.03694e-06
5.03694e-06
5.03694e-06
5.03212e-06
5.03212e-06
5.03212e-06
4.9901e-06
4.9901e-06
4.9901e-06
4.98972e-06
4.98972e-06
4.98972e-06
4.99504e-06
4.99504e-06
4.99504e-06
4.95901e-06
4.95901e-06
4.95901e-06
4.96391e-06
4.96391e-06
4.96391e-06
4.97414e-06
4.97414e-06
4.97414e-06
4.97946e-06
4.97946e-06
4.97946e-06
4.96181e-06
4.96181e-06
4.96181e-06
4.97745e-06
4.97745e-06
4.97745e-06
4.97211e-06
4.97211e-06
4.97211e-06
4.95687e-06
4.95687e-06
4.95687e-06
4.97334e-06
4.97334e-06
4.97334e-06
4.96309e-06
4.96309e-06
4.96309e-06
5.0202e-06
5.0202e-06
5.0202e-06
5.02555e-06
5.02555e-06
5.02555e-06
5.09856e-06
5.09856e-06
5.09856e-06
5.10358e-06
5.10358e-06
5.10358e-06
5.07154e-06
5.07154e-06
5.07154e-06
5.03588e-06
5.03588e-06
5.03588e-06
5.04085e-06
5.04085e-06
5.04085e-06
5.03664e-06
5.03664e-06
5.03664e-06
5.06655e-06
5.06655e-06
5.06655e-06
5.05618e-06
5.05618e-06
5.05618e-06
5.0512e-06
5.0512e-06
5.0512e-06
5.05658e-06
5.05658e-06
5.05658e-06
5.01028e-06
5.01028e-06
5.01028e-06
5.02096e-06
5.02096e-06
5.02096e-06
5.01066e-06
5.01066e-06
5.01066e-06
5.00532e-06
5.00532e-06
5.00532e-06
5.02593e-06
5.02593e-06
5.02593e-06
5.02058e-06
5.02058e-06
5.02058e-06
4.99047e-06
4.99047e-06
4.99047e-06
4.98022e-06
4.98022e-06
4.98022e-06
4.97528e-06
4.97528e-06
4.97528e-06
4.98058e-06
4.98058e-06
4.98058e-06
5.01103e-06
5.01103e-06
5.01103e-06
5.02133e-06
5.02133e-06
5.02133e-06
5.02667e-06
5.02667e-06
5.02667e-06
5.12094e-06
5.12094e-06
5.12094e-06
5.13141e-06
5.13141e-06
5.13141e-06
5.32582e-06
5.32582e-06
5.32582e-06
5.28292e-06
5.28292e-06
5.28292e-06
5.33129e-06
5.33129e-06
5.33129e-06
5.32599e-06
5.32599e-06
5.32599e-06
5.27749e-06
5.27749e-06
5.27749e-06
5.29202e-06
5.29202e-06
5.29202e-06
5.29751e-06
5.29751e-06
5.29751e-06
5.24417e-06
5.24417e-06
5.24417e-06
5.24935e-06
5.24935e-06
5.24935e-06
5.25971e-06
5.25971e-06
5.25971e-06
5.23356e-06
5.23356e-06
5.23356e-06
5.22839e-06
5.22839e-06
5.22839e-06
5.21779e-06
5.21779e-06
5.21779e-06
5.21237e-06
5.21237e-06
5.21237e-06
5.27899e-06
5.27899e-06
5.27899e-06
5.26319e-06
5.26319e-06
5.26319e-06
5.25805e-06
5.25805e-06
5.25805e-06
5.24741e-06
5.24741e-06
5.24741e-06
5.24192e-06
5.24192e-06
5.24192e-06
5.19665e-06
5.19665e-06
5.19665e-06
5.2018e-06
5.2018e-06
5.2018e-06
5.22689e-06
5.22689e-06
5.22689e-06
5.21596e-06
5.21596e-06
5.21596e-06
5.2439e-06
5.2439e-06
5.2439e-06
5.24907e-06
5.24907e-06
5.24907e-06
5.1958e-06
5.1958e-06
5.1958e-06
5.20093e-06
5.20093e-06
5.20093e-06
5.23053e-06
5.23053e-06
5.23053e-06
5.24114e-06
5.24114e-06
5.24114e-06
5.22785e-06
5.22785e-06
5.22785e-06
5.14411e-06
5.14411e-06
5.14411e-06
5.61427e-06
5.61427e-06
5.61427e-06
5.60846e-06
5.60846e-06
5.60846e-06
5.60862e-06
5.60862e-06
5.60862e-06
5.50138e-06
5.50138e-06
5.50138e-06
5.52363e-06
5.52363e-06
5.52363e-06
5.51258e-06
5.51258e-06
5.51258e-06
5.60346e-06
5.60346e-06
5.60346e-06
5.6064e-06
5.6064e-06
5.6064e-06
5.60798e-06
5.60798e-06
5.60798e-06
5.34074e-06
5.34074e-06
5.34074e-06
5.33559e-06
5.33559e-06
5.33559e-06
5.34123e-06
5.34123e-06
5.34123e-06
5.35203e-06
5.35203e-06
5.35203e-06
5.3253e-06
5.3253e-06
5.3253e-06
5.33607e-06
5.33607e-06
5.33607e-06
5.60809e-06
5.60809e-06
5.60809e-06
5.59666e-06
5.59666e-06
5.59666e-06
5.6137e-06
5.6137e-06
5.6137e-06
5.60787e-06
5.60787e-06
5.60787e-06
5.59622e-06
5.59622e-06
5.59622e-06
5.5904e-06
5.5904e-06
5.5904e-06
5.57903e-06
5.57903e-06
5.57903e-06
5.57877e-06
5.57877e-06
5.57877e-06
5.57323e-06
5.57323e-06
5.57323e-06
5.55637e-06
5.55637e-06
5.55637e-06
5.5619e-06
5.5619e-06
5.5619e-06
5.6124e-06
5.6124e-06
5.6124e-06
5.6039e-06
5.6039e-06
5.6039e-06
5.42862e-06
5.42862e-06
5.42862e-06
5.4067e-06
5.4067e-06
5.4067e-06
5.58859e-06
5.58859e-06
5.58859e-06
5.59125e-06
5.59125e-06
5.59125e-06
5.57987e-06
5.57987e-06
5.57987e-06
5.59704e-06
5.59704e-06
5.59704e-06
5.07772e-06
5.07772e-06
5.07772e-06
5.05657e-06
5.05657e-06
5.05657e-06
5.02609e-06
5.02609e-06
5.02609e-06
5.02625e-06
5.02625e-06
5.02625e-06
5.03133e-06
5.03133e-06
5.03133e-06
5.05727e-06
5.05727e-06
5.05727e-06
5.04167e-06
5.04167e-06
5.04167e-06
5.04692e-06
5.04692e-06
5.04692e-06
5.03116e-06
5.03116e-06
5.03116e-06
5.01622e-06
5.01622e-06
5.01622e-06
5.04185e-06
5.04185e-06
5.04185e-06
5.05222e-06
5.05222e-06
5.05222e-06
4.96729e-06
4.96729e-06
4.96729e-06
4.99301e-06
4.99301e-06
4.99301e-06
4.98276e-06
4.98276e-06
4.98276e-06
4.97751e-06
4.97751e-06
4.97751e-06
5.01358e-06
5.01358e-06
5.01358e-06
4.99352e-06
4.99352e-06
4.99352e-06
4.98326e-06
4.98326e-06
4.98326e-06
5.17244e-06
5.17244e-06
5.17244e-06
5.16721e-06
5.16721e-06
5.16721e-06
5.17249e-06
5.17249e-06
5.17249e-06
5.14098e-06
5.14098e-06
5.14098e-06
5.15147e-06
5.15147e-06
5.15147e-06
5.13572e-06
5.13572e-06
5.13572e-06
5.14093e-06
5.14093e-06
5.14093e-06
5.1567e-06
5.1567e-06
5.1567e-06
5.15142e-06
5.15142e-06
5.15142e-06
5.21463e-06
5.21463e-06
5.21463e-06
5.20399e-06
5.20399e-06
5.20399e-06
5.20942e-06
5.20942e-06
5.20942e-06
5.21999e-06
5.21999e-06
5.21999e-06
5.21468e-06
5.21468e-06
5.21468e-06
5.52451e-06
5.52451e-06
5.52451e-06
5.44076e-06
5.44076e-06
5.44076e-06
5.46284e-06
5.46284e-06
5.46284e-06
5.4071e-06
5.4071e-06
5.4071e-06
5.39617e-06
5.39617e-06
5.39617e-06
5.40261e-06
5.40261e-06
5.40261e-06
5.36993e-06
5.36993e-06
5.36993e-06
5.35908e-06
5.35908e-06
5.35908e-06
5.43552e-06
5.43552e-06
5.43552e-06
5.44648e-06
5.44648e-06
5.44648e-06
5.45753e-06
5.45753e-06
5.45753e-06
5.44653e-06
5.44653e-06
5.44653e-06
5.441e-06
5.441e-06
5.441e-06
5.44632e-06
5.44632e-06
5.44632e-06
5.45736e-06
5.45736e-06
5.45736e-06
5.47412e-06
5.47412e-06
5.47412e-06
5.46303e-06
5.46303e-06
5.46303e-06
5.45746e-06
5.45746e-06
5.45746e-06
5.46295e-06
5.46295e-06
5.46295e-06
5.51256e-06
5.51256e-06
5.51256e-06
5.13566e-06
5.13566e-06
5.13566e-06
5.12519e-06
5.12519e-06
5.12519e-06
5.23047e-06
5.23047e-06
5.23047e-06
5.23574e-06
5.23574e-06
5.23574e-06
5.21988e-06
5.21988e-06
5.21988e-06
5.21456e-06
5.21456e-06
5.21456e-06
5.25162e-06
5.25162e-06
5.25162e-06
5.33747e-06
5.33747e-06
5.33747e-06
5.34284e-06
5.34284e-06
5.34284e-06
5.34826e-06
5.34826e-06
5.34826e-06
5.34821e-06
5.34821e-06
5.34821e-06
5.34278e-06
5.34278e-06
5.34278e-06
5.28374e-06
5.28374e-06
5.28374e-06
5.29444e-06
5.29444e-06
5.29444e-06
5.33183e-06
5.33183e-06
5.33183e-06
5.26234e-06
5.26234e-06
5.26234e-06
5.28368e-06
5.28368e-06
5.28368e-06
5.26771e-06
5.26771e-06
5.26771e-06
5.27837e-06
5.27837e-06
5.27837e-06
5.43402e-06
5.43402e-06
5.43402e-06
5.42304e-06
5.42304e-06
5.42304e-06
5.36649e-06
5.36649e-06
5.36649e-06
5.40317e-06
5.40317e-06
5.40317e-06
5.398e-06
5.398e-06
5.398e-06
5.37108e-06
5.37108e-06
5.37108e-06
5.38195e-06
5.38195e-06
5.38195e-06
5.36594e-06
5.36594e-06
5.36594e-06
5.37164e-06
5.37164e-06
5.37164e-06
5.37218e-06
5.37218e-06
5.37218e-06
5.38304e-06
5.38304e-06
5.38304e-06
5.43546e-06
5.43546e-06
5.43546e-06
5.44648e-06
5.44648e-06
5.44648e-06
5.2551e-06
5.2551e-06
5.2551e-06
5.26017e-06
5.26017e-06
5.26017e-06
5.25461e-06
5.25461e-06
5.25461e-06
5.24399e-06
5.24399e-06
5.24399e-06
5.23893e-06
5.23893e-06
5.23893e-06
5.24448e-06
5.24448e-06
5.24448e-06
5.25602e-06
5.25602e-06
5.25602e-06
5.24539e-06
5.24539e-06
5.24539e-06
5.24582e-06
5.24582e-06
5.24582e-06
5.2403e-06
5.2403e-06
5.2403e-06
5.27732e-06
5.27732e-06
5.27732e-06
5.29357e-06
5.29357e-06
5.29357e-06
5.288e-06
5.288e-06
5.288e-06
5.23012e-06
5.23012e-06
5.23012e-06
5.22462e-06
5.22462e-06
5.22462e-06
5.22503e-06
5.22503e-06
5.22503e-06
5.16006e-06
5.16006e-06
5.16006e-06
5.14957e-06
5.14957e-06
5.14957e-06
5.2057e-06
5.2057e-06
5.2057e-06
5.22017e-06
5.22017e-06
5.22017e-06
5.22629e-06
5.22629e-06
5.22629e-06
5.22073e-06
5.22073e-06
5.22073e-06
5.22128e-06
5.22128e-06
5.22128e-06
5.21071e-06
5.21071e-06
5.21071e-06
5.17304e-06
5.17304e-06
5.17304e-06
5.15702e-06
5.15702e-06
5.15702e-06
5.16254e-06
5.16254e-06
5.16254e-06
5.12618e-06
5.12618e-06
5.12618e-06
5.09982e-06
5.09982e-06
5.09982e-06
5.11025e-06
5.11025e-06
5.11025e-06
5.11574e-06
5.11574e-06
5.11574e-06
5.11079e-06
5.11079e-06
5.11079e-06
5.0801e-06
5.0801e-06
5.0801e-06
5.00376e-06
5.00376e-06
5.00376e-06
4.99307e-06
4.99307e-06
4.99307e-06
5.00335e-06
5.00335e-06
5.00335e-06
5.0087e-06
5.0087e-06
5.0087e-06
5.00911e-06
5.00911e-06
5.00911e-06
5.0095e-06
5.0095e-06
5.0095e-06
5.00416e-06
5.00416e-06
5.00416e-06
5.01941e-06
5.01941e-06
5.01941e-06
5.00292e-06
5.00292e-06
5.00292e-06
4.9873e-06
4.9873e-06
4.9873e-06
4.99265e-06
4.99265e-06
4.99265e-06
5.00783e-06
5.00783e-06
5.00783e-06
5.03424e-06
5.03424e-06
5.03424e-06
5.02393e-06
5.02393e-06
5.02393e-06
5.01899e-06
5.01899e-06
5.01899e-06
5.02436e-06
5.02436e-06
5.02436e-06
5.07902e-06
5.07902e-06
5.07902e-06
5.06863e-06
5.06863e-06
5.06863e-06
5.06429e-06
5.06429e-06
5.06429e-06
5.05394e-06
5.05394e-06
5.05394e-06
5.06374e-06
5.06374e-06
5.06374e-06
5.0692e-06
5.0692e-06
5.0692e-06
5.30747e-06
5.30747e-06
5.30747e-06
5.28607e-06
5.28607e-06
5.28607e-06
5.29167e-06
5.29167e-06
5.29167e-06
5.30237e-06
5.30237e-06
5.30237e-06
5.28555e-06
5.28555e-06
5.28555e-06
5.30694e-06
5.30694e-06
5.30694e-06
5.29115e-06
5.29115e-06
5.29115e-06
5.30185e-06
5.30185e-06
5.30185e-06
5.29062e-06
5.29062e-06
5.29062e-06
5.30131e-06
5.30131e-06
5.30131e-06
5.33407e-06
5.33407e-06
5.33407e-06
5.32331e-06
5.32331e-06
5.32331e-06
5.31767e-06
5.31767e-06
5.31767e-06
5.33919e-06