<VTKFile type="UnstructuredGrid" version="1.0">
<UnstructuredGrid>
<Piece NumberOfPoints="8859" NumberOfCells="2953">
<Points>
<DataArray type="Float64" NumberOfComponents="3" format="ascii">
0.5 3.01 10.355
0.512524 3.01 10.3775
0.487476 3.01 10.3775
0.17352 3.01 9.4775
0.160827 3.01 9.49922
0.148445 3.01 9.4775
0.122979 3.01 9.52089
0.110383 3.01 9.49921
0.135644 3.01 9.49922
0.135644 3.01 9.49922
0.110383 3.01 9.49921
0.123433 3.01 9.4775
0.123433 3.01 9.4775
0.148445 3.01 9.4775
0.135644 3.01 9.49922
0.135644 3.01 9.49922
0.148445 3.01 9.4775
0.160827 3.01 9.49922
0.17352 3.01 9.4775
0.198629 3.01 9.4775
0.185985 3.01 9.4992
0.185985 3.01 9.4992
0.160827 3.01 9.49922
0.17352 3.01 9.4775
0.0732297 3.01 9.52067
0.0586606 3.01 9.49881
0.0848754 3.01 9.49914
0.05 3.01 10.3103
0.05 3.01 10.2651
0.058509 3.01 10.2876
0.324276 3.01 9.4775
0.349395 3.01 9.4775
0.336827 3.01 9.49916
0.148138 3.01 9.5209
0.135644 3.01 9.49922
0.160827 3.01 9.49922
0.122979 3.01 9.52089
0.135644 3.01 9.49922
0.148138 3.01 9.5209
0.160827 3.01 9.49922
0.185985 3.01 9.4992
0.173316 3.01 9.52089
0.185806 3.01 9.54255
0.160572 3.01 9.54255
0.173316 3.01 9.52089
0.173316 3.01 9.52089
0.148138 3.01 9.5209
0.160827 3.01 9.49922
0.160572 3.01 9.54255
0.148138 3.01 9.5209
0.173316 3.01 9.52089
0.211137 3.01 9.49919
0.185985 3.01 9.4992
0.198629 3.01 9.4775
0.0979162 3.01 9.52084
0.110383 3.01 9.49921
0.122979 3.01 9.52089
0.122979 3.01 9.52089
0.109875 3.01 9.54249
0.0979162 3.01 9.52084
0.0732297 3.01 9.52067
0.0848754 3.01 9.49914
0.0979162 3.01 9.52084
0.0979162 3.01 9.52084
0.0848754 3.01 9.49914
0.110383 3.01 9.49921
0.0975729 3.01 9.56404
0.109875 3.01 9.54249
0.122678 3.01 9.56414
0.0841718 3.01 9.54235
0.0577122 3.01 9.54202
0.0732297 3.01 9.52067
0.0729308 3.01 9.56388
0.0577122 3.01 9.54202
0.0841718 3.01 9.54235
0.0732297 3.01 9.52067
0.0979162 3.01 9.52084
0.0841718 3.01 9.54235
0.0841718 3.01 9.54235
0.0979162 3.01 9.52084
0.109875 3.01 9.54249
0.0975729 3.01 9.56404
0.0729308 3.01 9.56388
0.0841718 3.01 9.54235
0.0841718 3.01 9.54235
0.109875 3.01 9.54249
0.0975729 3.01 9.56404
0.073948 3.01 9.4775
0.0586606 3.01 9.49881
0.05 3.01 9.4775
0.073948 3.01 9.4775
0.0848754 3.01 9.49914
0.0586606 3.01 9.49881
0.05 3.01 10.3533
0.05 3.01 10.3103
0.0603641 3.01 10.332
0.0603641 3.01 10.332
0.0753197 3.01 10.354
0.05 3.01 10.3533
0.0709395 3.01 10.3775
0.05 3.01 10.3775
0.05 3.01 10.3533
0.05 3.01 10.3533
0.0753197 3.01 10.354
0.0709395 3.01 10.3775
0.0579641 3.01 10.0646
0.05 3.01 10.0867
0.05 3.01 10.0426
0.0841948 3.01 9.9768
0.097638 3.01 9.95493
0.109814 3.01 9.9768
0.0841948 3.01 9.9768
0.0730539 3.01 9.9987
0.0578646 3.01 9.9768
0.0580261 3.01 10.1088
0.05 3.01 10.1309
0.05 3.01 10.0867
0.942292 3.01 9.67236
0.95 3.01 9.65067
0.95 3.01 9.69404
0.95 3.01 9.60726
0.95 3.01 9.65067
0.942332 3.01 9.62897
0.73872 3.01 9.88953
0.726137 3.01 9.86776
0.75132 3.01 9.86775
0.751305 3.01 9.91132
0.726124 3.01 9.91133
0.73872 3.01 9.88953
0.713546 3.01 9.88954
0.726137 3.01 9.86776
0.73872 3.01 9.88953
0.73872 3.01 9.88953
0.726124 3.01 9.91133
0.713546 3.01 9.88954
0.814318 3.01 9.93311
0.789096 3.01 9.93312
0.801709 3.01 9.9113
0.7765 3.01 9.91131
0.789115 3.01 9.88951
0.801709 3.01 9.9113
0.801709 3.01 9.9113
0.789096 3.01 9.93312
0.7765 3.01 9.91131
0.7765 3.01 9.91131
0.789096 3.01 9.93312
0.763892 3.01 9.93314
0.763892 3.01 9.93314
0.751305 3.01 9.91132
0.7765 3.01 9.91131
0.95 3.01 10.3775
0.929061 3.01 10.3775
0.95 3.01 10.3533
0.95 3.01 10.1754
0.926844 3.01 10.1754
0.941913 3.01 10.1532
0.941913 3.01 10.1532
0.95 3.01 10.1309
0.95 3.01 10.1754
0.926866 3.01 10.1309
0.95 3.01 10.1309
0.941913 3.01 10.1532
0.941974 3.01 10.1088
0.95 3.01 10.1309
0.926866 3.01 10.1309
0.95 3.01 10.0867
0.95 3.01 10.1309
0.941974 3.01 10.1088
0.941974 3.01 10.1088
0.926895 3.01 10.0867
0.95 3.01 10.0867
0.6127 3.01 10.3775
0.625238 3.01 10.355
0.637734 3.01 10.3775
0.662757 3.01 10.3775
0.637734 3.01 10.3775
0.650275 3.01 10.355
0.650275 3.01 10.355
0.637734 3.01 10.3775
0.625238 3.01 10.355
0.600415 3.01 9.91137
0.587856 3.01 9.9332
0.575304 3.01 9.91137
0.575304 3.01 9.91137
0.587856 3.01 9.9332
0.562749 3.01 9.9332
0.336827 3.01 9.49916
0.349395 3.01 9.4775
0.361946 3.01 9.49916
0.223755 3.01 9.4775
0.211137 3.01 9.49919
0.198629 3.01 9.4775
0.185985 3.01 9.4992
0.211137 3.01 9.49919
0.198492 3.01 9.52088
0.185806 3.01 9.54255
0.173316 3.01 9.52089
0.198492 3.01 9.52088
0.198492 3.01 9.52088
0.173316 3.01 9.52089
0.185985 3.01 9.4992
0.0576202 3.01 9.58553
0.05 3.01 9.60726
0.05 3.01 9.56374
0.05 3.01 9.56374
0.0729308 3.01 9.56388
0.0576202 3.01 9.58553
0.05 3.01 9.56374
0.0577122 3.01 9.54202
0.0729308 3.01 9.56388
0.135283 3.01 9.54254
0.109875 3.01 9.54249
0.122979 3.01 9.52089
0.135283 3.01 9.54254
0.122678 3.01 9.56414
0.109875 3.01 9.54249
0.122979 3.01 9.52089
0.148138 3.01 9.5209
0.135283 3.01 9.54254
0.135283 3.01 9.54254
0.148138 3.01 9.5209
0.160572 3.01 9.54255
0.123433 3.01 9.4775
0.110383 3.01 9.49921
0.0985513 3.01 9.4775
0.110383 3.01 9.49921
0.0848754 3.01 9.49914
0.0985513 3.01 9.4775
0.0848754 3.01 9.49914
0.073948 3.01 9.4775
0.0985513 3.01 9.4775
0.0603641 3.01 10.332
0.05 3.01 10.3103
0.0739464 3.01 10.3095
0.0739464 3.01 10.3095
0.05 3.01 10.3103
0.058509 3.01 10.2876
0.058509 3.01 10.2876
0.0849548 3.01 10.2871
0.0739464 3.01 10.3095
0.058509 3.01 10.2876
0.05 3.01 10.2651
0.0732725 3.01 10.2649
0.0732725 3.01 10.2649
0.0849548 3.01 10.2871
0.058509 3.01 10.2876
0.5 3.01 10.355
0.487476 3.01 10.3775
0.47495 3.01 10.355
0.097663 3.01 9.9987
0.0841948 3.01 9.9768
0.109814 3.01 9.9768
0.0730539 3.01 9.9987
0.0841948 3.01 9.9768
0.097663 3.01 9.9987
0.0578646 3.01 9.9768
0.0730539 3.01 9.9987
0.05 3.01 9.9987
0.05 3.01 9.9987
0.05 3.01 9.95492
0.0578646 3.01 9.9768
0.05 3.01 10.1754
0.05 3.01 10.1309
0.0580869 3.01 10.1532
0.05 3.01 10.1309
0.0580261 3.01 10.1088
0.073134 3.01 10.1309
0.073134 3.01 10.1309
0.0580869 3.01 10.1532
0.05 3.01 10.1309
0.942268 3.01 9.71573
0.95 3.01 9.69404
0.95 3.01 9.73741
0.942292 3.01 9.67236
0.95 3.01 9.69404
0.927025 3.01 9.69404
0.927025 3.01 9.69404
0.942268 3.01 9.71573
0.915919 3.01 9.71572
0.95 3.01 9.69404
0.942268 3.01 9.71573
0.927025 3.01 9.69404
0.927013 3.01 9.73741
0.942268 3.01 9.71573
0.95 3.01 9.73741
0.915919 3.01 9.71572
0.942268 3.01 9.71573
0.927013 3.01 9.73741
0.801738 3.01 9.82425
0.814364 3.01 9.80253
0.826957 3.01 9.82425
0.852174 3.01 9.82424
0.826957 3.01 9.82425
0.839609 3.01 9.80252
0.839609 3.01 9.80252
0.826957 3.01 9.82425
0.814364 3.01 9.80253
0.776516 3.01 9.86775
0.75132 3.01 9.86775
0.763923 3.01 9.846
0.776516 3.01 9.86775
0.801725 3.01 9.86774
0.789115 3.01 9.88951
0.738704 3.01 9.93315
0.751305 3.01 9.91132
0.763892 3.01 9.93314
0.726124 3.01 9.91133
0.751305 3.01 9.91132
0.738704 3.01 9.93315
0.915617 3.01 10.1531
0.902228 3.01 10.1309
0.926866 3.01 10.1309
0.926866 3.01 10.1309
0.941913 3.01 10.1532
0.915617 3.01 10.1531
0.915617 3.01 10.1531
0.941913 3.01 10.1532
0.926844 3.01 10.1754
0.915617 3.01 10.1531
0.926844 3.01 10.1754
0.902193 3.01 10.1754
0.926866 3.01 10.1309
0.902228 3.01 10.1309
0.915668 3.01 10.1088
0.902267 3.01 10.0867
0.926895 3.01 10.0867
0.915668 3.01 10.1088
0.915668 3.01 10.1088
0.941974 3.01 10.1088
0.926866 3.01 10.1309
0.926895 3.01 10.0867
0.941974 3.01 10.1088
0.915668 3.01 10.1088
0.902267 3.01 10.0867
0.915668 3.01 10.1088
0.890059 3.01 10.1088
0.890059 3.01 10.1088
0.915668 3.01 10.1088
0.902228 3.01 10.1309
0.826927 3.01 9.91129
0.814318 3.01 9.93311
0.801709 3.01 9.9113
0.864816 3.01 9.9768
0.877308 3.01 9.95493
0.890186 3.01 9.9768
0.877308 3.01 9.95493
0.864816 3.01 9.9768
0.852122 3.01 9.95494
0.890186 3.01 9.9768
0.877308 3.01 9.95493
0.902362 3.01 9.95493
0.902362 3.01 9.95493
0.915805 3.01 9.9768
0.890186 3.01 9.9768
0.902362 3.01 9.95493
0.926964 3.01 9.95492
0.915805 3.01 9.9768
0.915835 3.01 9.93309
0.926964 3.01 9.95492
0.902362 3.01 9.95493
0.942171 3.01 9.93309
0.926964 3.01 9.95492
0.915835 3.01 9.93309
0.915835 3.01 9.93309
0.926978 3.01 9.91127
0.942171 3.01 9.93309
0.942171 3.01 9.93309
0.926978 3.01 9.91127
0.95 3.01 9.91127
0.87737 3.01 9.78081
0.890277 3.01 9.75911
0.902417 3.01 9.7808
0.852144 3.01 9.91128
0.877329 3.01 9.91128
0.864842 3.01 9.93309
0.877308 3.01 9.95493
0.852122 3.01 9.95494
0.864842 3.01 9.93309
0.902396 3.01 9.86772
0.915858 3.01 9.88948
0.890234 3.01 9.88949
0.926997 3.01 9.82423
0.942237 3.01 9.80251
0.95 3.01 9.82423
0.91589 3.01 9.80251
0.942237 3.01 9.80251
0.926997 3.01 9.82423
0.942199 3.01 9.88948
0.95 3.01 9.86771
0.95 3.01 9.91127
0.95 3.01 9.91127
0.926978 3.01 9.91127
0.942199 3.01 9.88948
0.942199 3.01 9.88948
0.926978 3.01 9.91127
0.915858 3.01 9.88948
0.95 3.01 9.82423
0.95 3.01 9.86771
0.942221 3.01 9.84597
0.942221 3.01 9.84597
0.926997 3.01 9.82423
0.95 3.01 9.82423
0.915876 3.01 9.84597
0.926997 3.01 9.82423
0.942221 3.01 9.84597
0.926989 3.01 9.86771
0.915858 3.01 9.88948
0.902396 3.01 9.86772
0.902396 3.01 9.86772
0.915876 3.01 9.84597
0.926989 3.01 9.86771
0.926989 3.01 9.86771
0.942199 3.01 9.88948
0.915858 3.01 9.88948
0.95 3.01 9.86771
0.942199 3.01 9.88948
0.926989 3.01 9.86771
0.915876 3.01 9.84597
0.942221 3.01 9.84597
0.926989 3.01 9.86771
0.926989 3.01 9.86771
0.942221 3.01 9.84597
0.95 3.01 9.86771
0.91353 3.01 10.3319
0.926054 3.01 10.3095
0.939636 3.01 10.332
0.926728 3.01 10.2649
0.95 3.01 10.2651
0.941491 3.01 10.2876
0.926728 3.01 10.2649
0.941822 3.01 10.2425
0.95 3.01 10.2651
0.95 3.01 10.3103
0.95 3.01 10.3533
0.939636 3.01 10.332
0.95 3.01 10.3103
0.926054 3.01 10.3095
0.941491 3.01 10.2876
0.939636 3.01 10.332
0.926054 3.01 10.3095
0.95 3.01 10.3103
0.941491 3.01 10.2876
0.95 3.01 10.2651
0.95 3.01 10.3103
0.941869 3.01 10.1977
0.926844 3.01 10.1754
0.95 3.01 10.1754
0.762942 3.01 10.3323
0.75028 3.01 10.3549
0.737933 3.01 10.3323
0.71291 3.01 10.3324
0.725533 3.01 10.3099
0.737933 3.01 10.3323
0.71291 3.01 10.3324
0.737933 3.01 10.3323
0.725313 3.01 10.3549
0.725313 3.01 10.3549
0.737933 3.01 10.3323
0.75028 3.01 10.3549
[...]
<PointData Scalars="View Factor" >
<DataArray type="Float64" Name="View Factor" NumberOfComponents="1" format="ascii">
1.57073e-05
1.57073e-05
1.57073e-05
1.85422e-05
1.85422e-05
1.85422e-05
1.84667e-05
1.84667e-05
1.84667e-05
1.85176e-05
1.85176e-05
1.85176e-05
1.85428e-05
1.85428e-05
1.85428e-05
1.8517e-05
1.8517e-05
1.8517e-05
1.85415e-05
1.85415e-05
1.85415e-05
1.85164e-05
1.85164e-05
1.85164e-05
1.84684e-05
1.84684e-05
1.84684e-05
1.5962e-05
1.5962e-05
1.5962e-05
1.8535e-05
1.8535e-05
1.8535e-05
1.84662e-05
1.84662e-05
1.84662e-05
1.84411e-05
1.84411e-05
1.84411e-05
1.84655e-05
1.84655e-05
1.84655e-05
1.83645e-05
1.83645e-05
1.83645e-05
1.84405e-05
1.84405e-05
1.84405e-05
1.839e-05
1.839e-05
1.839e-05
1.85156e-05
1.85156e-05
1.85156e-05
1.84417e-05
1.84417e-05
1.84417e-05
1.83912e-05
1.83912e-05
1.83912e-05
1.84425e-05
1.84425e-05
1.84425e-05
1.84674e-05
1.84674e-05
1.84674e-05
1.8291e-05
1.8291e-05
1.8291e-05
1.83676e-05
1.83676e-05
1.83676e-05
1.83175e-05
1.83175e-05
1.83175e-05
1.83921e-05
1.83921e-05
1.83921e-05
1.83665e-05
1.83665e-05
1.83665e-05
1.82918e-05
1.82918e-05
1.82918e-05
1.83164e-05
1.83164e-05
1.83164e-05
1.85446e-05
1.85446e-05
1.85446e-05
1.8519e-05
1.8519e-05
1.8519e-05
1.58334e-05
1.58334e-05
1.58334e-05
1.57912e-05
1.57912e-05
1.57912e-05
1.57249e-05
1.57249e-05
1.57249e-05
1.57474e-05
1.57474e-05
1.57474e-05
1.66315e-05
1.66315e-05
1.66315e-05
1.69273e-05
1.69273e-05
1.69273e-05
1.68817e-05
1.68817e-05
1.68817e-05
1.64962e-05
1.64962e-05
1.64962e-05
1.78263e-05
1.78263e-05
1.78263e-05
1.79727e-05
1.79727e-05
1.79727e-05
1.71883e-05
1.71883e-05
1.71883e-05
1.70954e-05
1.70954e-05
1.70954e-05
1.71664e-05
1.71664e-05
1.71664e-05
1.71199e-05
1.71199e-05
1.71199e-05
1.70191e-05
1.70191e-05
1.70191e-05
1.70898e-05
1.70898e-05
1.70898e-05
1.70436e-05
1.70436e-05
1.70436e-05
1.7022e-05
1.7022e-05
1.7022e-05
1.70464e-05
1.70464e-05
1.70464e-05
1.56676e-05
1.56676e-05
1.56676e-05
1.62568e-05
1.62568e-05
1.62568e-05
1.63002e-05
1.63002e-05
1.63002e-05
1.63457e-05
1.63457e-05
1.63457e-05
1.63903e-05
1.63903e-05
1.63903e-05
1.6434e-05
1.6434e-05
1.6434e-05
1.64798e-05
1.64798e-05
1.64798e-05
1.56982e-05
1.56982e-05
1.56982e-05
1.56961e-05
1.56961e-05
1.56961e-05
1.57187e-05
1.57187e-05
1.57187e-05
1.70637e-05
1.70637e-05
1.70637e-05
1.70417e-05
1.70417e-05
1.70417e-05
1.85089e-05
1.85089e-05
1.85089e-05
1.85407e-05
1.85407e-05
1.85407e-05
1.84648e-05
1.84648e-05
1.84648e-05
1.83893e-05
1.83893e-05
1.83893e-05
1.84398e-05
1.84398e-05
1.84398e-05
1.81928e-05
1.81928e-05
1.81928e-05
1.82426e-05
1.82426e-05
1.82426e-05
1.82928e-05
1.82928e-05
1.82928e-05
1.83658e-05
1.83658e-05
1.83658e-05
1.83156e-05
1.83156e-05
1.83156e-05
1.83906e-05
1.83906e-05
1.83906e-05
1.83651e-05
1.83651e-05
1.83651e-05
1.85434e-05
1.85434e-05
1.85434e-05
1.85182e-05
1.85182e-05
1.85182e-05
1.85439e-05
1.85439e-05
1.85439e-05
1.58757e-05
1.58757e-05
1.58757e-05
1.59188e-05
1.59188e-05
1.59188e-05
1.59412e-05
1.59412e-05
1.59412e-05
1.60063e-05
1.60063e-05
1.60063e-05
1.59847e-05
1.59847e-05
1.59847e-05
1.57296e-05
1.57296e-05
1.57296e-05
1.68814e-05
1.68814e-05
1.68814e-05
1.68587e-05
1.68587e-05
1.68587e-05
1.6859e-05
1.6859e-05
1.6859e-05
1.69048e-05
1.69048e-05
1.69048e-05
1.63616e-05
1.63616e-05
1.63616e-05
1.64512e-05
1.64512e-05
1.64512e-05
1.64064e-05
1.64064e-05
1.64064e-05
1.76816e-05
1.76816e-05
1.76816e-05
1.77791e-05
1.77791e-05
1.77791e-05
1.77084e-05
1.77084e-05
1.77084e-05
1.77308e-05
1.77308e-05
1.77308e-05
1.76347e-05
1.76347e-05
1.76347e-05
1.76603e-05
1.76603e-05
1.76603e-05
1.73667e-05
1.73667e-05
1.73667e-05
1.73636e-05
1.73636e-05
1.73636e-05
1.73887e-05
1.73887e-05
1.73887e-05
1.72321e-05
1.72321e-05
1.72321e-05
1.71826e-05
1.71826e-05
1.71826e-05
1.70247e-05
1.70247e-05
1.70247e-05
1.70492e-05
1.70492e-05
1.70492e-05
1.63489e-05
1.63489e-05
1.63489e-05
1.63249e-05
1.63249e-05
1.63249e-05
1.62805e-05
1.62805e-05
1.62805e-05
1.626e-05
1.626e-05
1.626e-05
1.63935e-05
1.63935e-05
1.63935e-05
1.6483e-05
1.6483e-05
1.6483e-05
1.64141e-05
1.64141e-05
1.64141e-05
1.64589e-05
1.64589e-05
1.64589e-05
1.64621e-05
1.64621e-05
1.64621e-05
1.64174e-05
1.64174e-05
1.64174e-05
1.70407e-05
1.70407e-05
1.70407e-05
1.68723e-05
1.68723e-05
1.68723e-05
1.68967e-05
1.68967e-05
1.68967e-05
1.68936e-05
1.68936e-05
1.68936e-05
1.68691e-05
1.68691e-05
1.68691e-05
1.68903e-05
1.68903e-05
1.68903e-05
1.69361e-05
1.69361e-05
1.69361e-05
1.69573e-05
1.69573e-05
1.69573e-05
1.70032e-05
1.70032e-05
1.70032e-05
1.70247e-05
1.70247e-05
1.70247e-05
1.74987e-05
1.74987e-05
1.74987e-05
1.70345e-05
1.70345e-05
1.70345e-05
1.69426e-05
1.69426e-05
1.69426e-05
1.71452e-05
1.71452e-05
1.71452e-05
1.73502e-05
1.73502e-05
1.73502e-05
1.73753e-05
1.73753e-05
1.73753e-05
1.7116e-05
1.7116e-05
1.7116e-05
1.70708e-05
1.70708e-05
1.70708e-05
1.70955e-05
1.70955e-05
1.70955e-05
1.72555e-05
1.72555e-05
1.72555e-05
1.73033e-05
1.73033e-05
1.73033e-05
1.72815e-05
1.72815e-05
1.72815e-05
1.71668e-05
1.71668e-05
1.71668e-05
1.72133e-05
1.72133e-05
1.72133e-05
1.71418e-05
1.71418e-05
1.71418e-05
1.71634e-05
1.71634e-05
1.71634e-05
1.72348e-05
1.72348e-05
1.72348e-05
1.72099e-05
1.72099e-05
1.72099e-05
1.57988e-05
1.57988e-05
1.57988e-05
1.59479e-05
1.59479e-05
1.59479e-05
1.59918e-05
1.59918e-05
1.59918e-05
1.5775e-05
1.5775e-05
1.5775e-05
1.58608e-05
1.58608e-05
1.58608e-05
1.58181e-05
1.58181e-05
1.58181e-05
1.59028e-05
1.59028e-05
1.59028e-05
1.62124e-05
1.62124e-05
1.62124e-05
1.57736e-05
1.57736e-05
1.57736e-05
1.58193e-05
1.58193e-05
1.58193e-05
1.57759e-05
1.57759e-05
1.57759e-05
1.57531e-05
1.57531e-05
1.57531e-05
1.56895e-05
1.56895e-05
1.56895e-05
1.57099e-05
1.57099e-05
1.57099e-05
1.56872e-05
1.56872e-05
1.56872e-05
1.59773e-05
1.59773e-05
1.59773e-05
1.59063e-05
1.59063e-05
1.59063e-05
1.58421e-05
1.58421e-05
1.58421e-05
1.58856e-05
1.58856e-05
1.58856e-05
1.58464e-05
1.58464e-05
1.58464e-05
1.58899e-05
1.58899e-05
1.58899e-05
1.57638e-05
1.57638e-05
1.57638e-05
1.57207e-05
1.57207e-05
1.57207e-05
1.57002e-05
1.57002e-05
1.57002e-05
1.71438e-05
1.71438e-05
1.71438e-05
1.70395e-05
1.70395e-05
1.70395e-05
1.69056e-05
1.69056e-05
1.69056e-05
1.68578e-05
1.68578e-05
1.68578e-05
1.69036e-05
1.69036e-05
1.69036e-05
1.69275e-05
1.69275e-05
1.69275e-05
1.69955e-05
1.69955e-05
1.69955e-05
1.69735e-05
1.69735e-05
1.69735e-05
1.68598e-05
1.68598e-05
1.68598e-05
1.68359e-05
1.68359e-05
1.68359e-05
1.65871e-05
1.65871e-05
1.65871e-05
1.68946e-05
1.68946e-05
1.68946e-05
1.69187e-05
1.69187e-05
1.69187e-05
1.69731e-05
1.69731e-05
1.69731e-05
1.68814e-05
1.68814e-05
1.68814e-05
1.85376e-05
1.85376e-05
1.85376e-05
1.85387e-05
1.85387e-05
1.85387e-05
1.85127e-05
1.85127e-05
1.85127e-05
1.84619e-05
1.84619e-05
1.84619e-05
1.84783e-05
1.84783e-05
1.84783e-05
1.73228e-05
1.73228e-05
1.73228e-05
1.72292e-05
1.72292e-05
1.72292e-05
1.73008e-05
1.73008e-05
1.73008e-05
1.7254e-05
1.7254e-05
1.7254e-05
1.72568e-05
1.72568e-05
1.72568e-05
1.72349e-05
1.72349e-05
1.72349e-05
1.84361e-05
1.84361e-05
1.84361e-05
1.85336e-05
1.85336e-05
1.85336e-05
1.85107e-05
1.85107e-05
1.85107e-05
1.7767e-05
1.7767e-05
1.7767e-05
1.77918e-05
1.77918e-05
1.77918e-05
1.83436e-05
1.83436e-05
1.83436e-05
1.84946e-05
1.84946e-05
1.84946e-05
1.8444e-05
1.8444e-05
1.8444e-05
1.83936e-05
1.83936e-05
1.83936e-05
1.59198e-05
1.59198e-05
1.59198e-05
1.57089e-05
1.57089e-05
1.57089e-05
1.65863e-05
1.65863e-05
1.65863e-05
1.65412e-05
1.65412e-05
1.65412e-05
1.6813e-05
1.6813e-05
1.6813e-05
1.81387e-05
1.81387e-05
1.81387e-05
1.65857e-05
1.65857e-05
1.65857e-05
1.65406e-05
1.65406e-05
1.65406e-05
1.69501e-05
1.69501e-05
1.69501e-05
1.69269e-05
1.69269e-05
1.69269e-05
1.69965e-05
1.69965e-05
1.69965e-05
1.69504e-05
1.69504e-05
1.69504e-05
1.69507e-05
1.69507e-05
1.69507e-05
1.69276e-05
1.69276e-05
1.69276e-05
1.70429e-05
1.70429e-05
1.70429e-05
1.69967e-05
1.69967e-05
1.69967e-05
1.70197e-05
1.70197e-05
1.70197e-05
1.70659e-05
1.70659e-05
1.70659e-05
1.70891e-05
1.70891e-05
1.70891e-05
1.70807e-05
1.70807e-05
1.70807e-05
1.71022e-05
1.71022e-05
1.71022e-05
1.76383e-05
1.76383e-05
1.76383e-05
1.73198e-05
1.73198e-05
1.73198e-05
1.72978e-05
1.72978e-05
1.72978e-05
1.72511e-05
1.72511e-05
1.72511e-05
1.73855e-05
1.73855e-05
1.73855e-05
1.73604e-05
1.73604e-05
1.73604e-05
1.75242e-05
1.75242e-05
1.75242e-05
1.78049e-05
1.78049e-05
1.78049e-05
1.76606e-05
1.76606e-05
1.76606e-05
1.71855e-05
1.71855e-05
1.71855e-05
1.70927e-05
1.70927e-05
1.70927e-05
1.71144e-05
1.71144e-05
1.71144e-05
1.71608e-05
1.71608e-05
1.71608e-05
1.71636e-05
1.71636e-05
1.71636e-05
1.71172e-05
1.71172e-05
1.71172e-05
1.69787e-05
1.69787e-05
1.69787e-05
1.69571e-05
1.69571e-05
1.69571e-05
1.70274e-05
1.70274e-05
1.70274e-05
1.69814e-05
1.69814e-05
1.69814e-05
1.68464e-05
1.68464e-05
1.68464e-05
1.68223e-05
1.68223e-05
1.68223e-05
1.69646e-05
1.69646e-05
1.69646e-05
1.68234e-05
1.68234e-05
1.68234e-05
1.64861e-05
1.64861e-05
1.64861e-05
1.65341e-05
1.65341e-05
1.65341e-05
1.6531e-05
1.6531e-05
1.6531e-05
1.6555e-05
1.6555e-05
1.6555e-05
1.58376e-05
1.58376e-05
1.58376e-05
1.5817e-05
1.5817e-05
1.5817e-05
1.58399e-05
1.58399e-05
1.58399e-05
1.58834e-05
1.58834e-05
1.58834e-05
1.60792e-05
1.60792e-05
1.60792e-05
1.59405e-05
1.59405e-05
1.59405e-05
1.58969e-05
1.58969e-05
1.58969e-05
1.61364e-05
1.61364e-05
1.61364e-05
1.6095e-05
1.6095e-05
1.6095e-05
1.6157e-05
1.6157e-05
1.6157e-05
1.72262e-05
1.72262e-05
1.72262e-05
1.70161e-05
1.70161e-05
1.70161e-05
1.70377e-05
1.70377e-05
1.70377e-05
1.70131e-05
1.70131e-05
1.70131e-05
1.69671e-05
1.69671e-05
1.69671e-05
1.68298e-05
1.68298e-05
1.68298e-05
1.68754e-05
1.68754e-05
1.68754e-05
1.7028e-05
1.7028e-05
1.7028e-05
1.70775e-05
1.70775e-05
1.70775e-05
1.70742e-05
1.70742e-05
1.70742e-05
1.70989e-05
1.70989e-05
1.70989e-05
1.69328e-05
1.69328e-05
1.69328e-05
1.69776e-05
1.69776e-05
1.69776e-05
1.72383e-05
1.72383e-05
1.72383e-05
1.73134e-05
1.73134e-05
1.73134e-05
1.72884e-05
1.72884e-05
1.72884e-05
1.7426e-05
1.7426e-05
1.7426e-05
1.73823e-05
1.73823e-05
1.73823e-05
1.74514e-05
1.74514e-05
1.74514e-05
1.74294e-05
1.74294e-05
1.74294e-05
1.75207e-05
1.75207e-05
1.75207e-05
1.75683e-05
1.75683e-05
1.75683e-05
1.75905e-05
1.75905e-05
1.75905e-05
1.57641e-05
1.57641e-05
1.57641e-05
1.581e-05
1.581e-05
1.581e-05
1.57341e-05
1.57341e-05
1.57341e-05
1.57561e-05
1.57561e-05
1.57561e-05
1.5691e-05
1.5691e-05
1.5691e-05
1.58221e-05
1.58221e-05
1.58221e-05
1.59518e-05
1.59518e-05
1.59518e-05
1.58652e-05
1.58652e-05
1.58652e-05
1.58847e-05
1.58847e-05
1.58847e-05
1.59279e-05
1.59279e-05
1.59279e-05
1.60279e-05
1.60279e-05
1.60279e-05
1.60924e-05
1.60924e-05
1.60924e-05
1.60717e-05
1.60717e-05
1.60717e-05
1.6069e-05
1.6069e-05
1.6069e-05
1.62156e-05
1.62156e-05
1.62156e-05
1.61918e-05
1.61918e-05
1.61918e-05
1.60154e-05
1.60154e-05
1.60154e-05
1.59954e-05
1.59954e-05
1.59954e-05
1.58236e-05
1.58236e-05
1.58236e-05
1.58215e-05
1.58215e-05
1.58215e-05
1.58443e-05
1.58443e-05
1.58443e-05
1.56918e-05
1.56918e-05
1.56918e-05
1.57122e-05
1.57122e-05
1.57122e-05
1.57554e-05
1.57554e-05
1.57554e-05
1.57781e-05
1.57781e-05
1.57781e-05
1.57002e-05
1.57002e-05
1.57002e-05
1.57666e-05
1.57666e-05
1.57666e-05
1.57437e-05
1.57437e-05
1.57437e-05
1.56798e-05
1.56798e-05
1.56798e-05
1.57508e-05
1.57508e-05
1.57508e-05
1.57076e-05
1.57076e-05
1.57076e-05
1.59499e-05
1.59499e-05
1.59499e-05
1.59729e-05
1.59729e-05
1.59729e-05
1.62841e-05
1.62841e-05
1.62841e-05
1.63052e-05
1.63052e-05
1.63052e-05
1.61674e-05
1.61674e-05
1.61674e-05
1.60168e-05
1.60168e-05
1.60168e-05
1.60376e-05
1.60376e-05
1.60376e-05
1.60211e-05
1.60211e-05
1.60211e-05
1.61465e-05
1.61465e-05
1.61465e-05
1.61024e-05
1.61024e-05
1.61024e-05
1.60815e-05
1.60815e-05
1.60815e-05
1.61047e-05
1.61047e-05
1.61047e-05
1.59085e-05
1.59085e-05
1.59085e-05
1.59543e-05
1.59543e-05
1.59543e-05
1.59107e-05
1.59107e-05
1.59107e-05
1.58878e-05
1.58878e-05
1.58878e-05
1.59751e-05
1.59751e-05
1.59751e-05
1.59522e-05
1.59522e-05
1.59522e-05
1.58257e-05
1.58257e-05
1.58257e-05
1.57824e-05
1.57824e-05
1.57824e-05
1.57618e-05
1.57618e-05
1.57618e-05
1.57845e-05
1.57845e-05
1.57845e-05
1.59128e-05
1.59128e-05
1.59128e-05
1.59565e-05
1.59565e-05
1.59565e-05
1.59794e-05
1.59794e-05
1.59794e-05
1.63819e-05
1.63819e-05
1.63819e-05
1.64267e-05
1.64267e-05
1.64267e-05
1.72705e-05
1.72705e-05
1.72705e-05
1.70842e-05
1.70842e-05
1.70842e-05
1.72944e-05
1.72944e-05
1.72944e-05
1.72714e-05
1.72714e-05
1.72714e-05
1.70605e-05
1.70605e-05
1.70605e-05
1.71214e-05
1.71214e-05
1.71214e-05
1.71454e-05
1.71454e-05
1.71454e-05
1.69145e-05
1.69145e-05
1.69145e-05
1.69366e-05
1.69366e-05
1.69366e-05
1.6981e-05
1.6981e-05
1.6981e-05
1.68686e-05
1.68686e-05
1.68686e-05
1.68465e-05
1.68465e-05
1.68465e-05
1.68008e-05
1.68008e-05
1.68008e-05
1.67772e-05
1.67772e-05
1.67772e-05
1.70615e-05
1.70615e-05
1.70615e-05
1.69934e-05
1.69934e-05
1.69934e-05
1.69714e-05
1.69714e-05
1.69714e-05
1.69255e-05
1.69255e-05
1.69255e-05
1.69015e-05
1.69015e-05
1.69015e-05
1.67097e-05
1.67097e-05
1.67097e-05
1.67317e-05
1.67317e-05
1.67317e-05
1.68379e-05
1.68379e-05
1.68379e-05
1.67903e-05
1.67903e-05
1.67903e-05
1.69129e-05
1.69129e-05
1.69129e-05
1.6935e-05
1.6935e-05
1.6935e-05
1.67049e-05
1.67049e-05
1.67049e-05
1.67267e-05
1.67267e-05
1.67267e-05
1.68512e-05
1.68512e-05
1.68512e-05
1.6897e-05
1.6897e-05
1.6897e-05
1.68357e-05
1.68357e-05
1.68357e-05
1.64766e-05
1.64766e-05
1.64766e-05
1.85398e-05
1.85398e-05
1.85398e-05
1.85138e-05
1.85138e-05
1.85138e-05
1.85148e-05
1.85148e-05
1.85148e-05
1.8023e-05
1.8023e-05
1.8023e-05
1.81208e-05
1.81208e-05
1.81208e-05
1.80723e-05
1.80723e-05
1.80723e-05
1.84839e-05
1.84839e-05
1.84839e-05
1.84928e-05
1.84928e-05
1.84928e-05
1.85022e-05
1.85022e-05
1.85022e-05
1.73257e-05
1.73257e-05
1.73257e-05
1.73036e-05
1.73036e-05
1.73036e-05
1.73285e-05
1.73285e-05
1.73285e-05
1.73755e-05
1.73755e-05
1.73755e-05
1.72596e-05
1.72596e-05
1.72596e-05
1.73064e-05
1.73064e-05
1.73064e-05
1.85116e-05
1.85116e-05
1.85116e-05
1.84608e-05
1.84608e-05
1.84608e-05
1.85364e-05
1.85364e-05
1.85364e-05
1.85103e-05
1.85103e-05
1.85103e-05
1.84581e-05
1.84581e-05
1.84581e-05
1.84321e-05
1.84321e-05
1.84321e-05
1.83816e-05
1.83816e-05
1.83816e-05
1.83801e-05
1.83801e-05
1.83801e-05
1.83557e-05
1.83557e-05
1.83557e-05
1.82812e-05
1.82812e-05
1.82812e-05
1.83055e-05
1.83055e-05
1.83055e-05
1.85286e-05
1.85286e-05
1.85286e-05
1.84866e-05
1.84866e-05
1.84866e-05
1.77187e-05
1.77187e-05
1.77187e-05
1.76227e-05
1.76227e-05
1.76227e-05
1.84213e-05
1.84213e-05
1.84213e-05
1.84372e-05
1.84372e-05
1.84372e-05
1.83867e-05
1.83867e-05
1.83867e-05
1.8463e-05
1.8463e-05
1.8463e-05
1.62024e-05
1.62024e-05
1.62024e-05
1.61119e-05
1.61119e-05
1.61119e-05
1.59829e-05
1.59829e-05
1.59829e-05
1.59838e-05
1.59838e-05
1.59838e-05
1.60053e-05
1.60053e-05
1.60053e-05
1.61156e-05
1.61156e-05
1.61156e-05
1.60492e-05
1.60492e-05
1.60492e-05
1.60716e-05
1.60716e-05
1.60716e-05
1.60044e-05
1.60044e-05
1.60044e-05
1.59415e-05
1.59415e-05
1.59415e-05
1.60505e-05
1.60505e-05
1.60505e-05
1.60946e-05
1.60946e-05
1.60946e-05
1.57312e-05
1.57312e-05
1.57312e-05
1.58401e-05
1.58401e-05
1.58401e-05
1.57967e-05
1.57967e-05
1.57967e-05
1.57743e-05
1.57743e-05
1.57743e-05
1.59272e-05
1.59272e-05
1.59272e-05
1.58429e-05
1.58429e-05
1.58429e-05
1.57995e-05
1.57995e-05
1.57995e-05
1.66085e-05
1.66085e-05
1.66085e-05
1.6586e-05
1.6586e-05
1.6586e-05
1.66088e-05
1.66088e-05
1.66088e-05
1.64736e-05
1.64736e-05
1.64736e-05
1.65185e-05
1.65185e-05
1.65185e-05
1.6451e-05
1.6451e-05
1.6451e-05
1.64733e-05
1.64733e-05
1.64733e-05
1.65409e-05
1.65409e-05
1.65409e-05
1.65182e-05
1.65182e-05
1.65182e-05
1.679e-05
1.679e-05
1.679e-05
1.67441e-05
1.67441e-05
1.67441e-05
1.67677e-05
1.67677e-05
1.67677e-05
1.68133e-05
1.68133e-05
1.68133e-05
1.67903e-05
1.67903e-05
1.67903e-05
1.81428e-05
1.81428e-05
1.81428e-05
1.77736e-05
1.77736e-05
1.77736e-05
1.78706e-05
1.78706e-05
1.78706e-05
1.7625e-05
1.7625e-05
1.7625e-05
1.75772e-05
1.75772e-05
1.75772e-05
1.76068e-05
1.76068e-05
1.76068e-05
1.74639e-05
1.74639e-05
1.74639e-05
1.74166e-05
1.74166e-05
1.74166e-05
1.7751e-05
1.7751e-05
1.7751e-05
1.7799e-05
1.7799e-05
1.7799e-05
1.78476e-05
1.78476e-05
1.78476e-05
1.77993e-05
1.77993e-05
1.77993e-05
1.7775e-05
1.7775e-05
1.7775e-05
1.77981e-05
1.77981e-05
1.77981e-05
1.78466e-05
1.78466e-05
1.78466e-05
1.79205e-05
1.79205e-05
1.79205e-05
1.78717e-05
1.78717e-05
1.78717e-05
1.78472e-05
1.78472e-05
1.78472e-05
1.78712e-05
1.78712e-05
1.78712e-05
1.80892e-05
1.80892e-05
1.80892e-05
1.64506e-05
1.64506e-05
1.64506e-05
1.64058e-05
1.64058e-05
1.64058e-05
1.68583e-05
1.68583e-05
1.68583e-05
1.6881e-05
1.6881e-05
1.6881e-05
1.68126e-05
1.68126e-05
1.68126e-05
1.67896e-05
1.67896e-05
1.67896e-05
1.69496e-05
1.69496e-05
1.69496e-05
1.73224e-05
1.73224e-05
1.73224e-05
1.73457e-05
1.73457e-05
1.73457e-05
1.73694e-05
1.73694e-05
1.73694e-05
1.73691e-05
1.73691e-05
1.73691e-05
1.73454e-05
1.73454e-05
1.73454e-05
1.70889e-05
1.70889e-05
1.70889e-05
1.71353e-05
1.71353e-05
1.71353e-05
1.72975e-05
1.72975e-05
1.72975e-05
1.69961e-05
1.69961e-05
1.69961e-05
1.70885e-05
1.70885e-05
1.70885e-05
1.70193e-05
1.70193e-05
1.70193e-05
1.70656e-05
1.70656e-05
1.70656e-05
1.77341e-05
1.77341e-05
1.77341e-05
1.7686e-05
1.7686e-05
1.7686e-05
1.74359e-05
1.74359e-05
1.74359e-05
1.75939e-05
1.75939e-05
1.75939e-05
1.75718e-05
1.75718e-05
1.75718e-05
1.74547e-05
1.74547e-05
1.74547e-05
1.75021e-05
1.75021e-05
1.75021e-05
1.74327e-05
1.74327e-05
1.74327e-05
1.7458e-05
1.7458e-05
1.7458e-05
1.74611e-05
1.74611e-05
1.74611e-05
1.75085e-05
1.75085e-05
1.75085e-05
1.77343e-05
1.77343e-05
1.77343e-05
1.77826e-05
1.77826e-05
1.77826e-05
1.69543e-05
1.69543e-05
1.69543e-05
1.69759e-05
1.69759e-05
1.69759e-05
1.69515e-05
1.69515e-05
1.69515e-05
1.69057e-05
1.69057e-05
1.69057e-05
1.68842e-05
1.68842e-05
1.68842e-05
1.69085e-05
1.69085e-05
1.69085e-05
1.69597e-05
1.69597e-05
1.69597e-05
1.69138e-05
1.69138e-05
1.69138e-05
1.69163e-05
1.69163e-05
1.69163e-05
1.68921e-05
1.68921e-05
1.68921e-05
1.70518e-05
1.70518e-05
1.70518e-05
1.71225e-05
1.71225e-05
1.71225e-05
1.70981e-05
1.70981e-05
1.70981e-05
1.68488e-05
1.68488e-05
1.68488e-05
1.68248e-05
1.68248e-05
1.68248e-05
1.68272e-05
1.68272e-05
1.68272e-05
1.65453e-05
1.65453e-05
1.65453e-05
1.65003e-05
1.65003e-05
1.65003e-05
1.67388e-05
1.67388e-05
1.67388e-05
1.67991e-05
1.67991e-05
1.67991e-05
1.68267e-05
1.68267e-05
1.68267e-05
1.68023e-05
1.68023e-05
1.68023e-05
1.68055e-05
1.68055e-05
1.68055e-05
1.676e-05
1.676e-05
1.676e-05
1.65969e-05
1.65969e-05
1.65969e-05
1.65278e-05
1.65278e-05
1.65278e-05
1.65519e-05
1.65519e-05
1.65519e-05
1.63966e-05
1.63966e-05
1.63966e-05
1.62837e-05
1.62837e-05
1.62837e-05
1.63282e-05
1.63282e-05
1.63282e-05
1.6352e-05
1.6352e-05
1.6352e-05
1.63313e-05
1.63313e-05
1.63313e-05
1.62012e-05
1.62012e-05
1.62012e-05
1.58788e-05
1.58788e-05
1.58788e-05
1.58329e-05
1.58329e-05
1.58329e-05
1.58764e-05
1.58764e-05
1.58764e-05
1.58994e-05
1.58994e-05
1.58994e-05
1.59017e-05
1.59017e-05
1.59017e-05
1.5904e-05
1.5904e-05
1.5904e-05
1.58811e-05
1.58811e-05
1.58811e-05
1.59454e-05
1.59454e-05
1.59454e-05
1.58739e-05
1.58739e-05
1.58739e-05
1.58075e-05
1.58075e-05
1.58075e-05
1.58305e-05
1.58305e-05
1.58305e-05
1.58943e-05
1.58943e-05
1.58943e-05
1.60073e-05
1.60073e-05
1.60073e-05
1.59636e-05
1.59636e-05
1.59636e-05
1.5943e-05
1.5943e-05
1.5943e-05
1.5966e-05
1.5966e-05
1.5966e-05
1.6195e-05
1.6195e-05
1.6195e-05
1.61508e-05
1.61508e-05
1.61508e-05
1.61335e-05
1.61335e-05
1.61335e-05
1.60895e-05
1.60895e-05
1.60895e-05
1.61304e-05
1.61304e-05
1.61304e-05
1.6154e-05
1.6154e-05
1.6154e-05
1.71796e-05
1.71796e-05
1.71796e-05
1.70869e-05
1.70869e-05
1.70869e-05
1.71115e-05
1.71115e-05
1.71115e-05
1.71579e-05
1.71579e-05
1.71579e-05
1.70838e-05
1.70838e-05
1.70838e-05
1.71766e-05
1.71766e-05
1.71766e-05
1.71085e-05
1.71085e-05
1.71085e-05
1.71549e-05
1.71549e-05
1.71549e-05
1.71054e-05
1.71054e-05
1.71054e-05
1.71518e-05
1.71518e-05
1.71518e-05
1.72948e-05
1.72948e-05
1.72948e-05
1.7248e-05
1.7248e-05
1.7248e-05
1.72231e-05
1.72231e-05