<VTKFile type="UnstructuredGrid" version="1.0">
<UnstructuredGrid>
<Piece NumberOfPoints="8859" NumberOfCells="2953">
<Points>
<DataArray type="Float64" NumberOfComponents="3" format="ascii">
2.04744 2.20956 7.18263
2.06275 2.19425 7.19458
2.04754 2.20946 7.20833
2.07804 2.17896 7.13167
2.07805 2.17895 7.10651
2.0934 2.1636 7.11898
2.06271 2.19429 7.14436
2.07804 2.17896 7.13167
2.07804 2.17896 7.15686
2.01701 2.23999 7.23488
2.03242 2.22458 7.2425
2.00164 2.25536 7.2425
2.01701 2.23999 7.23488
2.03232 2.22468 7.21957
2.03242 2.22458 7.2425
2.04777 2.20923 7.23479
2.06326 2.19374 7.2425
2.03242 2.22458 7.2425
2.04777 2.20923 7.23479
2.03232 2.22468 7.21957
2.04754 2.20946 7.20833
2.03242 2.22458 7.2425
2.03232 2.22468 7.21957
2.04777 2.20923 7.23479
2.04754 2.20946 7.20833
2.06275 2.19425 7.19458
2.06287 2.19413 7.21927
2.06287 2.19413 7.21927
2.04777 2.20923 7.23479
2.04754 2.20946 7.20833
2.06326 2.19374 7.2425
2.04777 2.20923 7.23479
2.06287 2.19413 7.21927
2.06275 2.19425 7.19458
2.04744 2.20956 7.18263
2.06271 2.19429 7.16952
2.06271 2.19429 7.14436
2.07804 2.17896 7.15686
2.06271 2.19429 7.16952
2.07809 2.17891 7.20762
2.06287 2.19413 7.21927
2.06275 2.19425 7.19458
2.0934 2.1636 7.19395
2.0934 2.1636 7.21855
2.07809 2.17891 7.20762
2.0934 2.1636 7.09387
2.0934 2.1636 7.11898
2.07805 2.17895 7.10651
2.07804 2.17896 7.13167
2.0934 2.1636 7.11898
2.0934 2.1636 7.14406
2.0934 2.1636 7.14406
2.07804 2.17896 7.15686
2.07804 2.17896 7.13167
2.0934 2.1636 6.56652
2.0934 2.1636 6.59165
2.07807 2.17893 6.57907
2.07807 2.17893 7.03107
2.0934 2.1636 7.04361
2.07806 2.17894 7.05621
2.0934 2.1636 7.01848
2.0934 2.1636 7.04361
2.07807 2.17893 7.03107
2.07808 2.17892 6.90544
2.0934 2.1636 6.91799
2.07808 2.17892 6.93055
1.61564 2.64136 6.35059
1.63134 2.62566 6.3425
1.63134 2.62566 6.36563
1.5683 2.6887 7.2425
1.53648 2.72052 7.2425
1.55243 2.70457 7.23432
2.07804 2.17896 7.18212
2.06271 2.19429 7.16952
2.07804 2.17896 7.15686
2.06275 2.19425 7.19458
2.06271 2.19429 7.16952
2.07804 2.17896 7.18212
2.07804 2.17896 7.18212
2.07809 2.17891 7.20762
2.06275 2.19425 7.19458
2.0934 2.1636 7.19395
2.07809 2.17891 7.20762
2.07804 2.17896 7.18212
2.07833 2.17867 7.23384
2.0934 2.1636 7.21855
2.0934 2.1636 7.2425
2.07833 2.17867 7.23384
2.07809 2.17891 7.20762
2.0934 2.1636 7.21855
2.0934 2.1636 7.2425
2.06326 2.19374 7.2425
2.07833 2.17867 7.23384
2.06326 2.19374 7.2425
2.06287 2.19413 7.21927
2.07833 2.17867 7.23384
2.06287 2.19413 7.21927
2.07809 2.17891 7.20762
2.07833 2.17867 7.23384
2.07806 2.17894 7.05621
2.0934 2.1636 7.04361
2.0934 2.1636 7.06875
2.07804 2.17896 7.15686
2.0934 2.1636 7.14406
2.0934 2.1636 7.16907
2.0934 2.1636 7.19395
2.07804 2.17896 7.18212
2.0934 2.1636 7.16907
2.0934 2.1636 7.16907
2.07804 2.17896 7.18212
2.07804 2.17896 7.15686
2.0934 2.1636 6.89288
2.0934 2.1636 6.91799
2.07808 2.17892 6.90544
2.07807 2.17893 6.57907
2.0934 2.1636 6.59165
2.07807 2.17893 6.6042
2.06275 2.19425 7.01853
2.04743 2.20957 7.00598
2.06275 2.19425 6.99338
2.07806 2.17894 7.08136
2.0934 2.1636 7.09387
2.07805 2.17895 7.10651
2.07806 2.17894 7.08136
2.0934 2.1636 7.06875
2.0934 2.1636 7.09387
2.07806 2.17894 7.08136
2.06273 2.19427 7.06884
2.07806 2.17894 7.05621
2.07806 2.17894 7.05621
2.0934 2.1636 7.06875
2.07806 2.17894 7.08136
2.06271 2.19429 7.11918
2.07804 2.17896 7.13167
2.06271 2.19429 7.14436
2.06271 2.19429 7.11918
2.07805 2.17895 7.10651
2.07804 2.17896 7.13167
2.04741 2.20959 7.08149
2.03209 2.22491 7.09415
2.0321 2.2249 7.06894
1.83285 2.42415 7.20838
1.81747 2.43953 7.1949
1.83285 2.42415 7.18275
1.78664 2.47036 7.0438
1.78664 2.47036 7.069
1.77121 2.48579 7.05639
2.0934 2.1636 6.3425
2.0934 2.1636 6.36645
2.07833 2.17867 6.35116
1.56833 2.68867 7.21933
1.5683 2.6887 7.2425
1.55243 2.70457 7.23432
1.63134 2.62566 7.14446
1.61565 2.64135 7.15714
1.61564 2.64136 7.13185
1.55243 2.70457 7.23432
1.53648 2.72052 7.2425
1.53664 2.72036 7.21923
2.06276 2.19424 6.667
2.04745 2.20955 6.65443
2.06276 2.19424 6.64188
2.0934 2.1636 6.81759
2.07808 2.17892 6.80505
2.0934 2.1636 6.7925
2.07808 2.17892 6.85524
2.0934 2.1636 6.84269
2.0934 2.1636 6.86778
2.06277 2.19423 6.76741
2.04745 2.20955 6.77995
2.04745 2.20955 6.75486
2.06277 2.19423 6.7925
2.04745 2.20955 6.77995
2.06277 2.19423 6.76741
2.07808 2.17892 6.80505
2.06277 2.19423 6.81759
2.06277 2.19423 6.7925
2.04745 2.20955 6.93057
2.06276 2.19424 6.94312
2.04744 2.20956 6.9557
2.01682 2.24018 6.90547
2.01682 2.24018 6.93059
2.0015 2.2555 6.91803
2.04745 2.20955 6.90545
2.03214 2.22486 6.8929
2.04745 2.20955 6.88035
2.04745 2.20955 6.88035
2.06277 2.19423 6.89289
2.04745 2.20955 6.90545
2.03214 2.22486 6.8929
2.03214 2.22486 6.8678
2.04745 2.20955 6.88035
2.04745 2.20955 6.88035
2.03214 2.22486 6.8678
2.04745 2.20955 6.85524
2.0934 2.1636 6.86778
2.0934 2.1636 6.89288
2.07808 2.17892 6.88034
2.07808 2.17892 6.88034
2.07808 2.17892 6.85524
2.0934 2.1636 6.86778
2.07808 2.17892 6.88034
2.0934 2.1636 6.89288
2.07808 2.17892 6.90544
2.07808 2.17892 6.90544
2.06277 2.19423 6.89289
2.07808 2.17892 6.88034
2.04744 2.20956 6.98083
2.03213 2.22487 6.96828
2.04744 2.20956 6.9557
2.04744 2.20956 6.98083
2.06275 2.19425 6.99338
2.04743 2.20957 7.00598
2.0015 2.2555 6.9683
2.01681 2.24019 6.95572
2.01681 2.24019 6.98086
2.01681 2.24019 6.98086
2.01681 2.24019 6.95572
2.03213 2.22487 6.96828
2.0934 2.1636 6.9431
2.07808 2.17892 6.93055
2.0934 2.1636 6.91799
2.04744 2.20956 6.9557
2.06276 2.19424 6.94312
2.06276 2.19424 6.96825
2.06276 2.19424 6.96825
2.04744 2.20956 6.98083
2.04744 2.20956 6.9557
2.06275 2.19425 6.99338
2.04744 2.20956 6.98083
2.06276 2.19424 6.96825
2.07806 2.17894 7.05621
2.06273 2.19427 7.06884
2.06274 2.19426 7.04368
2.06274 2.19426 7.04368
2.07807 2.17893 7.03107
2.07806 2.17894 7.05621
2.06275 2.19425 7.01853
2.07807 2.17893 7.03107
2.06274 2.19426 7.04368
2.0321 2.2249 7.06894
2.03211 2.22489 7.04375
2.04742 2.20958 7.0563
2.04742 2.20958 7.0563
2.04741 2.20959 7.08149
2.0321 2.2249 7.06894
2.06273 2.19427 7.06884
2.04741 2.20959 7.08149
2.04742 2.20958 7.0563
2.04742 2.20958 7.0563
2.06274 2.19426 7.04368
2.06273 2.19427 7.06884
2.01679 2.24021 7.05638
2.03211 2.22489 7.04375
2.0321 2.2249 7.06894
2.01679 2.24021 7.05638
2.00148 2.25552 7.06901
2.00148 2.25552 7.04381
2.06271 2.19429 7.14436
2.06271 2.19429 7.16952
2.04741 2.20959 7.15722
2.04741 2.20959 7.15722
2.06271 2.19429 7.16952
2.04744 2.20956 7.18263
2.03209 2.22491 7.09415
2.04741 2.20959 7.08149
2.0474 2.2096 7.10669
2.0474 2.2096 7.10669
2.03209 2.22491 7.11937
2.03209 2.22491 7.09415
1.97087 2.28613 6.94317
1.95555 2.30145 6.95575
1.95555 2.30145 6.93061
2.00148 2.25552 7.04381
2.00149 2.25551 7.01862
2.0168 2.2402 7.03119
2.0168 2.2402 7.03119
2.01679 2.24021 7.05638
2.00148 2.25552 7.04381
2.03211 2.22489 7.04375
2.01679 2.24021 7.05638
2.0168 2.2402 7.03119
2.03211 2.22489 7.01858
2.03211 2.22489 7.04375
2.0168 2.2402 7.03119
1.86358 2.39342 7.18276
1.86358 2.39342 7.20839
1.84822 2.40878 7.19491
1.84822 2.40878 7.19491
1.86358 2.39342 7.20839
1.84822 2.40878 7.2195
1.84822 2.40878 7.19491
1.84822 2.40878 7.2195
1.83285 2.42415 7.20838
1.83285 2.42415 7.20838
1.83285 2.42415 7.18275
1.84822 2.40878 7.19491
1.81747 2.43953 7.16985
1.83285 2.42415 7.18275
1.81747 2.43953 7.1949
1.80202 2.45498 6.80505
1.80202 2.45498 6.83015
1.7866 2.4704 6.8176
1.70922 2.54778 6.93056
1.69367 2.56333 6.918
1.70922 2.54778 6.90545
1.70924 2.54776 6.98083
1.6937 2.5633 6.99339
1.69369 2.56331 6.96825
1.63134 2.62566 7.14446
1.61564 2.64136 7.13185
1.63132 2.62568 7.11924
1.63135 2.62565 7.16966
1.61565 2.64135 7.15714
1.63134 2.62566 7.14446
1.69376 2.56324 7.09412
1.69378 2.56322 7.11934
1.6782 2.5788 7.10672
1.59983 2.65717 7.04358
1.61554 2.64146 7.03103
1.61557 2.64143 7.0562
1.59973 2.65727 6.94303
1.58397 2.67303 6.95556
1.58396 2.67304 6.93046
1.61564 2.64136 7.23441
1.63134 2.62566 7.2425
1.5999 2.6571 7.2425
1.63134 2.62566 7.21937
1.63134 2.62566 7.2425
1.61564 2.64136 7.23441
1.647 2.61 7.23447
1.63134 2.62566 7.2425
1.63134 2.62566 7.21937
1.59993 2.65707 7.16961
1.59992 2.65708 7.19469
1.58418 2.67282 7.18246
1.84822 2.40878 7.2425
1.81747 2.43953 7.2425
1.83285 2.42415 7.23472
1.83285 2.42415 7.20838
1.84822 2.40878 7.2195
1.83285 2.42415 7.23472
1.83285 2.42415 7.23472
1.84822 2.40878 7.2195
1.84822 2.40878 7.2425
1.81747 2.43953 7.21949
1.81747 2.43953 7.1949
1.83285 2.42415 7.20838
1.83285 2.42415 7.20838
1.83285 2.42415 7.23472
1.81747 2.43953 7.21949
1.81747 2.43953 7.21949
1.83285 2.42415 7.23472
1.81747 2.43953 7.2425
1.70931 2.54769 7.10676
1.69378 2.56322 7.11934
1.69376 2.56324 7.09412
1.7712 2.4858 7.0312
1.78663 2.47037 7.01862
1.78664 2.47036 7.0438
1.78664 2.47036 7.0438
1.77121 2.48579 7.05639
1.7712 2.4858 7.0312
1.77122 2.48578 7.0816
1.77121 2.48579 7.05639
1.78664 2.47036 7.069
1.77122 2.48578 7.0816
1.78664 2.47036 7.069
1.78665 2.47035 7.09421
1.78665 2.47035 7.09421
1.77123 2.48577 7.10682
1.77122 2.48578 7.0816
1.77122 2.48578 7.0816
1.77123 2.48577 7.10682
1.75578 2.50122 7.09419
1.78666 2.47034 7.11943
1.77123 2.48577 7.10682
1.78665 2.47035 7.09421
1.78666 2.47034 7.14464
1.77124 2.48576 7.15734
1.77124 2.48576 7.13206
1.77124 2.48576 7.13206
1.78666 2.47034 7.11943
1.78666 2.47034 7.14464
1.77123 2.48577 7.10682
1.78666 2.47034 7.11943
1.77124 2.48576 7.13206
2.07809 2.17891 6.37738
2.07833 2.17867 6.35116
2.0934 2.1636 6.36645
2.06287 2.19413 6.36573
2.07833 2.17867 6.35116
2.07809 2.17891 6.37738
1.94028 2.31672 6.36548
1.94028 2.31672 6.3425
1.95561 2.30139 6.35021
2.00164 2.25536 6.3425
1.98629 2.27071 6.35017
1.97095 2.28605 6.3425
1.97095 2.28605 6.3425
1.95561 2.30139 6.35021
1.94028 2.31672 6.3425
1.48928 2.76772 6.37897
1.48919 2.76781 6.35286
1.50509 2.75191 6.36645
1.50509 2.75191 6.36645
1.5206 2.7364 6.35101
1.52092 2.73608 6.37745
1.47362 2.78338 6.36782
1.48919 2.76781 6.35286
1.48928 2.76772 6.37897
1.47362 2.78338 6.36782
1.47412 2.78288 6.3425
1.48919 2.76781 6.35286
1.56833 2.68867 6.36567
1.5683 2.6887 6.3425
1.58412 2.67288 6.35063
[...]
<PointData Scalars="View Factor" >
<DataArray type="Float64" Name="View Factor" NumberOfComponents="1" format="ascii">
0.00436398
0.00436398
0.00436398
0.00456971
0.00456971
0.00456971
0.00449913
0.00449913
0.00449913
0.00429676
0.00429676
0.00429676
0.00429678
0.00429678
0.00429678
0.00422262
0.00422262
0.00422262
0.00429865
0.00429865
0.00429865
0.00427188
0.00427188
0.00427188
0.00431038
0.00431038
0.00431038
0.00427573
0.00427573
0.00427573
0.0042261
0.0042261
0.0042261
0.00439767
0.00439767
0.00439767
0.00446483
0.00446483
0.00446483
0.00428947
0.00428947
0.00428947
0.00425132
0.00425132
0.00425132
0.00460594
0.00460594
0.00460594
0.00451376
0.00451376
0.00451376
0.00447836
0.00447836
0.00447836
0.00722574
0.00722574
0.00722574
0.00485809
0.00485809
0.00485809
0.00489717
0.00489717
0.00489717
0.00539091
0.00539091
0.00539091
0.0184733
0.0184733
0.0184733
0.00917753
0.00917753
0.00917753
0.00440923
0.00440923
0.00440923
0.00437597
0.00437597
0.00437597
0.00432148
0.00432148
0.00432148
0.0043021
0.0043021
0.0043021
0.00416836
0.00416836
0.00416836
0.00421607
0.00421607
0.00421607
0.00416059
0.00416059
0.00416059
0.00420597
0.00420597
0.00420597
0.00423481
0.00423481
0.00423481
0.00479759
0.00479759
0.00479759
0.00442396
0.00442396
0.00442396
0.0043365
0.0043365
0.0043365
0.00438914
0.00438914
0.00438914
0.00543541
0.00543541
0.00543541
0.00716177
0.00716177
0.00716177
0.00507407
0.00507407
0.00507407
0.00466339
0.00466339
0.00466339
0.00470053
0.00470053
0.00470053
0.00478211
0.00478211
0.00478211
0.0047595
0.0047595
0.0047595
0.00455594
0.00455594
0.00455594
0.00459111
0.00459111
0.00459111
0.00482294
0.00482294
0.00482294
0.00616647
0.00616647
0.00616647
0.00754261
0.00754261
0.00754261
0.00891688
0.00891688
0.00891688
0.00910902
0.00910902
0.00910902
0.00905179
0.00905179
0.00905179
0.00936186
0.00936186
0.00936186
0.00686116
0.00686116
0.00686116
0.00591979
0.00591979
0.00591979
0.00567115
0.00567115
0.00567115
0.00622891
0.00622891
0.00622891
0.00614367
0.00614367
0.00614367
0.00597907
0.00597907
0.00597907
0.00536102
0.00536102
0.00536102
0.00561241
0.00561241
0.00561241
0.00562517
0.00562517
0.00562517
0.00559266
0.00559266
0.00559266
0.0057026
0.0057026
0.0057026
0.00574662
0.00574662
0.00574662
0.00555172
0.00555172
0.00555172
0.00562421
0.00562421
0.00562421
0.00550603
0.00550603
0.00550603
0.00553309
0.00553309
0.00553309
0.00527969
0.00527969
0.00527969
0.00514113
0.00514113
0.00514113
0.00537966
0.00537966
0.00537966
0.0053447
0.0053447
0.0053447
0.0053221
0.0053221
0.0053221
0.00529039
0.00529039
0.00529039
0.00524965
0.00524965
0.00524965
0.00518083
0.00518083
0.00518083
0.0048434
0.0048434
0.0048434
0.0048813
0.0048813
0.0048813
0.00494418
0.00494418
0.00494418
0.00492331
0.00492331
0.00492331
0.00485875
0.00485875
0.00485875
0.00483173
0.00483173
0.00483173
0.00486855
0.00486855
0.00486855
0.00495293
0.00495293
0.00495293
0.00501655
0.00501655
0.00501655
0.00448727
0.00448727
0.00448727
0.00445352
0.00445352
0.00445352
0.00475999
0.00475999
0.00475999
0.00472503
0.00472503
0.00472503
0.00569899
0.00569899
0.00569899
0.00512218
0.00512218
0.00512218
0.00505232
0.00505232
0.00505232
0.00502004
0.00502004
0.00502004
0.00505666
0.00505666
0.00505666
0.00580261
0.00580261
0.00580261
0.00580467
0.00580467
0.00580467
0.0059245
0.0059245
0.0059245
0.00604479
0.00604479
0.00604479
0.00629319
0.00629319
0.00629319
0.00901655
0.00901655
0.00901655
0.00968797
0.00968797
0.00968797
0.00925055
0.00925055
0.00925055
0.00908018
0.00908018
0.00908018
0.00889086
0.00889086
0.00889086
0.00844728
0.00844728
0.00844728
0.0100046
0.0100046
0.0100046
0.0112336
0.0112336
0.0112336
0.00842742
0.00842742
0.00842742
0.00835598
0.00835598
0.00835598
0.0082313
0.0082313
0.0082313
0.00909759
0.00909759
0.00909759
0.00588791
0.00588791
0.00588791
0.00592046
0.00592046
0.00592046
0.00580711
0.00580711
0.00580711
0.00616546
0.00616546
0.00616546
0.00603956
0.00603956
0.00603956
0.00604307
0.00604307
0.00604307
0.00831049
0.00831049
0.00831049
0.00770536
0.00770536
0.00770536
0.00769393
0.00769393
0.00769393
0.0075321
0.0075321
0.0075321
0.00738418
0.00738418
0.00738418
0.00737407
0.00737407
0.00737407
0.00750945
0.00750945
0.00750945
0.00722995
0.00722995
0.00722995
0.00707027
0.00707027
0.00707027
0.00707949
0.00707949
0.00707949
0.00722008
0.00722008
0.00722008
0.00884089
0.00884089
0.00884089
0.00889096
0.00889096
0.00889096
0.0101325
0.0101325
0.0101325
0.00962335
0.00962335
0.00962335
0.00995249
0.00995249
0.00995249
0.0216624
0.0216624
0.0216624
0.0211436
0.0211436
0.0211436
0.0219221
0.0219221
0.0219221
0.0223183
0.0223183
0.0223183
0.0198677
0.0198677
0.0198677
0.0188969
0.0188969
0.0188969
0.0197403
0.0197403
0.0197403
0.0188376
0.0188376
0.0188376
0.0185007
0.0185007
0.0185007
0.00860574
0.00860574
0.00860574
0.00906627
0.00906627
0.00906627
0.00891072
0.00891072
0.00891072
0.011602
0.011602
0.011602
0.0113948
0.0113948
0.0113948
0.00986716
0.00986716
0.00986716
0.00732679
0.00732679
0.00732679
0.00618228
0.00618228
0.00618228
0.00656201
0.00656201
0.00656201
0.00650853
0.00650853
0.00650853
0.00670946
0.00670946
0.00670946
0.00665453
0.00665453
0.00665453
0.00669489
0.00669489
0.00669489
0.00679131
0.00679131
0.00679131
0.00684614
0.00684614
0.00684614
0.00680463
0.00680463
0.00680463
0.0127388
0.0127388
0.0127388
0.0127275
0.0127275
0.0127275
0.0131049
0.0131049
0.0131049
0.00694534
0.00694534
0.00694534
0.0070636
0.0070636
0.0070636
0.00596377
0.00596377
0.00596377
0.00626159
0.00626159
0.00626159
0.00569132
0.00569132
0.00569132
0.00653153
0.00653153
0.00653153
0.00625636
0.00625636
0.00625636
0.00635092
0.00635092
0.00635092
0.00650573
0.00650573
0.00650573
0.00651506
0.00651506
0.00651506
0.00626608
0.00626608
0.00626608
0.00604924
0.00604924
0.00604924
0.00599832
0.00599832
0.00599832
0.00602836
0.00602836
0.00602836
0.00611011
0.00611011
0.00611011
0.00616077
0.00616077
0.00616077
0.00612993
0.00612993
0.00612993
0.00766037
0.00766037
0.00766037
0.00766052
0.00766052
0.00766052
0.00680882
0.00680882
0.00680882
0.00665063
0.00665063
0.00665063
0.00665979
0.00665979
0.00665979
0.00682476
0.00682476
0.00682476
0.00783326
0.00783326
0.00783326
0.00800996
0.00800996
0.00800996
0.00800555
0.00800555
0.00800555
0.00783245
0.00783245
0.00783245
0.00697765
0.00697765
0.00697765
0.00698439
0.00698439
0.00698439
0.00537418
0.00537418
0.00537418
0.00540283
0.00540283
0.00540283
0.00547532
0.00547532
0.00547532
0.00541728
0.00541728
0.00541728
0.00548883
0.00548883
0.00548883
0.00551824
0.00551824
0.00551824
0.00557553
0.00557553
0.00557553
0.00550698
0.00550698
0.00550698
0.00558239
0.00558239
0.00558239
0.00561712
0.00561712
0.00561712
0.00594094
0.00594094
0.00594094
0.00594168
0.00594168
0.00594168
0.00598387
0.00598387
0.00598387
0.00565198
0.00565198
0.00565198
0.00575841
0.00575841
0.00575841
0.00572741
0.00572741
0.00572741
0.00571325
0.00571325
0.00571325
0.00563672
0.00563672
0.00563672
0.00560654
0.00560654
0.00560654
0.00535125
0.00535125
0.00535125
0.00538419
0.00538419
0.00538419
0.00545861
0.00545861
0.00545861
0.00539185
0.00539185
0.00539185
0.00549913
0.00549913
0.00549913
0.00546531
0.00546531
0.00546531
0.00549453
0.00549453
0.00549453
0.00557182
0.00557182
0.00557182
0.00561073
0.00561073
0.00561073
0.00545515
0.00545515
0.00545515
0.00524012
0.00524012
0.00524012
0.00527219
0.00527219
0.00527219
0.00517039
0.00517039
0.00517039
0.00513181
0.00513181
0.00513181
0.00534119
0.00534119
0.00534119
0.00530437
0.00530437
0.00530437
0.00527867
0.00527867
0.00527867
0.00521173
0.00521173
0.00521173
0.00526247
0.00526247
0.00526247
0.00499933
0.00499933
0.00499933
0.00504757
0.00504757
0.00504757
0.00495924
0.00495924
0.00495924
0.00498305
0.00498305
0.00498305
0.00510416
0.00510416
0.00510416
0.00516959
0.00516959
0.00516959
0.00519464
0.00519464
0.00519464
0.00515364
0.00515364
0.00515364
0.00508744
0.00508744
0.00508744
0.00506301
0.00506301
0.00506301
0.00502624
0.00502624
0.00502624
0.00497
0.00497
0.00497
0.00496001
0.00496001
0.00496001
0.00493225
0.00493225
0.00493225
0.00506386
0.00506386
0.00506386
0.00503536
0.00503536
0.00503536
0.00485178
0.00485178
0.00485178
0.0049172
0.0049172
0.0049172
0.00494864
0.00494864
0.00494864
0.00457907
0.00457907
0.00457907
0.00462943
0.00462943
0.00462943
0.00463805
0.00463805
0.00463805
0.00466363
0.00466363
0.00466363
0.00454461
0.00454461
0.00454461
0.00456947
0.00456947
0.00456947
0.00435681
0.00435681
0.00435681
0.00438746
0.00438746
0.00438746
0.00434888
0.00434888
0.00434888
0.00438211
0.00438211
0.00438211
0.00443864
0.00443864
0.00443864
0.00453635
0.00453635
0.00453635
0.00447121
0.00447121
0.00447121
0.00447766
0.00447766
0.00447766
0.00444531
0.00444531
0.00444531
0.00473369
0.00473369
0.00473369
0.00468541
0.00468541
0.00468541
0.00464936
0.00464936
0.00464936
0.00467317
0.00467317
0.00467317
0.00474515
0.00474515
0.00474515
0.00476963
0.00476963
0.00476963
0.0068647
0.0068647
0.0068647
0.00701659
0.00701659
0.00701659
0.00641142
0.00641142
0.00641142
0.00671301
0.00671301
0.00671301
0.00561645
0.00561645
0.00561645
0.00553835
0.00553835
0.00553835
0.00568979
0.00568979
0.00568979
0.0056834
0.0056834
0.0056834
0.00900184
0.00900184
0.00900184
0.00884484
0.00884484
0.00884484
0.0080027
0.0080027
0.0080027
0.00782951
0.00782951
0.00782951
0.00987682
0.00987682
0.00987682
0.00965253
0.00965253
0.00965253
0.00966219
0.00966219
0.00966219
0.0109731
0.0109731
0.0109731
0.0111055
0.0111055
0.0111055
0.0111439
0.0111439
0.0111439
0.00924559
0.00924559
0.00924559
0.0088632
0.0088632
0.0088632
0.00899493
0.00899493
0.00899493
0.0089669
0.0089669
0.0089669
0.00894449
0.00894449
0.00894449
0.00897137
0.00897137
0.00897137
0.00867399
0.00867399
0.00867399
0.0088346
0.0088346
0.0088346
0.00924584
0.00924584
0.00924584
0.00910185
0.00910185
0.00910185
0.00953473
0.00953473
0.00953473
0.00967966
0.00967966
0.00967966
0.00985763
0.00985763
0.00985763
0.00950201
0.00950201
0.00950201
0.00872179
0.00872179
0.00872179
0.00885962
0.00885962
0.00885962
0.0101872
0.0101872
0.0101872
0.0102226
0.0102226
0.0102226
0.0102928
0.0102928
0.0102928
0.0112759
0.0112759
0.0112759
0.00805584
0.00805584
0.00805584
0.00768715
0.00768715
0.00768715
0.0091864
0.0091864
0.0091864
0.00915703
0.00915703
0.00915703
0.00624163
0.00624163
0.00624163
0.00616161
0.00616161
0.00616161
0.00835737
0.00835737
0.00835737
0.00834233
0.00834233
0.00834233
0.0077265
0.0077265
0.0077265
0.00700614
0.00700614
0.00700614
0.00765812
0.00765812
0.00765812
0.00767049
0.00767049
0.00767049
0.00719982
0.00719982
0.00719982
0.0074602
0.0074602
0.0074602
0.00903224
0.00903224
0.00903224
0.00901566
0.00901566
0.00901566
0.00919044
0.00919044
0.00919044
0.0092579
0.0092579
0.0092579
0.00939576
0.00939576
0.00939576
0.0209821
0.0209821
0.0209821
0.0208756
0.0208756
0.0208756
0.0205845
0.0205845
0.0205845
0.0207051
0.0207051
0.0207051
0.0203307
0.0203307
0.0203307
0.0201469
0.0201469
0.0201469
0.0200556
0.0200556
0.0200556
0.0196569
0.0196569
0.0196569
0.0209958
0.0209958
0.0209958
0.0211235
0.0211235
0.0211235
0.0212542
0.0212542
0.0212542
0.0217921
0.0217921
0.0217921
0.0215321
0.0215321
0.0215321
0.0222363
0.0222363
0.0222363
0.0214273
0.0214273
0.0214273
0.0172303
0.0172303
0.0172303
0.0138212
0.0138212
0.0138212
0.0165819
0.0165819
0.0165819
0.0161087
0.0161087
0.0161087
0.0164826
0.0164826
0.0164826
0.016195
0.016195
0.016195
0.0160809
0.0160809
0.0160809
0.0159964
0.0159964
0.0159964
0.0180878
0.0180878
0.0180878
0.0162502
0.0162502
0.0162502
0.0144612
0.0144612
0.0144612
0.014262
0.014262
0.014262
0.014008
0.014008
0.014008
0.0176733
0.0176733
0.0176733
0.0174394
0.0174394
0.0174394
0.0181402
0.0181402
0.0181402
0.018373
0.018373
0.018373
0.0182708
0.0182708
0.0182708
0.016181
0.016181
0.016181
0.01896
0.01896
0.01896
0.019414
0.019414
0.019414
0.0190696
0.0190696
0.0190696
0.0117065
0.0117065
0.0117065
0.0114804
0.0114804
0.0114804
0.0120555
0.0120555
0.0120555
0.0110401
0.0110401
0.0110401
0.0110732
0.0110732
0.0110732
0.011293
0.011293
0.011293
0.00988344
0.00988344
0.00988344
0.0102862
0.0102862
0.0102862
0.0129936
0.0129936
0.0129936
0.0130461
0.0130461
0.0130461
0.00849795
0.00849795
0.00849795
0.00862415
0.00862415
0.00862415
0.0087827
0.0087827
0.0087827
0.00880748
0.00880748
0.00880748
0.00873118
0.00873118
0.00873118
0.00887748
0.00887748
0.00887748
0.00880101
0.00880101
0.00880101
0.00898279
0.00898279
0.00898279
0.0090044
0.0090044
0.0090044
0.0137641
0.0137641
0.0137641
0.0134646
0.0134646
0.0134646
0.0135301
0.0135301
0.0135301
0.0113507
0.0113507
0.0113507
0.0112619
0.0112619
0.0112619
0.0114645
0.0114645
0.0114645
0.0115105
0.0115105
0.0115105
0.0118303
0.0118303
0.0118303
0.011575
0.011575
0.011575
0.0116227
0.0116227
0.0116227
0.0117317
0.0117317
0.0117317
0.0099018
0.0099018
0.0099018
0.00997043
0.00997043
0.00997043
0.0107429
0.0107429
0.0107429
0.0107844
0.0107844
0.0107844
0.0100085
0.0100085
0.0100085
0.00948934
0.00948934
0.00948934
0.009556
0.009556
0.009556
0.00974354
0.00974354
0.00974354
0.00919586
0.00919586
0.00919586
0.00916731
0.00916731
0.00916731
0.00925883
0.00925883
0.00925883
0.00938639
0.00938639
0.00938639
0.00929596
0.00929596
0.00929596
0.00945584
0.00945584
0.00945584
0.00925957
0.00925957
0.00925957
0.0093981
0.0093981
0.0093981
0.00947326
0.00947326
0.00947326
0.00940779
0.00940779
0.00940779
0.00971891
0.00971891
0.00971891
0.00963368
0.00963368
0.00963368
0.00948694
0.00948694
0.00948694
0.0100697
0.0100697
0.0100697
0.00880584
0.00880584
0.00880584
0.00886035
0.00886035
0.00886035
0.00904074
0.00904074
0.00904074
0.00897745
0.00897745
0.00897745
0.00641868
0.00641868
0.00641868
0.00636678
0.00636678
0.00636678
0.00627928
0.00627928
0.00627928
0.00624479
0.00624479
0.00624479
0.00645965
0.00645965
0.00645965
0.00652561
0.00652561
0.00652561
0.00654776
0.00654776
0.00654776
0.00663304
0.00663304
0.00663304
0.00668479
0.00668479
0.00668479
0.00664161
0.00664161
0.00664161
0.00947612
0.00947612
0.00947612
0.00950448
0.00950448
0.00950448
0.0106728
0.0106728
0.0106728
0.0108653
0.0108653
0.0108653
0.0110777
0.0110777
0.0110777
0.0113167
0.0113167
0.0113167
0.0108868
0.0108868
0.0108868
0.0113423
0.0113423
0.0113423
0.0111247
0.0111247
0.0111247
0.0106339
0.0106339
0.0106339
0.0110536
0.0110536
0.0110536
0.011004
0.011004
0.011004
0.0141349
0.0141349
0.0141349
0.0115327
0.0115327
0.0115327
0.0138929
0.0138929
0.0138929
0.00877994
0.00877994
0.00877994
0.00951781
0.00951781
0.00951781
0.00972461
0.00972461
0.00972461
0.00977891
0.00977891
0.00977891
0.0095875
0.0095875
0.0095875
0.0095772
0.0095772
0.0095772
0.0124326
0.0124326
0.0124326
0.0103882
0.0103882
0.0103882
0.0108952
0.0108952
0.0108952
0.0111664
0.0111664
0.0111664
0.0114241
0.0114241
0.0114241
0.0116839
0.0116839
0.0116839
0.0106916
0.0106916
0.0106916
0.0102881
0.0102881
0.0102881
0.0107273
0.0107273
0.0107273
0.00695909
0.00695909
0.00695909
0.00700178
0.00700178
0.00700178
0.00857926
0.00857926
0.00857926
0.00818984
0.00818984
0.00818984
0.00838301
0.00838301
0.00838301
0.00858002
0.00858002
0.00858002
0.0074484
0.0074484
0.0074484
0.00765233
0.00765233
0.00765233
0.00679966
0.00679966
0.00679966
0.00700137
0.00700137
0.00700137
0.0069061
0.0069061
0.0069061
0.00675303
0.00675303
0.00675303
0.00682269
0.00682269
0.00682269
0.00688116
0.00688116
0.00688116
0.00684586
0.00684586
0.00684586
0.00660426
0.00660426
0.00660426
0.00654729
0.00654729
0.00654729
0.00658072
0.00658072
0.00658072
0.00667204
0.00667204
0.00667204
0.00672875
0.00672875
0.00672875
0.00669439
0.00669439
0.00669439
0.00574559
0.00574559
0.00574559
0.00577409
0.00577409
0.00577409
0.00585155
0.00585155
0.00585155
0.0057938
0.0057938
0.0057938
0.0058995
0.0058995
0.0058995
0.00587025
0.00587025
0.00587025
0.00609386
0.00609386
0.00609386
0.00625402
0.00625402
0.00625402
0.00610344
0.00610344
0.00610344
0.006237
0.006237
0.006237
0.00573335
0.00573335
0.00573335
0.00582243
0.00582243
0.00582243
0.00573767
0.00573767
0.00573767
0.00569371
0.00569371
0.00569371
0.00594928
0.00594928
0.00594928
0.00586223
0.00586223
0.00586223
0.00581705
0.00581705
0.00581705
0.00585774
0.00585774
0.00585774
0.00611481
0.00611481
0.00611481
0.00620733
0.00620733
0.00620733
0.00607104
0.00607104
0.00607104
0.00611668
0.00611668
0.00611668
0.00598544
0.00598544
0.00598544
0.00607145
0.00607145
0.00607145
0.00649224
0.00649224
0.00649224
0.00639509
0.00639509
0.00639509
0.00637397
0.00637397
0.00637397
0.00622748
0.00622748
0.00622748
0.00621329
0.00621329
0.00621329
0.00636458
0.00636458
0.00636458
0.00667892
0.00667892
0.00667892
0.00662848
0.00662848
0.00662848
0.00638819
0.00638819
0.00638819
0.00635449
0.00635449
0.00635449
0.00640494
0.00640494
0.00640494
0.00653809
0.00653809
0.00653809
0.00649608
0.00649608
0.00649608
0.00639842
0.00639842
0.00639842
0.00639102
0.00639102
0.00639102
0.00653891
0.00653891
0.00653891
0.00669569
0.00669569
0.00669569
0.00670092
0.00670092
0.00670092
0.00655168
0.00655168
0.00655168
0.00655709
0.00655709
0.00655709
0.00670961
0.00670961
0.00670961
0.0066834
0.0066834
0.0066834
0.00667628
0.00667628
0.00667628
0.0068318
0.0068318
0.0068318
0.00699596
0.00699596
0.00699596
0.00749249
0.00749249
0.00749249
0.00732631
0.00732631
0.00732631
0.00714127
0.00714127
0.00714127
0.0074786
0.0074786
0.0074786
0.00749044
0.00749044
0.00749044
0.00715236
0.00715236
0.00715236
0.00732399
0.00732399
0.00732399
0.00715691
0.00715691
0.00715691
0.00801072
0.00801072
0.00801072
0.00930334
0.00930334
0.00930334
0.00929074
0.00929074
0.00929074
0.00818715
0.00818715
0.00818715
0.00818354
0.00818354
0.00818354
0.00585616
0.00585616
0.00585616
0.00581458
0.00581458
0.00581458
0.00569187
0.00569187
0.00569187
0.00573187
0.00573187
0.00573187
0.00581883
0.00581883
0.00581883
0.00585775
0.00585775
0.00585775
0.00573827
0.00573827
0.00573827
0.00581505
0.00581505
0.00581505
0.00569557
0.00569557
0.00569557
0.00573345
0.00573345
0.00573345
0.00526607
0.00526607
0.00526607
0.00523361
0.00523361
0.00523361
0.00526764
0.00526764
0.00526764
0.00516306
0.00516306
0.00516306
0.00523013
0.00523013
0.00523013
0.00512561
0.00512561
0.00512561
0.00515876
0.00515876
0.00515876
0.00435049
0.00435049
0.00435049
0.00437595
0.00437595
0.00437595
0.00453006
0.00453006
0.00453006
0.00456294
0.00456294
0.00456294
0.00776388
0.00776388
0.00776388
0.00657718
0.00657718
0.00657718
0.00657523
0.00657523
0.00657523
0.0061284
0.0061284
0.0061284
0.00583719
0.00583719
0.00583719
0.00597345
0.00597345
0.00597345
0.00612068
0.00612068
0.00612068
0.00587214
0.00587214
0.00587214
0.00557366
0.00557366
0.00557366
0.00549304
0.00549304
0.00549304
0.0056122
0.0056122
0.0056122
0.00557127
0.00557127
0.00557127
0.00545667
0.00545667
0.00545667
0.00537933
0.00537933
0.00537933
0.00534057
0.00534057
0.00534057
0.0053781
0.0053781
0.0053781
0.00545446
0.00545446
0.00545446
0.00549427
0.00549427
0.00549427
0.00549831
0.00549831
0.00549831
0.00546156
0.00546156
0.00546156
0.00559379
0.00559379
0.00559379
0.00557875
0.00557875
0.00557875
0.00515714
0.00515714
0.00515714
0.0052296
0.0052296
0.0052296
0.00547665
0.00547665
0.00547665
0.00574114
0.00574114
0.00574114
0.00560349
0.00560349
0.00560349
0.00574897
0.00574897
0.00574897
0.00548634
0.00548634
0.00548634
0.005621
0.005621
0.005621
0.00693294
0.00693294
0.00693294
0.00680537
0.00680537
0.00680537
0.0067903
0.0067903
0.0067903
0.00692394
0.00692394
0.00692394
0.00641686
0.00641686
0.00641686
0.00654587
0.00654587
0.00654587
0.00666545
0.00666545
0.00666545
0.00667144
0.00667144
0.00667144
0.00932119
0.00932119
0.00932119
0.00927444
0.00927444
0.00927444
0.00947858
0.00947858
0.00947858
0.00945373
0.00945373
0.00945373
0.00912105
0.00912105
0.00912105
0.00716999
0.00716999
0.00716999
0.00717093
0.00717093
0.00717093
0.00701129
0.00701129
0.00701129
0.00717002
0.00717002
0.00717002
0.00717084
0.00717084
0.00717084
0.00685696
0.00685696
0.00685696
0.00701542
0.00701542
0.00701542
0.00686023
0.00686023
0.00686023
0.00764639
0.00764639
0.00764639
0.00732871
0.00732871
0.00732871
0.00732746
0.00732746
0.00732746
0.00748449
0.00748449
0.00748449