<VTKFile type="UnstructuredGrid" version="1.0">
<UnstructuredGrid>
<Piece NumberOfPoints="8859" NumberOfCells="2953">
<Points>
<DataArray type="Float64" NumberOfComponents="3" format="ascii">
2.75455 1.50245 6.13763
2.76986 1.48714 6.14958
2.75465 1.50235 6.16333
2.78515 1.47185 6.08667
2.78516 1.47184 6.06151
2.8005 1.4565 6.07398
2.76981 1.48719 6.09936
2.78515 1.47185 6.08667
2.78514 1.47186 6.11186
2.72412 1.53288 6.18988
2.73952 1.51748 6.1975
2.70875 1.54825 6.1975
2.72412 1.53288 6.18988
2.73943 1.51757 6.17457
2.73952 1.51748 6.1975
2.75488 1.50212 6.18979
2.77036 1.48664 6.1975
2.73952 1.51748 6.1975
2.75488 1.50212 6.18979
2.73943 1.51757 6.17457
2.75465 1.50235 6.16333
2.73952 1.51748 6.1975
2.73943 1.51757 6.17457
2.75488 1.50212 6.18979
2.75465 1.50235 6.16333
2.76986 1.48714 6.14958
2.76997 1.48703 6.17427
2.76997 1.48703 6.17427
2.75488 1.50212 6.18979
2.75465 1.50235 6.16333
2.77036 1.48664 6.1975
2.75488 1.50212 6.18979
2.76997 1.48703 6.17427
2.76986 1.48714 6.14958
2.75455 1.50245 6.13763
2.76982 1.48718 6.12452
2.76981 1.48719 6.09936
2.78514 1.47186 6.11186
2.76982 1.48718 6.12452
2.7852 1.4718 6.16262
2.76997 1.48703 6.17427
2.76986 1.48714 6.14958
2.8005 1.4565 6.14895
2.8005 1.4565 6.17355
2.7852 1.4718 6.16262
2.8005 1.4565 6.04887
2.8005 1.4565 6.07398
2.78516 1.47184 6.06151
2.78515 1.47185 6.08667
2.8005 1.4565 6.07398
2.8005 1.4565 6.09906
2.8005 1.4565 6.09906
2.78514 1.47186 6.11186
2.78515 1.47185 6.08667
2.8005 1.4565 5.52152
2.8005 1.4565 5.54665
2.78518 1.47182 5.53407
2.78517 1.47183 5.98607
2.8005 1.4565 5.99861
2.78517 1.47183 6.01121
2.8005 1.4565 5.97348
2.8005 1.4565 5.99861
2.78517 1.47183 5.98607
2.78519 1.47181 5.86044
2.8005 1.4565 5.87299
2.78519 1.47181 5.88555
2.32274 1.93426 5.30559
2.33845 1.91855 5.2975
2.33845 1.91855 5.32063
2.27541 1.98159 6.1975
2.24359 2.01341 6.1975
2.25954 1.99746 6.18932
2.78515 1.47185 6.13712
2.76982 1.48718 6.12452
2.78514 1.47186 6.11186
2.76986 1.48714 6.14958
2.76982 1.48718 6.12452
2.78515 1.47185 6.13712
2.78515 1.47185 6.13712
2.7852 1.4718 6.16262
2.76986 1.48714 6.14958
2.8005 1.4565 6.14895
2.7852 1.4718 6.16262
2.78515 1.47185 6.13712
2.78544 1.47156 6.18884
2.8005 1.4565 6.17355
2.8005 1.4565 6.1975
2.78544 1.47156 6.18884
2.7852 1.4718 6.16262
2.8005 1.4565 6.17355
2.8005 1.4565 6.1975
2.77036 1.48664 6.1975
2.78544 1.47156 6.18884
2.77036 1.48664 6.1975
2.76997 1.48703 6.17427
2.78544 1.47156 6.18884
2.76997 1.48703 6.17427
2.7852 1.4718 6.16262
2.78544 1.47156 6.18884
2.78517 1.47183 6.01121
2.8005 1.4565 5.99861
2.8005 1.4565 6.02375
2.78514 1.47186 6.11186
2.8005 1.4565 6.09906
2.8005 1.4565 6.12407
2.8005 1.4565 6.14895
2.78515 1.47185 6.13712
2.8005 1.4565 6.12407
2.8005 1.4565 6.12407
2.78515 1.47185 6.13712
2.78514 1.47186 6.11186
2.8005 1.4565 5.84789
2.8005 1.4565 5.87299
2.78519 1.47181 5.86044
2.78518 1.47182 5.53407
2.8005 1.4565 5.54665
2.78518 1.47182 5.5592
2.76985 1.48715 5.97353
2.75454 1.50246 5.96098
2.76986 1.48714 5.94838
2.78516 1.47184 6.03636
2.8005 1.4565 6.04887
2.78516 1.47184 6.06151
2.78516 1.47184 6.03636
2.8005 1.4565 6.02375
2.8005 1.4565 6.04887
2.78516 1.47184 6.03636
2.76984 1.48716 6.02384
2.78517 1.47183 6.01121
2.78517 1.47183 6.01121
2.8005 1.4565 6.02375
2.78516 1.47184 6.03636
2.76982 1.48718 6.07418
2.78515 1.47185 6.08667
2.76981 1.48719 6.09936
2.76982 1.48718 6.07418
2.78516 1.47184 6.06151
2.78515 1.47185 6.08667
2.75451 1.50249 6.03649
2.7392 1.5178 6.04915
2.73921 1.51779 6.02394
2.53996 1.71704 6.16338
2.52458 1.73242 6.1499
2.53996 1.71704 6.13775
2.49374 1.76326 5.9988
2.49375 1.76325 6.024
2.47832 1.77868 6.01139
2.8005 1.4565 5.2975
2.8005 1.4565 5.32145
2.78544 1.47156 5.30616
2.27543 1.98157 6.17433
2.27541 1.98159 6.1975
2.25954 1.99746 6.18932
2.33845 1.91855 6.09946
2.32276 1.93424 6.11214
2.32275 1.93425 6.08685
2.25954 1.99746 6.18932
2.24359 2.01341 6.1975
2.24374 2.01326 6.17423
2.76987 1.48713 5.622
2.75455 1.50245 5.60943
2.76987 1.48713 5.59688
2.8005 1.4565 5.77259
2.78519 1.47181 5.76005
2.8005 1.4565 5.7475
2.78519 1.47181 5.81024
2.8005 1.4565 5.79769
2.8005 1.4565 5.82278
2.76988 1.48712 5.72241
2.75456 1.50244 5.73495
2.75456 1.50244 5.70986
2.76988 1.48712 5.7475
2.75456 1.50244 5.73495
2.76988 1.48712 5.72241
2.78519 1.47181 5.76005
2.76988 1.48712 5.77259
2.76988 1.48712 5.7475
2.75455 1.50245 5.88557
2.76987 1.48713 5.89812
2.75455 1.50245 5.9107
2.72393 1.53307 5.86047
2.72392 1.53308 5.88559
2.70861 1.54839 5.87303
2.75456 1.50244 5.86045
2.73924 1.51776 5.8479
2.75456 1.50244 5.83535
2.75456 1.50244 5.83535
2.76987 1.48713 5.84789
2.75456 1.50244 5.86045
2.73924 1.51776 5.8479
2.73925 1.51775 5.8228
2.75456 1.50244 5.83535
2.75456 1.50244 5.83535
2.73925 1.51775 5.8228
2.75456 1.50244 5.81024
2.8005 1.4565 5.82278
2.8005 1.4565 5.84789
2.78519 1.47181 5.83534
2.78519 1.47181 5.83534
2.78519 1.47181 5.81024
2.8005 1.4565 5.82278
2.78519 1.47181 5.83534
2.8005 1.4565 5.84789
2.78519 1.47181 5.86044
2.78519 1.47181 5.86044
2.76987 1.48713 5.84789
2.78519 1.47181 5.83534
2.75454 1.50246 5.93583
2.73923 1.51777 5.92328
2.75455 1.50245 5.9107
2.75454 1.50246 5.93583
2.76986 1.48714 5.94838
2.75454 1.50246 5.96098
2.7086 1.5484 5.9233
2.72392 1.53308 5.91072
2.72392 1.53308 5.93586
2.72392 1.53308 5.93586
2.72392 1.53308 5.91072
2.73923 1.51777 5.92328
2.8005 1.4565 5.8981
2.78519 1.47181 5.88555
2.8005 1.4565 5.87299
2.75455 1.50245 5.9107
2.76987 1.48713 5.89812
2.76986 1.48714 5.92325
2.76986 1.48714 5.92325
2.75454 1.50246 5.93583
2.75455 1.50245 5.9107
2.76986 1.48714 5.94838
2.75454 1.50246 5.93583
2.76986 1.48714 5.92325
2.78517 1.47183 6.01121
2.76984 1.48716 6.02384
2.76985 1.48715 5.99868
2.76985 1.48715 5.99868
2.78517 1.47183 5.98607
2.78517 1.47183 6.01121
2.76985 1.48715 5.97353
2.78517 1.47183 5.98607
2.76985 1.48715 5.99868
2.73921 1.51779 6.02394
2.73921 1.51779 5.99875
2.75452 1.50248 6.0113
2.75452 1.50248 6.0113
2.75451 1.50249 6.03649
2.73921 1.51779 6.02394
2.76984 1.48716 6.02384
2.75451 1.50249 6.03649
2.75452 1.50248 6.0113
2.75452 1.50248 6.0113
2.76985 1.48715 5.99868
2.76984 1.48716 6.02384
2.7239 1.5331 6.01138
2.73921 1.51779 5.99875
2.73921 1.51779 6.02394
2.7239 1.5331 6.01138
2.70859 1.54841 6.02401
2.70859 1.54841 5.99881
2.76981 1.48719 6.09936
2.76982 1.48718 6.12452
2.75451 1.50249 6.11222
2.75451 1.50249 6.11222
2.76982 1.48718 6.12452
2.75455 1.50245 6.13763
2.7392 1.5178 6.04915
2.75451 1.50249 6.03649
2.75451 1.50249 6.06169
2.75451 1.50249 6.06169
2.7392 1.5178 6.07437
2.7392 1.5178 6.04915
2.67798 1.57902 5.89817
2.66266 1.59434 5.91075
2.66266 1.59434 5.88561
2.70859 1.54841 5.99881
2.70859 1.54841 5.97362
2.7239 1.5331 5.98619
2.7239 1.5331 5.98619
2.7239 1.5331 6.01138
2.70859 1.54841 5.99881
2.73921 1.51779 5.99875
2.7239 1.5331 6.01138
2.7239 1.5331 5.98619
2.73922 1.51778 5.97358
2.73921 1.51779 5.99875
2.7239 1.5331 5.98619
2.57068 1.68632 6.13776
2.57068 1.68632 6.16339
2.55533 1.70167 6.14991
2.55533 1.70167 6.14991
2.57068 1.68632 6.16339
2.55533 1.70167 6.1745
2.55533 1.70167 6.14991
2.55533 1.70167 6.1745
2.53996 1.71704 6.16338
2.53996 1.71704 6.16338
2.53996 1.71704 6.13775
2.55533 1.70167 6.14991
2.52458 1.73242 6.12485
2.53996 1.71704 6.13775
2.52458 1.73242 6.1499
2.50912 1.74788 5.76005
2.50912 1.74788 5.78515
2.49371 1.76329 5.7726
2.41633 1.84067 5.88556
2.40077 1.85623 5.873
2.41632 1.84068 5.86045
2.41635 1.84065 5.93583
2.40081 1.85619 5.94839
2.40079 1.85621 5.92325
2.33845 1.91855 6.09946
2.32275 1.93425 6.08685
2.33843 1.91857 6.07424
2.33845 1.91855 6.12466
2.32276 1.93424 6.11214
2.33845 1.91855 6.09946
2.40087 1.85613 6.04912
2.40088 1.85612 6.07434
2.38531 1.87169 6.06172
2.30693 1.95007 5.99858
2.32265 1.93435 5.98603
2.32267 1.93433 6.0112
2.30684 1.95016 5.89803
2.29108 1.96592 5.91056
2.29106 1.96594 5.88546
2.32274 1.93426 6.18941
2.33845 1.91855 6.1975
2.30701 1.94999 6.1975
2.33845 1.91855 6.17437
2.33845 1.91855 6.1975
2.32274 1.93426 6.18941
2.35411 1.90289 6.18947
2.33845 1.91855 6.1975
2.33845 1.91855 6.17437
2.30704 1.94996 6.12461
2.30703 1.94997 6.14969
2.29128 1.96572 6.13746
2.55533 1.70167 6.1975
2.52458 1.73242 6.1975
2.53996 1.71704 6.18972
2.53996 1.71704 6.16338
2.55533 1.70167 6.1745
2.53996 1.71704 6.18972
2.53996 1.71704 6.18972
2.55533 1.70167 6.1745
2.55533 1.70167 6.1975
2.52458 1.73242 6.17449
2.52458 1.73242 6.1499
2.53996 1.71704 6.16338
2.53996 1.71704 6.16338
2.53996 1.71704 6.18972
2.52458 1.73242 6.17449
2.52458 1.73242 6.17449
2.53996 1.71704 6.18972
2.52458 1.73242 6.1975
2.41642 1.84058 6.06176
2.40088 1.85612 6.07434
2.40087 1.85613 6.04912
2.47831 1.77869 5.9862
2.49374 1.76326 5.97362
2.49374 1.76326 5.9988
2.49374 1.76326 5.9988
2.47832 1.77868 6.01139
2.47831 1.77869 5.9862
2.47833 1.77867 6.0366
2.47832 1.77868 6.01139
2.49375 1.76325 6.024
2.47833 1.77867 6.0366
2.49375 1.76325 6.024
2.49376 1.76324 6.04921
2.49376 1.76324 6.04921
2.47834 1.77866 6.06182
2.47833 1.77867 6.0366
2.47833 1.77867 6.0366
2.47834 1.77866 6.06182
2.46289 1.79411 6.04919
2.49377 1.76323 6.07443
2.47834 1.77866 6.06182
2.49376 1.76324 6.04921
2.49377 1.76323 6.09964
2.47835 1.77865 6.11234
2.47834 1.77866 6.08706
2.47834 1.77866 6.08706
2.49377 1.76323 6.07443
2.49377 1.76323 6.09964
2.47834 1.77866 6.06182
2.49377 1.76323 6.07443
2.47834 1.77866 6.08706
2.7852 1.4718 5.33238
2.78544 1.47156 5.30616
2.8005 1.4565 5.32145
2.76997 1.48703 5.32073
2.78544 1.47156 5.30616
2.7852 1.4718 5.33238
2.64739 1.60961 5.32048
2.64738 1.60962 5.2975
2.66272 1.59428 5.30521
2.70875 1.54825 5.2975
2.6934 1.5636 5.30517
2.67805 1.57895 5.2975
2.67805 1.57895 5.2975
2.66272 1.59428 5.30521
2.64738 1.60962 5.2975
2.19638 2.06062 5.33397
2.1963 2.0607 5.30786
2.2122 2.0448 5.32145
2.2122 2.0448 5.32145
2.22771 2.02929 5.30601
2.22802 2.02898 5.33245
2.18073 2.07627 5.32282
2.1963 2.0607 5.30786
2.19638 2.06062 5.33397
2.18073 2.07627 5.32282
2.18123 2.07577 5.2975
2.1963 2.0607 5.30786
2.27543 1.98157 5.32067
2.27541 1.98159 5.2975
2.29123 1.96577 5.30563
2.30701 1.94999 5.2975
[...]
<PointData Scalars="View Factor" >
<DataArray type="Float64" Name="View Factor" NumberOfComponents="1" format="ascii">
0.386701
0.386701
0.386701
0.411525
0.411525
0.411525
0.403751
0.403751
0.403751
0.371706
0.371706
0.371706
0.374078
0.374078
0.374078
0.369104
0.369104
0.369104
0.377387
0.377387
0.377387
0.373178
0.373178
0.373178
0.381274
0.381274
0.381274
0.376421
0.376421
0.376421
0.371314
0.371314
0.371314
0.391218
0.391218
0.391218
0.399699
0.399699
0.399699
0.380258
0.380258
0.380258
0.378147
0.378147
0.378147
0.415237
0.415237
0.415237
0.406233
0.406233
0.406233
0.402352
0.402352
0.402352
0.540159
0.540159
0.540159
0.43766
0.43766
0.43766
0.440857
0.440857
0.440857
0.475765
0.475765
0.475765
0.583053
0.583053
0.583053
0.373825
0.373825
0.373825
0.394243
0.394243
0.394243
0.390052
0.390052
0.390052
0.38452
0.38452
0.38452
0.383397
0.383397
0.383397
0.36852
0.36852
0.36852
0.373571
0.373571
0.373571
0.366394
0.366394
0.366394
0.370455
0.370455
0.370455
0.374555
0.374555
0.374555
0.432567
0.432567
0.432567
0.397032
0.397032
0.397032
0.38766
0.38766
0.38766
0.392977
0.392977
0.392977
0.478066
0.478066
0.478066
0.53989
0.53989
0.53989
0.454672
0.454672
0.454672
0.420479
0.420479
0.420479
0.424023
0.424023
0.424023
0.430923
0.430923
0.430923
0.429195
0.429195
0.429195
0.409152
0.409152
0.409152
0.413043
0.413043
0.413043
0.432278
0.432278
0.432278
0.401196
0.401196
0.401196
0.465696
0.465696
0.465696
0.55662
0.55662
0.55662
0.378654
0.378654
0.378654
0.427756
0.427756
0.427756
0.379591
0.379591
0.379591
0.537381
0.537381
0.537381
0.502439
0.502439
0.502439
0.49086
0.49086
0.49086
0.518585
0.518585
0.518585
0.514835
0.514835
0.514835
0.507117
0.507117
0.507117
0.475005
0.475005
0.475005
0.490454
0.490454
0.490454
0.491217
0.491217
0.491217
0.489067
0.489067
0.489067
0.495625
0.495625
0.495625
0.497801
0.497801
0.497801
0.484615
0.484615
0.484615
0.48891
0.48891
0.48891
0.482491
0.482491
0.482491
0.484702
0.484702
0.484702
0.469481
0.469481
0.469481
0.459657
0.459657
0.459657
0.475309
0.475309
0.475309
0.473393
0.473393
0.473393
0.471215
0.471215
0.471215
0.47027
0.47027
0.47027
0.467491
0.467491
0.467491
0.462627
0.462627
0.462627
0.436115
0.436115
0.436115
0.439478
0.439478
0.439478
0.444579
0.444579
0.444579
0.441303
0.441303
0.441303
0.435998
0.435998
0.435998
0.434324
0.434324
0.434324
0.437863
0.437863
0.437863
0.442991
0.442991
0.442991
0.446296
0.446296
0.446296
0.401003
0.401003
0.401003
0.396713
0.396713
0.396713
0.426877
0.426877
0.426877
0.422967
0.422967
0.422967
0.492365
0.492365
0.492365
0.455281
0.455281
0.455281
0.449992
0.449992
0.449992
0.448296
0.448296
0.448296
0.451806
0.451806
0.451806
0.401251
0.401251
0.401251
0.395137
0.395137
0.395137
0.395113
0.395113
0.395113
0.401335
0.401335
0.401335
0.407673
0.407673
0.407673
0.54234
0.54234
0.54234
0.506164
0.506164
0.506164
0.487577
0.487577
0.487577
0.433944
0.433944
0.433944
0.420148
0.420148
0.420148
0.437843
0.437843
0.437843
0.477564
0.477564
0.477564
0.515311
0.515311
0.515311
0.370332
0.370332
0.370332
0.374609
0.374609
0.374609
0.373781
0.373781
0.373781
0.408606
0.408606
0.408606
0.377995
0.377995
0.377995
0.388176
0.388176
0.388176
0.382344
0.382344
0.382344
0.394703
0.394703
0.394703
0.387897
0.387897
0.387897
0.381653
0.381653
0.381653
0.436209
0.436209
0.436209
0.47602
0.47602
0.47602
0.470609
0.470609
0.470609
0.45998
0.45998
0.45998
0.454782
0.454782
0.454782
0.448755
0.448755
0.448755
0.447876
0.447876
0.447876
0.443282
0.443282
0.443282
0.424568
0.424568
0.424568
0.43122
0.43122
0.43122
0.436943
0.436943
0.436943
0.557486
0.557486
0.557486
0.559947
0.559947
0.559947
0.586484
0.586484
0.586484
0.579499
0.579499
0.579499
0.585033
0.585033
0.585033
0.588294
0.588294
0.588294
0.588059
0.588059
0.588059
0.588333
0.588333
0.588333
0.588566
0.588566
0.588566
0.586391
0.586391
0.586391
0.583982
0.583982
0.583982
0.585982
0.585982
0.585982
0.581997
0.581997
0.581997
0.581237
0.581237
0.581237
0.376135
0.376135
0.376135
0.401135
0.401135
0.401135
0.392948
0.392948
0.392948
0.520402
0.520402
0.520402
0.516337
0.516337
0.516337
0.457441
0.457441
0.457441
0.542847
0.542847
0.542847
0.51282
0.51282
0.51282
0.529246
0.529246
0.529246
0.528205
0.528205
0.528205
0.533456
0.533456
0.533456
0.532567
0.532567
0.532567
0.534901
0.534901
0.534901
0.538129
0.538129
0.538129
0.538977
0.538977
0.538977
0.536638
0.536638
0.536638
0.595943
0.595943
0.595943
0.595646
0.595646
0.595646
0.596109
0.596109
0.596109
0.542063
0.542063
0.542063
0.537074
0.537074
0.537074
0.501741
0.501741
0.501741
0.505069
0.505069
0.505069
0.494393
0.494393
0.494393
0.521758
0.521758
0.521758
0.52267
0.52267
0.52267
0.526613
0.526613
0.526613
0.528453
0.528453
0.528453
0.526338
0.526338
0.526338
0.520881
0.520881
0.520881
0.507778
0.507778
0.507778
0.50633
0.50633
0.50633
0.508683
0.508683
0.508683
0.512507
0.512507
0.512507
0.513908
0.513908
0.513908
0.511532
0.511532
0.511532
0.541256
0.541256
0.541256
0.543467
0.543467
0.543467
0.537828
0.537828
0.537828
0.534196
0.534196
0.534196
0.532266
0.532266
0.532266
0.533999
0.533999
0.533999
0.548812
0.548812
0.548812
0.551931
0.551931
0.551931
0.547868
0.547868
0.547868
0.546781
0.546781
0.546781
0.539562
0.539562
0.539562
0.537661
0.537661
0.537661
0.475484
0.475484
0.475484
0.477595
0.477595
0.477595
0.482198
0.482198
0.482198
0.477927
0.477927
0.477927
0.482441
0.482441
0.482441
0.484601
0.484601
0.484601
0.488433
0.488433
0.488433
0.484301
0.484301
0.484301
0.488856
0.488856
0.488856
0.490944
0.490944
0.490944
0.508277
0.508277
0.508277
0.508454
0.508454
0.508454
0.51051
0.51051
0.51051
0.491163
0.491163
0.491163
0.49765
0.49765
0.49765
0.495407
0.495407
0.495407
0.495612
0.495612
0.495612
0.491286
0.491286
0.491286
0.489081
0.489081
0.489081
0.47431
0.47431
0.47431
0.476298
0.476298
0.476298
0.481085
0.481085
0.481085
0.477054
0.477054
0.477054
0.483792
0.483792
0.483792
0.48175
0.48175
0.48175
0.483057
0.483057
0.483057
0.487786
0.487786
0.487786
0.489734
0.489734
0.489734
0.480187
0.480187
0.480187
0.466542
0.466542
0.466542
0.468467
0.468467
0.468467
0.46158
0.46158
0.46158
0.458445
0.458445
0.458445
0.472235
0.472235
0.472235
0.470844
0.470844
0.470844
0.468736
0.468736
0.468736
0.464061
0.464061
0.464061
0.468218
0.468218
0.468218
0.448876
0.448876
0.448876
0.452755
0.452755
0.452755
0.445857
0.445857
0.445857
0.447759
0.447759
0.447759
0.456615
0.456615
0.456615
0.461402
0.461402
0.461402
0.463448
0.463448
0.463448
0.460638
0.460638
0.460638
0.455751
0.455751
0.455751
0.453776
0.453776
0.453776
0.450031
0.450031
0.450031
0.446415
0.446415
0.446415
0.44483
0.44483
0.44483
0.443065
0.443065
0.443065
0.453362
0.453362
0.453362
0.451512
0.451512
0.451512
0.433871
0.433871
0.433871
0.439279
0.439279
0.439279
0.440885
0.440885
0.440885
0.410582
0.410582
0.410582
0.41339
0.41339
0.41339
0.416023
0.416023
0.416023
0.417484
0.417484
0.417484
0.406487
0.406487
0.406487
0.407831
0.407831
0.407831
0.383334
0.383334
0.383334
0.38779
0.38779
0.38779
0.379287
0.379287
0.379287
0.384344
0.384344
0.384344
0.38993
0.38993
0.38993
0.403565
0.403565
0.403565
0.394658
0.394658
0.394658
0.397931
0.397931
0.397931
0.393525
0.393525
0.393525
0.425306
0.425306
0.425306
0.422106
0.422106
0.422106
0.418385
0.418385
0.418385
0.419932
0.419932
0.419932
0.427379
0.427379
0.427379
0.429032
0.429032
0.429032
0.510779
0.510779
0.510779
0.515132
0.515132
0.515132
0.506628
0.506628
0.506628
0.509491
0.509491
0.509491
0.487541
0.487541
0.487541
0.378643
0.378643
0.378643
0.382509
0.382509
0.382509
0.388375
0.388375
0.388375
0.539208
0.539208
0.539208
0.542648
0.542648
0.542648
0.545658
0.545658
0.545658
0.54236
0.54236
0.54236
0.510525
0.510525
0.510525
0.485602
0.485602
0.485602
0.503462
0.503462
0.503462
0.527342
0.527342
0.527342
0.526492
0.526492
0.526492
0.528773
0.528773
0.528773
0.441178
0.441178
0.441178
0.413469
0.413469
0.413469
0.414571
0.414571
0.414571
0.407642
0.407642
0.407642
0.432621
0.432621
0.432621
0.438461
0.438461
0.438461
0.429827
0.429827
0.429827
0.437025
0.437025
0.437025
0.465642
0.465642
0.465642
0.464011
0.464011
0.464011
0.468744
0.468744
0.468744
0.470202
0.470202
0.470202
0.476209
0.476209
0.476209
0.483946
0.483946
0.483946
0.441026
0.441026
0.441026
0.442563
0.442563
0.442563
0.48331
0.48331
0.48331
0.487557
0.487557
0.487557
0.495415
0.495415
0.495415
0.518378
0.518378
0.518378
0.368042
0.368042
0.368042
0.365514
0.365514
0.365514
0.428953
0.428953
0.428953
0.422451
0.422451
0.422451
0.376215
0.376215
0.376215
0.381112
0.381112
0.381112
0.498027
0.498027
0.498027
0.493136
0.493136
0.493136
0.486213
0.486213
0.486213
0.379824
0.379824
0.379824
0.453048
0.453048
0.453048
0.459127
0.459127
0.459127
0.423587
0.423587
0.423587
0.420869
0.420869
0.420869
0.559291
0.559291
0.559291
0.561502
0.561502
0.561502
0.571605
0.571605
0.571605
0.570849
0.570849
0.570849
0.573268
0.573268
0.573268
0.587944
0.587944
0.587944
0.587852
0.587852
0.587852
0.58742
0.58742
0.58742
0.587647
0.587647
0.587647
0.587258
0.587258
0.587258
0.586871
0.586871
0.586871
0.58687
0.58687
0.58687
0.586364
0.586364
0.586364
0.587856
0.587856
0.587856
0.587713
0.587713
0.587713
0.587974
0.587974
0.587974
0.588479
0.588479
0.588479
0.588363
0.588363
0.588363
0.588685
0.588685
0.588685
0.588314
0.588314
0.588314
0.581442
0.581442
0.581442
0.554845
0.554845
0.554845
0.579453
0.579453
0.579453
0.565003
0.565003
0.565003
0.568032
0.568032
0.568032
0.566612
0.566612
0.566612
0.56815
0.56815
0.56815
0.566672
0.566672
0.566672
0.577626
0.577626
0.577626
0.570852
0.570852
0.570852
0.547408
0.547408
0.547408
0.55744
0.55744
0.55744
0.555289
0.555289
0.555289
0.581319
0.581319
0.581319
0.580993
0.580993
0.580993
0.581778
0.581778
0.581778
0.581913
0.581913
0.581913
0.581194
0.581194
0.581194
0.576722
0.576722
0.576722
0.581138
0.581138
0.581138
0.582618
0.582618
0.582618
0.581948
0.581948
0.581948
0.547032
0.547032
0.547032
0.54428
0.54428
0.54428
0.543757
0.543757
0.543757
0.538412
0.538412
0.538412
0.539813
0.539813
0.539813
0.54273
0.54273
0.54273
0.536251
0.536251
0.536251
0.539027
0.539027
0.539027
0.554367
0.554367
0.554367
0.555752
0.555752
0.555752
0.382385
0.382385
0.382385
0.383222
0.383222
0.383222
0.392104
0.392104
0.392104
0.399327
0.399327
0.399327
0.376843
0.376843
0.376843
0.384768
0.384768
0.384768
0.372294
0.372294
0.372294
0.378098
0.378098
0.378098
0.385457
0.385457
0.385457
0.533904
0.533904
0.533904
0.527617
0.527617
0.527617
0.530914
0.530914
0.530914
0.513062
0.513062
0.513062
0.505954
0.505954
0.505954
0.510455
0.510455
0.510455
0.513953
0.513953
0.513953
0.515423
0.515423
0.515423
0.507467
0.507467
0.507467
0.511201
0.511201
0.511201
0.508062
0.508062
0.508062
0.462851
0.462851
0.462851
0.472904
0.472904
0.472904
0.483025
0.483025
0.483025
0.487675
0.487675
0.487675
0.458518
0.458518
0.458518
0.380028
0.380028
0.380028
0.374912
0.374912
0.374912
0.380705
0.380705
0.380705
0.401948
0.401948
0.401948
0.394459
0.394459
0.394459
0.38668
0.38668
0.38668
0.387203
0.387203
0.387203
0.39513
0.39513
0.39513
0.403393
0.403393
0.403393
0.573782
0.573782
0.573782
0.575201
0.575201
0.575201
0.577279
0.577279
0.577279
0.577936
0.577936
0.577936
0.583064
0.583064
0.583064
0.581216
0.581216
0.581216
0.579906
0.579906
0.579906
0.58389
0.58389
0.58389
0.560701
0.560701
0.560701
0.563104
0.563104
0.563104
0.570023
0.570023
0.570023
0.567769
0.567769
0.567769
0.524742
0.524742
0.524742
0.523546
0.523546
0.523546
0.519941
0.519941
0.519941
0.517593
0.517593
0.517593
0.522029
0.522029
0.522029
0.526868
0.526868
0.526868
0.530529
0.530529
0.530529
0.535065
0.535065
0.535065
0.536175
0.536175
0.536175
0.533903
0.533903
0.533903
0.56037
0.56037
0.56037
0.564721
0.564721
0.564721
0.581402
0.581402
0.581402
0.579512
0.579512
0.579512
0.578814
0.578814
0.578814
0.579652
0.579652
0.579652
0.58109
0.58109
0.58109
0.581363
0.581363
0.581363
0.582096
0.582096
0.582096
0.578359
0.578359
0.578359
0.576994
0.576994
0.576994
0.572981
0.572981
0.572981
0.570598
0.570598
0.570598
0.57848
0.57848
0.57848
0.574387
0.574387
0.574387
0.572569
0.572569
0.572569
0.566712
0.566712
0.566712
0.568657
0.568657
0.568657
0.57538
0.57538
0.57538
0.576281
0.576281
0.576281
0.574955
0.574955
0.574955
0.595204
0.595204
0.595204
0.588046
0.588046
0.588046
0.59124
0.59124
0.59124
0.592243
0.592243
0.592243
0.593239
0.593239
0.593239
0.59401
0.59401
0.59401
0.582758
0.582758
0.582758
0.584503
0.584503
0.584503
0.585151
0.585151
0.585151
0.540423
0.540423
0.540423
0.542766
0.542766
0.542766
0.56918
0.56918
0.56918
0.566445
0.566445
0.566445
0.568919
0.568919
0.568919
0.570278
0.570278
0.570278
0.556664
0.556664
0.556664
0.5528
0.5528
0.5528
0.53958
0.53958
0.53958
0.53667
0.53667
0.53667
0.533721
0.533721
0.533721
0.530102
0.530102
0.530102
0.534984
0.534984
0.534984
0.535625
0.535625
0.535625
0.533179
0.533179
0.533179
0.526204
0.526204
0.526204
0.525375
0.525375
0.525375
0.527801
0.527801
0.527801
0.531068
0.531068
0.531068
0.531853
0.531853
0.531853
0.529417
0.529417
0.529417
0.495021
0.495021
0.495021
0.497313
0.497313
0.497313
0.501417
0.501417
0.501417
0.4968
0.4968
0.4968
0.503151
0.503151
0.503151
0.500827
0.500827
0.500827
0.508998
0.508998
0.508998
0.507962
0.507962
0.507962
0.506283
0.506283
0.506283
0.513356
0.513356
0.513356
0.496303
0.496303
0.496303
0.499981
0.499981
0.499981
0.495331
0.495331
0.495331
0.493511
0.493511
0.493511
0.507208
0.507208
0.507208
0.502734
0.502734
0.502734
0.500876
0.500876
0.500876
0.503462
0.503462
0.503462
0.516724
0.516724
0.516724
0.520741
0.520741
0.520741
0.514679
0.514679
0.514679
0.516677
0.516677
0.516677
0.510542
0.510542
0.510542
0.514643
0.514643
0.514643
0.532347
0.532347
0.532347
0.528578
0.528578
0.528578
0.52004
0.52004
0.52004
0.515864
0.515864
0.515864
0.520519
0.520519
0.520519
0.522348
0.522348
0.522348
0.537269
0.537269
0.537269
0.536042
0.536042
0.536042
0.528112
0.528112
0.528112
0.524547
0.524547
0.524547
0.525858
0.525858
0.525858
0.53164
0.53164
0.53164
0.529377
0.529377
0.529377
0.512379
0.512379
0.512379
0.515058
0.515058
0.515058
0.519285
0.519285
0.519285
0.520879
0.520879
0.520879
0.518232
0.518232
0.518232
0.513959
0.513959
0.513959
0.5111
0.5111
0.5111
0.512542
0.512542
0.512542
0.525792
0.525792
0.525792
0.528066
0.528066
0.528066
0.531916
0.531916
0.531916
0.533521
0.533521
0.533521
0.537745
0.537745
0.537745
0.536445
0.536445
0.536445
0.543044
0.543044
0.543044
0.549665
0.549665
0.549665
0.542179
0.542179
0.542179
0.539266
0.539266
0.539266
0.538669
0.538669
0.538669
0.537208
0.537208
0.537208
0.558719
0.558719
0.558719
0.562592
0.562592
0.562592
0.560453
0.560453
0.560453
0.552999
0.552999
0.552999
0.550964
0.550964
0.550964
0.503944
0.503944
0.503944
0.501516
0.501516
0.501516
0.495028
0.495028
0.495028
0.49702
0.49702
0.49702
0.502095
0.502095
0.502095
0.504193
0.504193
0.504193
0.497755
0.497755
0.497755
0.501917
0.501917
0.501917
0.495435
0.495435
0.495435
0.497498
0.497498
0.497498
0.465702
0.465702
0.465702
0.465361
0.465361
0.465361
0.467213
0.467213
0.467213
0.460298
0.460298
0.460298
0.463932
0.463932
0.463932
0.45699
0.45699
0.45699
0.458769
0.458769
0.458769
0.375803
0.375803
0.375803
0.38021
0.38021
0.38021
0.400321
0.400321
0.400321
0.404822
0.404822
0.404822
0.504231
0.504231
0.504231
0.49095
0.49095
0.49095
0.494684
0.494684
0.494684
0.497347
0.497347
0.497347
0.494087
0.494087
0.494087
0.498812
0.498812
0.498812
0.500461
0.500461
0.500461
0.480652
0.480652
0.480652
0.485765
0.485765
0.485765
0.482084
0.482084
0.482084
0.488768
0.488768
0.488768
0.486902
0.486902
0.486902
0.477641
0.477641
0.477641
0.472576
0.472576
0.472576
0.470823
0.470823
0.470823
0.474073
0.474073
0.474073
0.479045
0.479045
0.479045
0.480859
0.480859
0.480859
0.479363
0.479363
0.479363
0.475959
0.475959
0.475959
0.47758
0.47758
0.47758
0.484357
0.484357
0.484357
0.456978
0.456978
0.456978
0.462238
0.462238
0.462238
0.468728
0.468728
0.468728
0.475485
0.475485
0.475485
0.473978
0.473978
0.473978
0.471677
0.471677
0.471677
0.464895
0.464895
0.464895
0.466335
0.466335
0.466335
0.418627
0.418627
0.418627
0.419321
0.419321
0.419321
0.405557
0.405557
0.405557
0.411655
0.411655
0.411655
0.407392
0.407392
0.407392
0.413608
0.413608
0.413608
0.406348
0.406348
0.406348
0.413143
0.413143
0.413143
0.496961
0.496961
0.496961
0.490865
0.490865
0.490865
0.498809
0.498809
0.498809
0.495824
0.495824
0.495824
0.527791
0.527791
0.527791
0.513026
0.513026
0.513026
0.516261
0.516261
0.516261
0.523799
0.523799
0.523799
0.525105
0.525105
0.525105
0.522296
0.522296
0.522296
0.519688
0.519688
0.519688
0.518158
0.518158
0.518158
0.516856
0.516856
0.516856
0.525283
0.525283
0.525283
0.523426
0.523426
0.523426
0.520416
0.520416
0.520416
0.521348
0.521348
0.521348
0.529026
0.529026
0.529026
0.531626
0.531626
0.531626
0.535344
0.535344
0.535344
0.539784
0.539784
0.539784
0.53971
0.53971
0.53971
0.536537
0.536537
0.536537
0.533509
0.533509
0.533509
0.512964
0.512964
0.512964
0.533924
0.533924
0.533924
0.529907
0.529907
0.529907
0.53518
0.53518
0.53518
0.505235
0.505235
0.505235
0.522687
0.522687
0.522687
0.532305
0.532305
0.532305
0.534359
0.534359
0.534359
0.537638
0.537638
0.537638
0.445502
0.445502
0.445502
0.446891
0.446891
0.446891
0.46096
0.46096
0.46096
0.454501
0.454501
0.454501
0.449399
0.449399
0.449399
0.450897
0.450897
0.450897
0.462498
0.462498
0.462498
0.457541
0.457541
0.457541
0.455037
0.455037
0.455037
0.461636
0.461636
0.461636
0.466737
0.466737
0.466737
0.465394
0.465394
0.465394
0.458974
0.458974
0.458974
0.453721
0.453721
0.453721
0.405551
0.405551
0.405551
0.404431
0.404431
0.404431
0.390275
0.390275
0.390275
0.398344
0.398344
0.398344
0.432473
0.432473
0.432473
0.428369
0.428369
0.428369
0.434026
0.434026
0.434026
0.42929
0.42929
0.42929
0.473279
0.473279
0.473279
0.4817
0.4817
0.4817
0.476
0.476
0.476
0.471718
0.471718
0.471718
0.488734
0.488734
0.488734
0.480599
0.480599
0.480599
0.483268
0.483268
0.483268
0.479131
0.479131
0.479131
0.490199
0.490199
0.490199
0.486202
0.486202
0.486202
0.492834
0.492834
0.492834
0.48763
0.48763
0.48763
0.489375
0.489375
0.489375
0.485897
0.485897
0.485897
0.441295
0.441295
0.441295
0.447896
0.447896
0.447896
0.452594
0.452594
0.452594
0.450824
0.450824
0.450824
0.456872
0.456872
0.456872
0.480483
0.480483
0.480483
0.446264
0.446264
0.446264
0.456052
0.456052
0.456052
0.457731
0.457731
0.457731
0.452907
0.452907
0.452907
0.444638
0.444638
0.444638
0.449599
0.449599
0.449599
0.50504
0.50504
0.50504
0.50865
0.50865
0.50865
0.492897
0.492897
0.492897
0.496757
0.496757
0.496757
0.534068
0.534068
0.534068
0.522374
0.522374
0.522374
0.523372
0.523372
0.523372
0.527117
0.527117
0.527117
0.411112
0.411112
0.411112
0.418914
0.418914
0.418914
0.425195
0.425195
0.425195
0.423844
0.423844
0.423844
0.380582
0.380582
0.380582
0.389292
0.389292
0.389292
0.396239
0.396239
0.396239
0.442445
0.442445
0.442445
0.436411
0.436411
0.436411
0.449477
0.449477
0.449477
0.450662
0.450662
0.450662
0.4166
0.4166
0.4166
0.423511
0.423511
0.423511
0.38694
0.38694
0.38694
0.399927
0.399927
0.399927
0.394297
0.394297
0.394297
0.400506
0.400506
0.400506
0.495285
0.495285
0.495285
0.491791
0.491791
0.491791
0.496376
0.496376
0.496376
0.493377
0.493377
0.493377
0.488023
0.488023
0.488023
0.485535
0.485535
0.485535
0.489009
0.489009
0.489009
0.493814
0.493814
0.493814
0.49007
0.49007
0.49007
0.479787
0.479787
0.479787
0.480636
0.480636
0.480636
0.485753
0.485753
0.485753
0.484034
0.484034
0.484034
0.489204
0.489204
0.489204
0.367911
0.367911
0.367911
0.374245
0.374245
0.374245
0.375893
0.375893
0.375893
0.37299
0.37299
0.37299
0.383028
0.383028
0.383028
0.398231
0.398231
0.398231
0.370181
0.370181
0.370181
0.377838
0.377838
0.377838
0.410597
0.410597
0.410597
0.40775
0.40775
0.40775
0.415203
0.415203
0.415203
0.416588
0.416588
0.416588
0.445978
0.445978
0.445978
0.439588
0.439588
0.439588
0.469765
0.469765
0.469765
0.463997
0.463997
0.463997
0.474323
0.474323
0.474323
0.473038
0.473038
0.473038
0.436023
0.436023
0.436023
0.429317
0.429317
0.429317
0.441481
0.441481
0.441481
0.427986
0.427986
0.427986
0.564753
0.564753
0.564753
0.563904
0.563904