<VTKFile type="UnstructuredGrid" version="1.0">
<UnstructuredGrid>
<Piece NumberOfPoints="8859" NumberOfCells="2953">
<Points>
<DataArray type="Float64" NumberOfComponents="3" format="ascii">
0.5 3.01 1.995
0.512524 3.01 2.0175
0.487476 3.01 2.0175
0.17352 3.01 1.1175
0.160827 3.01 1.13922
0.148445 3.01 1.1175
0.122979 3.01 1.16089
0.110383 3.01 1.13921
0.135644 3.01 1.13922
0.135644 3.01 1.13922
0.110383 3.01 1.13921
0.123433 3.01 1.1175
0.123433 3.01 1.1175
0.148445 3.01 1.1175
0.135644 3.01 1.13922
0.135644 3.01 1.13922
0.148445 3.01 1.1175
0.160827 3.01 1.13922
0.17352 3.01 1.1175
0.198629 3.01 1.1175
0.185985 3.01 1.1392
0.185985 3.01 1.1392
0.160827 3.01 1.13922
0.17352 3.01 1.1175
0.0732297 3.01 1.16067
0.0586606 3.01 1.13881
0.0848754 3.01 1.13914
0.05 3.01 1.95027
0.05 3.01 1.9051
0.058509 3.01 1.92756
0.324276 3.01 1.1175
0.349395 3.01 1.1175
0.336827 3.01 1.13916
0.148138 3.01 1.1609
0.135644 3.01 1.13922
0.160827 3.01 1.13922
0.122979 3.01 1.16089
0.135644 3.01 1.13922
0.148138 3.01 1.1609
0.160827 3.01 1.13922
0.185985 3.01 1.1392
0.173316 3.01 1.16089
0.185806 3.01 1.18255
0.160572 3.01 1.18255
0.173316 3.01 1.16089
0.173316 3.01 1.16089
0.148138 3.01 1.1609
0.160827 3.01 1.13922
0.160572 3.01 1.18255
0.148138 3.01 1.1609
0.173316 3.01 1.16089
0.211137 3.01 1.13919
0.185985 3.01 1.1392
0.198629 3.01 1.1175
0.0979162 3.01 1.16084
0.110383 3.01 1.13921
0.122979 3.01 1.16089
0.122979 3.01 1.16089
0.109875 3.01 1.18249
0.0979162 3.01 1.16084
0.0732297 3.01 1.16067
0.0848754 3.01 1.13914
0.0979162 3.01 1.16084
0.0979162 3.01 1.16084
0.0848754 3.01 1.13914
0.110383 3.01 1.13921
0.0975729 3.01 1.20404
0.109875 3.01 1.18249
0.122678 3.01 1.20414
0.0841718 3.01 1.18235
0.0577122 3.01 1.18202
0.0732297 3.01 1.16067
0.0729308 3.01 1.20388
0.0577122 3.01 1.18202
0.0841718 3.01 1.18235
0.0732297 3.01 1.16067
0.0979162 3.01 1.16084
0.0841718 3.01 1.18235
0.0841718 3.01 1.18235
0.0979162 3.01 1.16084
0.109875 3.01 1.18249
0.0975729 3.01 1.20404
0.0729308 3.01 1.20388
0.0841718 3.01 1.18235
0.0841718 3.01 1.18235
0.109875 3.01 1.18249
0.0975729 3.01 1.20404
0.073948 3.01 1.1175
0.0586606 3.01 1.13881
0.05 3.01 1.1175
0.073948 3.01 1.1175
0.0848754 3.01 1.13914
0.0586606 3.01 1.13881
0.05 3.01 1.99329
0.05 3.01 1.95027
0.0603641 3.01 1.97197
0.0603641 3.01 1.97197
0.0753197 3.01 1.99399
0.05 3.01 1.99329
0.0709395 3.01 2.0175
0.05 3.01 2.0175
0.05 3.01 1.99329
0.05 3.01 1.99329
0.0753197 3.01 1.99399
0.0709395 3.01 2.0175
0.0579641 3.01 1.70463
0.05 3.01 1.72669
0.05 3.01 1.68261
0.0841948 3.01 1.6168
0.097638 3.01 1.59493
0.109814 3.01 1.6168
0.0841948 3.01 1.6168
0.0730539 3.01 1.6387
0.0578646 3.01 1.6168
0.0580261 3.01 1.7488
0.05 3.01 1.77095
0.05 3.01 1.72669
0.942292 3.01 1.31236
0.95 3.01 1.29067
0.95 3.01 1.33404
0.95 3.01 1.24726
0.95 3.01 1.29067
0.942332 3.01 1.26897
0.73872 3.01 1.52953
0.726137 3.01 1.50776
0.75132 3.01 1.50775
0.751305 3.01 1.55132
0.726124 3.01 1.55133
0.73872 3.01 1.52953
0.713546 3.01 1.52954
0.726137 3.01 1.50776
0.73872 3.01 1.52953
0.73872 3.01 1.52953
0.726124 3.01 1.55133
0.713546 3.01 1.52954
0.814318 3.01 1.57311
0.789096 3.01 1.57312
0.801709 3.01 1.5513
0.7765 3.01 1.55131
0.789115 3.01 1.52951
0.801709 3.01 1.5513
0.801709 3.01 1.5513
0.789096 3.01 1.57312
0.7765 3.01 1.55131
0.7765 3.01 1.55131
0.789096 3.01 1.57312
0.763892 3.01 1.57314
0.763892 3.01 1.57314
0.751305 3.01 1.55132
0.7765 3.01 1.55131
0.95 3.01 2.0175
0.929061 3.01 2.0175
0.95 3.01 1.99329
0.95 3.01 1.8154
0.926844 3.01 1.8154
0.941913 3.01 1.79315
0.941913 3.01 1.79315
0.95 3.01 1.77095
0.95 3.01 1.8154
0.926866 3.01 1.77094
0.95 3.01 1.77095
0.941913 3.01 1.79315
0.941974 3.01 1.7488
0.95 3.01 1.77095
0.926866 3.01 1.77094
0.95 3.01 1.72669
0.95 3.01 1.77095
0.941974 3.01 1.7488
0.941974 3.01 1.7488
0.926895 3.01 1.72669
0.95 3.01 1.72669
0.6127 3.01 2.0175
0.625238 3.01 1.99498
0.637734 3.01 2.0175
0.662757 3.01 2.0175
0.637734 3.01 2.0175
0.650275 3.01 1.99497
0.650275 3.01 1.99497
0.637734 3.01 2.0175
0.625238 3.01 1.99498
0.600415 3.01 1.55137
0.587856 3.01 1.5732
0.575304 3.01 1.55137
0.575304 3.01 1.55137
0.587856 3.01 1.5732
0.562749 3.01 1.5732
0.336827 3.01 1.13916
0.349395 3.01 1.1175
0.361946 3.01 1.13916
0.223755 3.01 1.1175
0.211137 3.01 1.13919
0.198629 3.01 1.1175
0.185985 3.01 1.1392
0.211137 3.01 1.13919
0.198492 3.01 1.16088
0.185806 3.01 1.18255
0.173316 3.01 1.16089
0.198492 3.01 1.16088
0.198492 3.01 1.16088
0.173316 3.01 1.16089
0.185985 3.01 1.1392
0.0576202 3.01 1.22553
0.05 3.01 1.24726
0.05 3.01 1.20374
0.05 3.01 1.20374
0.0729308 3.01 1.20388
0.0576202 3.01 1.22553
0.05 3.01 1.20374
0.0577122 3.01 1.18202
0.0729308 3.01 1.20388
0.135283 3.01 1.18254
0.109875 3.01 1.18249
0.122979 3.01 1.16089
0.135283 3.01 1.18254
0.122678 3.01 1.20414
0.109875 3.01 1.18249
0.122979 3.01 1.16089
0.148138 3.01 1.1609
0.135283 3.01 1.18254
0.135283 3.01 1.18254
0.148138 3.01 1.1609
0.160572 3.01 1.18255
0.123433 3.01 1.1175
0.110383 3.01 1.13921
0.0985513 3.01 1.1175
0.110383 3.01 1.13921
0.0848754 3.01 1.13914
0.0985513 3.01 1.1175
0.0848754 3.01 1.13914
0.073948 3.01 1.1175
0.0985513 3.01 1.1175
0.0603641 3.01 1.97197
0.05 3.01 1.95027
0.0739464 3.01 1.94949
0.0739464 3.01 1.94949
0.05 3.01 1.95027
0.058509 3.01 1.92756
0.058509 3.01 1.92756
0.0849548 3.01 1.92711
0.0739464 3.01 1.94949
0.058509 3.01 1.92756
0.05 3.01 1.9051
0.0732725 3.01 1.90488
0.0732725 3.01 1.90488
0.0849548 3.01 1.92711
0.058509 3.01 1.92756
0.5 3.01 1.995
0.487476 3.01 2.0175
0.47495 3.01 1.995
0.097663 3.01 1.6387
0.0841948 3.01 1.6168
0.109814 3.01 1.6168
0.0730539 3.01 1.6387
0.0841948 3.01 1.6168
0.097663 3.01 1.6387
0.0578646 3.01 1.6168
0.0730539 3.01 1.6387
0.05 3.01 1.6387
0.05 3.01 1.6387
0.05 3.01 1.59492
0.0578646 3.01 1.6168
0.05 3.01 1.8154
0.05 3.01 1.77095
0.0580869 3.01 1.79315
0.05 3.01 1.77095
0.0580261 3.01 1.7488
0.073134 3.01 1.77094
0.073134 3.01 1.77094
0.0580869 3.01 1.79315
0.05 3.01 1.77095
0.942268 3.01 1.35573
0.95 3.01 1.33404
0.95 3.01 1.37741
0.942292 3.01 1.31236
0.95 3.01 1.33404
0.927025 3.01 1.33404
0.927025 3.01 1.33404
0.942268 3.01 1.35573
0.915919 3.01 1.35572
0.95 3.01 1.33404
0.942268 3.01 1.35573
0.927025 3.01 1.33404
0.927013 3.01 1.37741
0.942268 3.01 1.35573
0.95 3.01 1.37741
0.915919 3.01 1.35572
0.942268 3.01 1.35573
0.927013 3.01 1.37741
0.801738 3.01 1.46425
0.814364 3.01 1.44253
0.826957 3.01 1.46425
0.852174 3.01 1.46424
0.826957 3.01 1.46425
0.839609 3.01 1.44252
0.839609 3.01 1.44252
0.826957 3.01 1.46425
0.814364 3.01 1.44253
0.776516 3.01 1.50775
0.75132 3.01 1.50775
0.763923 3.01 1.486
0.776516 3.01 1.50775
0.801725 3.01 1.50774
0.789115 3.01 1.52951
0.738704 3.01 1.57315
0.751305 3.01 1.55132
0.763892 3.01 1.57314
0.726124 3.01 1.55133
0.751305 3.01 1.55132
0.738704 3.01 1.57315
0.915617 3.01 1.79314
0.902228 3.01 1.77094
0.926866 3.01 1.77094
0.926866 3.01 1.77094
0.941913 3.01 1.79315
0.915617 3.01 1.79314
0.915617 3.01 1.79314
0.941913 3.01 1.79315
0.926844 3.01 1.8154
0.915617 3.01 1.79314
0.926844 3.01 1.8154
0.902193 3.01 1.81538
0.926866 3.01 1.77094
0.902228 3.01 1.77094
0.915668 3.01 1.74879
0.902267 3.01 1.72668
0.926895 3.01 1.72669
0.915668 3.01 1.74879
0.915668 3.01 1.74879
0.941974 3.01 1.7488
0.926866 3.01 1.77094
0.926895 3.01 1.72669
0.941974 3.01 1.7488
0.915668 3.01 1.74879
0.902267 3.01 1.72668
0.915668 3.01 1.74879
0.890059 3.01 1.74879
0.890059 3.01 1.74879
0.915668 3.01 1.74879
0.902228 3.01 1.77094
0.826927 3.01 1.55129
0.814318 3.01 1.57311
0.801709 3.01 1.5513
0.864816 3.01 1.6168
0.877308 3.01 1.59493
0.890186 3.01 1.6168
0.877308 3.01 1.59493
0.864816 3.01 1.6168
0.852122 3.01 1.59494
0.890186 3.01 1.6168
0.877308 3.01 1.59493
0.902362 3.01 1.59493
0.902362 3.01 1.59493
0.915805 3.01 1.6168
0.890186 3.01 1.6168
0.902362 3.01 1.59493
0.926964 3.01 1.59492
0.915805 3.01 1.6168
0.915835 3.01 1.57309
0.926964 3.01 1.59492
0.902362 3.01 1.59493
0.942171 3.01 1.57309
0.926964 3.01 1.59492
0.915835 3.01 1.57309
0.915835 3.01 1.57309
0.926978 3.01 1.55127
0.942171 3.01 1.57309
0.942171 3.01 1.57309
0.926978 3.01 1.55127
0.95 3.01 1.55127
0.87737 3.01 1.42081
0.890277 3.01 1.39911
0.902417 3.01 1.4208
0.852144 3.01 1.55128
0.877329 3.01 1.55128
0.864842 3.01 1.57309
0.877308 3.01 1.59493
0.852122 3.01 1.59494
0.864842 3.01 1.57309
0.902396 3.01 1.50772
0.915858 3.01 1.52948
0.890234 3.01 1.52949
0.926997 3.01 1.46423
0.942237 3.01 1.44251
0.95 3.01 1.46423
0.91589 3.01 1.44251
0.942237 3.01 1.44251
0.926997 3.01 1.46423
0.942199 3.01 1.52948
0.95 3.01 1.50771
0.95 3.01 1.55127
0.95 3.01 1.55127
0.926978 3.01 1.55127
0.942199 3.01 1.52948
0.942199 3.01 1.52948
0.926978 3.01 1.55127
0.915858 3.01 1.52948
0.95 3.01 1.46423
0.95 3.01 1.50771
0.942221 3.01 1.48597
0.942221 3.01 1.48597
0.926997 3.01 1.46423
0.95 3.01 1.46423
0.915876 3.01 1.48597
0.926997 3.01 1.46423
0.942221 3.01 1.48597
0.926989 3.01 1.50771
0.915858 3.01 1.52948
0.902396 3.01 1.50772
0.902396 3.01 1.50772
0.915876 3.01 1.48597
0.926989 3.01 1.50771
0.926989 3.01 1.50771
0.942199 3.01 1.52948
0.915858 3.01 1.52948
0.95 3.01 1.50771
0.942199 3.01 1.52948
0.926989 3.01 1.50771
0.915876 3.01 1.48597
0.942221 3.01 1.48597
0.926989 3.01 1.50771
0.926989 3.01 1.50771
0.942221 3.01 1.48597
0.95 3.01 1.50771
0.91353 3.01 1.97185
0.926054 3.01 1.94949
0.939636 3.01 1.97197
0.926728 3.01 1.90488
0.95 3.01 1.9051
0.941491 3.01 1.92756
0.926728 3.01 1.90488
0.941822 3.01 1.88254
0.95 3.01 1.9051
0.95 3.01 1.95027
0.95 3.01 1.99329
0.939636 3.01 1.97197
0.95 3.01 1.95027
0.926054 3.01 1.94949
0.941491 3.01 1.92756
0.939636 3.01 1.97197
0.926054 3.01 1.94949
0.95 3.01 1.95027
0.941491 3.01 1.92756
0.95 3.01 1.9051
0.95 3.01 1.95027
0.941869 3.01 1.83772
0.926844 3.01 1.8154
0.95 3.01 1.8154
0.762942 3.01 1.97228
0.75028 3.01 1.99489
0.737933 3.01 1.97234
0.71291 3.01 1.97239
0.725533 3.01 1.94985
0.737933 3.01 1.97234
0.71291 3.01 1.97239
0.737933 3.01 1.97234
0.725313 3.01 1.99492
0.725313 3.01 1.99492
0.737933 3.01 1.97234
0.75028 3.01 1.99489
0.737693 3.01 2.0175
0.712746 3.01 2.0175
[...]
<PointData Scalars="View Factor" >
<DataArray type="Float64" Name="View Factor" NumberOfComponents="1" format="ascii">
3.66113e-05
3.66113e-05
3.66113e-05
4.49951e-05
4.49951e-05
4.49951e-05
4.47674e-05
4.47674e-05
4.47674e-05
4.49212e-05
4.49212e-05
4.49212e-05
4.49974e-05
4.49974e-05
4.49974e-05
4.49191e-05
4.49191e-05
4.49191e-05
4.49925e-05
4.49925e-05
4.49925e-05
4.49167e-05
4.49167e-05
4.49167e-05
4.4773e-05
4.4773e-05
4.4773e-05
3.73571e-05
3.73571e-05
3.73571e-05
4.4968e-05
4.4968e-05
4.4968e-05
4.47653e-05
4.47653e-05
4.47653e-05
4.46898e-05
4.46898e-05
4.46898e-05
4.47629e-05
4.47629e-05
4.47629e-05
4.44576e-05
4.44576e-05
4.44576e-05
4.46875e-05
4.46875e-05
4.46875e-05
4.45349e-05
4.45349e-05
4.45349e-05
4.49138e-05
4.49138e-05
4.49138e-05
4.46919e-05
4.46919e-05
4.46919e-05
4.45395e-05
4.45395e-05
4.45395e-05
4.46945e-05
4.46945e-05
4.46945e-05
4.47696e-05
4.47696e-05
4.47696e-05
4.4237e-05
4.4237e-05
4.4237e-05
4.44686e-05
4.44686e-05
4.44686e-05
4.43173e-05
4.43173e-05
4.43173e-05
4.45423e-05
4.45423e-05
4.45423e-05
4.4465e-05
4.4465e-05
4.4465e-05
4.42399e-05
4.42399e-05
4.42399e-05
4.43138e-05
4.43138e-05
4.43138e-05
4.50035e-05
4.50035e-05
4.50035e-05
4.49261e-05
4.49261e-05
4.49261e-05
3.69853e-05
3.69853e-05
3.69853e-05
3.68635e-05
3.68635e-05
3.68635e-05
3.66727e-05
3.66727e-05
3.66727e-05
3.67373e-05
3.67373e-05
3.67373e-05
3.93059e-05
3.93059e-05
3.93059e-05
4.01742e-05
4.01742e-05
4.01742e-05
4.00404e-05
4.00404e-05
4.00404e-05
3.89101e-05
3.89101e-05
3.89101e-05
4.27929e-05
4.27929e-05
4.27929e-05
4.32302e-05
4.32302e-05
4.32302e-05
4.09167e-05
4.09167e-05
4.09167e-05
4.06426e-05
4.06426e-05
4.06426e-05
4.0853e-05
4.0853e-05
4.0853e-05
4.07159e-05
4.07159e-05
4.07159e-05
4.04128e-05
4.04128e-05
4.04128e-05
4.06222e-05
4.06222e-05
4.06222e-05
4.0486e-05
4.0486e-05
4.0486e-05
4.04233e-05
4.04233e-05
4.04233e-05
4.04963e-05
4.04963e-05
4.04963e-05
3.64699e-05
3.64699e-05
3.64699e-05
3.81719e-05
3.81719e-05
3.81719e-05
3.82973e-05
3.82973e-05
3.82973e-05
3.84304e-05
3.84304e-05
3.84304e-05
3.85601e-05
3.85601e-05
3.85601e-05
3.86865e-05
3.86865e-05
3.86865e-05
3.88207e-05
3.88207e-05
3.88207e-05
3.65791e-05
3.65791e-05
3.65791e-05
3.65718e-05
3.65718e-05
3.65718e-05
3.66374e-05
3.66374e-05
3.66374e-05
4.05593e-05
4.05593e-05
4.05593e-05
4.0495e-05
4.0495e-05
4.0495e-05
4.48884e-05
4.48884e-05
4.48884e-05
4.49894e-05
4.49894e-05
4.49894e-05
4.47601e-05
4.47601e-05
4.47601e-05
4.45323e-05
4.45323e-05
4.45323e-05
4.46849e-05
4.46849e-05
4.46849e-05
4.39418e-05
4.39418e-05
4.39418e-05
4.40918e-05
4.40918e-05
4.40918e-05
4.42431e-05
4.42431e-05
4.42431e-05
4.44625e-05
4.44625e-05
4.44625e-05
4.43111e-05
4.43111e-05
4.43111e-05
4.45372e-05
4.45372e-05
4.45372e-05
4.44601e-05
4.44601e-05
4.44601e-05
4.49994e-05
4.49994e-05
4.49994e-05
4.49233e-05
4.49233e-05
4.49233e-05
4.50012e-05
4.50012e-05
4.50012e-05
3.71074e-05
3.71074e-05
3.71074e-05
3.72319e-05
3.72319e-05
3.72319e-05
3.72967e-05
3.72967e-05
3.72967e-05
3.74853e-05
3.74853e-05
3.74853e-05
3.74226e-05
3.74226e-05
3.74226e-05
3.66761e-05
3.66761e-05
3.66761e-05
4.00392e-05
4.00392e-05
4.00392e-05
3.99725e-05
3.99725e-05
3.99725e-05
3.99734e-05
3.99734e-05
3.99734e-05
4.01084e-05
4.01084e-05
4.01084e-05
3.85175e-05
3.85175e-05
3.85175e-05
3.87787e-05
3.87787e-05
3.87787e-05
3.86479e-05
3.86479e-05
3.86479e-05
4.23612e-05
4.23612e-05
4.23612e-05
4.26525e-05
4.26525e-05
4.26525e-05
4.2443e-05
4.2443e-05
4.2443e-05
4.25086e-05
4.25086e-05
4.25086e-05
4.22226e-05
4.22226e-05
4.22226e-05
4.22999e-05
4.22999e-05
4.22999e-05
4.14387e-05
4.14387e-05
4.14387e-05
4.14272e-05
4.14272e-05
4.14272e-05
4.15027e-05
4.15027e-05
4.15027e-05
4.10443e-05
4.10443e-05
4.10443e-05
4.08961e-05
4.08961e-05
4.08961e-05
4.04334e-05
4.04334e-05
4.04334e-05
4.05063e-05
4.05063e-05
4.05063e-05
3.84417e-05
3.84417e-05
3.84417e-05
3.83709e-05
3.83709e-05
3.83709e-05
3.82417e-05
3.82417e-05
3.82417e-05
3.81832e-05
3.81832e-05
3.81832e-05
3.85715e-05
3.85715e-05
3.85715e-05
3.88322e-05
3.88322e-05
3.88322e-05
3.86305e-05
3.86305e-05
3.86305e-05
3.87608e-05
3.87608e-05
3.87608e-05
3.87725e-05
3.87725e-05
3.87725e-05
3.86421e-05
3.86421e-05
3.86421e-05
4.04753e-05
4.04753e-05
4.04753e-05
3.99748e-05
3.99748e-05
3.99748e-05
4.00477e-05
4.00477e-05
4.00477e-05
4.00361e-05
4.00361e-05
4.00361e-05
3.9963e-05
3.9963e-05
3.9963e-05
4.00243e-05
4.00243e-05
4.00243e-05
4.01588e-05
4.01588e-05
4.01588e-05
4.02198e-05
4.02198e-05
4.02198e-05
4.0355e-05
4.0355e-05
4.0355e-05
4.04171e-05
4.04171e-05
4.04171e-05
4.18233e-05
4.18233e-05
4.18233e-05
4.0453e-05
4.0453e-05
4.0453e-05
4.01823e-05
4.01823e-05
4.01823e-05
4.07759e-05
4.07759e-05
4.07759e-05
4.13783e-05
4.13783e-05
4.13783e-05
4.14537e-05
4.14537e-05
4.14537e-05
4.06853e-05
4.06853e-05
4.06853e-05
4.0553e-05
4.0553e-05
4.0553e-05
4.06267e-05
4.06267e-05
4.06267e-05
4.10972e-05
4.10972e-05
4.10972e-05
4.12394e-05
4.12394e-05
4.12394e-05
4.1176e-05
4.1176e-05
4.1176e-05
4.08384e-05
4.08384e-05
4.08384e-05
4.09757e-05
4.09757e-05
4.09757e-05
4.07633e-05
4.07633e-05
4.07633e-05
4.08261e-05
4.08261e-05
4.08261e-05
4.1038e-05
4.1038e-05
4.1038e-05
4.09634e-05
4.09634e-05
4.09634e-05
3.68485e-05
3.68485e-05
3.68485e-05
3.72776e-05
3.72776e-05
3.72776e-05
3.74043e-05
3.74043e-05
3.74043e-05
3.67784e-05
3.67784e-05
3.67784e-05
3.70264e-05
3.70264e-05
3.70264e-05
3.69031e-05
3.69031e-05
3.69031e-05
3.71468e-05
3.71468e-05
3.71468e-05
3.80432e-05
3.80432e-05
3.80432e-05
3.67889e-05
3.67889e-05
3.67889e-05
3.69219e-05
3.69219e-05
3.69219e-05
3.6797e-05
3.6797e-05
3.6797e-05
3.67306e-05
3.67306e-05
3.67306e-05
3.65484e-05
3.65484e-05
3.65484e-05
3.66063e-05
3.66063e-05
3.66063e-05
3.65401e-05
3.65401e-05
3.65401e-05
3.7382e-05
3.7382e-05
3.7382e-05
3.7173e-05
3.7173e-05
3.7173e-05
3.69885e-05
3.69885e-05
3.69885e-05
3.71141e-05
3.71141e-05
3.71141e-05
3.7004e-05
3.7004e-05
3.7004e-05
3.71296e-05
3.71296e-05
3.71296e-05
3.67687e-05
3.67687e-05
3.67687e-05
3.66446e-05
3.66446e-05
3.66446e-05
3.65861e-05
3.65861e-05
3.65861e-05
4.08029e-05
4.08029e-05
4.08029e-05
4.04872e-05
4.04872e-05
4.04872e-05
4.00958e-05
4.00958e-05
4.00958e-05
3.99538e-05
3.99538e-05
3.99538e-05
4.00884e-05
4.00884e-05
4.00884e-05
4.01596e-05
4.01596e-05
4.01596e-05
4.0359e-05
4.0359e-05
4.0359e-05
4.0295e-05
4.0295e-05
4.0295e-05
3.99611e-05
3.99611e-05
3.99611e-05
3.98903e-05
3.98903e-05
3.98903e-05
3.91616e-05
3.91616e-05
3.91616e-05
4.00557e-05
4.00557e-05
4.00557e-05
4.01275e-05
4.01275e-05
4.01275e-05
4.02773e-05
4.02773e-05
4.02773e-05
4.00077e-05
4.00077e-05
4.00077e-05
4.49778e-05
4.49778e-05
4.49778e-05
4.4982e-05
4.4982e-05
4.4982e-05
4.49029e-05
4.49029e-05
4.49029e-05
4.47494e-05
4.47494e-05
4.47494e-05
4.4774e-05
4.4774e-05
4.4774e-05
4.13106e-05
4.13106e-05
4.13106e-05
4.10337e-05
4.10337e-05
4.10337e-05
4.12465e-05
4.12465e-05
4.12465e-05
4.11081e-05
4.11081e-05
4.11081e-05
4.11185e-05
4.11185e-05
4.11185e-05
4.10545e-05
4.10545e-05
4.10545e-05
4.46707e-05
4.46707e-05
4.46707e-05
4.49626e-05
4.49626e-05
4.49626e-05
4.48768e-05
4.48768e-05
4.48768e-05
4.26593e-05
4.26593e-05
4.26593e-05
4.27339e-05
4.27339e-05
4.27339e-05
4.43962e-05
4.43962e-05
4.43962e-05
4.48523e-05
4.48523e-05
4.48523e-05
4.46993e-05
4.46993e-05
4.46993e-05
4.45471e-05
4.45471e-05
4.45471e-05
3.72348e-05
3.72348e-05
3.72348e-05
3.66169e-05
3.66169e-05
3.66169e-05
3.91735e-05
3.91735e-05
3.91735e-05
3.90415e-05
3.90415e-05
3.90415e-05
3.98382e-05
3.98382e-05
3.98382e-05
4.37766e-05
4.37766e-05
4.37766e-05
3.91714e-05
3.91714e-05
3.91714e-05
3.90394e-05
3.90394e-05
3.90394e-05
4.02411e-05
4.02411e-05
4.02411e-05
4.01727e-05
4.01727e-05
4.01727e-05
4.03781e-05
4.03781e-05
4.03781e-05
4.02425e-05
4.02425e-05
4.02425e-05
4.02434e-05
4.02434e-05
4.02434e-05
4.01753e-05
4.01753e-05
4.01753e-05
4.05153e-05
4.05153e-05
4.05153e-05
4.0379e-05
4.0379e-05
4.0379e-05
4.04466e-05
4.04466e-05
4.04466e-05
4.05829e-05
4.05829e-05
4.05829e-05
4.06517e-05
4.06517e-05
4.06517e-05
4.0589e-05
4.0589e-05
4.0589e-05
4.06513e-05
4.06513e-05
4.06513e-05
4.22356e-05
4.22356e-05
4.22356e-05
4.12995e-05
4.12995e-05
4.12995e-05
4.12357e-05
4.12357e-05
4.12357e-05
4.10973e-05
4.10973e-05
4.10973e-05
4.14911e-05
4.14911e-05
4.14911e-05
4.14154e-05
4.14154e-05
4.14154e-05
4.19e-05
4.19e-05
4.19e-05
4.27309e-05
4.27309e-05
4.27309e-05
4.23179e-05
4.23179e-05
4.23179e-05
4.09066e-05
4.09066e-05
4.09066e-05
4.06326e-05
4.06326e-05
4.06326e-05
4.06958e-05
4.06958e-05
4.06958e-05
4.08327e-05
4.08327e-05
4.08327e-05
4.0843e-05
4.0843e-05
4.0843e-05
4.0706e-05
4.0706e-05
4.0706e-05
4.02978e-05
4.02978e-05
4.02978e-05
4.0235e-05
4.0235e-05
4.0235e-05
4.04432e-05
4.04432e-05
4.04432e-05
4.03075e-05
4.03075e-05
4.03075e-05
3.99124e-05
3.99124e-05
3.99124e-05
3.98408e-05
3.98408e-05
3.98408e-05
4.02627e-05
4.02627e-05
4.02627e-05
3.98291e-05
3.98291e-05
3.98291e-05
3.88435e-05
3.88435e-05
3.88435e-05
3.89855e-05
3.89855e-05
3.89855e-05
3.89745e-05
3.89745e-05
3.89745e-05
3.90456e-05
3.90456e-05
3.90456e-05
3.69723e-05
3.69723e-05
3.69723e-05
3.69138e-05
3.69138e-05
3.69138e-05
3.69805e-05
3.69805e-05
3.69805e-05
3.7106e-05
3.7106e-05
3.7106e-05
3.76714e-05
3.76714e-05
3.76714e-05
3.72649e-05
3.72649e-05
3.72649e-05
3.71391e-05
3.71391e-05
3.71391e-05
3.78307e-05
3.78307e-05
3.78307e-05
3.77128e-05
3.77128e-05
3.77128e-05
3.78895e-05
3.78895e-05
3.78895e-05
4.10228e-05
4.10228e-05
4.10228e-05
4.0402e-05
4.0402e-05
4.0402e-05
4.04643e-05
4.04643e-05
4.04643e-05
4.03908e-05
4.03908e-05
4.03908e-05
4.02555e-05
4.02555e-05
4.02555e-05
3.98521e-05
3.98521e-05
3.98521e-05
3.99861e-05
3.99861e-05
3.99861e-05
4.04293e-05
4.04293e-05
4.04293e-05
4.05772e-05
4.05772e-05
4.05772e-05
4.05652e-05
4.05652e-05
4.05652e-05
4.06392e-05
4.06392e-05
4.06392e-05
4.01468e-05
4.01468e-05
4.01468e-05
4.02779e-05
4.02779e-05
4.02779e-05
4.10506e-05
4.10506e-05
4.10506e-05
4.12764e-05
4.12764e-05
4.12764e-05
4.12011e-05
4.12011e-05
4.12011e-05
4.16063e-05
4.16063e-05
4.16063e-05
4.1479e-05
4.1479e-05
4.1479e-05
4.16828e-05
4.16828e-05
4.16828e-05
4.16188e-05
4.16188e-05
4.16188e-05
4.18874e-05
4.18874e-05
4.18874e-05
4.20288e-05
4.20288e-05
4.20288e-05
4.20934e-05
4.20934e-05
4.20934e-05
3.67546e-05
3.67546e-05
3.67546e-05
3.68885e-05
3.68885e-05
3.68885e-05
3.66615e-05
3.66615e-05
3.66615e-05
3.67257e-05
3.67257e-05
3.67257e-05
3.65379e-05
3.65379e-05
3.65379e-05
3.69166e-05
3.69166e-05
3.69166e-05
3.72909e-05
3.72909e-05
3.72909e-05
3.70409e-05
3.70409e-05
3.70409e-05
3.70961e-05
3.70961e-05
3.70961e-05
3.72209e-05
3.72209e-05
3.72209e-05
3.75175e-05
3.75175e-05
3.75175e-05
3.77032e-05
3.77032e-05
3.77032e-05
3.76444e-05
3.76444e-05
3.76444e-05
3.76346e-05
3.76346e-05
3.76346e-05
3.80545e-05
3.80545e-05
3.80545e-05
3.79842e-05
3.79842e-05
3.79842e-05
3.74735e-05
3.74735e-05
3.74735e-05
3.74168e-05
3.74168e-05
3.74168e-05
3.69376e-05
3.69376e-05
3.69376e-05
3.69299e-05
3.69299e-05
3.69299e-05
3.69964e-05
3.69964e-05
3.69964e-05
3.65565e-05
3.65565e-05
3.65565e-05
3.66144e-05
3.66144e-05
3.66144e-05
3.67387e-05
3.67387e-05
3.67387e-05
3.6805e-05
3.6805e-05
3.6805e-05
3.65718e-05
3.65718e-05
3.65718e-05
3.67635e-05
3.67635e-05
3.67635e-05
3.66967e-05
3.66967e-05
3.66967e-05
3.65138e-05
3.65138e-05
3.65138e-05
3.67224e-05
3.67224e-05
3.67224e-05
3.65979e-05
3.65979e-05
3.65979e-05
3.72991e-05
3.72991e-05
3.72991e-05
3.73663e-05
3.73663e-05
3.73663e-05
3.82701e-05
3.82701e-05
3.82701e-05
3.83307e-05
3.83307e-05
3.83307e-05
3.7927e-05
3.7927e-05
3.7927e-05
3.74931e-05
3.74931e-05
3.74931e-05
3.75525e-05
3.75525e-05
3.75525e-05
3.75088e-05
3.75088e-05
3.75088e-05
3.78673e-05
3.78673e-05
3.78673e-05
3.77394e-05
3.77394e-05
3.77394e-05
3.76798e-05
3.76798e-05
3.76798e-05
3.77477e-05
3.77477e-05
3.77477e-05
3.71809e-05
3.71809e-05
3.71809e-05
3.73149e-05
3.73149e-05
3.73149e-05
3.71887e-05
3.71887e-05
3.71887e-05
3.71219e-05
3.71219e-05
3.71219e-05
3.73743e-05
3.73743e-05
3.73743e-05
3.73071e-05
3.73071e-05
3.73071e-05
3.69451e-05
3.69451e-05
3.69451e-05
3.68202e-05
3.68202e-05
3.68202e-05
3.67616e-05
3.67616e-05
3.67616e-05
3.68275e-05
3.68275e-05
3.68275e-05
3.71962e-05
3.71962e-05
3.71962e-05
3.73225e-05
3.73225e-05
3.73225e-05
3.73894e-05
3.73894e-05
3.73894e-05
3.85606e-05
3.85606e-05
3.85606e-05
3.86911e-05
3.86911e-05
3.86911e-05
4.11846e-05
4.11846e-05
4.11846e-05
4.06338e-05
4.06338e-05
4.06338e-05
4.12558e-05
4.12558e-05
4.12558e-05
4.11881e-05
4.11881e-05
4.11881e-05
4.05637e-05
4.05637e-05
4.05637e-05
4.07373e-05
4.07373e-05
4.07373e-05
4.08089e-05
4.08089e-05
4.08089e-05
4.0128e-05
4.0128e-05
4.0128e-05
4.01927e-05
4.01927e-05
4.01927e-05
4.03222e-05
4.03222e-05
4.03222e-05
3.99931e-05
3.99931e-05
3.99931e-05
3.99286e-05
3.99286e-05
3.99286e-05
3.97944e-05
3.97944e-05
3.97944e-05
3.97247e-05
3.97247e-05
3.97247e-05
4.05513e-05
4.05513e-05
4.05513e-05
4.03512e-05
4.03512e-05
4.03512e-05
4.02874e-05
4.02874e-05
4.02874e-05
4.01521e-05
4.01521e-05
4.01521e-05
4.00807e-05
4.00807e-05
4.00807e-05
3.95271e-05
3.95271e-05
3.95271e-05
3.95911e-05
3.95911e-05
3.95911e-05
3.98975e-05
3.98975e-05
3.98975e-05
3.97563e-05
3.97563e-05
3.97563e-05
4.01222e-05
4.01222e-05
4.01222e-05
4.01867e-05
4.01867e-05
4.01867e-05
3.95096e-05
3.95096e-05
3.95096e-05
3.9573e-05
3.9573e-05
3.9573e-05
3.99299e-05
3.99299e-05
3.99299e-05
4.00644e-05
4.00644e-05
4.00644e-05
3.98735e-05
3.98735e-05
3.98735e-05
3.88246e-05
3.88246e-05
3.88246e-05
4.49859e-05
4.49859e-05
4.49859e-05
4.4907e-05
4.4907e-05
4.4907e-05
4.49106e-05
4.49106e-05
4.49106e-05
4.33816e-05
4.33816e-05
4.33816e-05
4.36739e-05
4.36739e-05
4.36739e-05
4.35294e-05
4.35294e-05
4.35294e-05
4.4795e-05
4.4795e-05
4.4795e-05
4.481e-05
4.481e-05
4.481e-05
4.48451e-05
4.48451e-05
4.48451e-05
4.13212e-05
4.13212e-05
4.13212e-05
4.1257e-05
4.1257e-05
4.1257e-05
4.13316e-05
4.13316e-05
4.13316e-05
4.14709e-05
4.14709e-05
4.14709e-05
4.11286e-05
4.11286e-05
4.11286e-05
4.12671e-05
4.12671e-05
4.12671e-05
4.48985e-05
4.48985e-05
4.48985e-05
4.4745e-05
4.4745e-05
4.4745e-05
4.49731e-05
4.49731e-05
4.49731e-05
4.48936e-05
4.48936e-05
4.48936e-05
4.4735e-05
4.4735e-05
4.4735e-05
4.46558e-05
4.46558e-05
4.46558e-05
4.45034e-05
4.45034e-05
4.45034e-05
4.44977e-05
4.44977e-05
4.44977e-05
4.44246e-05
4.44246e-05
4.44246e-05
4.42006e-05
4.42006e-05
4.42006e-05
4.42732e-05
4.42732e-05
4.42732e-05
4.49439e-05
4.49439e-05
4.49439e-05
4.4805e-05
4.4805e-05
4.4805e-05
4.25153e-05
4.25153e-05
4.25153e-05
4.22289e-05
4.22289e-05
4.22289e-05
4.46153e-05
4.46153e-05
4.46153e-05
4.46749e-05
4.46749e-05
4.46749e-05
4.45223e-05
4.45223e-05
4.45223e-05
4.47534e-05
4.47534e-05
4.47534e-05
3.80519e-05
3.80519e-05
3.80519e-05
3.77881e-05
3.77881e-05
3.77881e-05
3.7416e-05
3.7416e-05
3.7416e-05
3.74188e-05
3.74188e-05
3.74188e-05
3.74809e-05
3.74809e-05
3.74809e-05
3.78009e-05
3.78009e-05
3.78009e-05
3.76081e-05
3.76081e-05
3.76081e-05
3.76732e-05
3.76732e-05
3.76732e-05
3.74779e-05
3.74779e-05
3.74779e-05
3.72976e-05
3.72976e-05
3.72976e-05
3.76132e-05
3.76132e-05
3.76132e-05
3.77411e-05
3.77411e-05
3.77411e-05
3.66816e-05
3.66816e-05
3.66816e-05
3.6996e-05
3.6996e-05
3.6996e-05
3.68709e-05
3.68709e-05
3.68709e-05
3.68059e-05
3.68059e-05
3.68059e-05
3.72476e-05
3.72476e-05
3.72476e-05
3.70061e-05
3.70061e-05
3.70061e-05
3.68809e-05
3.68809e-05
3.68809e-05
3.92382e-05
3.92382e-05
3.92382e-05
3.91726e-05
3.91726e-05
3.91726e-05
3.92392e-05
3.92392e-05
3.92392e-05
3.88439e-05
3.88439e-05
3.88439e-05
3.89753e-05
3.89753e-05
3.89753e-05
3.87779e-05
3.87779e-05
3.87779e-05
3.88429e-05
3.88429e-05
3.88429e-05
3.90407e-05
3.90407e-05
3.90407e-05
3.89743e-05
3.89743e-05
3.89743e-05
3.97706e-05
3.97706e-05
3.97706e-05
3.96354e-05
3.96354e-05
3.96354e-05
3.97053e-05
3.97053e-05
3.97053e-05
3.98391e-05
3.98391e-05
3.98391e-05
3.97717e-05
3.97717e-05
3.97717e-05
4.37915e-05
4.37915e-05
4.37915e-05
4.26837e-05
4.26837e-05
4.26837e-05
4.29739e-05
4.29739e-05
4.29739e-05
4.22375e-05
4.22375e-05
4.22375e-05
4.20951e-05
4.20951e-05
4.20951e-05
4.2187e-05
4.2187e-05
4.2187e-05
4.1762e-05
4.1762e-05
4.1762e-05
4.16212e-05
4.16212e-05
4.16212e-05
4.26172e-05
4.26172e-05
4.26172e-05
4.27606e-05
4.27606e-05
4.27606e-05
4.29057e-05
4.29057e-05
4.29057e-05
4.27616e-05
4.27616e-05
4.27616e-05
4.26888e-05
4.26888e-05
4.26888e-05
4.27572e-05
4.27572e-05
4.27572e-05
4.29023e-05
4.29023e-05
4.29023e-05
4.31239e-05
4.31239e-05
4.31239e-05
4.29779e-05
4.29779e-05
4.29779e-05
4.29042e-05
4.29042e-05
4.29042e-05
4.29761e-05
4.29761e-05
4.29761e-05
4.36281e-05
4.36281e-05
4.36281e-05
3.87767e-05
3.87767e-05
3.87767e-05
3.86459e-05
3.86459e-05
3.86459e-05
3.99712e-05
3.99712e-05
3.99712e-05
4.00377e-05
4.00377e-05
4.00377e-05
3.98369e-05
3.98369e-05
3.98369e-05
3.97691e-05
3.97691e-05
3.97691e-05
4.02394e-05
4.02394e-05
4.02394e-05
4.13419e-05
4.13419e-05
4.13419e-05
4.14109e-05
4.14109e-05
4.14109e-05
4.14812e-05
4.14812e-05
4.14812e-05
4.14802e-05
4.14802e-05
4.14802e-05
4.14097e-05
4.14097e-05
4.14097e-05
4.06507e-05
4.06507e-05
4.06507e-05
4.07877e-05
4.07877e-05
4.07877e-05
4.1267e-05
4.1267e-05
4.1267e-05
4.03768e-05
4.03768e-05
4.03768e-05
4.06494e-05
4.06494e-05
4.06494e-05
4.04455e-05
4.04455e-05
4.04455e-05
4.05818e-05
4.05818e-05
4.05818e-05
4.25381e-05
4.25381e-05
4.25381e-05
4.23947e-05
4.23947e-05
4.23947e-05
4.16426e-05
4.16426e-05
4.16426e-05
4.21062e-05
4.21062e-05
4.21062e-05
4.20414e-05
4.20414e-05
4.20414e-05
4.1695e-05
4.1695e-05
4.1695e-05
4.18357e-05
4.18357e-05
4.18357e-05
4.16309e-05
4.16309e-05
4.16309e-05
4.17069e-05
4.17069e-05
4.17069e-05
4.17185e-05
4.17185e-05
4.17185e-05
4.18592e-05
4.18592e-05
4.18592e-05
4.25217e-05
4.25217e-05
4.25217e-05
4.26657e-05
4.26657e-05
4.26657e-05
4.02252e-05
4.02252e-05
4.02252e-05
4.02877e-05
4.02877e-05
4.02877e-05
4.0215e-05
4.0215e-05
4.0215e-05
4.00801e-05
4.00801e-05
4.00801e-05
4.0018e-05
4.0018e-05
4.0018e-05
4.00903e-05
4.00903e-05
4.00903e-05
4.02446e-05
4.02446e-05
4.02446e-05
4.01095e-05
4.01095e-05
4.01095e-05
4.01187e-05
4.01187e-05
4.01187e-05
4.00468e-05
4.00468e-05
4.00468e-05
4.0516e-05
4.0516e-05
4.0516e-05
4.07255e-05
4.07255e-05
4.07255e-05
4.06524e-05
4.06524e-05
4.06524e-05
3.99213e-05
3.99213e-05
3.99213e-05
3.98498e-05
3.98498e-05
3.98498e-05
3.98585e-05
3.98585e-05
3.98585e-05
3.90261e-05
3.90261e-05
3.90261e-05
3.88948e-05
3.88948e-05
3.88948e-05
3.95853e-05
3.95853e-05
3.95853e-05
3.97566e-05
3.97566e-05
3.97566e-05
3.98408e-05
3.98408e-05
3.98408e-05
3.97683e-05
3.97683e-05
3.97683e-05
3.97797e-05
3.97797e-05
3.97797e-05
3.96463e-05
3.96463e-05
3.96463e-05
3.91658e-05
3.91658e-05
3.91658e-05
3.89631e-05
3.89631e-05
3.89631e-05
3.90343e-05
3.90343e-05
3.90343e-05
3.85828e-05
3.85828e-05
3.85828e-05
3.82532e-05
3.82532e-05
3.82532e-05
3.83825e-05
3.83825e-05
3.83825e-05
3.8453e-05
3.8453e-05
3.8453e-05
3.83936e-05
3.83936e-05
3.83936e-05
3.80176e-05
3.80176e-05
3.80176e-05
3.70894e-05
3.70894e-05
3.70894e-05
3.69554e-05
3.69554e-05
3.69554e-05
3.70808e-05
3.70808e-05
3.70808e-05
3.71479e-05
3.71479e-05
3.71479e-05
3.71565e-05
3.71565e-05
3.71565e-05
3.71648e-05
3.71648e-05
3.71648e-05
3.70978e-05
3.70978e-05
3.70978e-05
3.72825e-05
3.72825e-05
3.72825e-05
3.70718e-05
3.70718e-05
3.70718e-05
3.68795e-05
3.68795e-05
3.68795e-05
3.69466e-05
3.69466e-05
3.69466e-05
3.71298e-05
3.71298e-05
3.71298e-05
3.74588e-05
3.74588e-05
3.74588e-05
3.73325e-05
3.73325e-05
3.73325e-05
3.72738e-05
3.72738e-05
3.72738e-05
3.73413e-05
3.73413e-05
3.73413e-05
3.79958e-05
3.79958e-05
3.79958e-05
3.78677e-05
3.78677e-05
3.78677e-05
3.78204e-05
3.78204e-05
3.78204e-05
3.7693e-05
3.7693e-05
3.7693e-05
3.78095e-05
3.78095e-05
3.78095e-05
3.78789e-05
3.78789e-05
3.78789e-05
4.08852e-05
4.08852e-05
4.08852e-05
4.06115e-05
4.06115e-05
4.06115e-05
4.06852e-05
4.06852e-05
4.06852e-05
4.08221e-05
4.08221e-05
4.08221e-05
4.06004e-05
4.06004e-05
4.06004e-05
4.0874e-05
4.0874e-05
4.0874e-05
4.06742e-05
4.06742e-05
4.06742e-05
4.08111e-05
4.08111e-05
4.08111e-05
4.06629e-05
4.06629e-05
4.06629e-05
4.07997e-05
4.07997e-05
4.07997e-05
4.12245e-05
4.12245e-05
4.12245e-05
4.10862e-05
4.10862e-05
4.10862e-05
4.10116e-05
4.10116e-05
4.10116e-05