<VTKFile type="UnstructuredGrid" version="1.0">
<UnstructuredGrid>
<Piece NumberOfPoints="8859" NumberOfCells="2953">
<Points>
<DataArray type="Float64" NumberOfComponents="3" format="ascii">
2.04744 2.20956 4.04763
2.06275 2.19425 4.05958
2.04754 2.20946 4.07333
2.07804 2.17896 3.99667
2.07805 2.17895 3.97151
2.0934 2.1636 3.98398
2.06271 2.19429 4.00936
2.07804 2.17896 3.99667
2.07804 2.17896 4.02186
2.01701 2.23999 4.09988
2.03242 2.22458 4.1075
2.00164 2.25536 4.1075
2.01701 2.23999 4.09988
2.03232 2.22468 4.08457
2.03242 2.22458 4.1075
2.04777 2.20923 4.09979
2.06326 2.19374 4.1075
2.03242 2.22458 4.1075
2.04777 2.20923 4.09979
2.03232 2.22468 4.08457
2.04754 2.20946 4.07333
2.03242 2.22458 4.1075
2.03232 2.22468 4.08457
2.04777 2.20923 4.09979
2.04754 2.20946 4.07333
2.06275 2.19425 4.05958
2.06287 2.19413 4.08427
2.06287 2.19413 4.08427
2.04777 2.20923 4.09979
2.04754 2.20946 4.07333
2.06326 2.19374 4.1075
2.04777 2.20923 4.09979
2.06287 2.19413 4.08427
2.06275 2.19425 4.05958
2.04744 2.20956 4.04763
2.06271 2.19429 4.03452
2.06271 2.19429 4.00936
2.07804 2.17896 4.02186
2.06271 2.19429 4.03452
2.07809 2.17891 4.07262
2.06287 2.19413 4.08427
2.06275 2.19425 4.05958
2.0934 2.1636 4.05895
2.0934 2.1636 4.08355
2.07809 2.17891 4.07262
2.0934 2.1636 3.95887
2.0934 2.1636 3.98398
2.07805 2.17895 3.97151
2.07804 2.17896 3.99667
2.0934 2.1636 3.98398
2.0934 2.1636 4.00906
2.0934 2.1636 4.00906
2.07804 2.17896 4.02186
2.07804 2.17896 3.99667
2.0934 2.1636 3.43152
2.0934 2.1636 3.45665
2.07807 2.17893 3.44407
2.07807 2.17893 3.89607
2.0934 2.1636 3.90861
2.07806 2.17894 3.92121
2.0934 2.1636 3.88348
2.0934 2.1636 3.90861
2.07807 2.17893 3.89607
2.07808 2.17892 3.77044
2.0934 2.1636 3.78299
2.07808 2.17892 3.79555
1.61564 2.64136 3.21559
1.63134 2.62566 3.2075
1.63134 2.62566 3.23063
1.5683 2.6887 4.1075
1.53648 2.72052 4.1075
1.55243 2.70457 4.09932
2.07804 2.17896 4.04712
2.06271 2.19429 4.03452
2.07804 2.17896 4.02186
2.06275 2.19425 4.05958
2.06271 2.19429 4.03452
2.07804 2.17896 4.04712
2.07804 2.17896 4.04712
2.07809 2.17891 4.07262
2.06275 2.19425 4.05958
2.0934 2.1636 4.05895
2.07809 2.17891 4.07262
2.07804 2.17896 4.04712
2.07833 2.17867 4.09884
2.0934 2.1636 4.08355
2.0934 2.1636 4.1075
2.07833 2.17867 4.09884
2.07809 2.17891 4.07262
2.0934 2.1636 4.08355
2.0934 2.1636 4.1075
2.06326 2.19374 4.1075
2.07833 2.17867 4.09884
2.06326 2.19374 4.1075
2.06287 2.19413 4.08427
2.07833 2.17867 4.09884
2.06287 2.19413 4.08427
2.07809 2.17891 4.07262
2.07833 2.17867 4.09884
2.07806 2.17894 3.92121
2.0934 2.1636 3.90861
2.0934 2.1636 3.93375
2.07804 2.17896 4.02186
2.0934 2.1636 4.00906
2.0934 2.1636 4.03407
2.0934 2.1636 4.05895
2.07804 2.17896 4.04712
2.0934 2.1636 4.03407
2.0934 2.1636 4.03407
2.07804 2.17896 4.04712
2.07804 2.17896 4.02186
2.0934 2.1636 3.75788
2.0934 2.1636 3.78299
2.07808 2.17892 3.77044
2.07807 2.17893 3.44407
2.0934 2.1636 3.45665
2.07807 2.17893 3.4692
2.06275 2.19425 3.88353
2.04743 2.20957 3.87098
2.06275 2.19425 3.85838
2.07806 2.17894 3.94636
2.0934 2.1636 3.95887
2.07805 2.17895 3.97151
2.07806 2.17894 3.94636
2.0934 2.1636 3.93375
2.0934 2.1636 3.95887
2.07806 2.17894 3.94636
2.06273 2.19427 3.93384
2.07806 2.17894 3.92121
2.07806 2.17894 3.92121
2.0934 2.1636 3.93375
2.07806 2.17894 3.94636
2.06271 2.19429 3.98418
2.07804 2.17896 3.99667
2.06271 2.19429 4.00936
2.06271 2.19429 3.98418
2.07805 2.17895 3.97151
2.07804 2.17896 3.99667
2.04741 2.20959 3.94649
2.03209 2.22491 3.95915
2.0321 2.2249 3.93394
1.83285 2.42415 4.07338
1.81747 2.43953 4.0599
1.83285 2.42415 4.04775
1.78664 2.47036 3.9088
1.78664 2.47036 3.934
1.77121 2.48579 3.92139
2.0934 2.1636 3.2075
2.0934 2.1636 3.23145
2.07833 2.17867 3.21616
1.56833 2.68867 4.08433
1.5683 2.6887 4.1075
1.55243 2.70457 4.09932
1.63134 2.62566 4.00946
1.61565 2.64135 4.02214
1.61564 2.64136 3.99685
1.55243 2.70457 4.09932
1.53648 2.72052 4.1075
1.53664 2.72036 4.08423
2.06276 2.19424 3.532
2.04745 2.20955 3.51943
2.06276 2.19424 3.50688
2.0934 2.1636 3.68259
2.07808 2.17892 3.67005
2.0934 2.1636 3.6575
2.07808 2.17892 3.72024
2.0934 2.1636 3.70769
2.0934 2.1636 3.73278
2.06277 2.19423 3.63241
2.04745 2.20955 3.64495
2.04745 2.20955 3.61986
2.06277 2.19423 3.6575
2.04745 2.20955 3.64495
2.06277 2.19423 3.63241
2.07808 2.17892 3.67005
2.06277 2.19423 3.68259
2.06277 2.19423 3.6575
2.04745 2.20955 3.79557
2.06276 2.19424 3.80812
2.04744 2.20956 3.8207
2.01682 2.24018 3.77047
2.01682 2.24018 3.79559
2.0015 2.2555 3.78303
2.04745 2.20955 3.77045
2.03214 2.22486 3.7579
2.04745 2.20955 3.74535
2.04745 2.20955 3.74535
2.06277 2.19423 3.75789
2.04745 2.20955 3.77045
2.03214 2.22486 3.7579
2.03214 2.22486 3.7328
2.04745 2.20955 3.74535
2.04745 2.20955 3.74535
2.03214 2.22486 3.7328
2.04745 2.20955 3.72024
2.0934 2.1636 3.73278
2.0934 2.1636 3.75788
2.07808 2.17892 3.74534
2.07808 2.17892 3.74534
2.07808 2.17892 3.72024
2.0934 2.1636 3.73278
2.07808 2.17892 3.74534
2.0934 2.1636 3.75788
2.07808 2.17892 3.77044
2.07808 2.17892 3.77044
2.06277 2.19423 3.75789
2.07808 2.17892 3.74534
2.04744 2.20956 3.84583
2.03213 2.22487 3.83328
2.04744 2.20956 3.8207
2.04744 2.20956 3.84583
2.06275 2.19425 3.85838
2.04743 2.20957 3.87098
2.0015 2.2555 3.8333
2.01681 2.24019 3.82072
2.01681 2.24019 3.84586
2.01681 2.24019 3.84586
2.01681 2.24019 3.82072
2.03213 2.22487 3.83328
2.0934 2.1636 3.8081
2.07808 2.17892 3.79555
2.0934 2.1636 3.78299
2.04744 2.20956 3.8207
2.06276 2.19424 3.80812
2.06276 2.19424 3.83325
2.06276 2.19424 3.83325
2.04744 2.20956 3.84583
2.04744 2.20956 3.8207
2.06275 2.19425 3.85838
2.04744 2.20956 3.84583
2.06276 2.19424 3.83325
2.07806 2.17894 3.92121
2.06273 2.19427 3.93384
2.06274 2.19426 3.90868
2.06274 2.19426 3.90868
2.07807 2.17893 3.89607
2.07806 2.17894 3.92121
2.06275 2.19425 3.88353
2.07807 2.17893 3.89607
2.06274 2.19426 3.90868
2.0321 2.2249 3.93394
2.03211 2.22489 3.90875
2.04742 2.20958 3.9213
2.04742 2.20958 3.9213
2.04741 2.20959 3.94649
2.0321 2.2249 3.93394
2.06273 2.19427 3.93384
2.04741 2.20959 3.94649
2.04742 2.20958 3.9213
2.04742 2.20958 3.9213
2.06274 2.19426 3.90868
2.06273 2.19427 3.93384
2.01679 2.24021 3.92138
2.03211 2.22489 3.90875
2.0321 2.2249 3.93394
2.01679 2.24021 3.92138
2.00148 2.25552 3.93401
2.00148 2.25552 3.90881
2.06271 2.19429 4.00936
2.06271 2.19429 4.03452
2.04741 2.20959 4.02222
2.04741 2.20959 4.02222
2.06271 2.19429 4.03452
2.04744 2.20956 4.04763
2.03209 2.22491 3.95915
2.04741 2.20959 3.94649
2.0474 2.2096 3.97169
2.0474 2.2096 3.97169
2.03209 2.22491 3.98437
2.03209 2.22491 3.95915
1.97087 2.28613 3.80817
1.95555 2.30145 3.82075
1.95555 2.30145 3.79561
2.00148 2.25552 3.90881
2.00149 2.25551 3.88362
2.0168 2.2402 3.89619
2.0168 2.2402 3.89619
2.01679 2.24021 3.92138
2.00148 2.25552 3.90881
2.03211 2.22489 3.90875
2.01679 2.24021 3.92138
2.0168 2.2402 3.89619
2.03211 2.22489 3.88358
2.03211 2.22489 3.90875
2.0168 2.2402 3.89619
1.86358 2.39342 4.04776
1.86358 2.39342 4.07339
1.84822 2.40878 4.05991
1.84822 2.40878 4.05991
1.86358 2.39342 4.07339
1.84822 2.40878 4.0845
1.84822 2.40878 4.05991
1.84822 2.40878 4.0845
1.83285 2.42415 4.07338
1.83285 2.42415 4.07338
1.83285 2.42415 4.04775
1.84822 2.40878 4.05991
1.81747 2.43953 4.03484
1.83285 2.42415 4.04775
1.81747 2.43953 4.0599
1.80202 2.45498 3.67005
1.80202 2.45498 3.69515
1.7866 2.4704 3.6826
1.70922 2.54778 3.79556
1.69367 2.56333 3.783
1.70922 2.54778 3.77045
1.70924 2.54776 3.84583
1.6937 2.5633 3.85839
1.69369 2.56331 3.83325
1.63134 2.62566 4.00946
1.61564 2.64136 3.99685
1.63132 2.62568 3.98424
1.63135 2.62565 4.03466
1.61565 2.64135 4.02214
1.63134 2.62566 4.00946
1.69376 2.56324 3.95912
1.69378 2.56322 3.98434
1.6782 2.5788 3.97172
1.59983 2.65717 3.90858
1.61554 2.64146 3.89603
1.61557 2.64143 3.9212
1.59973 2.65727 3.80803
1.58397 2.67303 3.82056
1.58396 2.67304 3.79546
1.61564 2.64136 4.09941
1.63134 2.62566 4.1075
1.5999 2.6571 4.1075
1.63134 2.62566 4.08437
1.63134 2.62566 4.1075
1.61564 2.64136 4.09941
1.647 2.61 4.09947
1.63134 2.62566 4.1075
1.63134 2.62566 4.08437
1.59993 2.65707 4.03461
1.59992 2.65708 4.05969
1.58418 2.67282 4.04746
1.84822 2.40878 4.1075
1.81747 2.43953 4.1075
1.83285 2.42415 4.09972
1.83285 2.42415 4.07338
1.84822 2.40878 4.0845
1.83285 2.42415 4.09972
1.83285 2.42415 4.09972
1.84822 2.40878 4.0845
1.84822 2.40878 4.1075
1.81747 2.43953 4.08449
1.81747 2.43953 4.0599
1.83285 2.42415 4.07338
1.83285 2.42415 4.07338
1.83285 2.42415 4.09972
1.81747 2.43953 4.08449
1.81747 2.43953 4.08449
1.83285 2.42415 4.09972
1.81747 2.43953 4.1075
1.70931 2.54769 3.97176
1.69378 2.56322 3.98434
1.69376 2.56324 3.95912
1.7712 2.4858 3.8962
1.78663 2.47037 3.88362
1.78664 2.47036 3.9088
1.78664 2.47036 3.9088
1.77121 2.48579 3.92139
1.7712 2.4858 3.8962
1.77122 2.48578 3.9466
1.77121 2.48579 3.92139
1.78664 2.47036 3.934
1.77122 2.48578 3.9466
1.78664 2.47036 3.934
1.78665 2.47035 3.95921
1.78665 2.47035 3.95921
1.77123 2.48577 3.97182
1.77122 2.48578 3.9466
1.77122 2.48578 3.9466
1.77123 2.48577 3.97182
1.75578 2.50122 3.95919
1.78666 2.47034 3.98443
1.77123 2.48577 3.97182
1.78665 2.47035 3.95921
1.78666 2.47034 4.00964
1.77124 2.48576 4.02234
1.77124 2.48576 3.99706
1.77124 2.48576 3.99706
1.78666 2.47034 3.98443
1.78666 2.47034 4.00964
1.77123 2.48577 3.97182
1.78666 2.47034 3.98443
1.77124 2.48576 3.99706
2.07809 2.17891 3.24238
2.07833 2.17867 3.21616
2.0934 2.1636 3.23145
2.06287 2.19413 3.23073
2.07833 2.17867 3.21616
2.07809 2.17891 3.24238
1.94028 2.31672 3.23048
1.94028 2.31672 3.2075
1.95561 2.30139 3.21521
2.00164 2.25536 3.2075
1.98629 2.27071 3.21517
1.97095 2.28605 3.2075
1.97095 2.28605 3.2075
1.95561 2.30139 3.21521
1.94028 2.31672 3.2075
1.48928 2.76772 3.24397
1.48919 2.76781 3.21786
1.50509 2.75191 3.23145
1.50509 2.75191 3.23145
1.5206 2.7364 3.21601
1.52092 2.73608 3.24245
1.47362 2.78338 3.23282
1.48919 2.76781 3.21786
1.48928 2.76772 3.24397
1.47362 2.78338 3.23282
1.47412 2.78288 3.2075
1.48919 2.76781 3.21786
1.56833 2.68867 3.23067
1.5683 2.6887 3.2075
1.58412 2.67288 3.21563
[...]
<PointData Scalars="View Factor" >
<DataArray type="Float64" Name="View Factor" NumberOfComponents="1" format="ascii">
0.000543176
0.000543176
0.000543176
0.000517982
0.000517982
0.000517982
0.000526141
0.000526141
0.000526141
0.000562717
0.000562717
0.000562717
0.000558381
0.000558381
0.000558381
0.000556177
0.000556177
0.000556177
0.000552086
0.000552086
0.000552086
0.000556225
0.000556225
0.000556225
0.00054545
0.00054545
0.00054545
0.000550038
0.000550038
0.000550038
0.000552092
0.000552092
0.000552092
0.000538785
0.000538785
0.000538785
0.000530296
0.000530296
0.000530296
0.000543475
0.000543475
0.000543475
0.000539717
0.000539717
0.000539717
0.000513984
0.000513984
0.000513984
0.000520287
0.000520287
0.000520287
0.000524351
0.000524351
0.000524351
0.000400982
0.000400982
0.000400982
0.000499437
0.000499437
0.000499437
0.000495617
0.000495617
0.000495617
0.000470329
0.000470329
0.000470329
0.000671304
0.000671304
0.000671304
0.0011277
0.0011277
0.0011277
0.000532662
0.000532662
0.000532662
0.000536849
0.000536849
0.000536849
0.000539248
0.000539248
0.000539248
0.000537384
0.000537384
0.000537384
0.000546346
0.000546346
0.000546346
0.000544127
0.000544127
0.000544127
0.000550286
0.000550286
0.000550286
0.000550065
0.000550065
0.000550065
0.000546019
0.000546019
0.000546019
0.000501649
0.000501649
0.000501649
0.000526679
0.000526679
0.000526679
0.000533158
0.000533158
0.000533158
0.000530836
0.000530836
0.000530836
0.000466781
0.000466781
0.000466781
0.000403938
0.000403938
0.000403938
0.000494675
0.000494675
0.000494675
0.000511708
0.000511708
0.000511708
0.000507771
0.000507771
0.000507771
0.000507227
0.000507227
0.000507227
0.000505527
0.000505527
0.000505527
0.000523834
0.000523834
0.000523834
0.000519739
0.000519739
0.000519739
0.000516775
0.000516775
0.000516775
0.000735804
0.000735804
0.000735804
0.000743921
0.000743921
0.000743921
0.000362079
0.000362079
0.000362079
0.00110882
0.00110882
0.00110882
0.000985487
0.000985487
0.000985487
0.00113784
0.00113784
0.00113784
0.000419251
0.000419251
0.000419251
0.000445209
0.000445209
0.000445209
0.000455836
0.000455836
0.000455836
0.000442597
0.000442597
0.000442597
0.000444437
0.000444437
0.000444437
0.000448151
0.000448151
0.000448151
0.000480884
0.000480884
0.000480884
0.000482353
0.000482353
0.000482353
0.000471235
0.000471235
0.000471235
0.00046954
0.00046954
0.00046954
0.0004693
0.0004693
0.0004693
0.00046565
0.00046565
0.00046565
0.000461268
0.000461268
0.000461268
0.000459283
0.000459283
0.000459283
0.000464765
0.000464765
0.000464765
0.000466305
0.000466305
0.000466305
0.000488453
0.000488453
0.000488453
0.000492577
0.000492577
0.000492577
0.000494075
0.000494075
0.000494075
0.000492148
0.000492148
0.000492148
0.000472376
0.000472376
0.000472376
0.000482917
0.000482917
0.000482917
0.000486686
0.000486686
0.000486686
0.000488751
0.000488751
0.000488751
0.000505023
0.000505023
0.000505023
0.000501112
0.000501112
0.000501112
0.000498942
0.000498942
0.000498942
0.000510516
0.000510516
0.000510516
0.000512675
0.000512675
0.000512675
0.000510802
0.000510802
0.000510802
0.000506797
0.000506797
0.000506797
0.000512459
0.000512459
0.000512459
0.000516532
0.000516532
0.000516532
0.000532195
0.000532195
0.000532195
0.000536462
0.000536462
0.000536462
0.00051897
0.00051897
0.00051897
0.000523134
0.000523134
0.000523134
0.000498457
0.000498457
0.000498457
0.00051025
0.00051025
0.00051025
0.000512351
0.000512351
0.000512351
0.000510337
0.000510337
0.000510337
0.000506268
0.000506268
0.000506268
0.000695493
0.000695493
0.000695493
0.000706502
0.000706502
0.000706502
0.000720011
0.000720011
0.000720011
0.000722344
0.000722344
0.000722344
0.000737846
0.000737846
0.000737846
0.000645998
0.000645998
0.000645998
0.00078498
0.00078498
0.00078498
0.000815442
0.000815442
0.000815442
0.000972529
0.000972529
0.000972529
0.000984771
0.000984771
0.000984771
0.000880563
0.000880563
0.000880563
0.000950572
0.000950572
0.000950572
0.000929813
0.000929813
0.000929813
0.00104085
0.00104085
0.00104085
0.0010225
0.0010225
0.0010225
0.00100823
0.00100823
0.00100823
0.00103918
0.00103918
0.00103918
0.000745487
0.000745487
0.000745487
0.000731545
0.000731545
0.000731545
0.000728874
0.000728874
0.000728874
0.00074708
0.00074708
0.00074708
0.000745186
0.000745186
0.000745186
0.000756304
0.000756304
0.000756304
0.000867343
0.000867343
0.000867343
0.000734783
0.000734783
0.000734783
0.000745651
0.000745651
0.000745651
0.000754869
0.000754869
0.000754869
0.000753165
0.000753165
0.000753165
0.000764292
0.000764292
0.000764292
0.000777233
0.000777233
0.000777233
0.000762536
0.000762536
0.000762536
0.000783549
0.000783549
0.000783549
0.000772096
0.000772096
0.000772096
0.000773873
0.000773873
0.000773873
0.00036454
0.00036454
0.00036454
0.000365675
0.000365675
0.000365675
0.000391599
0.000391599
0.000391599
0.000373815
0.000373815
0.000373815
0.000381512
0.000381512
0.000381512
0.000793167
0.000793167
0.000793167
0.000773923
0.000773923
0.000773923
0.000802744
0.000802744
0.000802744
0.000802822
0.000802822
0.000802822
0.000718001
0.000718001
0.000718001
0.000678229
0.000678229
0.000678229
0.000706131
0.000706131
0.000706131
0.00087114
0.00087114
0.00087114
0.00087105
0.00087105
0.00087105
0.00105118
0.00105118
0.00105118
0.00105293
0.00105293
0.00105293
0.00105234
0.00105234
0.00105234
0.000942697
0.000942697
0.000942697
0.000942243
0.000942243
0.000942243
0.00100114
0.00100114
0.00100114
0.00039932
0.00039932
0.00039932
0.000434887
0.000434887
0.000434887
0.000429112
0.000429112
0.000429112
0.000432389
0.000432389
0.000432389
0.000424147
0.000424147
0.000424147
0.000427364
0.000427364
0.000427364
0.000428885
0.000428885
0.000428885
0.000427168
0.000427168
0.000427168
0.000423925
0.000423925
0.000423925
0.000422424
0.000422424
0.000422424
0.000480145
0.000480145
0.000480145
0.000487128
0.000487128
0.000487128
0.000487352
0.000487352
0.000487352
0.000422232
0.000422232
0.000422232
0.000405624
0.000405624
0.000405624
0.000503362
0.000503362
0.000503362
0.00052634
0.00052634
0.00052634
0.000486255
0.000486255
0.000486255
0.000505233
0.000505233
0.000505233
0.000471308
0.000471308
0.000471308
0.000469517
0.000469517
0.000469517
0.000479854
0.000479854
0.000479854
0.000488211
0.000488211
0.000488211
0.00044418
0.00044418
0.00044418
0.000440011
0.000440011
0.000440011
0.000443313
0.000443313
0.000443313
0.000444774
0.000444774
0.000444774
0.000442914
0.000442914
0.000442914
0.000439585
0.000439585
0.000439585
0.000438143
0.000438143
0.000438143
0.000548
0.000548
0.000548
0.000539313
0.000539313
0.000539313
0.000476764
0.000476764
0.000476764
0.000474203
0.000474203
0.000474203
0.00048246
0.00048246
0.00048246
0.00049334
0.00049334
0.00049334
0.000532951
0.000532951
0.000532951
0.000535148
0.000535148
0.000535148
0.000552427
0.000552427
0.000552427
0.000541562
0.000541562
0.000541562
0.000487512
0.000487512
0.000487512
0.000495829
0.000495829
0.000495829
0.00047552
0.00047552
0.00047552
0.000477171
0.000477171
0.000477171
0.00047517
0.00047517
0.00047517
0.00047189
0.00047189
0.00047189
0.000469882
0.000469882
0.000469882
0.000471511
0.000471511
0.000471511
0.000480479
0.000480479
0.000480479
0.000476888
0.000476888
0.000476888
0.000474923
0.000474923
0.000474923
0.000476706
0.000476706
0.000476706
0.000474789
0.000474789
0.000474789
0.000469099
0.000469099
0.000469099
0.00047098
0.00047098
0.00047098
0.000460803
0.000460803
0.000460803
0.000460443
0.000460443
0.000460443
0.000458856
0.000458856
0.000458856
0.00046398
0.00046398
0.00046398
0.000465935
0.000465935
0.000465935
0.000464328
0.000464328
0.000464328
0.000486426
0.000486426
0.000486426
0.00048826
0.00048826
0.00048826
0.000486269
0.000486269
0.000486269
0.000482627
0.000482627
0.000482627
0.000482439
0.000482439
0.000482439
0.000480631
0.000480631
0.000480631
0.000488171
0.000488171
0.000488171
0.00048623
0.00048623
0.00048623
0.000488193
0.000488193
0.000488193
0.000492073
0.000492073
0.000492073
0.00049231
0.00049231
0.00049231
0.000494171
0.000494171
0.000494171
0.000494369
0.000494369
0.000494369
0.000498285
0.000498285
0.000498285
0.000498053
0.000498053
0.000498053
0.000477574
0.000477574
0.000477574
0.000475993
0.000475993
0.000475993
0.000478057
0.000478057
0.000478057
0.000481242
0.000481242
0.000481242
0.000489675
0.000489675
0.000489675
0.000492952
0.000492952
0.000492952
0.000493439
0.000493439
0.000493439
0.000495089
0.000495089
0.000495089
0.000483822
0.000483822
0.000483822
0.000481695
0.000481695
0.000481695
0.000483299
0.000483299
0.000483299
0.000487053
0.000487053
0.000487053
0.000489157
0.000489157
0.000489157
0.00048753
0.00048753
0.00048753
0.000504353
0.000504353
0.000504353
0.000500689
0.000500689
0.000500689
0.000506479
0.000506479
0.000506479
0.000504633
0.000504633
0.000504633
0.000500377
0.000500377
0.000500377
0.000498559
0.000498559
0.000498559
0.000518748
0.000518748
0.000518748
0.000516592
0.000516592
0.000516592
0.000518637
0.000518637
0.000518637
0.000525697
0.000525697
0.000525697
0.000529611
0.000529611
0.000529611
0.000523433
0.000523433
0.000523433
0.000525366
0.000525366
0.000525366
0.000529918
0.000529918
0.000529918
0.000531882
0.000531882
0.000531882
0.000549525
0.000549525
0.000549525
0.000545202
0.000545202
0.000545202
0.000556352
0.000556352
0.000556352
0.000551648
0.000551648
0.000551648
0.000549419
0.000549419
0.000549419
0.000536135
0.000536135
0.000536135
0.000544899
0.000544899
0.000544899
0.000538456
0.000538456
0.000538456
0.000542806
0.000542806
0.000542806
0.000517068
0.000517068
0.000517068
0.000513435
0.000513435
0.000513435
0.000517468
0.000517468
0.000517468
0.000519299
0.000519299
0.000519299
0.000511198
0.000511198
0.000511198
0.000513
0.000513
0.000513
0.000572564
0.000572564
0.000572564
0.000574874
0.000574874
0.000574874
0.000537862
0.000537862
0.000537862
0.000560976
0.000560976
0.000560976
0.000500377
0.000500377
0.000500377
0.000704251
0.000704251
0.000704251
0.0007152
0.0007152
0.0007152
0.000704371
0.000704371
0.000704371
0.000655539
0.000655539
0.000655539
0.00063478
0.00063478
0.00063478
0.000561172
0.000561172
0.000561172
0.000558998
0.000558998
0.000558998
0.000786158
0.000786158
0.000786158
0.000875935
0.000875935
0.000875935
0.00079581
0.00079581
0.00079581
0.000825064
0.000825064
0.000825064
0.000847976
0.000847976
0.000847976
0.000836913
0.000836913
0.000836913
0.000973193
0.000973193
0.000973193
0.000997945
0.000997945
0.000997945
0.0010118
0.0010118
0.0010118
0.00102519
0.00102519
0.00102519
0.000958983
0.000958983
0.000958983
0.00094624
0.00094624
0.00094624
0.000931945
0.000931945
0.000931945
0.000932817
0.000932817
0.000932817
0.000897802
0.000897802
0.000897802
0.000884836
0.000884836
0.000884836
0.00092383
0.00092383
0.00092383
0.000936873
0.000936873
0.000936873
0.000937574
0.000937574
0.000937574
0.000863288
0.000863288
0.000863288
0.000907092
0.000907092
0.000907092
0.000920395
0.000920395
0.000920395
0.000951202
0.000951202
0.000951202
0.000938915
0.000938915
0.000938915
0.000914763
0.000914763
0.000914763
0.000918004
0.000918004
0.000918004
0.000997897
0.000997897
0.000997897
0.000955145
0.000955145
0.000955145
0.00099916
0.00099916
0.00099916
0.00101233
0.00101233
0.00101233
0.000786834
0.000786834
0.000786834
0.000770059
0.000770059
0.000770059
0.000730881
0.000730881
0.000730881
0.000741502
0.000741502
0.000741502
0.000713501
0.000713501
0.000713501
0.000855253
0.000855253
0.000855253
0.000778846
0.000778846
0.000778846
0.000767646
0.000767646
0.000767646
0.00079682
0.00079682
0.00079682
0.00082343
0.00082343
0.00082343
0.000361921
0.000361921
0.000361921
0.000364359
0.000364359
0.000364359
0.000371968
0.000371968
0.000371968
0.000369384
0.000369384
0.000369384
0.000369478
0.000369478
0.000369478
0.000755751
0.000755751
0.000755751
0.000764421
0.000764421
0.000764421
0.000734311
0.000734311
0.000734311
0.000746258
0.000746258
0.000746258
0.000745376
0.000745376
0.000745376
0.00072741
0.00072741
0.00072741
0.000735908
0.000735908
0.000735908
0.000735621
0.000735621
0.000735621
0.000783344
0.000783344
0.000783344
0.000802458
0.000802458
0.000802458
0.000793039
0.000793039
0.000793039
0.000784258
0.000784258
0.000784258
0.000774702
0.000774702
0.000774702
0.000790593
0.000790593
0.000790593
0.000762616
0.000762616
0.000762616
0.000760068
0.000760068
0.000760068
0.000911295
0.000911295
0.000911295
0.000758904
0.000758904
0.000758904
0.000968681
0.000968681
0.000968681
0.000957208
0.000957208
0.000957208
0.000957344
0.000957344
0.000957344
0.000934967
0.000934967
0.000934967
0.000946158
0.000946158
0.000946158
0.000912992
0.000912992
0.000912992
0.000912952
0.000912952
0.000912952
0.00101653
0.00101653
0.00101653
0.000923053
0.000923053
0.000923053
0.000922842
0.000922842
0.000922842
0.000819538
0.000819538
0.000819538
0.000809283
0.000809283
0.000809283
0.000840114
0.000840114
0.000840114
0.000850434
0.000850434
0.000850434
0.000860649
0.000860649
0.000860649
0.000807662
0.000807662
0.000807662
0.000891882
0.000891882
0.000891882
0.000881581
0.000881581
0.000881581
0.000881515
0.000881515
0.000881515
0.000743717
0.000743717
0.000743717
0.000742576
0.000742576
0.000742576
0.000829388
0.000829388
0.000829388
0.000740261
0.000740261
0.000740261
0.000730258
0.000730258
0.000730258
0.000731463
0.000731463
0.000731463
0.000702402
0.000702402
0.000702402
0.000705271
0.000705271
0.000705271
0.000832296
0.000832296
0.000832296
0.000821725
0.000821725
0.000821725
0.00102375
0.00102375
0.00102375
0.00103799
0.00103799
0.00103799
0.00103816
0.00103816
0.00103816
0.00102479
0.00102479
0.00102479
0.00106555
0.00106555
0.00106555
0.00106653
0.00106653
0.00106653
0.00108417
0.00108417
0.00108417
0.00109436
0.00109436
0.00109436
0.00108086
0.00108086
0.00108086
0.00105394
0.00105394
0.00105394
0.00106686
0.00106686
0.00106686
0.00105421
0.00105421
0.00105421
0.000954263
0.000954263
0.000954263
0.000978758
0.000978758
0.000978758
0.000979064
0.000979064
0.000979064
0.000966801
0.000966801
0.000966801
0.000991924
0.000991924
0.000991924
0.00100418
0.00100418
0.00100418
0.000991702
0.000991702
0.000991702
0.00101692
0.00101692
0.00101692
0.000988282
0.000988282
0.000988282
0.000963017
0.000963017
0.000963017
0.00101586
0.00101586
0.00101586
0.00100312
0.00100312
0.00100312
0.00101452
0.00101452
0.00101452
0.00115234
0.00115234
0.00115234
0.00117155
0.00117155
0.00117155
0.00118122
0.00118122
0.00118122
0.00106705
0.00106705
0.00106705
0.00108078
0.00108078
0.00108078
0.00110963
0.00110963
0.00110963
0.001124
0.001124
0.001124
0.00109502
0.00109502
0.00109502
0.0010953
0.0010953
0.0010953
0.000373361
0.000373361
0.000373361
0.000372172
0.000372172
0.000372172
0.000373615
0.000373615
0.000373615
0.000376259
0.000376259
0.000376259
0.000378159
0.000378159
0.000378159
0.000376613
0.000376613
0.000376613
0.000377761
0.000377761
0.000377761
0.000498979
0.000498979
0.000498979
0.00036844
0.00036844
0.00036844
0.000369637
0.000369637
0.000369637
0.000373516
0.000373516
0.000373516
0.000372181
0.000372181
0.000372181
0.000434148
0.000434148
0.000434148
0.000437457
0.000437457
0.000437457
0.000439256
0.000439256
0.000439256
0.000437752
0.000437752
0.000437752
0.000424856
0.000424856
0.000424856
0.000427648
0.000427648
0.000427648
0.000433929
0.000433929
0.000433929
0.000437133
0.000437133
0.000437133
0.000433772
0.000433772
0.000433772
0.000432173
0.000432173
0.000432173
0.000603501
0.000603501
0.000603501
0.000585822
0.000585822
0.000585822
0.000552424
0.000552424
0.000552424
0.000570714
0.000570714
0.000570714
0.000580774
0.000580774
0.000580774
0.000582394
0.000582394
0.000582394
0.000562395
0.000562395
0.000562395
0.000574015
0.000574015
0.000574015
0.000564075
0.000564075
0.000564075
0.00056901
0.00056901
0.00056901
0.000589242
0.000589242
0.000589242
0.000606475
0.000606475
0.000606475
0.000623183
0.000623183
0.000623183
0.00059242
0.00059242
0.00059242
0.000613514
0.000613514
0.000613514
0.00048663
0.00048663
0.00048663
0.000577139
0.000577139
0.000577139
0.000578955
0.000578955
0.000578955
0.000545138
0.000545138
0.000545138
0.0005268
0.0005268
0.0005268
0.000534981
0.000534981
0.000534981
0.000485518
0.000485518
0.000485518
0.000400396
0.000400396
0.000400396
0.000431616
0.000431616
0.000431616
0.000433495
0.000433495
0.000433495
0.000442397
0.000442397
0.000442397
0.000444553
0.000444553
0.000444553
0.000544251
0.000544251
0.000544251
0.000508696
0.000508696
0.000508696
0.000528187
0.000528187
0.000528187
0.000417553
0.000417553
0.000417553
0.000419034
0.000419034
0.000419034
0.000492349
0.000492349
0.000492349
0.000472135
0.000472135
0.000472135
0.000474398
0.000474398
0.000474398
0.000484448
0.000484448
0.000484448
0.000454853
0.000454853
0.000454853
0.00049719
0.00049719
0.00049719
0.000468637
0.000468637
0.000468637
0.000408635
0.000408635
0.000408635
0.000410332
0.000410332
0.000410332
0.000415105
0.000415105
0.000415105
0.000417826
0.000417826
0.000417826
0.000414707
0.000414707
0.000414707
0.000413356
0.000413356
0.000413356
0.000419946
0.000419946
0.000419946
0.000423069
0.000423069
0.000423069
0.000424456
0.000424456
0.000424456
0.000422702
0.000422702
0.000422702
0.000419554
0.000419554
0.000419554
0.000418185
0.000418185
0.000418185
0.000453882
0.000453882
0.000453882
0.000455382
0.000455382
0.000455382
0.000453464
0.000453464
0.000453464
0.000450484
0.000450484
0.000450484
0.000450039
0.000450039
0.000450039
0.000448559
0.000448559
0.000448559
0.000497348
0.000497348
0.000497348
0.000517466
0.000517466
0.000517466
0.000506043
0.000506043
0.000506043
0.000500005
0.000500005
0.000500005
0.000488283
0.000488283
0.000488283
0.000492502
0.000492502
0.000492502
0.000494393
0.000494393
0.000494393
0.000492272
0.000492272
0.000492272
0.000486621
0.000486621
0.000486621
0.000488482
0.000488482
0.000488482
0.000486392
0.000486392
0.000486392
0.000482462
0.000482462
0.000482462
0.000465453
0.000465453
0.000465453
0.000469307
0.000469307
0.000469307
0.000469151
0.000469151
0.000469151
0.000471098
0.000471098
0.000471098
0.000465423
0.000465423
0.000465423
0.000463598
0.000463598
0.000463598
0.000463994
0.000463994
0.000463994
0.000465751
0.000465751
0.000465751
0.000494086
0.000494086
0.000494086
0.000491424
0.000491424
0.000491424
0.000475145
0.000475145
0.000475145
0.00048561
0.00048561
0.00048561
0.00043881
0.00043881
0.00043881
0.000442262
0.000442262
0.000442262
0.000454566
0.000454566
0.000454566
0.000442414
0.000442414
0.000442414
0.000439016
0.000439016
0.000439016
0.00043887
0.00043887
0.00043887
0.000437249
0.000437249
0.000437249
0.000520053
0.000520053
0.000520053
0.000511287
0.000511287
0.000511287
0.000513867
0.000513867
0.000513867
0.000525111
0.000525111
0.000525111
0.00053393
0.00053393
0.00053393
0.000531435
0.000531435
0.000531435
0.000540371
0.000540371
0.000540371
0.000551858
0.000551858
0.000551858
0.000507761
0.000507761
0.000507761
0.000499223
0.000499223
0.000499223
0.00050175
0.00050175
0.00050175
0.000512725
0.000512725
0.000512725
0.000545764
0.000545764
0.000545764
0.000534732
0.000534732
0.000534732
0.000489993
0.000489993
0.000489993
0.000494824
0.000494824
0.000494824
0.000528412
0.000528412
0.000528412
0.000506671
0.000506671
0.000506671
0.000526084
0.000526084
0.000526084
0.000515148
0.000515148
0.000515148
0.000501778
0.000501778
0.000501778
0.000583964
0.000583964
0.000583964
0.000592779
0.000592779
0.000592779
0.000545882
0.000545882
0.000545882
0.00055455
0.00055455
0.00055455
0.000476639
0.000476639
0.000476639
0.000480464
0.000480464
0.000480464
0.000480427
0.000480427
0.000480427
0.000482364
0.000482364
0.000482364
0.000469159
0.000469159
0.000469159
0.000470981
0.000470981
0.000470981
0.000471059
0.000471059
0.000471059
0.000474728
0.000474728
0.000474728
0.000474777
0.000474777
0.000474777
0.000476624
0.000476624
0.000476624
0.000506179
0.000506179
0.000506179
0.000498134
0.000498134
0.000498134
0.000500088
0.000500088
0.000500088
0.000500174
0.000500174
0.000500174
0.000504127
0.000504127
0.000504127
0.000504165
0.000504165
0.000504165
0.000506149
0.000506149
0.000506149
0.000562851
0.000562851
0.000562851
0.000558579
0.000558579