<VTKFile type="UnstructuredGrid" version="1.0">
<UnstructuredGrid>
<Piece NumberOfPoints="8859" NumberOfCells="2953">
<Points>
<DataArray type="Float64" NumberOfComponents="3" format="ascii">
2.75455 1.50245 3.00263
2.76986 1.48714 3.01458
2.75465 1.50235 3.02833
2.78515 1.47185 2.95167
2.78516 1.47184 2.92651
2.8005 1.4565 2.93898
2.76981 1.48719 2.96436
2.78515 1.47185 2.95167
2.78514 1.47186 2.97686
2.72412 1.53288 3.05488
2.73952 1.51748 3.0625
2.70875 1.54825 3.0625
2.72412 1.53288 3.05488
2.73943 1.51757 3.03957
2.73952 1.51748 3.0625
2.75488 1.50212 3.05479
2.77036 1.48664 3.0625
2.73952 1.51748 3.0625
2.75488 1.50212 3.05479
2.73943 1.51757 3.03957
2.75465 1.50235 3.02833
2.73952 1.51748 3.0625
2.73943 1.51757 3.03957
2.75488 1.50212 3.05479
2.75465 1.50235 3.02833
2.76986 1.48714 3.01458
2.76997 1.48703 3.03927
2.76997 1.48703 3.03927
2.75488 1.50212 3.05479
2.75465 1.50235 3.02833
2.77036 1.48664 3.0625
2.75488 1.50212 3.05479
2.76997 1.48703 3.03927
2.76986 1.48714 3.01458
2.75455 1.50245 3.00263
2.76982 1.48718 2.98952
2.76981 1.48719 2.96436
2.78514 1.47186 2.97686
2.76982 1.48718 2.98952
2.7852 1.4718 3.02762
2.76997 1.48703 3.03927
2.76986 1.48714 3.01458
2.8005 1.4565 3.01395
2.8005 1.4565 3.03855
2.7852 1.4718 3.02762
2.8005 1.4565 2.91387
2.8005 1.4565 2.93898
2.78516 1.47184 2.92651
2.78515 1.47185 2.95167
2.8005 1.4565 2.93898
2.8005 1.4565 2.96406
2.8005 1.4565 2.96406
2.78514 1.47186 2.97686
2.78515 1.47185 2.95167
2.8005 1.4565 2.38652
2.8005 1.4565 2.41165
2.78518 1.47182 2.39907
2.78517 1.47183 2.85107
2.8005 1.4565 2.86361
2.78517 1.47183 2.87621
2.8005 1.4565 2.83848
2.8005 1.4565 2.86361
2.78517 1.47183 2.85107
2.78519 1.47181 2.72544
2.8005 1.4565 2.73799
2.78519 1.47181 2.75055
2.32274 1.93426 2.17059
2.33845 1.91855 2.1625
2.33845 1.91855 2.18563
2.27541 1.98159 3.0625
2.24359 2.01341 3.0625
2.25954 1.99746 3.05432
2.78515 1.47185 3.00212
2.76982 1.48718 2.98952
2.78514 1.47186 2.97686
2.76986 1.48714 3.01458
2.76982 1.48718 2.98952
2.78515 1.47185 3.00212
2.78515 1.47185 3.00212
2.7852 1.4718 3.02762
2.76986 1.48714 3.01458
2.8005 1.4565 3.01395
2.7852 1.4718 3.02762
2.78515 1.47185 3.00212
2.78544 1.47156 3.05384
2.8005 1.4565 3.03855
2.8005 1.4565 3.0625
2.78544 1.47156 3.05384
2.7852 1.4718 3.02762
2.8005 1.4565 3.03855
2.8005 1.4565 3.0625
2.77036 1.48664 3.0625
2.78544 1.47156 3.05384
2.77036 1.48664 3.0625
2.76997 1.48703 3.03927
2.78544 1.47156 3.05384
2.76997 1.48703 3.03927
2.7852 1.4718 3.02762
2.78544 1.47156 3.05384
2.78517 1.47183 2.87621
2.8005 1.4565 2.86361
2.8005 1.4565 2.88875
2.78514 1.47186 2.97686
2.8005 1.4565 2.96406
2.8005 1.4565 2.98907
2.8005 1.4565 3.01395
2.78515 1.47185 3.00212
2.8005 1.4565 2.98907
2.8005 1.4565 2.98907
2.78515 1.47185 3.00212
2.78514 1.47186 2.97686
2.8005 1.4565 2.71288
2.8005 1.4565 2.73799
2.78519 1.47181 2.72544
2.78518 1.47182 2.39907
2.8005 1.4565 2.41165
2.78518 1.47182 2.4242
2.76985 1.48715 2.83853
2.75454 1.50246 2.82598
2.76986 1.48714 2.81338
2.78516 1.47184 2.90136
2.8005 1.4565 2.91387
2.78516 1.47184 2.92651
2.78516 1.47184 2.90136
2.8005 1.4565 2.88875
2.8005 1.4565 2.91387
2.78516 1.47184 2.90136
2.76984 1.48716 2.88884
2.78517 1.47183 2.87621
2.78517 1.47183 2.87621
2.8005 1.4565 2.88875
2.78516 1.47184 2.90136
2.76982 1.48718 2.93918
2.78515 1.47185 2.95167
2.76981 1.48719 2.96436
2.76982 1.48718 2.93918
2.78516 1.47184 2.92651
2.78515 1.47185 2.95167
2.75451 1.50249 2.90149
2.7392 1.5178 2.91415
2.73921 1.51779 2.88894
2.53996 1.71704 3.02838
2.52458 1.73242 3.0149
2.53996 1.71704 3.00275
2.49374 1.76326 2.8638
2.49375 1.76325 2.889
2.47832 1.77868 2.87639
2.8005 1.4565 2.1625
2.8005 1.4565 2.18645
2.78544 1.47156 2.17116
2.27543 1.98157 3.03933
2.27541 1.98159 3.0625
2.25954 1.99746 3.05432
2.33845 1.91855 2.96446
2.32276 1.93424 2.97714
2.32275 1.93425 2.95185
2.25954 1.99746 3.05432
2.24359 2.01341 3.0625
2.24374 2.01326 3.03923
2.76987 1.48713 2.487
2.75455 1.50245 2.47443
2.76987 1.48713 2.46188
2.8005 1.4565 2.63759
2.78519 1.47181 2.62505
2.8005 1.4565 2.6125
2.78519 1.47181 2.67524
2.8005 1.4565 2.66269
2.8005 1.4565 2.68778
2.76988 1.48712 2.58741
2.75456 1.50244 2.59995
2.75456 1.50244 2.57486
2.76988 1.48712 2.6125
2.75456 1.50244 2.59995
2.76988 1.48712 2.58741
2.78519 1.47181 2.62505
2.76988 1.48712 2.63759
2.76988 1.48712 2.6125
2.75455 1.50245 2.75057
2.76987 1.48713 2.76312
2.75455 1.50245 2.7757
2.72393 1.53307 2.72547
2.72392 1.53308 2.75059
2.70861 1.54839 2.73803
2.75456 1.50244 2.72545
2.73924 1.51776 2.7129
2.75456 1.50244 2.70035
2.75456 1.50244 2.70035
2.76987 1.48713 2.71289
2.75456 1.50244 2.72545
2.73924 1.51776 2.7129
2.73925 1.51775 2.6878
2.75456 1.50244 2.70035
2.75456 1.50244 2.70035
2.73925 1.51775 2.6878
2.75456 1.50244 2.67524
2.8005 1.4565 2.68778
2.8005 1.4565 2.71288
2.78519 1.47181 2.70034
2.78519 1.47181 2.70034
2.78519 1.47181 2.67524
2.8005 1.4565 2.68778
2.78519 1.47181 2.70034
2.8005 1.4565 2.71288
2.78519 1.47181 2.72544
2.78519 1.47181 2.72544
2.76987 1.48713 2.71289
2.78519 1.47181 2.70034
2.75454 1.50246 2.80083
2.73923 1.51777 2.78828
2.75455 1.50245 2.7757
2.75454 1.50246 2.80083
2.76986 1.48714 2.81338
2.75454 1.50246 2.82598
2.7086 1.5484 2.7883
2.72392 1.53308 2.77572
2.72392 1.53308 2.80086
2.72392 1.53308 2.80086
2.72392 1.53308 2.77572
2.73923 1.51777 2.78828
2.8005 1.4565 2.7631
2.78519 1.47181 2.75055
2.8005 1.4565 2.73799
2.75455 1.50245 2.7757
2.76987 1.48713 2.76312
2.76986 1.48714 2.78825
2.76986 1.48714 2.78825
2.75454 1.50246 2.80083
2.75455 1.50245 2.7757
2.76986 1.48714 2.81338
2.75454 1.50246 2.80083
2.76986 1.48714 2.78825
2.78517 1.47183 2.87621
2.76984 1.48716 2.88884
2.76985 1.48715 2.86368
2.76985 1.48715 2.86368
2.78517 1.47183 2.85107
2.78517 1.47183 2.87621
2.76985 1.48715 2.83853
2.78517 1.47183 2.85107
2.76985 1.48715 2.86368
2.73921 1.51779 2.88894
2.73921 1.51779 2.86375
2.75452 1.50248 2.8763
2.75452 1.50248 2.8763
2.75451 1.50249 2.90149
2.73921 1.51779 2.88894
2.76984 1.48716 2.88884
2.75451 1.50249 2.90149
2.75452 1.50248 2.8763
2.75452 1.50248 2.8763
2.76985 1.48715 2.86368
2.76984 1.48716 2.88884
2.7239 1.5331 2.87638
2.73921 1.51779 2.86375
2.73921 1.51779 2.88894
2.7239 1.5331 2.87638
2.70859 1.54841 2.88901
2.70859 1.54841 2.86381
2.76981 1.48719 2.96436
2.76982 1.48718 2.98952
2.75451 1.50249 2.97722
2.75451 1.50249 2.97722
2.76982 1.48718 2.98952
2.75455 1.50245 3.00263
2.7392 1.5178 2.91415
2.75451 1.50249 2.90149
2.75451 1.50249 2.92669
2.75451 1.50249 2.92669
2.7392 1.5178 2.93937
2.7392 1.5178 2.91415
2.67798 1.57902 2.76317
2.66266 1.59434 2.77575
2.66266 1.59434 2.75061
2.70859 1.54841 2.86381
2.70859 1.54841 2.83862
2.7239 1.5331 2.85119
2.7239 1.5331 2.85119
2.7239 1.5331 2.87638
2.70859 1.54841 2.86381
2.73921 1.51779 2.86375
2.7239 1.5331 2.87638
2.7239 1.5331 2.85119
2.73922 1.51778 2.83858
2.73921 1.51779 2.86375
2.7239 1.5331 2.85119
2.57068 1.68632 3.00276
2.57068 1.68632 3.02839
2.55533 1.70167 3.01491
2.55533 1.70167 3.01491
2.57068 1.68632 3.02839
2.55533 1.70167 3.0395
2.55533 1.70167 3.01491
2.55533 1.70167 3.0395
2.53996 1.71704 3.02838
2.53996 1.71704 3.02838
2.53996 1.71704 3.00275
2.55533 1.70167 3.01491
2.52458 1.73242 2.98984
2.53996 1.71704 3.00275
2.52458 1.73242 3.0149
2.50912 1.74788 2.62505
2.50912 1.74788 2.65015
2.49371 1.76329 2.6376
2.41633 1.84067 2.75056
2.40077 1.85623 2.738
2.41632 1.84068 2.72545
2.41635 1.84065 2.80083
2.40081 1.85619 2.81339
2.40079 1.85621 2.78825
2.33845 1.91855 2.96446
2.32275 1.93425 2.95185
2.33843 1.91857 2.93924
2.33845 1.91855 2.98966
2.32276 1.93424 2.97714
2.33845 1.91855 2.96446
2.40087 1.85613 2.91412
2.40088 1.85612 2.93934
2.38531 1.87169 2.92672
2.30693 1.95007 2.86358
2.32265 1.93435 2.85103
2.32267 1.93433 2.8762
2.30684 1.95016 2.76303
2.29108 1.96592 2.77556
2.29106 1.96594 2.75046
2.32274 1.93426 3.05441
2.33845 1.91855 3.0625
2.30701 1.94999 3.0625
2.33845 1.91855 3.03937
2.33845 1.91855 3.0625
2.32274 1.93426 3.05441
2.35411 1.90289 3.05447
2.33845 1.91855 3.0625
2.33845 1.91855 3.03937
2.30704 1.94996 2.98961
2.30703 1.94997 3.01469
2.29128 1.96572 3.00246
2.55533 1.70167 3.0625
2.52458 1.73242 3.0625
2.53996 1.71704 3.05472
2.53996 1.71704 3.02838
2.55533 1.70167 3.0395
2.53996 1.71704 3.05472
2.53996 1.71704 3.05472
2.55533 1.70167 3.0395
2.55533 1.70167 3.0625
2.52458 1.73242 3.03949
2.52458 1.73242 3.0149
2.53996 1.71704 3.02838
2.53996 1.71704 3.02838
2.53996 1.71704 3.05472
2.52458 1.73242 3.03949
2.52458 1.73242 3.03949
2.53996 1.71704 3.05472
2.52458 1.73242 3.0625
2.41642 1.84058 2.92676
2.40088 1.85612 2.93934
2.40087 1.85613 2.91412
2.47831 1.77869 2.8512
2.49374 1.76326 2.83862
2.49374 1.76326 2.8638
2.49374 1.76326 2.8638
2.47832 1.77868 2.87639
2.47831 1.77869 2.8512
2.47833 1.77867 2.9016
2.47832 1.77868 2.87639
2.49375 1.76325 2.889
2.47833 1.77867 2.9016
2.49375 1.76325 2.889
2.49376 1.76324 2.91421
2.49376 1.76324 2.91421
2.47834 1.77866 2.92682
2.47833 1.77867 2.9016
2.47833 1.77867 2.9016
2.47834 1.77866 2.92682
2.46289 1.79411 2.91419
2.49377 1.76323 2.93943
2.47834 1.77866 2.92682
2.49376 1.76324 2.91421
2.49377 1.76323 2.96464
2.47835 1.77865 2.97734
2.47834 1.77866 2.95206
2.47834 1.77866 2.95206
2.49377 1.76323 2.93943
2.49377 1.76323 2.96464
2.47834 1.77866 2.92682
2.49377 1.76323 2.93943
2.47834 1.77866 2.95206
2.7852 1.4718 2.19738
2.78544 1.47156 2.17116
2.8005 1.4565 2.18645
2.76997 1.48703 2.18573
2.78544 1.47156 2.17116
2.7852 1.4718 2.19738
2.64739 1.60961 2.18548
2.64738 1.60962 2.1625
2.66272 1.59428 2.17021
2.70875 1.54825 2.1625
2.6934 1.5636 2.17017
2.67805 1.57895 2.1625
2.67805 1.57895 2.1625
2.66272 1.59428 2.17021
2.64738 1.60962 2.1625
2.19638 2.06062 2.19897
2.1963 2.0607 2.17286
2.2122 2.0448 2.18645
2.2122 2.0448 2.18645
2.22771 2.02929 2.17101
2.22802 2.02898 2.19745
2.18073 2.07627 2.18782
2.1963 2.0607 2.17286
2.19638 2.06062 2.19897
2.18073 2.07627 2.18782
2.18123 2.07577 2.1625
2.1963 2.0607 2.17286
2.27543 1.98157 2.18567
2.27541 1.98159 2.1625
2.29123 1.96577 2.17063
2.30701 1.94999 2.1625
[...]
<PointData Scalars="View Factor" >
<DataArray type="Float64" Name="View Factor" NumberOfComponents="1" format="ascii">
0.000260487
0.000260487
0.000260487
0.000278639
0.000278639
0.000278639
0.000272482
0.000272482
0.000272482
0.000244404
0.000244404
0.000244404
0.000248502
0.000248502
0.000248502
0.000254583
0.000254583
0.000254583
0.000254639
0.000254639
0.000254639
0.000251904
0.000251904
0.000251904
0.000261014
0.000261014
0.000261014
0.00025804
0.00025804
0.00025804
0.00025868
0.00025868
0.00025868
0.000263457
0.000263457
0.000263457
0.000269458
0.000269458
0.000269458
0.000264447
0.000264447
0.000264447
0.000271323
0.000271323
0.000271323
0.000281751
0.000281751
0.000281751
0.000279091
0.000279091
0.000279091
0.000276002
0.000276002
0.000276002
0.00034564
0.00034564
0.00034564
0.000286722
0.000286722
0.000286722
0.00028993
0.00028993
0.00028993
0.000300833
0.000300833
0.000300833
0.000206705
0.000206705
0.000206705
0.000148996
0.000148996
0.000148996
0.000269923
0.000269923
0.000269923
0.000266923
0.000266923
0.000266923
0.000267379
0.000267379
0.000267379
0.000270838
0.000270838
0.000270838
0.000268831
0.000268831
0.000268831
0.000268307
0.000268307
0.000268307
0.000264689
0.000264689
0.000264689
0.000262089
0.000262089
0.000262089
0.000264891
0.000264891
0.000264891
0.000287171
0.000287171
0.000287171
0.000276464
0.000276464
0.000276464
0.000273873
0.000273873
0.000273873
0.000273414
0.000273414
0.000273414
0.000304218
0.000304218
0.000304218
0.000341736
0.000341736
0.000341736
0.000281617
0.000281617
0.000281617
0.000281308
0.000281308
0.000281308
0.000284444
0.000284444
0.000284444
0.000280377
0.000280377
0.000280377
0.00028399
0.00028399
0.00028399
0.000272014
0.000272014
0.000272014
0.000275089
0.000275089
0.000275089
0.000266482
0.000266482
0.000266482
0.000185192
0.000185192
0.000185192
0.000178918
0.000178918
0.000178918
0.000378476
0.000378476
0.000378476
0.000149127
0.000149127
0.000149127
0.00015259
0.00015259
0.00015259
0.000149726
0.000149726
0.000149726
0.000322761
0.000322761
0.000322761
0.00031627
0.00031627
0.00031627
0.000310172
0.000310172
0.000310172
0.000306748
0.000306748
0.000306748
0.000307262
0.000307262
0.000307262
0.000308284
0.000308284
0.000308284
0.000286591
0.000286591
0.000286591
0.0002741
0.0002741
0.0002741
0.000288323
0.000288323
0.000288323
0.000292182
0.000292182
0.000292182
0.000287778
0.000287778
0.000287778
0.00029113
0.00029113
0.00029113
0.000307178
0.000307178
0.000307178
0.000306727
0.000306727
0.000306727
0.000303763
0.000303763
0.000303763
0.000299902
0.000299902
0.000299902
0.000280103
0.000280103
0.000280103
0.000281122
0.000281122
0.000281122
0.000268856
0.000268856
0.000268856
0.000272599
0.000272599
0.000272599
0.000301293
0.000301293
0.000301293
0.000287103
0.000287103
0.000287103
0.00028385
0.00028385
0.00028385
0.000284353
0.000284353
0.000284353
0.000279905
0.000279905
0.000279905
0.000283076
0.000283076
0.000283076
0.000282609
0.000282609
0.000282609
0.000269029
0.000269029
0.000269029
0.000269549
0.000269549
0.000269549
0.000273156
0.000273156
0.000273156
0.000276278
0.000276278
0.000276278
0.000265408
0.000265408
0.000265408
0.000258183
0.000258183
0.000258183
0.000265962
0.000265962
0.000265962
0.00026295
0.00026295
0.00026295
0.000266993
0.000266993
0.000266993
0.000263947
0.000263947
0.000263947
0.000252583
0.000252583
0.000252583
0.00026066
0.00026066
0.00026066
0.000261238
0.000261238
0.000261238
0.000264874
0.000264874
0.000264874
0.000267973
0.000267973
0.000267973
0.000195429
0.000195429
0.000195429
0.000192832
0.000192832
0.000192832
0.000189436
0.000189436
0.000189436
0.000188601
0.000188601
0.000188601
0.000184375
0.000184375
0.000184375
0.000201872
0.000201872
0.000201872
0.000164606
0.000164606
0.000164606
0.000160793
0.000160793
0.000160793
0.000153194
0.000153194
0.000153194
0.000151768
0.000151768
0.000151768
0.000153501
0.000153501
0.000153501
0.000158668
0.000158668
0.000158668
0.000165307
0.000165307
0.000165307
0.00014742
0.00014742
0.00014742
0.000147617
0.000147617
0.000147617
0.000147404
0.000147404
0.000147404
0.000151068
0.000151068
0.000151068
0.000183835
0.000183835
0.000183835
0.000186813
0.000186813
0.000186813
0.00018771
0.00018771
0.00018771
0.000182647
0.000182647
0.000182647
0.000183436
0.000183436
0.000183436
0.000180985
0.000180985
0.000180985
0.000153353
0.000153353
0.000153353
0.00018062
0.00018062
0.00018062
0.000177967
0.000177967
0.000177967
0.000176288
0.000176288
0.000176288
0.000177234
0.000177234
0.000177234
0.000174623
0.000174623
0.000174623
0.000171081
0.000171081
0.000171081
0.000175558
0.000175558
0.000175558
0.00017135
0.00017135
0.00017135
0.000173911
0.000173911
0.000173911
0.000172976
0.000172976
0.000172976
0.000374302
0.000374302
0.000374302
0.000369581
0.000369581
0.000369581
0.000311526
0.000311526
0.000311526
0.000331702
0.000331702
0.000331702
0.000317273
0.000317273
0.000317273
0.00021023
0.00021023
0.00021023
0.000209399
0.000209399
0.000209399
0.00021068
0.00021068
0.00021068
0.000211938
0.000211938
0.000211938
0.000208214
0.000208214
0.000208214
0.00020761
0.00020761
0.00020761
0.000208504
0.000208504
0.000208504
0.000197863
0.000197863
0.000197863
0.00019667
0.00019667
0.00019667
0.000148078
0.000148078
0.000148078
0.000150484
0.000150484
0.000150484
0.000149677
0.000149677
0.000149677
0.00016652
0.00016652
0.00016652
0.000165591
0.000165591
0.000165591
0.00015622
0.00015622
0.00015622
0.000345171
0.000345171
0.000345171
0.000322517
0.000322517
0.000322517
0.000316445
0.000316445
0.000316445
0.000312824
0.000312824
0.000312824
0.00031958
0.00031958
0.00031958
0.000315919
0.000315919
0.000315919
0.000311743
0.000311743
0.000311743
0.00031118
0.00031118
0.00031118
0.000314842
0.000314842
0.000314842
0.000319059
0.000319059
0.000319059
0.000263868
0.000263868
0.000263868
0.000260299
0.000260299
0.000260299
0.0002599
0.0002599
0.0002599
0.00031427
0.00031427
0.00031427
0.000342211
0.000342211
0.000342211
0.000251225
0.000251225
0.000251225
0.000243607
0.000243607
0.000243607
0.000266469
0.000266469
0.000266469
0.000251516
0.000251516
0.000251516
0.000265791
0.000265791
0.000265791
0.000265093
0.000265093
0.000265093
0.000261132
0.000261132
0.000261132
0.000257896
0.000257896
0.000257896
0.000302694
0.000302694
0.000302694
0.000319375
0.000319375
0.000319375
0.000315809
0.000315809
0.000315809
0.000311793
0.000311793
0.000311793
0.000311296
0.000311296
0.000311296
0.000314857
0.000314857
0.000314857
0.000318913
0.000318913
0.000318913
0.00023656
0.00023656
0.00023656
0.000239714
0.000239714
0.000239714
0.000262963
0.000262963
0.000262963
0.00026369
0.00026369
0.00026369
0.000260425
0.000260425
0.000260425
0.000256445
0.000256445
0.000256445
0.000242059
0.000242059
0.000242059
0.000241207
0.000241207
0.000241207
0.000234872
0.000234872
0.000234872
0.000238882
0.000238882
0.000238882
0.000258944
0.000258944
0.000258944
0.000255692
0.000255692
0.000255692
0.000293677
0.000293677
0.000293677
0.000289872
0.000289872
0.000289872
0.000289364
0.000289364
0.000289364
0.000297009
0.000297009
0.000297009
0.000296533
0.000296533
0.000296533
0.000292692
0.000292692
0.000292692
0.000277917
0.000277917
0.000277917
0.000285544
0.000285544
0.000285544
0.000285019
0.000285019
0.000285019
0.000281181
0.000281181
0.000281181
0.000271673
0.000271673
0.000271673
0.000278845
0.000278845
0.000278845
0.000274935
0.000274935
0.000274935
0.000302828
0.000302828
0.000302828
0.000298426
0.000298426
0.000298426
0.000302343
0.000302343
0.000302343
0.000295026
0.000295026
0.000295026
0.000295539
0.000295539
0.000295539
0.000299418
0.000299418
0.000299418
0.00027956
0.00027956
0.00027956
0.000275796
0.000275796
0.000275796
0.000275243
0.000275243
0.000275243
0.000282808
0.000282808
0.000282808
0.000278479
0.000278479
0.000278479
0.00028228
0.00028228
0.00028228
0.000271463
0.000271463
0.000271463
0.000270876
0.000270876
0.000270876
0.000267079
0.000267079
0.000267079
0.000268272
0.000268272
0.000268272
0.000276888
0.000276888
0.000276888
0.00027316
0.00027316
0.00027316
0.00027741
0.00027741
0.00027741
0.000274235
0.000274235
0.000274235
0.000265716
0.000265716
0.000265716
0.000294175
0.000294175
0.000294175
0.000297962
0.000297962
0.000297962
0.000298403
0.000298403
0.000298403
0.00029087
0.00029087
0.00029087
0.000292721
0.000292721
0.000292721
0.000285313
0.000285313
0.000285313
0.00028948
0.00028948
0.00028948
0.0002858
0.0002858
0.0002858
0.000295545
0.000295545
0.000295545
0.000295081
0.000295081
0.000295081
0.000291331
0.000291331
0.000291331
0.000288086
0.000288086
0.000288086
0.000288562
0.000288562
0.000288562
0.000292277
0.000292277
0.000292277
0.000271629
0.000271629
0.000271629
0.000278947
0.000278947
0.000278947
0.000272146
0.000272146
0.000272146
0.000275787
0.000275787
0.000275787
0.000274772
0.000274772
0.000274772
0.000278449
0.000278449
0.000278449
0.000262895
0.000262895
0.000262895
0.000262342
0.000262342
0.000262342
0.000258741
0.000258741
0.000258741
0.000268485
0.000268485
0.000268485
0.000261452
0.000261452
0.000261452
0.000268005
0.000268005
0.000268005
0.000264466
0.000264466
0.000264466
0.000265468
0.000265468
0.000265468
0.000261962
0.000261962
0.000261962
0.000254176
0.000254176
0.000254176
0.000257051
0.000257051
0.000257051
0.000247829
0.000247829
0.000247829
0.00025076
0.00025076
0.00025076
0.000250182
0.000250182
0.000250182
0.000258974
0.000258974
0.000258974
0.000253098
0.000253098
0.000253098
0.000259479
0.000259479
0.000259479
0.000256545
0.000256545
0.000256545
0.000270566
0.000270566
0.000270566
0.000277727
0.000277727
0.000277727
0.00027462
0.00027462
0.00027462
0.000271058
0.000271058
0.000271058
0.000277256
0.000277256
0.000277256
0.000273662
0.000273662
0.000273662
0.000228396
0.000228396
0.000228396
0.000227594
0.000227594
0.000227594
0.000239801
0.000239801
0.000239801
0.000232196
0.000232196
0.000232196
0.000253248
0.000253248
0.000253248
0.0001939
0.0001939
0.0001939
0.000191075
0.000191075
0.000191075
0.000193571
0.000193571
0.000193571
0.000198928
0.000198928
0.000198928
0.000205816
0.000205816
0.000205816
0.000231732
0.000231732
0.000231732
0.000232589
0.000232589
0.000232589
0.000165464
0.000165464
0.000165464
0.000159938
0.000159938
0.000159938
0.000163883
0.000163883
0.000163883
0.000168626
0.000168626
0.000168626
0.000168142
0.000168142
0.000168142
0.000168833
0.000168833
0.000168833
0.000154024
0.000154024
0.000154024
0.000151162
0.000151162
0.000151162
0.000151395
0.000151395
0.000151395
0.000150819
0.000150819
0.000150819
0.000152977
0.000152977
0.000152977
0.000153585
0.000153585
0.000153585
0.000152575
0.000152575
0.000152575
0.000153385
0.000153385
0.000153385
0.000156944
0.000156944
0.000156944
0.00015676
0.00015676
0.00015676
0.000157349
0.000157349
0.000157349
0.000157569
0.000157569
0.000157569
0.000158428
0.000158428
0.000158428
0.000159753
0.000159753
0.000159753
0.000153832
0.000153832
0.000153832
0.000154015
0.000154015
0.000154015
0.000159542
0.000159542
0.000159542
0.00016017
0.00016017
0.00016017
0.000161445
0.000161445
0.000161445
0.000165953
0.000165953
0.000165953
0.000146799
0.000146799
0.000146799
0.000146257
0.000146257
0.000146257
0.000152824
0.000152824
0.000152824
0.000152231
0.000152231
0.000152231
0.000173758
0.000173758
0.000173758
0.000177623
0.000177623
0.000177623
0.000179404
0.000179404
0.000179404
0.000176693
0.000176693
0.000176693
0.000186014
0.000186014
0.000186014
0.000156445
0.000156445
0.000156445
0.000170117
0.000170117
0.000170117
0.000172711
0.000172711
0.000172711
0.000167877
0.000167877
0.000167877
0.000160939
0.000160939
0.000160939
0.000374991
0.000374991
0.000374991
0.00036902
0.00036902
0.00036902
0.000345867
0.000345867
0.000345867
0.000349862
0.000349862
0.000349862
0.000346152
0.000346152
0.000346152
0.000209741
0.000209741
0.000209741
0.000208982
0.000208982
0.000208982
0.000209593
0.000209593
0.000209593
0.000209335
0.000209335
0.000209335
0.000208185
0.000208185
0.000208185
0.000208571
0.000208571
0.000208571
0.000207804
0.000207804
0.000207804
0.000206528
0.000206528
0.000206528
0.000208507
0.000208507
0.000208507
0.000208122
0.000208122
0.000208122
0.000208927
0.000208927
0.000208927
0.000211013
0.000211013
0.000211013
0.000210603
0.000210603
0.000210603
0.000212157
0.000212157
0.000212157
0.000210825
0.000210825
0.000210825
0.000196993
0.000196993
0.000196993
0.000177299
0.000177299
0.000177299
0.000194741
0.000194741
0.000194741
0.000184721
0.000184721
0.000184721
0.000186503
0.000186503
0.000186503
0.000185374
0.000185374
0.000185374
0.000185581
0.000185581
0.000185581
0.000184915
0.000184915
0.000184915
0.000193842
0.000193842
0.000193842
0.000186942
0.000186942
0.000186942
0.00017673
0.00017673
0.00017673
0.000178698
0.000178698
0.000178698
0.00017766
0.00017766
0.00017766
0.000195701
0.000195701
0.000195701
0.000195317
0.000195317
0.000195317
0.000196517
0.000196517
0.000196517
0.000196949
0.000196949
0.000196949
0.000196213
0.000196213
0.000196213
0.000190816
0.000190816
0.000190816
0.000197634
0.000197634
0.000197634
0.000199559
0.000199559
0.000199559
0.000198346
0.000198346
0.000198346
0.000176376
0.000176376
0.000176376
0.000175445
0.000175445
0.000175445
0.000173263
0.000173263
0.000173263
0.000173606
0.000173606
0.000173606
0.000174379
0.000174379
0.000174379
0.000175298
0.000175298
0.000175298
0.000182148
0.000182148
0.000182148
0.00017994
0.00017994
0.00017994
0.000177133
0.000177133
0.000177133
0.000177851
0.000177851
0.000177851
0.000148355
0.000148355
0.000148355
0.000148584
0.000148584
0.000148584
0.00014943
0.00014943
0.00014943
0.000149991
0.000149991
0.000149991
0.000148324
0.000148324
0.000148324
0.000149075
0.000149075
0.000149075
0.000148166
0.000148166
0.000148166
0.000148846
0.000148846
0.000148846
0.000149339
0.000149339
0.000149339
0.000172815
0.000172815
0.000172815
0.000171193
0.000171193
0.000171193
0.000171783
0.000171783
0.000171783
0.000164957
0.000164957
0.000164957
0.000163702
0.000163702
0.000163702
0.000164631
0.000164631
0.000164631
0.00016526
0.00016526
0.00016526
0.000165902
0.000165902
0.000165902
0.000164347
0.000164347
0.000164347
0.000164953
0.000164953
0.000164953
0.000164688
0.000164688
0.000164688
0.000156822
0.000156822
0.000156822
0.000158047
0.000158047
0.000158047
0.000160055
0.000160055
0.000160055
0.000160647
0.000160647
0.000160647
0.000156494
0.000156494
0.000156494
0.000150047
0.000150047
0.000150047
0.000149949
0.000149949
0.000149949
0.000150719
0.000150719
0.000150719
0.00015075
0.00015075
0.00015075
0.000150206
0.000150206
0.000150206
0.000149902
0.000149902
0.000149902
0.000150201
0.000150201
0.000150201
0.000150489
0.000150489
0.000150489
0.000151324
0.000151324
0.000151324
0.000341092
0.000341092
0.000341092
0.00034027
0.00034027
0.00034027
0.00033547
0.00033547
0.00033547
0.000331538
0.000331538
0.000331538
0.000321089
0.000321089
0.000321089
0.000325877
0.000325877
0.000325877
0.000326769
0.000326769
0.000326769
0.000255721
0.000255721
0.000255721
0.00036522
0.00036522
0.00036522
0.000360521
0.000360521
0.000360521
0.000346359
0.000346359
0.000346359
0.000351087
0.000351087
0.000351087
0.000313342
0.000313342
0.000313342
0.000309768
0.000309768
0.000309768
0.000310297
0.000310297
0.000310297
0.000314371
0.000314371
0.000314371
0.000328919
0.000328919
0.000328919
0.000320602
0.000320602
0.000320602
0.00030869
0.00030869
0.00030869
0.00030043
0.00030043
0.00030043
0.000303987
0.000303987
0.000303987
0.000308141
0.000308141
0.000308141
0.000214972
0.000214972
0.000214972
0.000221219
0.000221219
0.000221219
0.000232402
0.000232402
0.000232402
0.00022478
0.00022478
0.00022478
0.000220466
0.000220466
0.000220466
0.000219396
0.000219396
0.000219396
0.000228066
0.000228066
0.000228066
0.000222668
0.000222668
0.000222668
0.000227025
0.000227025
0.000227025
0.000225819
0.000225819
0.000225819
0.000217231
0.000217231
0.000217231
0.000210845
0.000210845
0.000210845
0.000196773
0.000196773
0.000196773
0.000215063
0.000215063
0.000215063
0.000201282
0.000201282
0.000201282
0.000261043
0.000261043
0.000261043
0.000224369
0.000224369
0.000224369
0.00022339
0.00022339
0.00022339
0.000236349
0.000236349
0.000236349
0.000243923
0.000243923
0.000243923
0.000240602
0.000240602
0.000240602
0.000261266
0.000261266
0.000261266
0.000306747
0.000306747
0.000306747
0.00028955
0.00028955
0.00028955
0.000288732
0.000288732
0.000288732
0.000283988
0.000283988
0.000283988
0.000282901
0.000282901
0.000282901
0.00023574
0.00023574
0.00023574
0.000251313
0.000251313
0.000251313
0.000242506
0.000242506
0.000242506
0.000322226
0.000322226
0.000322226
0.000317966
0.000317966
0.000317966
0.000258466
0.000258466
0.000258466
0.000266953
0.000266953
0.000266953
0.000266151
0.000266151
0.000266151
0.000261888
0.000261888
0.000261888
0.000273482
0.000273482
0.000273482
0.000255862
0.000255862
0.000255862
0.00026628
0.00026628
0.00026628
0.000338372
0.000338372
0.000338372
0.000338825
0.000338825
0.000338825
0.000335481
0.000335481
0.000335481
0.000327003
0.000327003
0.000327003
0.000330737
0.000330737
0.000330737
0.000335002
0.000335002
0.000335002
0.00033218
0.00033218
0.00033218
0.000328454
0.000328454
0.000328454
0.000324275
0.000324275
0.000324275
0.000323779
0.000323779
0.000323779
0.0003275
0.0003275
0.0003275
0.000331721
0.000331721
0.000331721
0.000309708
0.000309708
0.000309708
0.00030577
0.00030577
0.00030577
0.000305283
0.000305283
0.000305283
0.000313203
0.000313203
0.000313203
0.000308767
0.000308767
0.000308767
0.000312743
0.000312743
0.000312743
0.00025365
0.00025365
0.00025365
0.000246696
0.000246696
0.000246696
0.000250521
0.000250521
0.000250521
0.000252947
0.000252947
0.000252947
0.000262656
0.000262656
0.000262656
0.000255034
0.000255034
0.000255034
0.000255704
0.000255704
0.000255704
0.000259496
0.000259496
0.000259496
0.000257497
0.000257497
0.000257497
0.000258176
0.000258176
0.000258176
0.000262006
0.000262006
0.000262006
0.000265194
0.000265194
0.000265194
0.000277629
0.000277629
0.000277629
0.000269736
0.000269736
0.000269736
0.000274314
0.000274314
0.000274314
0.000270387
0.000270387
0.000270387
0.000282179
0.000282179
0.000282179
0.000281578
0.000281578
0.000281578
0.000267692
0.000267692
0.000267692
0.000268383
0.000268383
0.000268383
0.000255417
0.000255417
0.000255417
0.00025612
0.00025612
0.00025612
0.000262542
0.000262542
0.000262542
0.000258619
0.000258619
0.000258619
0.0002963
0.0002963
0.0002963
0.000292794
0.000292794
0.000292794
0.000283085
0.000283085
0.000283085
0.000302143
0.000302143
0.000302143
0.000305674
0.000305674
0.000305674
0.000301008
0.000301008
0.000301008
0.000305121
0.000305121
0.000305121
0.000245967
0.000245967
0.000245967
0.000249084
0.000249084
0.000249084
0.000248361
0.000248361
0.000248361
0.000244481
0.000244481
0.000244481
0.000241362
0.000241362
0.000241362
0.000242125
0.000242125
0.000242125
0.000239043
0.000239043
0.000239043
0.000235222
0.000235222
0.000235222
0.000250767
0.000250767
0.000250767
0.000253956
0.000253956
0.000253956
0.000253223
0.000253223
0.000253223
0.000249265
0.000249265
0.000249265
0.000237396
0.000237396
0.000237396
0.000241349
0.000241349
0.000241349
0.000258191
0.000258191
0.000258191
0.000256661
0.000256661
0.000256661
0.000243706
0.000243706
0.000243706
0.000251696
0.000251696
0.000251696
0.000244511
0.000244511
0.000244511
0.000248486
0.000248486
0.000248486
0.000254258
0.000254258
0.000254258
0.000222182
0.000222182
0.000222182
0.000219057
0.000219057
0.000219057
0.000237157
0.000237157
0.000237157
0.000233999
0.000233999
0.000233999
0.000272296
0.000272296
0.000272296
0.000269044
0.000269044
0.000269044
0.000273504
0.000273504
0.000273504
0.000269669
0.000269669
0.000269669
0.000283335
0.000283335
0.000283335
0.000279442
0.000279442
0.000279442
0.000283903
0.000283903
0.000283903
0.000276168
0.000276168
0.000276168
0.00028061
0.00028061
0.00028061
0.000276756
0.000276756
0.000276756
0.000259484
0.000259484
0.000259484
0.000270009
0.000270009
0.000270009
0.000266301
0.000266301
0.000266301
0.000270544
0.000270544
0.000270544
0.00026317
0.00026317
0.00026317
0.000267407
0.000267407
0.000267407