<VTKFile type="UnstructuredGrid" version="1.0">
<UnstructuredGrid>
<Piece NumberOfPoints="8859" NumberOfCells="2953">
<Points>
<DataArray type="Float64" NumberOfComponents="3" format="ascii">
2.04744 2.20956 4.04763
2.06275 2.19425 4.05958
2.04754 2.20946 4.07333
2.07804 2.17896 3.99667
2.07805 2.17895 3.97151
2.0934 2.1636 3.98398
2.06271 2.19429 4.00936
2.07804 2.17896 3.99667
2.07804 2.17896 4.02186
2.01701 2.23999 4.09988
2.03242 2.22458 4.1075
2.00164 2.25536 4.1075
2.01701 2.23999 4.09988
2.03232 2.22468 4.08457
2.03242 2.22458 4.1075
2.04777 2.20923 4.09979
2.06326 2.19374 4.1075
2.03242 2.22458 4.1075
2.04777 2.20923 4.09979
2.03232 2.22468 4.08457
2.04754 2.20946 4.07333
2.03242 2.22458 4.1075
2.03232 2.22468 4.08457
2.04777 2.20923 4.09979
2.04754 2.20946 4.07333
2.06275 2.19425 4.05958
2.06287 2.19413 4.08427
2.06287 2.19413 4.08427
2.04777 2.20923 4.09979
2.04754 2.20946 4.07333
2.06326 2.19374 4.1075
2.04777 2.20923 4.09979
2.06287 2.19413 4.08427
2.06275 2.19425 4.05958
2.04744 2.20956 4.04763
2.06271 2.19429 4.03452
2.06271 2.19429 4.00936
2.07804 2.17896 4.02186
2.06271 2.19429 4.03452
2.07809 2.17891 4.07262
2.06287 2.19413 4.08427
2.06275 2.19425 4.05958
2.0934 2.1636 4.05895
2.0934 2.1636 4.08355
2.07809 2.17891 4.07262
2.0934 2.1636 3.95887
2.0934 2.1636 3.98398
2.07805 2.17895 3.97151
2.07804 2.17896 3.99667
2.0934 2.1636 3.98398
2.0934 2.1636 4.00906
2.0934 2.1636 4.00906
2.07804 2.17896 4.02186
2.07804 2.17896 3.99667
2.0934 2.1636 3.43152
2.0934 2.1636 3.45665
2.07807 2.17893 3.44407
2.07807 2.17893 3.89607
2.0934 2.1636 3.90861
2.07806 2.17894 3.92121
2.0934 2.1636 3.88348
2.0934 2.1636 3.90861
2.07807 2.17893 3.89607
2.07808 2.17892 3.77044
2.0934 2.1636 3.78299
2.07808 2.17892 3.79555
1.61564 2.64136 3.21559
1.63134 2.62566 3.2075
1.63134 2.62566 3.23063
1.5683 2.6887 4.1075
1.53648 2.72052 4.1075
1.55243 2.70457 4.09932
2.07804 2.17896 4.04712
2.06271 2.19429 4.03452
2.07804 2.17896 4.02186
2.06275 2.19425 4.05958
2.06271 2.19429 4.03452
2.07804 2.17896 4.04712
2.07804 2.17896 4.04712
2.07809 2.17891 4.07262
2.06275 2.19425 4.05958
2.0934 2.1636 4.05895
2.07809 2.17891 4.07262
2.07804 2.17896 4.04712
2.07833 2.17867 4.09884
2.0934 2.1636 4.08355
2.0934 2.1636 4.1075
2.07833 2.17867 4.09884
2.07809 2.17891 4.07262
2.0934 2.1636 4.08355
2.0934 2.1636 4.1075
2.06326 2.19374 4.1075
2.07833 2.17867 4.09884
2.06326 2.19374 4.1075
2.06287 2.19413 4.08427
2.07833 2.17867 4.09884
2.06287 2.19413 4.08427
2.07809 2.17891 4.07262
2.07833 2.17867 4.09884
2.07806 2.17894 3.92121
2.0934 2.1636 3.90861
2.0934 2.1636 3.93375
2.07804 2.17896 4.02186
2.0934 2.1636 4.00906
2.0934 2.1636 4.03407
2.0934 2.1636 4.05895
2.07804 2.17896 4.04712
2.0934 2.1636 4.03407
2.0934 2.1636 4.03407
2.07804 2.17896 4.04712
2.07804 2.17896 4.02186
2.0934 2.1636 3.75788
2.0934 2.1636 3.78299
2.07808 2.17892 3.77044
2.07807 2.17893 3.44407
2.0934 2.1636 3.45665
2.07807 2.17893 3.4692
2.06275 2.19425 3.88353
2.04743 2.20957 3.87098
2.06275 2.19425 3.85838
2.07806 2.17894 3.94636
2.0934 2.1636 3.95887
2.07805 2.17895 3.97151
2.07806 2.17894 3.94636
2.0934 2.1636 3.93375
2.0934 2.1636 3.95887
2.07806 2.17894 3.94636
2.06273 2.19427 3.93384
2.07806 2.17894 3.92121
2.07806 2.17894 3.92121
2.0934 2.1636 3.93375
2.07806 2.17894 3.94636
2.06271 2.19429 3.98418
2.07804 2.17896 3.99667
2.06271 2.19429 4.00936
2.06271 2.19429 3.98418
2.07805 2.17895 3.97151
2.07804 2.17896 3.99667
2.04741 2.20959 3.94649
2.03209 2.22491 3.95915
2.0321 2.2249 3.93394
1.83285 2.42415 4.07338
1.81747 2.43953 4.0599
1.83285 2.42415 4.04775
1.78664 2.47036 3.9088
1.78664 2.47036 3.934
1.77121 2.48579 3.92139
2.0934 2.1636 3.2075
2.0934 2.1636 3.23145
2.07833 2.17867 3.21616
1.56833 2.68867 4.08433
1.5683 2.6887 4.1075
1.55243 2.70457 4.09932
1.63134 2.62566 4.00946
1.61565 2.64135 4.02214
1.61564 2.64136 3.99685
1.55243 2.70457 4.09932
1.53648 2.72052 4.1075
1.53664 2.72036 4.08423
2.06276 2.19424 3.532
2.04745 2.20955 3.51943
2.06276 2.19424 3.50688
2.0934 2.1636 3.68259
2.07808 2.17892 3.67005
2.0934 2.1636 3.6575
2.07808 2.17892 3.72024
2.0934 2.1636 3.70769
2.0934 2.1636 3.73278
2.06277 2.19423 3.63241
2.04745 2.20955 3.64495
2.04745 2.20955 3.61986
2.06277 2.19423 3.6575
2.04745 2.20955 3.64495
2.06277 2.19423 3.63241
2.07808 2.17892 3.67005
2.06277 2.19423 3.68259
2.06277 2.19423 3.6575
2.04745 2.20955 3.79557
2.06276 2.19424 3.80812
2.04744 2.20956 3.8207
2.01682 2.24018 3.77047
2.01682 2.24018 3.79559
2.0015 2.2555 3.78303
2.04745 2.20955 3.77045
2.03214 2.22486 3.7579
2.04745 2.20955 3.74535
2.04745 2.20955 3.74535
2.06277 2.19423 3.75789
2.04745 2.20955 3.77045
2.03214 2.22486 3.7579
2.03214 2.22486 3.7328
2.04745 2.20955 3.74535
2.04745 2.20955 3.74535
2.03214 2.22486 3.7328
2.04745 2.20955 3.72024
2.0934 2.1636 3.73278
2.0934 2.1636 3.75788
2.07808 2.17892 3.74534
2.07808 2.17892 3.74534
2.07808 2.17892 3.72024
2.0934 2.1636 3.73278
2.07808 2.17892 3.74534
2.0934 2.1636 3.75788
2.07808 2.17892 3.77044
2.07808 2.17892 3.77044
2.06277 2.19423 3.75789
2.07808 2.17892 3.74534
2.04744 2.20956 3.84583
2.03213 2.22487 3.83328
2.04744 2.20956 3.8207
2.04744 2.20956 3.84583
2.06275 2.19425 3.85838
2.04743 2.20957 3.87098
2.0015 2.2555 3.8333
2.01681 2.24019 3.82072
2.01681 2.24019 3.84586
2.01681 2.24019 3.84586
2.01681 2.24019 3.82072
2.03213 2.22487 3.83328
2.0934 2.1636 3.8081
2.07808 2.17892 3.79555
2.0934 2.1636 3.78299
2.04744 2.20956 3.8207
2.06276 2.19424 3.80812
2.06276 2.19424 3.83325
2.06276 2.19424 3.83325
2.04744 2.20956 3.84583
2.04744 2.20956 3.8207
2.06275 2.19425 3.85838
2.04744 2.20956 3.84583
2.06276 2.19424 3.83325
2.07806 2.17894 3.92121
2.06273 2.19427 3.93384
2.06274 2.19426 3.90868
2.06274 2.19426 3.90868
2.07807 2.17893 3.89607
2.07806 2.17894 3.92121
2.06275 2.19425 3.88353
2.07807 2.17893 3.89607
2.06274 2.19426 3.90868
2.0321 2.2249 3.93394
2.03211 2.22489 3.90875
2.04742 2.20958 3.9213
2.04742 2.20958 3.9213
2.04741 2.20959 3.94649
2.0321 2.2249 3.93394
2.06273 2.19427 3.93384
2.04741 2.20959 3.94649
2.04742 2.20958 3.9213
2.04742 2.20958 3.9213
2.06274 2.19426 3.90868
2.06273 2.19427 3.93384
2.01679 2.24021 3.92138
2.03211 2.22489 3.90875
2.0321 2.2249 3.93394
2.01679 2.24021 3.92138
2.00148 2.25552 3.93401
2.00148 2.25552 3.90881
2.06271 2.19429 4.00936
2.06271 2.19429 4.03452
2.04741 2.20959 4.02222
2.04741 2.20959 4.02222
2.06271 2.19429 4.03452
2.04744 2.20956 4.04763
2.03209 2.22491 3.95915
2.04741 2.20959 3.94649
2.0474 2.2096 3.97169
2.0474 2.2096 3.97169
2.03209 2.22491 3.98437
2.03209 2.22491 3.95915
1.97087 2.28613 3.80817
1.95555 2.30145 3.82075
1.95555 2.30145 3.79561
2.00148 2.25552 3.90881
2.00149 2.25551 3.88362
2.0168 2.2402 3.89619
2.0168 2.2402 3.89619
2.01679 2.24021 3.92138
2.00148 2.25552 3.90881
2.03211 2.22489 3.90875
2.01679 2.24021 3.92138
2.0168 2.2402 3.89619
2.03211 2.22489 3.88358
2.03211 2.22489 3.90875
2.0168 2.2402 3.89619
1.86358 2.39342 4.04776
1.86358 2.39342 4.07339
1.84822 2.40878 4.05991
1.84822 2.40878 4.05991
1.86358 2.39342 4.07339
1.84822 2.40878 4.0845
1.84822 2.40878 4.05991
1.84822 2.40878 4.0845
1.83285 2.42415 4.07338
1.83285 2.42415 4.07338
1.83285 2.42415 4.04775
1.84822 2.40878 4.05991
1.81747 2.43953 4.03484
1.83285 2.42415 4.04775
1.81747 2.43953 4.0599
1.80202 2.45498 3.67005
1.80202 2.45498 3.69515
1.7866 2.4704 3.6826
1.70922 2.54778 3.79556
1.69367 2.56333 3.783
1.70922 2.54778 3.77045
1.70924 2.54776 3.84583
1.6937 2.5633 3.85839
1.69369 2.56331 3.83325
1.63134 2.62566 4.00946
1.61564 2.64136 3.99685
1.63132 2.62568 3.98424
1.63135 2.62565 4.03466
1.61565 2.64135 4.02214
1.63134 2.62566 4.00946
1.69376 2.56324 3.95912
1.69378 2.56322 3.98434
1.6782 2.5788 3.97172
1.59983 2.65717 3.90858
1.61554 2.64146 3.89603
1.61557 2.64143 3.9212
1.59973 2.65727 3.80803
1.58397 2.67303 3.82056
1.58396 2.67304 3.79546
1.61564 2.64136 4.09941
1.63134 2.62566 4.1075
1.5999 2.6571 4.1075
1.63134 2.62566 4.08437
1.63134 2.62566 4.1075
1.61564 2.64136 4.09941
1.647 2.61 4.09947
1.63134 2.62566 4.1075
1.63134 2.62566 4.08437
1.59993 2.65707 4.03461
1.59992 2.65708 4.05969
1.58418 2.67282 4.04746
1.84822 2.40878 4.1075
1.81747 2.43953 4.1075
1.83285 2.42415 4.09972
1.83285 2.42415 4.07338
1.84822 2.40878 4.0845
1.83285 2.42415 4.09972
1.83285 2.42415 4.09972
1.84822 2.40878 4.0845
1.84822 2.40878 4.1075
1.81747 2.43953 4.08449
1.81747 2.43953 4.0599
1.83285 2.42415 4.07338
1.83285 2.42415 4.07338
1.83285 2.42415 4.09972
1.81747 2.43953 4.08449
1.81747 2.43953 4.08449
1.83285 2.42415 4.09972
1.81747 2.43953 4.1075
1.70931 2.54769 3.97176
1.69378 2.56322 3.98434
1.69376 2.56324 3.95912
1.7712 2.4858 3.8962
1.78663 2.47037 3.88362
1.78664 2.47036 3.9088
1.78664 2.47036 3.9088
1.77121 2.48579 3.92139
1.7712 2.4858 3.8962
1.77122 2.48578 3.9466
1.77121 2.48579 3.92139
1.78664 2.47036 3.934
1.77122 2.48578 3.9466
1.78664 2.47036 3.934
1.78665 2.47035 3.95921
1.78665 2.47035 3.95921
1.77123 2.48577 3.97182
1.77122 2.48578 3.9466
1.77122 2.48578 3.9466
1.77123 2.48577 3.97182
1.75578 2.50122 3.95919
1.78666 2.47034 3.98443
1.77123 2.48577 3.97182
1.78665 2.47035 3.95921
1.78666 2.47034 4.00964
1.77124 2.48576 4.02234
1.77124 2.48576 3.99706
1.77124 2.48576 3.99706
1.78666 2.47034 3.98443
1.78666 2.47034 4.00964
1.77123 2.48577 3.97182
1.78666 2.47034 3.98443
1.77124 2.48576 3.99706
2.07809 2.17891 3.24238
2.07833 2.17867 3.21616
2.0934 2.1636 3.23145
2.06287 2.19413 3.23073
2.07833 2.17867 3.21616
2.07809 2.17891 3.24238
1.94028 2.31672 3.23048
1.94028 2.31672 3.2075
1.95561 2.30139 3.21521
2.00164 2.25536 3.2075
1.98629 2.27071 3.21517
1.97095 2.28605 3.2075
1.97095 2.28605 3.2075
1.95561 2.30139 3.21521
1.94028 2.31672 3.2075
1.48928 2.76772 3.24397
1.48919 2.76781 3.21786
1.50509 2.75191 3.23145
1.50509 2.75191 3.23145
1.5206 2.7364 3.21601
1.52092 2.73608 3.24245
1.47362 2.78338 3.23282
1.48919 2.76781 3.21786
1.48928 2.76772 3.24397
1.47362 2.78338 3.23282
1.47412 2.78288 3.2075
1.48919 2.76781 3.21786
1.56833 2.68867 3.23067
1.5683 2.6887 3.2075
1.58412 2.67288 3.21563
[...]
<PointData Scalars="View Factor" >
<DataArray type="Float64" Name="View Factor" NumberOfComponents="1" format="ascii">
0.000101959
0.000101959
0.000101959
9.85587e-05
9.85587e-05
9.85587e-05
9.96698e-05
9.96698e-05
9.96698e-05
0.000104613
0.000104613
0.000104613
0.000104016
0.000104016
0.000104016
0.000103619
0.000103619
0.000103619
0.000103142
0.000103142
0.000103142
0.000103691
0.000103691
0.000103691
0.000102216
0.000102216
0.000102216
0.000102826
0.000102826
0.000102826
0.000103051
0.000103051
0.000103051
0.000101373
0.000101373
0.000101373
0.000100232
0.000100232
0.000100232
0.000101904
0.000101904
0.000101904
0.000101297
0.000101297
0.000101297
9.80107e-05
9.80107e-05
9.80107e-05
9.88215e-05
9.88215e-05
9.88215e-05
9.93758e-05
9.93758e-05
9.93758e-05
8.27441e-05
8.27441e-05
8.27441e-05
9.61568e-05
9.61568e-05
9.61568e-05
9.56256e-05
9.56256e-05
9.56256e-05
9.2315e-05
9.2315e-05
9.2315e-05
0.000139824
0.000139824
0.000139824
0.000203999
0.000203999
0.000203999
0.000100504
0.000100504
0.000100504
0.000101066
0.000101066
0.000101066
0.000101335
0.000101335
0.000101335
0.000101033
0.000101033
0.000101033
0.000102133
0.000102133
0.000102133
0.000101887
0.000101887
0.000101887
0.000102695
0.000102695
0.000102695
0.000102733
0.000102733
0.000102733
0.000102192
0.000102192
0.000102192
9.64126e-05
9.64126e-05
9.64126e-05
9.96399e-05
9.96399e-05
9.96399e-05
0.000100465
0.000100465
0.000100465
0.000100206
0.000100206
0.000100206
9.18098e-05
9.18098e-05
9.18098e-05
8.31907e-05
8.31907e-05
8.31907e-05
9.56851e-05
9.56851e-05
9.56851e-05
9.77499e-05
9.77499e-05
9.77499e-05
9.72077e-05
9.72077e-05
9.72077e-05
9.72332e-05
9.72332e-05
9.72332e-05
9.69493e-05
9.69493e-05
9.69493e-05
9.94058e-05
9.94058e-05
9.94058e-05
9.8849e-05
9.8849e-05
9.8849e-05
9.8672e-05
9.8672e-05
9.8672e-05
0.000135907
0.000135907
0.000135907
0.00014019
0.00014019
0.00014019
7.71167e-05
7.71167e-05
7.71167e-05
0.000200935
0.000200935
0.000200935
0.000181657
0.000181657
0.000181657
0.000206029
0.000206029
0.000206029
8.54776e-05
8.54776e-05
8.54776e-05
8.88953e-05
8.88953e-05
8.88953e-05
9.03377e-05
9.03377e-05
9.03377e-05
8.87317e-05
8.87317e-05
8.87317e-05
8.89594e-05
8.89594e-05
8.89594e-05
8.94117e-05
8.94117e-05
8.94117e-05
9.38943e-05
9.38943e-05
9.38943e-05
9.4292e-05
9.4292e-05
9.4292e-05
9.26624e-05
9.26624e-05
9.26624e-05
9.23825e-05
9.23825e-05
9.23825e-05
9.24292e-05
9.24292e-05
9.24292e-05
9.19112e-05
9.19112e-05
9.19112e-05
9.107e-05
9.107e-05
9.107e-05
9.08332e-05
9.08332e-05
9.08332e-05
9.15703e-05
9.15703e-05
9.15703e-05
9.18364e-05
9.18364e-05
9.18364e-05
9.49497e-05
9.49497e-05
9.49497e-05
9.54381e-05
9.54381e-05
9.54381e-05
9.58409e-05
9.58409e-05
9.58409e-05
9.55391e-05
9.55391e-05
9.55391e-05
9.25572e-05
9.25572e-05
9.25572e-05
9.41358e-05
9.41358e-05
9.41358e-05
9.46621e-05
9.46621e-05
9.46621e-05
9.49064e-05
9.49064e-05
9.49064e-05
9.69776e-05
9.69776e-05
9.69776e-05
9.64378e-05
9.64378e-05
9.64378e-05
9.6185e-05
9.6185e-05
9.6185e-05
9.78621e-05
9.78621e-05
9.78621e-05
9.81148e-05
9.81148e-05
9.81148e-05
9.78161e-05
9.78161e-05
9.78161e-05
9.72676e-05
9.72676e-05
9.72676e-05
9.81667e-05
9.81667e-05
9.81667e-05
9.8795e-05
9.8795e-05
9.8795e-05
0.000100536
0.000100536
0.000100536
0.000101106
0.000101106
0.000101106
9.89277e-05
9.89277e-05
9.89277e-05
9.94908e-05
9.94908e-05
9.94908e-05
9.66275e-05
9.66275e-05
9.66275e-05
9.79759e-05
9.79759e-05
9.79759e-05
9.82272e-05
9.82272e-05
9.82272e-05
9.79169e-05
9.79169e-05
9.79169e-05
9.73626e-05
9.73626e-05
9.73626e-05
0.000128695
0.000128695
0.000128695
0.000130432
0.000130432
0.000130432
0.000132844
0.000132844
0.000132844
0.000133501
0.000133501
0.000133501
0.000136534
0.000136534
0.000136534
0.000126498
0.000126498
0.000126498
0.000150653
0.000150653
0.000150653
0.000154906
0.000154906
0.000154906
0.000179684
0.000179684
0.000179684
0.000181183
0.000181183
0.000181183
0.000163825
0.000163825
0.000163825
0.000178069
0.000178069
0.000178069
0.000176881
0.000176881
0.000176881
0.000188781
0.000188781
0.000188781
0.00018578
0.00018578
0.00018578
0.000183272
0.000183272
0.000183272
0.000190144
0.000190144
0.000190144
0.000136732
0.000136732
0.000136732
0.000134632
0.000134632
0.000134632
0.000133932
0.000133932
0.000133932
0.000137671
0.000137671
0.000137671
0.00013706
0.00013706
0.00013706
0.000138802
0.000138802
0.000138802
0.000161445
0.000161445
0.000161445
0.000139026
0.000139026
0.000139026
0.000140763
0.000140763
0.000140763
0.000141923
0.000141923
0.000141923
0.000141356
0.000141356
0.000141356
0.000143112
0.000143112
0.000143112
0.000145456
0.000145456
0.000145456
0.000142529
0.000142529
0.000142529
0.000145515
0.000145515
0.000145515
0.000143725
0.000143725
0.000143725
0.000144315
0.000144315
0.000144315
7.75047e-05
7.75047e-05
7.75047e-05
7.77212e-05
7.77212e-05
7.77212e-05
8.2723e-05
8.2723e-05
8.2723e-05
7.92795e-05
7.92795e-05
7.92795e-05
8.07227e-05
8.07227e-05
8.07227e-05
0.000164212
0.000164212
0.000164212
0.000160348
0.000160348
0.000160348
0.000166136
0.000166136
0.000166136
0.000166424
0.000166424
0.000166424
0.000149286
0.000149286
0.000149286
0.000141371
0.000141371
0.000141371
0.00014703
0.00014703
0.00014703
0.000175997
0.000175997
0.000175997
0.000175681
0.000175681
0.000175681
0.000190822
0.000190822
0.000190822
0.000192204
0.000192204
0.000192204
0.000191741
0.000191741
0.000191741
0.000179586
0.000179586
0.000179586
0.000179175
0.000179175
0.000179175
0.000185843
0.000185843
0.000185843
8.25354e-05
8.25354e-05
8.25354e-05
8.74814e-05
8.74814e-05
8.74814e-05
8.685e-05
8.685e-05
8.685e-05
8.73318e-05
8.73318e-05
8.73318e-05
8.61605e-05
8.61605e-05
8.61605e-05
8.66334e-05
8.66334e-05
8.66334e-05
8.68944e-05
8.68944e-05
8.68944e-05
8.66803e-05
8.66803e-05
8.66803e-05
8.62048e-05
8.62048e-05
8.62048e-05
8.5946e-05
8.5946e-05
8.5946e-05
0.000100907
0.000100907
0.000100907
0.000102187
0.000102187
0.000102187
0.000102479
0.000102479
0.000102479
8.59928e-05
8.59928e-05
8.59928e-05
8.34015e-05
8.34015e-05
8.34015e-05
9.78941e-05
9.78941e-05
9.78941e-05
0.000102234
0.000102234
0.000102234
9.48985e-05
9.48985e-05
9.48985e-05
9.91183e-05
9.91183e-05
9.91183e-05
9.30074e-05
9.30074e-05
9.30074e-05
9.2783e-05
9.2783e-05
9.2783e-05
9.47649e-05
9.47649e-05
9.47649e-05
9.62025e-05
9.62025e-05
9.62025e-05
8.89996e-05
8.89996e-05
8.89996e-05
8.81848e-05
8.81848e-05
8.81848e-05
8.86661e-05
8.86661e-05
8.86661e-05
8.89232e-05
8.89232e-05
8.89232e-05
8.86969e-05
8.86969e-05
8.86969e-05
8.8213e-05
8.8213e-05
8.8213e-05
8.79581e-05
8.79581e-05
8.79581e-05
0.000108011
0.000108011
0.000108011
0.000106534
0.000106534
0.000106534
9.46627e-05
9.46627e-05
9.46627e-05
9.40056e-05
9.40056e-05
9.40056e-05
9.54332e-05
9.54332e-05
9.54332e-05
9.75262e-05
9.75262e-05
9.75262e-05
0.000105678
0.000105678
0.000105678
0.000106284
0.000106284
0.000106284
0.000109242
0.000109242
0.000109242
0.000107154
0.000107154
0.000107154
9.67386e-05
9.67386e-05
9.67386e-05
9.81742e-05
9.81742e-05
9.81742e-05
9.30966e-05
9.30966e-05
9.30966e-05
9.33733e-05
9.33733e-05
9.33733e-05
9.31345e-05
9.31345e-05
9.31345e-05
9.25835e-05
9.25835e-05
9.25835e-05
9.23444e-05
9.23444e-05
9.23444e-05
9.26186e-05
9.26186e-05
9.26186e-05
9.39957e-05
9.39957e-05
9.39957e-05
9.34169e-05
9.34169e-05
9.34169e-05
9.3181e-05
9.3181e-05
9.3181e-05
9.34691e-05
9.34691e-05
9.34691e-05
9.33754e-05
9.33754e-05
9.33754e-05
9.25433e-05
9.25433e-05
9.25433e-05
9.28392e-05
9.28392e-05
9.28392e-05
9.1097e-05
9.1097e-05
9.1097e-05
9.11329e-05
9.11329e-05
9.11329e-05
9.08631e-05
9.08631e-05
9.08631e-05
9.1634e-05
9.1634e-05
9.1634e-05
9.18718e-05
9.18718e-05
9.18718e-05
9.16e-05
9.16e-05
9.16e-05
9.47084e-05
9.47084e-05
9.47084e-05
9.50017e-05
9.50017e-05
9.50017e-05
9.47633e-05
9.47633e-05
9.47633e-05
9.41793e-05
9.41793e-05
9.41793e-05
9.42314e-05
9.42314e-05
9.42314e-05
9.39407e-05
9.39407e-05
9.39407e-05
9.50627e-05
9.50627e-05
9.50627e-05
9.48315e-05
9.48315e-05
9.48315e-05
9.51357e-05
9.51357e-05
9.51357e-05
9.55982e-05
9.55982e-05
9.55982e-05
9.54842e-05
9.54842e-05
9.54842e-05
9.57803e-05
9.57803e-05
9.57803e-05
9.57283e-05
9.57283e-05
9.57283e-05
9.62684e-05
9.62684e-05
9.62684e-05
9.63866e-05
9.63866e-05
9.63866e-05
9.33428e-05
9.33428e-05
9.33428e-05
9.30721e-05
9.30721e-05
9.30721e-05
9.33127e-05
9.33127e-05
9.33127e-05
9.38564e-05
9.38564e-05
9.38564e-05
9.48465e-05
9.48465e-05
9.48465e-05
9.54007e-05
9.54007e-05
9.54007e-05
9.53724e-05
9.53724e-05
9.53724e-05
9.56508e-05
9.56508e-05
9.56508e-05
9.40755e-05
9.40755e-05
9.40755e-05
9.38235e-05
9.38235e-05
9.38235e-05
9.40965e-05
9.40965e-05
9.40965e-05
9.46246e-05
9.46246e-05
9.46246e-05
9.48719e-05
9.48719e-05
9.48719e-05
9.45961e-05
9.45961e-05
9.45961e-05
9.7061e-05
9.7061e-05
9.7061e-05
9.64721e-05
9.64721e-05
9.64721e-05
9.73107e-05
9.73107e-05
9.73107e-05
9.70149e-05
9.70149e-05
9.70149e-05
9.65153e-05
9.65153e-05
9.65153e-05
9.62223e-05
9.62223e-05
9.62223e-05
9.89795e-05
9.89795e-05
9.89795e-05
9.87268e-05
9.87268e-05
9.87268e-05
9.90404e-05
9.90404e-05
9.90404e-05
9.97053e-05
9.97053e-05
9.97053e-05
0.000100323
0.000100323
0.000100323
9.94446e-05
9.94446e-05
9.94446e-05
9.97495e-05
9.97495e-05
9.97495e-05
0.000100277
0.000100277
0.000100277
0.000100586
0.000100586
0.000100586
0.000102847
0.000102847
0.000102847
0.000102273
0.000102273
0.000102273
0.000103786
0.000103786
0.000103786
0.000103169
0.000103169
0.000103169
0.000102915
0.000102915
0.000102915
0.00010115
0.00010115
0.00010115
0.000102318
0.000102318
0.000102318
0.000101417
0.000101417
0.000101417
0.000101999
0.000101999
0.000101999
9.86259e-05
9.86259e-05
9.86259e-05
9.80368e-05
9.80368e-05
9.80368e-05
9.8588e-05
9.8588e-05
9.8588e-05
9.88841e-05
9.88841e-05
9.88841e-05
9.77786e-05
9.77786e-05
9.77786e-05
9.80715e-05
9.80715e-05
9.80715e-05
0.000110943
0.000110943
0.000110943
0.000111574
0.000111574
0.000111574
0.000104408
0.000104408
0.000104408
0.000108763
0.000108763
0.000108763
9.68604e-05
9.68604e-05
9.68604e-05
0.000129405
0.000129405
0.000129405
0.0001315
0.0001315
0.0001315
0.000129792
0.000129792
0.000129792
0.000128086
0.000128086
0.000128086
0.000124366
0.000124366
0.000124366
0.000110727
0.000110727
0.000110727
0.000110117
0.000110117
0.000110117
0.000151137
0.000151137
0.000151137
0.000165419
0.000165419
0.000165419
0.000152392
0.000152392
0.000152392
0.000159236
0.000159236
0.000159236
0.000163231
0.000163231
0.000163231
0.000161453
0.000161453
0.000161453
0.00018014
0.00018014
0.00018014
0.000183178
0.000183178
0.000183178
0.000185639
0.000185639
0.000185639
0.000187667
0.000187667
0.000187667
0.000177261
0.000177261
0.000177261
0.000175305
0.000175305
0.000175305
0.000172421
0.000172421
0.000172421
0.000172898
0.000172898
0.000172898
0.000168173
0.000168173
0.000168173
0.000165821
0.000165821
0.000165821
0.000172894
0.000172894
0.000172894
0.000175258
0.000175258
0.000175258
0.000175709
0.000175709
0.000175709
0.000163105
0.000163105
0.000163105
0.000168601
0.000168601
0.000168601
0.000170993
0.000170993
0.000170993
0.000178515
0.000178515
0.000178515
0.000176605
0.000176605
0.000176605
0.000172835
0.000172835
0.000172835
0.000175022
0.000175022
0.000175022
0.000181247
0.000181247
0.000181247
0.000173733
0.000173733
0.000173733
0.000184097
0.000184097
0.000184097
0.000186091
0.000186091
0.000186091
0.000144049
0.000144049
0.000144049
0.000141243
0.000141243
0.000141243
0.000139572
0.000139572
0.000139572
0.000141283
0.000141283
0.000141283
0.000135619
0.000135619
0.000135619
0.000156589
0.000156589
0.000156589
0.000146015
0.000146015
0.000146015
0.000144247
0.000144247
0.000144247
0.000147898
0.000147898
0.000147898
0.000152672
0.000152672
0.000152672
7.71429e-05
7.71429e-05
7.71429e-05
7.7551e-05
7.7551e-05
7.7551e-05
7.88711e-05
7.88711e-05
7.88711e-05
7.84686e-05
7.84686e-05
7.84686e-05
7.85225e-05
7.85225e-05
7.85225e-05
0.000156925
0.000156925
0.000156925
0.000158433
0.000158433
0.000158433
0.000152749
0.000152749
0.000152749
0.000155005
0.000155005
0.000155005
0.000154589
0.000154589
0.000154589
0.000151191
0.000151191
0.000151191
0.000152676
0.000152676
0.000152676
0.000152354
0.000152354
0.000152354
0.000161961
0.000161961
0.000161961
0.000165524
0.000165524
0.000165524
0.000163905
0.000163905
0.000163905
0.000162678
0.000162678
0.000162678
0.000160757
0.000160757
0.000160757
0.000164136
0.000164136
0.000164136
0.000158481
0.000158481
0.000158481
0.000154917
0.000154917
0.000154917
0.000177572
0.000177572
0.000177572
0.000154159
0.000154159
0.000154159
0.000190127
0.000190127
0.000190127
0.000188601
0.000188601
0.000188601
0.000188294
0.000188294
0.000188294
0.000184331
0.000184331
0.000184331
0.000186151
0.000186151
0.000186151
0.000182651
0.000182651
0.000182651
0.000180741
0.000180741
0.000180741
0.00019607
0.00019607
0.00019607
0.000180118
0.000180118
0.000180118
0.000179759
0.000179759
0.000179759
0.000165844
0.000165844
0.000165844
0.000163824
0.000163824
0.000163824
0.000169894
0.000169894
0.000169894
0.000171924
0.000171924
0.000171924
0.000173638
0.000173638
0.000173638
0.000162391
0.000162391
0.000162391
0.00017977
0.00017977
0.00017977
0.000178355
0.000178355
0.000178355
0.000178038
0.000178038
0.000178038
0.00014655
0.00014655
0.00014655
0.000146074
0.000146074
0.000146074
0.000161478
0.000161478
0.000161478
0.000145125
0.000145125
0.000145125
0.000143472
0.000143472
0.000143472
0.000143953
0.000143953
0.000143953
0.000137195
0.000137195
0.000137195
0.000138224
0.000138224
0.000138224
0.000163175
0.000163175
0.000163175
0.000161446
0.000161446
0.000161446
0.000186325
0.000186325
0.000186325
0.000188831
0.000188831
0.000188831
0.00018924
0.00018924
0.00018924
0.000187234
0.000187234
0.000187234
0.000193344
0.000193344
0.000193344
0.000193852
0.000193852
0.000193852
0.000196379
0.000196379
0.000196379
0.000198396
0.000198396
0.000198396
0.000196371
0.000196371
0.000196371
0.000201249
0.000201249
0.000201249
0.000202902
0.000202902
0.000202902
0.000200929
0.000200929
0.000200929
0.000181059
0.000181059
0.000181059
0.000184891
0.000184891
0.000184891
0.000185285
0.000185285
0.000185285
0.000183367
0.000183367
0.000183367
0.000187991
0.000187991
0.000187991
0.000189548
0.000189548
0.000189548
0.000187606
0.000187606
0.000187606
0.000191883
0.000191883
0.000191883
0.000183875
0.000183875
0.000183875
0.000179992
0.000179992
0.000179992
0.000189915
0.000189915
0.000189915
0.000187955
0.000187955
0.000187955
0.000188251
0.000188251
0.000188251
0.000208574
0.000208574
0.000208574
0.000211684
0.000211684
0.000211684
0.000213644
0.000213644
0.000213644
0.000194698
0.000194698
0.000194698
0.000196754
0.000196754
0.000196754
0.000201435
0.000201435
0.000201435
0.000203964
0.000203964
0.000203964
0.000199265
0.000199265
0.000199265
0.000199689
0.000199689
0.000199689
7.9116e-05
7.9116e-05
7.9116e-05
7.89616e-05
7.89616e-05
7.89616e-05
7.92115e-05
7.92115e-05
7.92115e-05
7.96171e-05
7.96171e-05
7.96171e-05
7.99857e-05
7.99857e-05
7.99857e-05
7.97253e-05
7.97253e-05
7.97253e-05
7.98731e-05
7.98731e-05
7.98731e-05
0.000102203
0.000102203
0.000102203
7.81523e-05
7.81523e-05
7.81523e-05
7.83754e-05
7.83754e-05
7.83754e-05
7.90771e-05
7.90771e-05
7.90771e-05
7.88386e-05
7.88386e-05
7.88386e-05
8.75466e-05
8.75466e-05
8.75466e-05
8.80285e-05
8.80285e-05
8.80285e-05
8.82496e-05
8.82496e-05
8.82496e-05
8.79891e-05
8.79891e-05
8.79891e-05
8.6095e-05
8.6095e-05
8.6095e-05
8.65942e-05
8.65942e-05
8.65942e-05
8.75948e-05
8.75948e-05
8.75948e-05
8.81299e-05
8.81299e-05
8.81299e-05
8.76428e-05
8.76428e-05
8.76428e-05
8.73743e-05
8.73743e-05
8.73743e-05
0.000119861
0.000119861
0.000119861
0.000116852
0.000116852
0.000116852
0.000112268
0.000112268
0.000112268
0.000115684
0.000115684
0.000115684
0.000117666
0.000117666
0.000117666
0.000118184
0.000118184
0.000118184
0.000114238
0.000114238
0.000114238
0.000116727
0.000116727
0.000116727
0.000114762
0.000114762
0.000114762
0.000115154
0.000115154
0.000115154
0.000119129
0.000119129
0.000119129
0.000122098
0.000122098
0.000122098
0.00012793
0.00012793
0.00012793
0.000120161
0.000120161
0.000120161
0.000126
0.000126
0.000126
9.87401e-05
9.87401e-05
9.87401e-05
0.00011537
0.00011537
0.00011537
0.000115919
0.000115919
0.000115919
0.000110082
0.000110082
0.000110082
0.000106659
0.000106659
0.000106659
0.000108088
0.000108088
0.000108088
0.00010168
0.00010168
0.00010168
8.45356e-05
8.45356e-05
8.45356e-05
9.06674e-05
9.06674e-05
9.06674e-05
9.12099e-05
9.12099e-05
9.12099e-05
9.30352e-05
9.30352e-05
9.30352e-05
9.36128e-05
9.36128e-05
9.36128e-05
0.000110839
0.000110839
0.000110839
0.000104139
0.000104139
0.000104139
0.00010802
0.00010802
0.00010802
8.52653e-05
8.52653e-05
8.52653e-05
8.55218e-05
8.55218e-05
8.55218e-05
9.95314e-05
9.95314e-05
9.95314e-05
9.55531e-05
9.55531e-05
9.55531e-05
9.61609e-05
9.61609e-05
9.61609e-05
9.81429e-05
9.81429e-05
9.81429e-05
9.16765e-05
9.16765e-05
9.16765e-05
9.92903e-05
9.92903e-05
9.92903e-05
9.32546e-05
9.32546e-05
9.32546e-05
8.38565e-05
8.38565e-05
8.38565e-05
8.40654e-05
8.40654e-05
8.40654e-05
8.47353e-05
8.47353e-05
8.47353e-05
8.52261e-05
8.52261e-05
8.52261e-05
8.47602e-05
8.47602e-05
8.47602e-05
8.45161e-05
8.45161e-05
8.45161e-05
8.54119e-05
8.54119e-05
8.54119e-05
8.58753e-05
8.58753e-05
8.58753e-05
8.61239e-05
8.61239e-05
8.61239e-05
8.59068e-05
8.59068e-05
8.59068e-05
8.54409e-05
8.54409e-05
8.54409e-05
8.51945e-05
8.51945e-05
8.51945e-05
9.01035e-05
9.01035e-05
9.01035e-05
9.0365e-05
9.0365e-05
9.0365e-05
9.01337e-05
9.01337e-05
9.01337e-05
8.96129e-05
8.96129e-05
8.96129e-05
8.96405e-05
8.96405e-05
8.96405e-05
8.93812e-05
8.93812e-05
8.93812e-05
9.70984e-05
9.70984e-05
9.70984e-05
0.000100737
0.000100737
0.000100737
9.85744e-05
9.85744e-05
9.85744e-05
9.77741e-05
9.77741e-05
9.77741e-05
9.52087e-05
9.52087e-05
9.52087e-05
9.58453e-05
9.58453e-05
9.58453e-05
9.60755e-05
9.60755e-05
9.60755e-05
9.57569e-05
9.57569e-05
9.57569e-05
9.50665e-05
9.50665e-05
9.50665e-05
9.52941e-05
9.52941e-05
9.52941e-05
9.49785e-05
9.49785e-05
9.49785e-05
9.44357e-05
9.44357e-05
9.44357e-05
9.21014e-05
9.21014e-05
9.21014e-05
9.27005e-05
9.27005e-05
9.27005e-05
9.26162e-05
9.26162e-05
9.26162e-05
9.29188e-05
9.29188e-05
9.29188e-05
9.2029e-05
9.2029e-05
9.2029e-05
9.18079e-05
9.18079e-05
9.18079e-05
9.20405e-05
9.20405e-05
9.20405e-05
9.22604e-05
9.22604e-05
9.22604e-05
9.6991e-05
9.6991e-05
9.6991e-05
9.63112e-05
9.63112e-05
9.63112e-05
9.35399e-05
9.35399e-05
9.35399e-05
9.55383e-05
9.55383e-05
9.55383e-05
8.84058e-05
8.84058e-05
8.84058e-05
8.89048e-05
8.89048e-05
8.89048e-05
9.0626e-05
9.0626e-05
9.0626e-05
8.8787e-05
8.8787e-05
8.8787e-05
8.82935e-05
8.82935e-05
8.82935e-05
8.83459e-05
8.83459e-05
8.83459e-05
8.80749e-05
8.80749e-05
8.80749e-05
0.000101405
0.000101405
0.000101405
9.99186e-05
9.99186e-05
9.99186e-05
0.000100587
0.000100587
0.000100587
0.000102726
0.000102726
0.000102726
0.000104218
0.000104218
0.000104218
0.000103561
0.000103561
0.000103561
0.000105067
0.000105067
0.000105067
0.000107236
0.000107236
0.000107236
9.97732e-05
9.97732e-05
9.97732e-05
9.83123e-05
9.83123e-05
9.83123e-05
9.89694e-05
9.89694e-05
9.89694e-05
0.000101074
0.000101074
0.000101074
0.000107398
0.000107398
0.000107398
0.000105288
0.000105288
0.000105288
9.73866e-05
9.73866e-05
9.73866e-05
9.86602e-05
9.86602e-05
9.86602e-05
0.000104441
0.000104441
0.000104441
0.000100261
0.000100261
0.000100261
0.000103813
0.000103813
0.000103813
0.000101715
0.000101715
0.000101715
0.000100524
0.000100524
0.000100524
0.000116291
0.000116291
0.000116291
0.000117793
0.000117793
0.000117793
0.000108355
0.000108355
0.000108355
0.000109838
0.000109838
0.000109838
9.35987e-05
9.35987e-05
9.35987e-05
9.41286e-05
9.41286e-05
9.41286e-05
9.40591e-05
9.40591e-05
9.40591e-05
9.4361e-05
9.4361e-05
9.4361e-05
9.24842e-05
9.24842e-05
9.24842e-05
9.27753e-05
9.27753e-05
9.27753e-05
9.27147e-05
9.27147e-05
9.27147e-05
9.32994e-05
9.32994e-05
9.32994e-05
9.3236e-05
9.3236e-05
9.3236e-05
9.35297e-05
9.35297e-05
9.35297e-05
9.74969e-05
9.74969e-05
9.74969e-05
9.6328e-05
9.6328e-05
9.6328e-05
9.66322e-05
9.66322e-05
9.66322e-05
9.65676e-05
9.65676e-05
9.65676e-05
9.71836e-05