<VTKFile type="UnstructuredGrid" version="1.0">
<UnstructuredGrid>
<Piece NumberOfPoints="8859" NumberOfCells="2953">
<Points>
<DataArray type="Float64" NumberOfComponents="3" format="ascii">
3.01 0.5 6.175
3.01 0.487476 6.1975
3.01 0.512524 6.1975
3.01 0.17352 5.2975
3.01 0.148445 5.2975
3.01 0.160827 5.31922
3.01 0.122979 5.34089
3.01 0.135644 5.31922
3.01 0.110383 5.31921
3.01 0.135644 5.31922
3.01 0.123433 5.2975
3.01 0.110383 5.31921
3.01 0.123433 5.2975
3.01 0.135644 5.31922
3.01 0.148445 5.2975
3.01 0.135644 5.31922
3.01 0.160827 5.31922
3.01 0.148445 5.2975
3.01 0.17352 5.2975
3.01 0.185985 5.3192
3.01 0.198629 5.2975
3.01 0.185985 5.3192
3.01 0.17352 5.2975
3.01 0.160827 5.31922
3.01 0.0732297 5.34067
3.01 0.0848754 5.31914
3.01 0.0586606 5.31881
3.01 0.05 6.13027
3.01 0.058509 6.10756
3.01 0.05 6.0851
3.01 0.324276 5.2975
3.01 0.336827 5.31916
3.01 0.349395 5.2975
3.01 0.148138 5.3409
3.01 0.160827 5.31922
3.01 0.135644 5.31922
3.01 0.122979 5.34089
3.01 0.148138 5.3409
3.01 0.135644 5.31922
3.01 0.160827 5.31922
3.01 0.173316 5.34089
3.01 0.185985 5.3192
3.01 0.185806 5.36255
3.01 0.173316 5.34089
3.01 0.160572 5.36255
3.01 0.173316 5.34089
3.01 0.160827 5.31922
3.01 0.148138 5.3409
3.01 0.160572 5.36255
3.01 0.173316 5.34089
3.01 0.148138 5.3409
3.01 0.211137 5.31919
3.01 0.198629 5.2975
3.01 0.185985 5.3192
3.01 0.0979162 5.34084
3.01 0.122979 5.34089
3.01 0.110383 5.31921
3.01 0.122979 5.34089
3.01 0.0979162 5.34084
3.01 0.109875 5.36249
3.01 0.0732297 5.34067
3.01 0.0979162 5.34084
3.01 0.0848754 5.31914
3.01 0.0979162 5.34084
3.01 0.110383 5.31921
3.01 0.0848754 5.31914
3.01 0.0975729 5.38404
3.01 0.122678 5.38414
3.01 0.109875 5.36249
3.01 0.0841718 5.36235
3.01 0.0732297 5.34067
3.01 0.0577122 5.36202
3.01 0.0729308 5.38388
3.01 0.0841718 5.36235
3.01 0.0577122 5.36202
3.01 0.0732297 5.34067
3.01 0.0841718 5.36235
3.01 0.0979162 5.34084
3.01 0.0841718 5.36235
3.01 0.109875 5.36249
3.01 0.0979162 5.34084
3.01 0.0975729 5.38404
3.01 0.0841718 5.36235
3.01 0.0729308 5.38388
3.01 0.0841718 5.36235
3.01 0.0975729 5.38404
3.01 0.109875 5.36249
3.01 0.073948 5.2975
3.01 0.05 5.2975
3.01 0.0586606 5.31881
3.01 0.073948 5.2975
3.01 0.0586606 5.31881
3.01 0.0848754 5.31914
3.01 0.05 6.17329
3.01 0.0603641 6.15197
3.01 0.05 6.13027
3.01 0.0603641 6.15197
3.01 0.05 6.17329
3.01 0.0753197 6.17399
3.01 0.0709395 6.1975
3.01 0.05 6.17329
3.01 0.05 6.1975
3.01 0.05 6.17329
3.01 0.0709395 6.1975
3.01 0.0753197 6.17399
3.01 0.0579641 5.88463
3.01 0.05 5.86261
3.01 0.05 5.90669
3.01 0.0841948 5.79679
3.01 0.109814 5.7968
3.01 0.097638 5.77493
3.01 0.0841948 5.79679
3.01 0.0578646 5.7968
3.01 0.0730539 5.8187
3.01 0.0580261 5.9288
3.01 0.05 5.90669
3.01 0.05 5.95095
3.01 0.942292 5.49236
3.01 0.95 5.51404
3.01 0.95 5.47067
3.01 0.95 5.42726
3.01 0.942332 5.44897
3.01 0.95 5.47067
3.01 0.73872 5.70953
3.01 0.75132 5.68775
3.01 0.726137 5.68776
3.01 0.751305 5.73132
3.01 0.73872 5.70953
3.01 0.726124 5.73133
3.01 0.713546 5.70954
3.01 0.73872 5.70953
3.01 0.726137 5.68776
3.01 0.73872 5.70953
3.01 0.713546 5.70954
3.01 0.726124 5.73133
3.01 0.814318 5.75311
3.01 0.801709 5.7313
3.01 0.789096 5.75312
3.01 0.7765 5.73131
3.01 0.801709 5.7313
3.01 0.789115 5.70951
3.01 0.801709 5.7313
3.01 0.7765 5.73131
3.01 0.789096 5.75312
3.01 0.7765 5.73131
3.01 0.763892 5.75314
3.01 0.789096 5.75312
3.01 0.763892 5.75314
3.01 0.7765 5.73131
3.01 0.751305 5.73132
3.01 0.95 6.1975
3.01 0.95 6.17329
3.01 0.929061 6.1975
3.01 0.95 5.9954
3.01 0.941913 5.97315
3.01 0.926844 5.9954
3.01 0.941913 5.97315
3.01 0.95 5.9954
3.01 0.95 5.95095
3.01 0.926866 5.95094
3.01 0.941913 5.97315
3.01 0.95 5.95095
3.01 0.941974 5.9288
3.01 0.926866 5.95094
3.01 0.95 5.95095
3.01 0.95 5.90669
3.01 0.941974 5.9288
3.01 0.95 5.95095
3.01 0.941974 5.9288
3.01 0.95 5.90669
3.01 0.926895 5.90669
3.01 0.6127 6.1975
3.01 0.637734 6.1975
3.01 0.625238 6.17498
3.01 0.662757 6.1975
3.01 0.650275 6.17497
3.01 0.637734 6.1975
3.01 0.650275 6.17497
3.01 0.625238 6.17498
3.01 0.637734 6.1975
3.01 0.600415 5.73137
3.01 0.575304 5.73137
3.01 0.587856 5.7532
3.01 0.575304 5.73137
3.01 0.562749 5.7532
3.01 0.587856 5.7532
3.01 0.336827 5.31916
3.01 0.361946 5.31916
3.01 0.349395 5.2975
3.01 0.223755 5.2975
3.01 0.198629 5.2975
3.01 0.211137 5.31919
3.01 0.185985 5.3192
3.01 0.198492 5.34088
3.01 0.211137 5.31919
3.01 0.185806 5.36255
3.01 0.198492 5.34088
3.01 0.173316 5.34089
3.01 0.198492 5.34088
3.01 0.185985 5.3192
3.01 0.173316 5.34089
3.01 0.0576202 5.40553
3.01 0.05 5.38374
3.01 0.05 5.42726
3.01 0.05 5.38374
3.01 0.0576202 5.40553
3.01 0.0729308 5.38388
3.01 0.05 5.38374
3.01 0.0729308 5.38388
3.01 0.0577122 5.36202
3.01 0.135283 5.36254
3.01 0.122979 5.34089
3.01 0.109875 5.36249
3.01 0.135283 5.36254
3.01 0.109875 5.36249
3.01 0.122678 5.38414
3.01 0.122979 5.34089
3.01 0.135283 5.36254
3.01 0.148138 5.3409
3.01 0.135283 5.36254
3.01 0.160572 5.36255
3.01 0.148138 5.3409
3.01 0.123433 5.2975
3.01 0.0985513 5.2975
3.01 0.110383 5.31921
3.01 0.110383 5.31921
3.01 0.0985513 5.2975
3.01 0.0848754 5.31914
3.01 0.0848754 5.31914
3.01 0.0985513 5.2975
3.01 0.073948 5.2975
3.01 0.0603641 6.15197
3.01 0.0739464 6.12949
3.01 0.05 6.13027
3.01 0.0739464 6.12949
3.01 0.058509 6.10756
3.01 0.05 6.13027
3.01 0.058509 6.10756
3.01 0.0739464 6.12949
3.01 0.0849548 6.10711
3.01 0.058509 6.10756
3.01 0.0732725 6.08488
3.01 0.05 6.0851
3.01 0.0732725 6.08488
3.01 0.058509 6.10756
3.01 0.0849548 6.10711
3.01 0.5 6.175
3.01 0.47495 6.175
3.01 0.487476 6.1975
3.01 0.097663 5.8187
3.01 0.109814 5.7968
3.01 0.0841948 5.79679
3.01 0.0730539 5.8187
3.01 0.097663 5.8187
3.01 0.0841948 5.79679
3.01 0.0578646 5.7968
3.01 0.05 5.8187
3.01 0.0730539 5.8187
3.01 0.05 5.8187
3.01 0.0578646 5.7968
3.01 0.05 5.77492
3.01 0.05 5.9954
3.01 0.0580869 5.97315
3.01 0.05 5.95095
3.01 0.05 5.95095
3.01 0.073134 5.95094
3.01 0.0580261 5.9288
3.01 0.073134 5.95094
3.01 0.05 5.95095
3.01 0.0580869 5.97315
3.01 0.942268 5.53573
3.01 0.95 5.55741
3.01 0.95 5.51404
3.01 0.942292 5.49236
3.01 0.927025 5.51404
3.01 0.95 5.51404
3.01 0.927025 5.51404
3.01 0.915919 5.53572
3.01 0.942268 5.53573
3.01 0.95 5.51404
3.01 0.927025 5.51404
3.01 0.942268 5.53573
3.01 0.927013 5.55741
3.01 0.95 5.55741
3.01 0.942268 5.53573
3.01 0.915919 5.53572
3.01 0.927013 5.55741
3.01 0.942268 5.53573
3.01 0.801738 5.64425
3.01 0.826957 5.64425
3.01 0.814364 5.62253
3.01 0.852174 5.64424
3.01 0.839609 5.62252
3.01 0.826957 5.64425
3.01 0.839609 5.62252
3.01 0.814364 5.62253
3.01 0.826957 5.64425
3.01 0.776516 5.68775
3.01 0.763923 5.666
3.01 0.75132 5.68775
3.01 0.776516 5.68775
3.01 0.789115 5.70951
3.01 0.801725 5.68774
3.01 0.738704 5.75315
3.01 0.763892 5.75314
3.01 0.751305 5.73132
3.01 0.726124 5.73133
3.01 0.738704 5.75315
3.01 0.751305 5.73132
3.01 0.915617 5.97314
3.01 0.926866 5.95094
3.01 0.902228 5.95094
3.01 0.926866 5.95094
3.01 0.915617 5.97314
3.01 0.941913 5.97315
3.01 0.915617 5.97314
3.01 0.926844 5.9954
3.01 0.941913 5.97315
3.01 0.915617 5.97314
3.01 0.902193 5.99538
3.01 0.926844 5.9954
3.01 0.926866 5.95094
3.01 0.915668 5.92879
3.01 0.902228 5.95094
3.01 0.902267 5.90668
3.01 0.915668 5.92879
3.01 0.926895 5.90669
3.01 0.915668 5.92879
3.01 0.926866 5.95094
3.01 0.941974 5.9288
3.01 0.926895 5.90669
3.01 0.915668 5.92879
3.01 0.941974 5.9288
3.01 0.902267 5.90668
3.01 0.890059 5.92879
3.01 0.915668 5.92879
3.01 0.890059 5.92879
3.01 0.902228 5.95094
3.01 0.915668 5.92879
3.01 0.826927 5.73129
3.01 0.801709 5.7313
3.01 0.814318 5.75311
3.01 0.864816 5.7968
3.01 0.890186 5.7968
3.01 0.877308 5.77493
3.01 0.877308 5.77493
3.01 0.852122 5.77494
3.01 0.864816 5.7968
3.01 0.890186 5.7968
3.01 0.902362 5.77493
3.01 0.877308 5.77493
3.01 0.902362 5.77493
3.01 0.890186 5.7968
3.01 0.915805 5.79679
3.01 0.902362 5.77493
3.01 0.915805 5.79679
3.01 0.926964 5.77492
3.01 0.915835 5.75309
3.01 0.902362 5.77493
3.01 0.926964 5.77492
3.01 0.942171 5.75309
3.01 0.915835 5.75309
3.01 0.926964 5.77492
3.01 0.915835 5.75309
3.01 0.942171 5.75309
3.01 0.926978 5.73127
3.01 0.942171 5.75309
3.01 0.95 5.73127
3.01 0.926978 5.73127
3.01 0.87737 5.60081
3.01 0.902417 5.6008
3.01 0.890277 5.57911
3.01 0.852144 5.73128
3.01 0.864842 5.75309
3.01 0.877329 5.73128
3.01 0.877308 5.77493
3.01 0.864842 5.75309
3.01 0.852122 5.77494
3.01 0.902396 5.68772
3.01 0.890234 5.70949
3.01 0.915858 5.70948
3.01 0.926997 5.64423
3.01 0.95 5.64423
3.01 0.942237 5.62251
3.01 0.91589 5.62251
3.01 0.926997 5.64423
3.01 0.942237 5.62251
3.01 0.942199 5.70948
3.01 0.95 5.73127
3.01 0.95 5.68771
3.01 0.95 5.73127
3.01 0.942199 5.70948
3.01 0.926978 5.73127
3.01 0.942199 5.70948
3.01 0.915858 5.70948
3.01 0.926978 5.73127
3.01 0.95 5.64423
3.01 0.942221 5.66597
3.01 0.95 5.68771
3.01 0.942221 5.66597
3.01 0.95 5.64423
3.01 0.926997 5.64423
3.01 0.915876 5.66597
3.01 0.942221 5.66597
3.01 0.926997 5.64423
3.01 0.926989 5.68771
3.01 0.902396 5.68772
3.01 0.915858 5.70948
3.01 0.902396 5.68772
3.01 0.926989 5.68771
3.01 0.915876 5.66597
3.01 0.926989 5.68771
3.01 0.915858 5.70948
3.01 0.942199 5.70948
3.01 0.95 5.68771
3.01 0.926989 5.68771
3.01 0.942199 5.70948
3.01 0.915876 5.66597
3.01 0.926989 5.68771
3.01 0.942221 5.66597
3.01 0.926989 5.68771
3.01 0.95 5.68771
3.01 0.942221 5.66597
3.01 0.91353 6.15185
3.01 0.939636 6.15197
3.01 0.926054 6.12949
3.01 0.926728 6.08488
3.01 0.941491 6.10756
3.01 0.95 6.0851
3.01 0.926728 6.08488
3.01 0.95 6.0851
3.01 0.941822 6.06254
3.01 0.95 6.13027
3.01 0.939636 6.15197
3.01 0.95 6.17329
3.01 0.95 6.13027
3.01 0.941491 6.10756
3.01 0.926054 6.12949
3.01 0.939636 6.15197
3.01 0.95 6.13027
3.01 0.926054 6.12949
3.01 0.941491 6.10756
3.01 0.95 6.13027
3.01 0.95 6.0851
3.01 0.941869 6.01772
3.01 0.95 5.9954
3.01 0.926844 5.9954
3.01 0.762942 6.15228
3.01 0.737933 6.15234
3.01 0.75028 6.17489
3.01 0.71291 6.15239
3.01 0.737933 6.15234
3.01 0.725533 6.12985
3.01 0.71291 6.15239
3.01 0.725313 6.17492
3.01 0.737933 6.15234
3.01 0.725313 6.17492
3.01 0.75028 6.17489
3.01 0.737933 6.15234
3.01 0.737693 6.1975
[...]
<PointData Scalars="View Factor" >
<DataArray type="Float64" Name="View Factor" NumberOfComponents="1" format="ascii">
0.000876912
0.000876912
0.000876912
0.000564287
0.000564287
0.000564287
0.000570362
0.000570362
0.000570362
0.000566414
0.000566414
0.000566414
0.000564401
0.000564401
0.000564401
0.000566309
0.000566309
0.000566309
0.000564153
0.000564153
0.000564153
0.000566184
0.000566184
0.000566184
0.00057045
0.00057045
0.00057045
0.000846154
0.000846154
0.000846154
0.000562953
0.000562953
0.000562953
0.000570257
0.000570257
0.000570257
0.000572298
0.000572298
0.000572298
0.00057013
0.00057013
0.00057013
0.000578115
0.000578115
0.000578115
0.000572181
0.000572181
0.000572181
0.000576174
0.000576174
0.000576174
0.000566039
0.000566039
0.000566039
0.000572387
0.000572387
0.000572387
0.000576377
0.000576377
0.000576377
0.000572437
0.000572437
0.000572437
0.000570436
0.000570436
0.000570436
0.000584451
0.000584451
0.000584451
0.000578419
0.000578419
0.000578419
0.000582454
0.000582454
0.000582454
0.00057642
0.00057642
0.00057642
0.000578409
0.000578409
0.000578409
0.000584491
0.000584491
0.000584491
0.000582445
0.000582445
0.000582445
0.000564588
0.000564588
0.000564588
0.000566521
0.000566521
0.000566521
0.00086626
0.00086626
0.00086626
0.000872992
0.000872992
0.000872992
0.000883817
0.000883817
0.000883817
0.000880088
0.000880088
0.000880088
0.000753132
0.000753132
0.000753132
0.000717199
0.000717199
0.000717199
0.00072264
0.00072264
0.00072264
0.000770502
0.000770502
0.000770502
0.000603124
0.000603124
0.000603124
0.000590603
0.000590603
0.000590603
0.000673062
0.000673062
0.000673062
0.000682908
0.000682908
0.000682908
0.000675872
0.000675872
0.000675872
0.000680799
0.000680799
0.000680799
0.00068843
0.00068843
0.00068843
0.000681355
0.000681355
0.000681355
0.000686333
0.000686333
0.000686333
0.000689245
0.000689245
0.000689245
0.000687131
0.000687131
0.000687131
0.000858433
0.000858433
0.000858433
0.00077294
0.00077294
0.00077294
0.000766721
0.000766721
0.000766721
0.00076125
0.00076125
0.00076125
0.0007555
0.0007555
0.0007555
0.000749482
0.000749482
0.000749482
0.000744187
0.000744187
0.000744187
0.000872847
0.000872847
0.000872847
0.000871929
0.000871929
0.000871929
0.000868914
0.000868914
0.000868914
0.000692003
0.000692003
0.000692003
0.000694844
0.000694844
0.000694844
0.000564772
0.000564772
0.000564772
0.000564
0.000564
0.000564
0.000569982
0.000569982
0.000569982
0.000576035
0.000576035
0.000576035
0.000572042
0.000572042
0.000572042
0.000592761
0.000592761
0.000592761
0.000588606
0.000588606
0.000588606
0.000584489
0.000584489
0.000584489
0.000578344
0.000578344
0.000578344
0.000582383
0.000582383
0.000582383
0.00057629
0.00057629
0.00057629
0.000578243
0.000578243
0.000578243
0.000564494
0.000564494
0.000564494
0.000566491
0.000566491
0.000566491
0.000564562
0.000564562
0.000564562
0.000859527
0.000859527
0.000859527
0.000852794
0.000852794
0.000852794
0.000849264
0.000849264
0.000849264
0.000839379
0.000839379
0.000839379
0.000842601
0.000842601
0.000842601
0.000873766
0.000873766
0.000873766
0.000722546
0.000722546
0.000722546
0.000725289
0.000725289
0.000725289
0.000725368
0.000725368
0.000725368
0.000720013
0.000720013
0.000720013
0.000788452
0.000788452
0.000788452
0.000776393
0.000776393
0.000776393
0.000782376
0.000782376
0.000782376
0.000615973
0.000615973
0.000615973
0.000607614
0.000607614
0.000607614
0.000614421
0.000614421
0.000614421
0.000611899
0.000611899
0.000611899
0.000620583
0.000620583
0.000620583
0.000618767
0.000618767
0.000618767
0.000651713
0.000651713
0.000651713
0.000650927
0.000650927
0.000650927
0.000648995
0.000648995
0.000648995
0.000667471
0.000667471
0.000667471
0.000671543
0.000671543
0.000671543
0.000690034
0.000690034
0.000690034
0.000687903
0.000687903
0.000687903
0.000762328
0.000762328
0.000762328
0.000764655
0.000764655
0.000764655
0.000770506
0.000770506
0.000770506
0.00077404
0.00077404
0.00077404
0.000756566
0.000756566
0.000756566
0.00074523
0.00074523
0.00074523
0.000753144
0.000753144
0.000753144
0.000747482
0.000747482
0.000747482
0.000748553
0.000748553
0.000748553
0.000754227
0.000754227
0.000754227
0.000685511
0.000685511
0.000685511
0.000701049
0.000701049
0.000701049
0.000698943
0.000698943
0.000698943
0.000698022
0.000698022
0.000698022
0.000700105
0.000700105
0.000700105
0.000697081
0.000697081
0.000697081
0.000692
0.000692
0.000692
0.000688981
0.000688981
0.000688981
0.000683981
0.000683981
0.000683981
0.000681073
0.000681073
0.000681073
0.00063555
0.00063555
0.00063555
0.000683795
0.000683795
0.000683795
0.000693843
0.000693843
0.000693843
0.000670187
0.000670187
0.000670187
0.000647593
0.000647593
0.000647593
0.000645678
0.000645678
0.000645678
0.000670995
0.000670995
0.000670995
0.000676151
0.000676151
0.000676151
0.000674128
0.000674128
0.000674128
0.000656658
0.000656658
0.000656658
0.000652241
0.000652241
0.000652241
0.000654983
0.000654983
0.000654983
0.000667339
0.000667339
0.000667339
0.000662548
0.000662548
0.000662548
0.000669273
0.000669273
0.000669273
0.00066645
0.00066645
0.00066645
0.000659701
0.000659701
0.000659701
0.000661668
0.000661668
0.000661668
0.000839162
0.000839162
0.000839162
0.000816004
0.000816004
0.000816004
0.000809637
0.000809637
0.000809637
0.000841408
0.000841408
0.000841408
0.00082889
0.00082889
0.00082889
0.000835384
0.000835384
0.000835384
0.000822097
0.000822097
0.000822097
0.000778885
0.000778885
0.000778885
0.000854156
0.000854156
0.000854156
0.000848435
0.000848435
0.000848435
0.000855205
0.000855205
0.000855205
0.000858097
0.000858097
0.000858097
0.000868968
0.000868968
0.000868968
0.000864977
0.000864977
0.000864977
0.000867914
0.000867914
0.000867914
0.000827677
0.000827677
0.000827677
0.000835116
0.000835116
0.000835116
0.000845583
0.000845583
0.000845583
0.000838919
0.000838919
0.000838919
0.00084751
0.00084751
0.00084751
0.000840828
0.000840828
0.000840828
0.0008629
0.0008629
0.0008629
0.000869811
0.000869811
0.000869811
0.000873731
0.000873731
0.000873731
0.000687361
0.000687361
0.000687361
0.000694234
0.000694234
0.000694234
0.000710961
0.000710961
0.000710961
0.000715635
0.000715635
0.000715635
0.000710358
0.000710358
0.000710358
0.000708043
0.000708043
0.000708043
0.000699963
0.000699963
0.000699963
0.000702842
0.000702842
0.000702842
0.000716245
0.000716245
0.000716245
0.000718604
0.000718604
0.000718604
0.000749133
0.000749133
0.000749133
0.000707676
0.000707676
0.000707676
0.000705429
0.000705429
0.000705429
0.000693478
0.000693478
0.000693478
0.000703727
0.000703727
0.000703727
0.000563428
0.000563428
0.000563428
0.000563638
0.000563638
0.000563638
0.00056549
0.00056549
0.00056549
0.000569424
0.000569424
0.000569424
0.000559189
0.000559189
0.000559189
0.000657175
0.000657175
0.000657175
0.000666708
0.000666708
0.000666708
0.00065992
0.00065992
0.00065992
0.00066469
0.00066469
0.00066469
0.000665438
0.000665438
0.000665438
0.000668211
0.000668211
0.000668211
0.000571294
0.000571294
0.000571294
0.000562686
0.000562686
0.000562686
0.000558525
0.000558525
0.000558525
0.000627692
0.000627692
0.000627692
0.000625608
0.000625608
0.000625608
0.000580399
0.000580399
0.000580399
0.000568464
0.000568464
0.000568464
0.000572396
0.000572396
0.000572396
0.000576381
0.000576381
0.000576381
0.000852491
0.000852491
0.000852491
0.000877618
0.000877618
0.000877618
0.000758835
0.000758835
0.000758835
0.000764624
0.000764624
0.000764624
0.00073072
0.00073072
0.00073072
0.000596338
0.000596338
0.000596338
0.000758635
0.000758635
0.000758635
0.000764421
0.000764421
0.000764421
0.000714489
0.000714489
0.000714489
0.00071708
0.00071708
0.00071708
0.000709327
0.000709327
0.000709327
0.000714593
0.000714593
0.000714593
0.00071467
0.00071467
0.00071467
0.000717292
0.000717292
0.000717292
0.000704208
0.000704208
0.000704208
0.000709403
0.000709403
0.000709403
0.000706757
0.000706757
0.000706757
0.000701569
0.000701569
0.000701569
0.000699026
0.000699026
0.000699026
0.000678844
0.000678844
0.000678844
0.000675947
0.000675947
0.000675947
0.000621383
0.000621383
0.000621383
0.000656404
0.000656404
0.000656404
0.000659157
0.000659157
0.000659157
0.000663919
0.000663919
0.000663919
0.000648202
0.000648202
0.000648202
0.00065012
0.00065012
0.00065012
0.000633695
0.000633695
0.000633695
0.000605843
0.000605843
0.000605843
0.000626543
0.000626543
0.000626543
0.000672315
0.000672315
0.000672315
0.000682144
0.000682144
0.000682144
0.000679279
0.000679279
0.000679279
0.000674369
0.000674369
0.000674369
0.000675133
0.000675133
0.000675133
0.000680052
0.000680052
0.000680052
0.0006951
0.0006951
0.0006951
0.000698044
0.000698044
0.000698044
0.000690798
0.000690798
0.000690798
0.000695873
0.000695873
0.000695873
0.000712179
0.000712179
0.000712179
0.000714433
0.000714433
0.000714433
0.000700257
0.000700257
0.000700257
0.000705267
0.000705267
0.000705267
0.000746266
0.000746266
0.000746266
0.000741683
0.000741683
0.000741683
0.000740677
0.000740677
0.000740677
0.000738405
0.000738405
0.000738405
0.000843505
0.000843505
0.000843505
0.000847392
0.000847392
0.000847392
0.000844563
0.000844563
0.000844563
0.000837908
0.000837908
0.000837908
0.000808358
0.000808358
0.000808358
0.000824295
0.000824295
0.000824295
0.000830796
0.000830796
0.000830796
0.00079539
0.00079539
0.00079539
0.000802646
0.000802646
0.000802646
0.000791788
0.000791788
0.000791788
0.000665921
0.000665921
0.000665921
0.000687591
0.000687591
0.000687591
0.000684665
0.000684665
0.000684665
0.000686728
0.000686728
0.000686728
0.000691757
0.000691757
0.000691757
0.00070715
0.00070715
0.00070715
0.000701967
0.000701967
0.000701967
0.000681991
0.000681991
0.000681991
0.000677961
0.000677961
0.000677961
0.000677059
0.000677059
0.000677059
0.000675052
0.000675052
0.000675052
0.000691063
0.000691063
0.000691063
0.000685752
0.000685752
0.000685752
0.000660597
0.000660597
0.000660597
0.000654794
0.000654794
0.000654794
0.000656727
0.000656727
0.000656727
0.000641949
0.000641949
0.000641949
0.000647386
0.000647386
0.000647386
0.000640088
0.000640088
0.000640088
0.00064278
0.00064278
0.00064278
0.000632881
0.000632881
0.000632881
0.000628408
0.000628408
0.000628408
0.000625792
0.000625792
0.000625792
0.000849581
0.000849581
0.000849581
0.000844034
0.000844034
0.000844034
0.000848326
0.000848326
0.000848326
0.000845761
0.000845761
0.000845761
0.000855329
0.000855329
0.000855329
0.000836487
0.000836487
0.000836487
0.000817081
0.000817081
0.000817081
0.000829939
0.000829939
0.000829939
0.000826121
0.000826121
0.000826121
0.000819708
0.000819708
0.000819708
0.000811513
0.000811513
0.000811513
0.000801568
0.000801568
0.000801568
0.000805227
0.000805227
0.000805227
0.000804131
0.000804131
0.000804131
0.000779994
0.000779994
0.000779994
0.000782403
0.000782403
0.000782403
0.000807004
0.000807004
0.000807004
0.000810744
0.000810744
0.000810744
0.000850407
0.000850407
0.000850407
0.00084944
0.00084944
0.00084944
0.000846565
0.000846565
0.000846565
0.00086999
0.00086999
0.00086999
0.000866014
0.000866014
0.000866014
0.00085913
0.00085913
0.00085913
0.000856217
0.000856217
0.000856217
0.000860483
0.000860483
0.000860483
0.00085078
0.00085078
0.00085078
0.00085359
0.00085359
0.00085359
0.000864558
0.000864558
0.000864558
0.000857027
0.000857027
0.000857027
0.000863905
0.000863905
0.000863905
0.000828565
0.000828565
0.000828565
0.000825807
0.000825807
0.000825807
0.000782975
0.000782975
0.000782975
0.000779541
0.000779541
0.000779541
0.000795908
0.000795908
0.000795908
0.000819358
0.000819358
0.000819358
0.000815677
0.000815677
0.000815677
0.000821207
0.000821207
0.000821207
0.00079948
0.00079948
0.00079948
0.000805711
0.000805711
0.000805711
0.000809337
0.000809337
0.000809337
0.000806667
0.000806667
0.000806667
0.000836103
0.000836103
0.000836103
0.000830482
0.000830482
0.000830482
0.000837053
0.000837053
0.000837053
0.000839892
0.000839892
0.000839892
0.00082676
0.00082676
0.00082676
0.000829542
0.000829542
0.000829542
0.000851338
0.000851338
0.000851338
0.00085813
0.00085813
0.00085813
0.000862011
0.000862011
0.000862011
0.000859033
0.000859033
0.000859033
0.000837966
0.000837966
0.000837966
0.000831385
0.000831385
0.000831385
0.000828557
0.000828557
0.000828557
0.000774179
0.000774179
0.000774179
0.000768283
0.000768283
0.000768283
0.000677605
0.000677605
0.000677605
0.000697704
0.000697704
0.000697704
0.000675273
0.000675273
0.000675273
0.000677852
0.000677852
0.000677852
0.000700134
0.000700134
0.000700134
0.000690105
0.000690105
0.000690105
0.000687806
0.000687806
0.000687806
0.000713574
0.000713574
0.000713574
0.000710709
0.000710709
0.000710709
0.000705005
0.000705005
0.000705005
0.000718887
0.000718887
0.000718887
0.000721791
0.000721791
0.000721791
0.000727189
0.000727189
0.000727189
0.000729677
0.000729677
0.000729677
0.000691384
0.000691384
0.000691384
0.000699346
0.000699346
0.000699346
0.000702235
0.000702235
0.000702235
0.000707429
0.000707429
0.000707429
0.000709728
0.000709728
0.000709728
0.000738155
0.000738155
0.000738155
0.000735158
0.000735158
0.000735158
0.000719204
0.000719204
0.000719204
0.000723968
0.000723968
0.000723968
0.000713106
0.000713106
0.000713106
0.000710229
0.000710229
0.000710229
0.000736637
0.000736637
0.000736637
0.000733606
0.000733606
0.000733606
0.000713642
0.000713642
0.000713642
0.000708387
0.000708387
0.000708387
0.00070893
0.00070893
0.00070893
0.00075349
0.00075349
0.00075349
0.000563829
0.000563829
0.000563829
0.000565692
0.000565692
0.000565692
0.000565875
0.000565875
0.000565875
0.000586732
0.000586732
0.000586732
0.000578384
0.000578384
0.000578384
0.000582658
0.000582658
0.000582658
0.000560209
0.000560209
0.000560209
0.000555315
0.000555315
0.000555315
0.000557002
0.000557002
0.000557002
0.000657922
0.000657922
0.000657922
0.000660659
0.000660659
0.000660659
0.000658646
0.000658646
0.000658646
0.000653931
0.000653931
0.000653931
0.000666161
0.000666161
0.000666161
0.000661375
0.000661375
0.000661375
0.00056527
0.00056527
0.00056527
0.000569201
0.000569201
0.000569201
0.0005632
0.0005632
0.0005632
0.00056503
0.00056503
0.00056503
0.000568697
0.000568697
0.000568697
0.000570533
0.000570533
0.000570533
0.000574508
0.000574508
0.000574508
0.000574213
0.000574213
0.000574213
0.000576362
0.000576362
0.000576362
0.00058256
0.00058256
0.00058256
0.000580387
0.000580387
0.000580387
0.000561775
0.000561775
0.000561775
0.000560692
0.000560692
0.000560692
0.000632173
0.000632173
0.000632173
0.00064126
0.00064126
0.00064126
0.0005685
0.0005685
0.0005685
0.00057151
0.00057151
0.00057151
0.000575496
0.000575496
0.000575496
0.000569629
0.000569629
0.000569629
0.000808952
0.000808952
0.000808952
0.000821085
0.000821085
0.000821085
0.000841588
0.000841588
0.000841588
0.000841809
0.000841809
0.000841809
0.000838383
0.000838383
0.000838383
0.00082217
0.00082217
0.00082217
0.0008318
0.0008318
0.0008318
0.000828645
0.000828645
0.000828645
0.000838146
0.000838146
0.000838146
0.000849045
0.000849045
0.000849045
0.000832752
0.000832752
0.000832752
0.000826247
0.000826247
0.000826247
0.000874451
0.000874451
0.000874451
0.0008575
0.0008575
0.0008575
0.000864358
0.000864358
0.000864358
0.00086749
0.00086749
0.00086749
0.000843996
0.000843996
0.000843996
0.000858686
0.000858686
0.000858686
0.00086556
0.00086556
0.00086556
0.000755826
0.000755826
0.000755826
0.000758749
0.000758749
0.000758749
0.000755928
0.000755928
0.000755928
0.00077339
0.00077339
0.00077339
0.000767505
0.000767505
0.000767505
0.000776304
0.000776304
0.000776304
0.000773283
0.000773283
0.000773283
0.000764537
0.000764537
0.000764537
0.000767401
0.000767401
0.000767401
0.000733407
0.000733407
0.000733407
0.0007388
0.0007388
0.0007388
0.000736312
0.000736312
0.000736312
0.0007308
0.0007308
0.0007308
0.000733503
0.000733503
0.000733503
0.000596939
0.000596939
0.000596939
0.000629161
0.000629161
0.000629161
0.000620288
0.000620288
0.000620288
0.00064181
0.00064181
0.00064181
0.000646422
0.000646422
0.000646422
0.000645433
0.000645433
0.000645433
0.000659505
0.000659505
0.000659505
0.000664267
0.000664267
0.000664267
0.000631741
0.000631741
0.000631741
0.000627178
0.000627178
0.000627178
0.000622737
0.000622737
0.000622737
0.000627243
0.000627243
0.000627243
0.000629451
0.000629451
0.000629451
0.000626988
0.000626988
0.000626988
0.000622551
0.000622551
0.000622551
0.000616111
0.000616111
0.000616111
0.000620493
0.000620493
0.000620493
0.000622654
0.000622654
0.000622654
0.000620401
0.000620401
0.000620401
0.000600537
0.000600537
0.000600537
0.000776184
0.000776184
0.000776184
0.000782162
0.000782162
0.000782162
0.000725182
0.000725182
0.000725182
0.000722426
0.000722426
0.000722426
0.000730612
0.000730612
0.000730612
0.000733285
0.000733285
0.000733285
0.000714359
0.000714359
0.000714359
0.000673978
0.000673978
0.000673978
0.00067149
0.00067149
0.00067149
0.00066909
0.00066909
0.00066909
0.000669021
0.000669021
0.000669021
0.000671406
0.000671406
0.000671406
0.000698951
0.000698951
0.000698951
0.000693841
0.000693841
0.000693841
0.000676055
0.000676055
0.000676055
0.000709224
0.000709224
0.000709224
0.000698851
0.000698851
0.000698851
0.000706667
0.000706667
0.000706667
0.00070148
0.00070148
0.00070148
0.00062025
0.00062025
0.00062025
0.000624654
0.000624654
0.000624654
0.000644373
0.000644373
0.000644373
0.000626596
0.000626596
0.000626596
0.000629214
0.000629214
0.000629214
0.0006409
0.0006409
0.0006409
0.000636353
0.000636353
0.000636353
0.000643588
0.000643588
0.000643588
0.000641691
0.000641691
0.000641691
0.00064246
0.00064246
0.00064246
0.000637898
0.000637898
0.000637898
0.000612683
0.000612683
0.000612683
0.000608389
0.000608389
0.000608389
0.000697254
0.000697254
0.000697254
0.000694302
0.000694302
0.000694302
0.000696439
0.000696439
0.000696439
0.000701568
0.000701568
0.000701568
0.000704569
0.000704569
0.000704569
0.000702392
0.000702392
0.000702392
0.000698808
0.000698808
0.000698808
0.000703963
0.000703963
0.000703963
0.00070471
0.00070471
0.00070471
0.000706939
0.000706939
0.000706939
0.00068865
0.00068865
0.00068865
0.000681521
0.000681521
0.000681521
0.000683647
0.000683647
0.000683647
0.000712924
0.000712924
0.000712924
0.000715197
0.000715197
0.000715197
0.000715933
0.000715933
0.000715933
0.00074546
0.00074546
0.00074546
0.000751103
0.000751103
0.000751103
0.000717676
0.000717676
0.000717676
0.000707396
0.000707396
0.000707396
0.000706222
0.000706222
0.000706222
0.000708357
0.000708357
0.000708357
0.000709299
0.000709299
0.000709299
0.000714557
0.000714557
0.000714557
0.000731893
0.000731893
0.000731893
0.000739652
0.000739652
0.000739652
0.000737387
0.000737387
0.000737387
0.000757625
0.000757625
0.000757625
0.000771622
0.000771622
0.000771622
0.000765761
0.000765761
0.000765761
0.000763397
0.000763397
0.000763397
0.000766833
0.000766833
0.000766833
0.000785715
0.000785715
0.000785715
0.000835772
0.000835772
0.000835772
0.000841274
0.000841274
0.000841274
0.000834649
0.000834649
0.000834649
0.000831928
0.000831928
0.000831928
0.000833028
0.000833028
0.000833028
0.000834091
0.000834091
0.000834091
0.000836859
0.000836859
0.000836859
0.000826499
0.000826499
0.000826499
0.000833494
0.000833494
0.000833494
0.000842844
0.000842844
0.000842844
0.000840106
0.000840106
0.000840106
0.000829636
0.000829636
0.000829636
0.000815233
0.000815233
0.000815233
0.000821631
0.000821631
0.000821631
0.000825413
0.000825413
0.000825413
0.000822727
0.000822727
0.000822727
0.000783538
0.000783538
0.000783538
0.000789592
0.000789592
0.000789592
0.000794306
0.000794306
0.000794306
0.000800471
0.000800471
0.000800471
0.000793208
0.000793208
0.000793208
0.0007907
0.0007907
0.0007907
0.000670748
0.000670748
0.000670748
0.000680542
0.000680542
0.000680542
0.000678483
0.000678483
0.000678483
0.000673581
0.000673581
0.000673581
0.000679705
0.000679705
0.000679705
0.000669928
0.000669928
0.000669928
0.000677662
0.000677662
0.000677662
0.000672769
0.000672769
0.000672769
0.000676817
0.000676817
0.000676817
0.000671933
0.000671933
0.000671933
0.00065837
0.00065837
0.00065837
0.000663124
0.000663124
0.000663124
0.00066511
0.00066511
0.00066511
0.000655611
0.000655611
0.000655611
0.00065756
0.00065756
0.00065756