<VTKFile type="UnstructuredGrid" version="1.0">
<UnstructuredGrid>
<Piece NumberOfPoints="8859" NumberOfCells="2953">
<Points>
<DataArray type="Float64" NumberOfComponents="3" format="ascii">
3.01 0.5 0.949999
3.01 0.487476 0.9725
3.01 0.512524 0.9725
3.01 0.17352 0.0725
3.01 0.148445 0.0725
3.01 0.160827 0.0942156
3.01 0.122979 0.115893
3.01 0.135644 0.0942238
3.01 0.110383 0.0942144
3.01 0.135644 0.0942238
3.01 0.123433 0.0725
3.01 0.110383 0.0942144
3.01 0.123433 0.0725
3.01 0.135644 0.0942238
3.01 0.148445 0.0725
3.01 0.135644 0.0942238
3.01 0.160827 0.0942156
3.01 0.148445 0.0725
3.01 0.17352 0.0725
3.01 0.185985 0.0942041
3.01 0.198629 0.0725
3.01 0.185985 0.0942041
3.01 0.17352 0.0725
3.01 0.160827 0.0942156
3.01 0.0732297 0.115673
3.01 0.0848754 0.0941414
3.01 0.0586606 0.0938057
3.01 0.05 0.905275
3.01 0.058509 0.882557
3.01 0.05 0.8601
3.01 0.324276 0.0725
3.01 0.336827 0.0941645
3.01 0.349395 0.0725
3.01 0.148138 0.115901
3.01 0.160827 0.0942156
3.01 0.135644 0.0942238
3.01 0.122979 0.115893
3.01 0.148138 0.115901
3.01 0.135644 0.0942238
3.01 0.160827 0.0942156
3.01 0.173316 0.115893
3.01 0.185985 0.0942041
3.01 0.185806 0.137548
3.01 0.173316 0.115893
3.01 0.160572 0.137553
3.01 0.173316 0.115893
3.01 0.160827 0.0942156
3.01 0.148138 0.115901
3.01 0.160572 0.137553
3.01 0.173316 0.115893
3.01 0.148138 0.115901
3.01 0.211137 0.0941934
3.01 0.198629 0.0725
3.01 0.185985 0.0942041
3.01 0.0979162 0.11584
3.01 0.122979 0.115893
3.01 0.110383 0.0942144
3.01 0.122979 0.115893
3.01 0.0979162 0.11584
3.01 0.109875 0.137487
3.01 0.0732297 0.115673
3.01 0.0979162 0.11584
3.01 0.0848754 0.0941414
3.01 0.0979162 0.11584
3.01 0.110383 0.0942144
3.01 0.0848754 0.0941414
3.01 0.0975729 0.159044
3.01 0.122678 0.159138
3.01 0.109875 0.137487
3.01 0.0841718 0.137346
3.01 0.0732297 0.115673
3.01 0.0577122 0.137024
3.01 0.0729308 0.158876
3.01 0.0841718 0.137346
3.01 0.0577122 0.137024
3.01 0.0732297 0.115673
3.01 0.0841718 0.137346
3.01 0.0979162 0.11584
3.01 0.0841718 0.137346
3.01 0.109875 0.137487
3.01 0.0979162 0.11584
3.01 0.0975729 0.159044
3.01 0.0841718 0.137346
3.01 0.0729308 0.158876
3.01 0.0841718 0.137346
3.01 0.0975729 0.159044
3.01 0.109875 0.137487
3.01 0.073948 0.0725
3.01 0.05 0.0725
3.01 0.0586606 0.0938057
3.01 0.073948 0.0725
3.01 0.0586606 0.0938057
3.01 0.0848754 0.0941414
3.01 0.05 0.948285
3.01 0.0603641 0.926975
3.01 0.05 0.905275
3.01 0.0603641 0.926975
3.01 0.05 0.948285
3.01 0.0753197 0.948991
3.01 0.0709395 0.9725
3.01 0.05 0.948285
3.01 0.05 0.9725
3.01 0.05 0.948285
3.01 0.0709395 0.9725
3.01 0.0753197 0.948991
3.01 0.0579641 0.659634
3.01 0.05 0.637613
3.01 0.05 0.681692
3.01 0.0841948 0.571795
3.01 0.109814 0.571797
3.01 0.097638 0.549925
3.01 0.0841948 0.571795
3.01 0.0578646 0.571797
3.01 0.0730539 0.593696
3.01 0.0580261 0.703799
3.01 0.05 0.681692
3.01 0.05 0.725948
3.01 0.942292 0.267355
3.01 0.95 0.289044
3.01 0.95 0.24567
3.01 0.95 0.202257
3.01 0.942332 0.223968
3.01 0.95 0.24567
3.01 0.73872 0.484532
3.01 0.75132 0.462755
3.01 0.726137 0.462762
3.01 0.751305 0.506322
3.01 0.73872 0.484532
3.01 0.726124 0.506332
3.01 0.713546 0.48454
3.01 0.73872 0.484532
3.01 0.726137 0.462762
3.01 0.73872 0.484532
3.01 0.713546 0.48454
3.01 0.726124 0.506332
3.01 0.814318 0.528113
3.01 0.801709 0.506302
3.01 0.789096 0.528124
3.01 0.7765 0.506312
3.01 0.801709 0.506302
3.01 0.789115 0.484514
3.01 0.801709 0.506302
3.01 0.7765 0.506312
3.01 0.789096 0.528124
3.01 0.7765 0.506312
3.01 0.763892 0.528136
3.01 0.789096 0.528124
3.01 0.763892 0.528136
3.01 0.7765 0.506312
3.01 0.751305 0.506322
3.01 0.95 0.9725
3.01 0.95 0.948285
3.01 0.929061 0.9725
3.01 0.95 0.770402
3.01 0.941913 0.748153
3.01 0.926844 0.770398
3.01 0.941913 0.748153
3.01 0.95 0.770402
3.01 0.95 0.725948
3.01 0.926866 0.725943
3.01 0.941913 0.748153
3.01 0.95 0.725948
3.01 0.941974 0.703799
3.01 0.926866 0.725943
3.01 0.95 0.725948
3.01 0.95 0.681692
3.01 0.941974 0.703799
3.01 0.95 0.725948
3.01 0.941974 0.703799
3.01 0.95 0.681692
3.01 0.926895 0.681686
3.01 0.6127 0.9725
3.01 0.637734 0.9725
3.01 0.625238 0.949983
3.01 0.662757 0.9725
3.01 0.650275 0.949974
3.01 0.637734 0.9725
3.01 0.650275 0.949974
3.01 0.625238 0.949983
3.01 0.637734 0.9725
3.01 0.600415 0.506367
3.01 0.575304 0.506371
3.01 0.587856 0.528197
3.01 0.575304 0.506371
3.01 0.562749 0.5282
3.01 0.587856 0.528197
3.01 0.336827 0.0941645
3.01 0.361946 0.0941621
3.01 0.349395 0.0725
3.01 0.223755 0.0725
3.01 0.198629 0.0725
3.01 0.211137 0.0941934
3.01 0.185985 0.0942041
3.01 0.198492 0.115879
3.01 0.211137 0.0941934
3.01 0.185806 0.137548
3.01 0.198492 0.115879
3.01 0.173316 0.115893
3.01 0.198492 0.115879
3.01 0.185985 0.0942041
3.01 0.173316 0.115893
3.01 0.0576202 0.180527
3.01 0.05 0.158739
3.01 0.05 0.202257
3.01 0.05 0.158739
3.01 0.0576202 0.180527
3.01 0.0729308 0.158876
3.01 0.05 0.158739
3.01 0.0729308 0.158876
3.01 0.0577122 0.137024
3.01 0.135283 0.13754
3.01 0.122979 0.115893
3.01 0.109875 0.137487
3.01 0.135283 0.13754
3.01 0.109875 0.137487
3.01 0.122678 0.159138
3.01 0.122979 0.115893
3.01 0.135283 0.13754
3.01 0.148138 0.115901
3.01 0.135283 0.13754
3.01 0.160572 0.137553
3.01 0.148138 0.115901
3.01 0.123433 0.0725
3.01 0.0985513 0.0725
3.01 0.110383 0.0942144
3.01 0.110383 0.0942144
3.01 0.0985513 0.0725
3.01 0.0848754 0.0941414
3.01 0.0848754 0.0941414
3.01 0.0985513 0.0725
3.01 0.073948 0.0725
3.01 0.0603641 0.926975
3.01 0.0739464 0.904488
3.01 0.05 0.905275
3.01 0.0739464 0.904488
3.01 0.058509 0.882557
3.01 0.05 0.905275
3.01 0.058509 0.882557
3.01 0.0739464 0.904488
3.01 0.0849548 0.882108
3.01 0.058509 0.882557
3.01 0.0732725 0.859878
3.01 0.05 0.8601
3.01 0.0732725 0.859878
3.01 0.058509 0.882557
3.01 0.0849548 0.882108
3.01 0.5 0.949999
3.01 0.47495 0.949998
3.01 0.487476 0.9725
3.01 0.097663 0.593697
3.01 0.109814 0.571797
3.01 0.0841948 0.571795
3.01 0.0730539 0.593696
3.01 0.097663 0.593697
3.01 0.0841948 0.571795
3.01 0.0578646 0.571797
3.01 0.05 0.593697
3.01 0.0730539 0.593696
3.01 0.05 0.593697
3.01 0.0578646 0.571797
3.01 0.05 0.549924
3.01 0.05 0.770402
3.01 0.0580869 0.748153
3.01 0.05 0.725948
3.01 0.05 0.725948
3.01 0.073134 0.725943
3.01 0.0580261 0.703799
3.01 0.073134 0.725943
3.01 0.05 0.725948
3.01 0.0580869 0.748153
3.01 0.942268 0.310726
3.01 0.95 0.332415
3.01 0.95 0.289044
3.01 0.942292 0.267355
3.01 0.927025 0.289036
3.01 0.95 0.289044
3.01 0.927025 0.289036
3.01 0.915919 0.310722
3.01 0.942268 0.310726
3.01 0.95 0.289044
3.01 0.927025 0.289036
3.01 0.942268 0.310726
3.01 0.927013 0.332411
3.01 0.95 0.332415
3.01 0.942268 0.310726
3.01 0.915919 0.310722
3.01 0.927013 0.332411
3.01 0.942268 0.310726
3.01 0.801738 0.419254
3.01 0.826957 0.419247
3.01 0.814364 0.39753
3.01 0.852174 0.419241
3.01 0.839609 0.397524
3.01 0.826957 0.419247
3.01 0.839609 0.397524
3.01 0.814364 0.39753
3.01 0.826957 0.419247
3.01 0.776516 0.462747
3.01 0.763923 0.440999
3.01 0.75132 0.462755
3.01 0.776516 0.462747
3.01 0.789115 0.484514
3.01 0.801725 0.462739
3.01 0.738704 0.528148
3.01 0.763892 0.528136
3.01 0.751305 0.506322
3.01 0.726124 0.506332
3.01 0.738704 0.528148
3.01 0.751305 0.506322
3.01 0.915617 0.748141
3.01 0.926866 0.725943
3.01 0.902228 0.725937
3.01 0.926866 0.725943
3.01 0.915617 0.748141
3.01 0.941913 0.748153
3.01 0.915617 0.748141
3.01 0.926844 0.770398
3.01 0.941913 0.748153
3.01 0.915617 0.748141
3.01 0.902193 0.770377
3.01 0.926844 0.770398
3.01 0.926866 0.725943
3.01 0.915668 0.703791
3.01 0.902228 0.725937
3.01 0.902267 0.681684
3.01 0.915668 0.703791
3.01 0.926895 0.681686
3.01 0.915668 0.703791
3.01 0.926866 0.725943
3.01 0.941974 0.703799
3.01 0.926895 0.681686
3.01 0.915668 0.703791
3.01 0.941974 0.703799
3.01 0.902267 0.681684
3.01 0.890059 0.703789
3.01 0.915668 0.703791
3.01 0.890059 0.703789
3.01 0.902228 0.725937
3.01 0.915668 0.703791
3.01 0.826927 0.506292
3.01 0.801709 0.506302
3.01 0.814318 0.528113
3.01 0.864816 0.571805
3.01 0.890186 0.571797
3.01 0.877308 0.54993
3.01 0.877308 0.54993
3.01 0.852122 0.549939
3.01 0.864816 0.571805
3.01 0.890186 0.571797
3.01 0.902362 0.549925
3.01 0.877308 0.54993
3.01 0.902362 0.549925
3.01 0.890186 0.571797
3.01 0.915805 0.571795
3.01 0.902362 0.549925
3.01 0.915805 0.571795
3.01 0.926964 0.549924
3.01 0.915835 0.528085
3.01 0.902362 0.549925
3.01 0.926964 0.549924
3.01 0.942171 0.528086
3.01 0.915835 0.528085
3.01 0.926964 0.549924
3.01 0.915835 0.528085
3.01 0.942171 0.528086
3.01 0.926978 0.506271
3.01 0.942171 0.528086
3.01 0.95 0.50627
3.01 0.926978 0.506271
3.01 0.87737 0.375808
3.01 0.902417 0.375804
3.01 0.890277 0.354106
3.01 0.852144 0.506284
3.01 0.864842 0.528094
3.01 0.877329 0.506277
3.01 0.877308 0.54993
3.01 0.864842 0.528094
3.01 0.852122 0.549939
3.01 0.902396 0.462716
3.01 0.890234 0.484486
3.01 0.915858 0.484483
3.01 0.926997 0.419232
3.01 0.95 0.419232
3.01 0.942237 0.397513
3.01 0.91589 0.397513
3.01 0.926997 0.419232
3.01 0.942237 0.397513
3.01 0.942199 0.484483
3.01 0.95 0.50627
3.01 0.95 0.462714
3.01 0.95 0.50627
3.01 0.942199 0.484483
3.01 0.926978 0.506271
3.01 0.942199 0.484483
3.01 0.915858 0.484483
3.01 0.926978 0.506271
3.01 0.95 0.419232
3.01 0.942221 0.440966
3.01 0.95 0.462714
3.01 0.942221 0.440966
3.01 0.95 0.419232
3.01 0.926997 0.419232
3.01 0.915876 0.440966
3.01 0.942221 0.440966
3.01 0.926997 0.419232
3.01 0.926989 0.462714
3.01 0.902396 0.462716
3.01 0.915858 0.484483
3.01 0.902396 0.462716
3.01 0.926989 0.462714
3.01 0.915876 0.440966
3.01 0.926989 0.462714
3.01 0.915858 0.484483
3.01 0.942199 0.484483
3.01 0.95 0.462714
3.01 0.926989 0.462714
3.01 0.942199 0.484483
3.01 0.915876 0.440966
3.01 0.926989 0.462714
3.01 0.942221 0.440966
3.01 0.926989 0.462714
3.01 0.95 0.462714
3.01 0.942221 0.440966
3.01 0.91353 0.926855
3.01 0.939636 0.926975
3.01 0.926054 0.904488
3.01 0.926728 0.859878
3.01 0.941491 0.882557
3.01 0.95 0.8601
3.01 0.926728 0.859878
3.01 0.95 0.8601
3.01 0.941822 0.837536
3.01 0.95 0.905275
3.01 0.939636 0.926975
3.01 0.95 0.948285
3.01 0.95 0.905275
3.01 0.941491 0.882557
3.01 0.926054 0.904488
[...]
<PointData Scalars="View Factor" >
<DataArray type="Float64" Name="View Factor" NumberOfComponents="1" format="ascii">
5.96508e-05
5.96508e-05
5.96508e-05
7.67896e-05
7.67896e-05
7.67896e-05
7.63134e-05
7.63134e-05
7.63134e-05
7.66361e-05
7.66361e-05
7.66361e-05
7.67955e-05
7.67955e-05
7.67955e-05
7.66306e-05
7.66306e-05
7.66306e-05
7.67828e-05
7.67828e-05
7.67828e-05
7.66243e-05
7.66243e-05
7.66243e-05
7.63266e-05
7.63266e-05
7.63266e-05
6.11569e-05
6.11569e-05
6.11569e-05
7.672e-05
7.672e-05
7.672e-05
7.63079e-05
7.63079e-05
7.63079e-05
7.61502e-05
7.61502e-05
7.61502e-05
7.63017e-05
7.63017e-05
7.63017e-05
7.56624e-05
7.56624e-05
7.56624e-05
7.61444e-05
7.61444e-05
7.61444e-05
7.58248e-05
7.58248e-05
7.58248e-05
7.6617e-05
7.6617e-05
7.6617e-05
7.61556e-05
7.61556e-05
7.61556e-05
7.58364e-05
7.58364e-05
7.58364e-05
7.61617e-05
7.61617e-05
7.61617e-05
7.63189e-05
7.63189e-05
7.63189e-05
7.52037e-05
7.52037e-05
7.52037e-05
7.56889e-05
7.56889e-05
7.56889e-05
7.53726e-05
7.53726e-05
7.53726e-05
7.58429e-05
7.58429e-05
7.58429e-05
7.56809e-05
7.56809e-05
7.56809e-05
7.52104e-05
7.52104e-05
7.52104e-05
7.53646e-05
7.53646e-05
7.53646e-05
7.68105e-05
7.68105e-05
7.68105e-05
7.66476e-05
7.66476e-05
7.66476e-05
6.04167e-05
6.04167e-05
6.04167e-05
6.01746e-05
6.01746e-05
6.01746e-05
5.9796e-05
5.9796e-05
5.9796e-05
5.99241e-05
5.99241e-05
5.99241e-05
6.50687e-05
6.50687e-05
6.50687e-05
6.68281e-05
6.68281e-05
6.68281e-05
6.65566e-05
6.65566e-05
6.65566e-05
6.42696e-05
6.42696e-05
6.42696e-05
7.2084e-05
7.2084e-05
7.2084e-05
7.29881e-05
7.29881e-05
7.29881e-05
6.82775e-05
6.82775e-05
6.82775e-05
6.77188e-05
6.77188e-05
6.77188e-05
6.81497e-05
6.81497e-05
6.81497e-05
6.78702e-05
6.78702e-05
6.78702e-05
6.72397e-05
6.72397e-05
6.72397e-05
6.76681e-05
6.76681e-05
6.76681e-05
6.73909e-05
6.73909e-05
6.73909e-05
6.72656e-05
6.72656e-05
6.72656e-05
6.74165e-05
6.74165e-05
6.74165e-05
5.93102e-05
5.93102e-05
5.93102e-05
6.26942e-05
6.26942e-05
6.26942e-05
6.29436e-05
6.29436e-05
6.29436e-05
6.32116e-05
6.32116e-05
6.32116e-05
6.34717e-05
6.34717e-05
6.34717e-05
6.37237e-05
6.37237e-05
6.37237e-05
6.39948e-05
6.39948e-05
6.39948e-05
5.95735e-05
5.95735e-05
5.95735e-05
5.9556e-05
5.9556e-05
5.9556e-05
5.96875e-05
5.96875e-05
5.96875e-05
6.75726e-05
6.75726e-05
6.75726e-05
6.74434e-05
6.74434e-05
6.74434e-05
7.65517e-05
7.65517e-05
7.65517e-05
7.67748e-05
7.67748e-05
7.67748e-05
7.62946e-05
7.62946e-05
7.62946e-05
7.58181e-05
7.58181e-05
7.58181e-05
7.61378e-05
7.61378e-05
7.61378e-05
7.45889e-05
7.45889e-05
7.45889e-05
7.49017e-05
7.49017e-05
7.49017e-05
7.52177e-05
7.52177e-05
7.52177e-05
7.56747e-05
7.56747e-05
7.56747e-05
7.53582e-05
7.53582e-05
7.53582e-05
7.58307e-05
7.58307e-05
7.58307e-05
7.56688e-05
7.56688e-05
7.56688e-05
7.68005e-05
7.68005e-05
7.68005e-05
7.66411e-05
7.66411e-05
7.66411e-05
7.6805e-05
7.6805e-05
7.6805e-05
6.06594e-05
6.06594e-05
6.06594e-05
6.09074e-05
6.09074e-05
6.09074e-05
6.10363e-05
6.10363e-05
6.10363e-05
6.14124e-05
6.14124e-05
6.14124e-05
6.12872e-05
6.12872e-05
6.12872e-05
5.97803e-05
5.97803e-05
5.97803e-05
6.65538e-05
6.65538e-05
6.65538e-05
6.64186e-05
6.64186e-05
6.64186e-05
6.64209e-05
6.64209e-05
6.64209e-05
6.66951e-05
6.66951e-05
6.66951e-05
6.34795e-05
6.34795e-05
6.34795e-05
6.4005e-05
6.4005e-05
6.4005e-05
6.37416e-05
6.37416e-05
6.37416e-05
7.11942e-05
7.11942e-05
7.11942e-05
7.17963e-05
7.17963e-05
7.17963e-05
7.13672e-05
7.13672e-05
7.13672e-05
7.14997e-05
7.14997e-05
7.14997e-05
7.09109e-05
7.09109e-05
7.09109e-05
7.10727e-05
7.10727e-05
7.10727e-05
6.933e-05
6.933e-05
6.933e-05
6.93015e-05
6.93015e-05
6.93015e-05
6.94586e-05
6.94586e-05
6.94586e-05
6.85334e-05
6.85334e-05
6.85334e-05
6.82262e-05
6.82262e-05
6.82262e-05
6.72907e-05
6.72907e-05
6.72907e-05
6.74412e-05
6.74412e-05
6.74412e-05
6.32392e-05
6.32392e-05
6.32392e-05
6.30948e-05
6.30948e-05
6.30948e-05
6.2836e-05
6.2836e-05
6.2836e-05
6.27215e-05
6.27215e-05
6.27215e-05
6.34994e-05
6.34994e-05
6.34994e-05
6.40228e-05
6.40228e-05
6.40228e-05
6.36151e-05
6.36151e-05
6.36151e-05
6.38767e-05
6.38767e-05
6.38767e-05
6.39052e-05
6.39052e-05
6.39052e-05
6.36434e-05
6.36434e-05
6.36434e-05
6.73644e-05
6.73644e-05
6.73644e-05
6.63359e-05
6.63359e-05
6.63359e-05
6.64862e-05
6.64862e-05
6.64862e-05
6.64578e-05
6.64578e-05
6.64578e-05
6.6307e-05
6.6307e-05
6.6307e-05
6.64286e-05
6.64286e-05
6.64286e-05
6.67013e-05
6.67013e-05
6.67013e-05
6.68222e-05
6.68222e-05
6.68222e-05
6.70966e-05
6.70966e-05
6.70966e-05
6.72203e-05
6.72203e-05
6.72203e-05
7.01024e-05
7.01024e-05
7.01024e-05
6.7309e-05
6.7309e-05
6.7309e-05
6.67593e-05
6.67593e-05
6.67593e-05
6.79582e-05
6.79582e-05
6.79582e-05
6.91794e-05
6.91794e-05
6.91794e-05
6.93364e-05
6.93364e-05
6.93364e-05
6.7764e-05
6.7764e-05
6.7764e-05
6.74964e-05
6.74964e-05
6.74964e-05
6.7649e-05
6.7649e-05
6.7649e-05
6.86034e-05
6.86034e-05
6.86034e-05
6.88957e-05
6.88957e-05
6.88957e-05
6.87687e-05
6.87687e-05
6.87687e-05
6.80829e-05
6.80829e-05
6.80829e-05
6.83629e-05
6.83629e-05
6.83629e-05
6.7927e-05
6.7927e-05
6.7927e-05
6.80523e-05
6.80523e-05
6.80523e-05
6.84869e-05
6.84869e-05
6.84869e-05
6.83321e-05
6.83321e-05
6.83321e-05
6.00623e-05
6.00623e-05
6.00623e-05
6.09111e-05
6.09111e-05
6.09111e-05
6.11631e-05
6.11631e-05
6.11631e-05
5.99196e-05
5.99196e-05
5.99196e-05
6.04125e-05
6.04125e-05
6.04125e-05
6.01682e-05
6.01682e-05
6.01682e-05
6.065e-05
6.065e-05
6.065e-05
6.24368e-05
6.24368e-05
6.24368e-05
5.99725e-05
5.99725e-05
5.99725e-05
6.024e-05
6.024e-05
6.024e-05
5.99922e-05
5.99922e-05
5.99922e-05
5.98589e-05
5.98589e-05
5.98589e-05
5.94998e-05
5.94998e-05
5.94998e-05
5.96127e-05
5.96127e-05
5.96127e-05
5.94799e-05
5.94799e-05
5.94799e-05
6.11629e-05
6.11629e-05
6.11629e-05
6.07385e-05
6.07385e-05
6.07385e-05
6.03739e-05
6.03739e-05
6.03739e-05
6.06232e-05
6.06232e-05
6.06232e-05
6.04113e-05
6.04113e-05
6.04113e-05
6.06607e-05
6.06607e-05
6.06607e-05
5.99507e-05
5.99507e-05
5.99507e-05
5.97046e-05
5.97046e-05
5.97046e-05
5.95903e-05
5.95903e-05
5.95903e-05
6.80864e-05
6.80864e-05
6.80864e-05
6.7424e-05
6.7424e-05
6.7424e-05
6.6635e-05
6.6635e-05
6.6635e-05
6.63435e-05
6.63435e-05
6.63435e-05
6.66168e-05
6.66168e-05
6.66168e-05
6.67631e-05
6.67631e-05
6.67631e-05
6.71667e-05
6.71667e-05
6.71667e-05
6.70381e-05
6.70381e-05
6.70381e-05
6.63616e-05
6.63616e-05
6.63616e-05
6.62164e-05
6.62164e-05
6.62164e-05
6.47441e-05
6.47441e-05
6.47441e-05
6.6536e-05
6.6536e-05
6.6536e-05
6.66836e-05
6.66836e-05
6.66836e-05
6.69643e-05
6.69643e-05
6.69643e-05
6.64172e-05
6.64172e-05
6.64172e-05
7.6745e-05
7.6745e-05
7.6745e-05
7.6756e-05
7.6756e-05
7.6756e-05
7.65889e-05
7.65889e-05
7.65889e-05
7.6267e-05
7.6267e-05
7.6267e-05
7.62584e-05
7.62584e-05
7.62584e-05
6.90728e-05
6.90728e-05
6.90728e-05
6.85071e-05
6.85071e-05
6.85071e-05
6.89443e-05
6.89443e-05
6.89443e-05
6.86613e-05
6.86613e-05
6.86613e-05
6.86873e-05
6.86873e-05
6.86873e-05
6.85588e-05
6.85588e-05
6.85588e-05
7.61011e-05
7.61011e-05
7.61011e-05
7.6706e-05
7.6706e-05
7.6706e-05
7.64859e-05
7.64859e-05
7.64859e-05
7.19121e-05
7.19121e-05
7.19121e-05
7.20673e-05
7.20673e-05
7.20673e-05
7.55379e-05
7.55379e-05
7.55379e-05
7.64933e-05
7.64933e-05
7.64933e-05
7.61723e-05
7.61723e-05
7.61723e-05
7.58534e-05
7.58534e-05
7.58534e-05
6.09127e-05
6.09127e-05
6.09127e-05
5.96642e-05
5.96642e-05
5.96642e-05
6.4801e-05
6.4801e-05
6.4801e-05
6.45346e-05
6.45346e-05
6.45346e-05
6.61459e-05
6.61459e-05
6.61459e-05
7.42388e-05
7.42388e-05
7.42388e-05
6.47957e-05
6.47957e-05
6.47957e-05
6.45295e-05
6.45295e-05
6.45295e-05
6.6964e-05
6.6964e-05
6.6964e-05
6.68244e-05
6.68244e-05
6.68244e-05
6.72433e-05
6.72433e-05
6.72433e-05
6.69672e-05
6.69672e-05
6.69672e-05
6.69695e-05
6.69695e-05
6.69695e-05
6.6831e-05
6.6831e-05
6.6831e-05
6.75233e-05
6.75233e-05
6.75233e-05
6.72456e-05
6.72456e-05
6.72456e-05
6.73831e-05
6.73831e-05
6.73831e-05
6.76609e-05
6.76609e-05
6.76609e-05
6.78013e-05
6.78013e-05
6.78013e-05
6.75857e-05
6.75857e-05
6.75857e-05
6.77098e-05
6.77098e-05
6.77098e-05
7.09435e-05
7.09435e-05
7.09435e-05
6.90453e-05
6.90453e-05
6.90453e-05
6.89173e-05
6.89173e-05
6.89173e-05
6.86345e-05
6.86345e-05
6.86345e-05
6.94295e-05
6.94295e-05
6.94295e-05
6.9272e-05
6.9272e-05
6.9272e-05
7.02625e-05
7.02625e-05
7.02625e-05
7.19607e-05
7.19607e-05
7.19607e-05
7.11504e-05
7.11504e-05
7.11504e-05
6.82523e-05
6.82523e-05
6.82523e-05
6.76938e-05
6.76938e-05
6.76938e-05
6.78202e-05
6.78202e-05
6.78202e-05
6.80993e-05
6.80993e-05
6.80993e-05
6.81249e-05
6.81249e-05
6.81249e-05
6.78456e-05
6.78456e-05
6.78456e-05
6.7015e-05
6.7015e-05
6.7015e-05
6.68897e-05
6.68897e-05
6.68897e-05
6.73149e-05
6.73149e-05
6.73149e-05
6.70391e-05
6.70391e-05
6.70391e-05
6.62413e-05
6.62413e-05
6.62413e-05
6.60942e-05
6.60942e-05
6.60942e-05
6.69581e-05
6.69581e-05
6.69581e-05
6.60358e-05
6.60358e-05
6.60358e-05
6.40505e-05
6.40505e-05
6.40505e-05
6.43408e-05
6.43408e-05
6.43408e-05
6.43138e-05
6.43138e-05
6.43138e-05
6.44594e-05
6.44594e-05
6.44594e-05
6.03345e-05
6.03345e-05
6.03345e-05
6.02203e-05
6.02203e-05
6.02203e-05
6.03544e-05
6.03544e-05
6.03544e-05
6.06037e-05
6.06037e-05
6.06037e-05
6.17272e-05
6.17272e-05
6.17272e-05
6.09057e-05
6.09057e-05
6.09057e-05
6.06558e-05
6.06558e-05
6.06558e-05
6.20307e-05
6.20307e-05
6.20307e-05
6.17998e-05
6.17998e-05
6.17998e-05
6.2146e-05
6.2146e-05
6.2146e-05
6.84799e-05
6.84799e-05
6.84799e-05
6.72129e-05
6.72129e-05
6.72129e-05
6.73371e-05
6.73371e-05
6.73371e-05
6.71852e-05
6.71852e-05
6.71852e-05
6.69103e-05
6.69103e-05
6.69103e-05
6.60924e-05
6.60924e-05
6.60924e-05
6.63639e-05
6.63639e-05
6.63639e-05
6.72503e-05
6.72503e-05
6.72503e-05
6.75565e-05
6.75565e-05
6.75565e-05
6.75266e-05
6.75266e-05
6.75266e-05
6.768e-05
6.768e-05
6.768e-05
6.66717e-05
6.66717e-05
6.66717e-05
6.69358e-05
6.69358e-05
6.69358e-05
6.85184e-05
6.85184e-05
6.85184e-05
6.89877e-05
6.89877e-05
6.89877e-05
6.88311e-05
6.88311e-05
6.88311e-05
6.96546e-05
6.96546e-05
6.96546e-05
6.93995e-05
6.93995e-05
6.93995e-05
6.98141e-05
6.98141e-05
6.98141e-05
6.96858e-05
6.96858e-05
6.96858e-05
7.02309e-05
7.02309e-05
7.02309e-05
7.05212e-05
7.05212e-05
7.05212e-05
7.06511e-05
7.06511e-05
7.06511e-05
5.98893e-05
5.98893e-05
5.98893e-05
6.01585e-05
6.01585e-05
6.01585e-05
5.96897e-05
5.96897e-05
5.96897e-05
5.98191e-05
5.98191e-05
5.98191e-05
5.94461e-05
5.94461e-05
5.94461e-05
6.01995e-05
6.01995e-05
6.01995e-05
6.09422e-05
6.09422e-05
6.09422e-05
6.04459e-05
6.04459e-05
6.04459e-05
6.0553e-05
6.0553e-05
6.0553e-05
6.08007e-05
6.08007e-05
6.08007e-05
6.14084e-05
6.14084e-05
6.14084e-05
6.17764e-05
6.17764e-05
6.17764e-05
6.16614e-05
6.16614e-05
6.16614e-05
6.16374e-05
6.16374e-05
6.16374e-05
6.24641e-05
6.24641e-05
6.24641e-05
6.23212e-05
6.23212e-05
6.23212e-05
6.1303e-05
6.1303e-05
6.1303e-05
6.11926e-05
6.11926e-05
6.11926e-05
6.02779e-05
6.02779e-05
6.02779e-05
6.02592e-05
6.02592e-05
6.02592e-05
6.03929e-05
6.03929e-05
6.03929e-05
5.95192e-05
5.95192e-05
5.95192e-05
5.96323e-05
5.96323e-05
5.96323e-05
5.98784e-05
5.98784e-05
5.98784e-05
6.00114e-05
6.00114e-05
6.00114e-05
5.95295e-05
5.95295e-05
5.95295e-05
5.99109e-05
5.99109e-05
5.99109e-05
5.97766e-05
5.97766e-05
5.97766e-05
5.94168e-05
5.94168e-05
5.94168e-05
5.9839e-05
5.9839e-05
5.9839e-05
5.95926e-05
5.95926e-05
5.95926e-05
6.09893e-05
6.09893e-05
6.09893e-05
6.11249e-05
6.11249e-05
6.11249e-05
6.29334e-05
6.29334e-05
6.29334e-05
6.3053e-05
6.3053e-05
6.3053e-05
6.22376e-05
6.22376e-05
6.22376e-05
6.13772e-05
6.13772e-05
6.13772e-05
6.14939e-05
6.14939e-05
6.14939e-05
6.14155e-05
6.14155e-05
6.14155e-05
6.21201e-05
6.21201e-05
6.21201e-05
6.18648e-05
6.18648e-05
6.18648e-05
6.17477e-05
6.17477e-05
6.17477e-05
6.18851e-05
6.18851e-05
6.18851e-05
6.07578e-05
6.07578e-05
6.07578e-05
6.10277e-05
6.10277e-05
6.10277e-05
6.07767e-05
6.07767e-05
6.07767e-05
6.06422e-05
6.06422e-05
6.06422e-05
6.11441e-05
6.11441e-05
6.11441e-05
6.10087e-05
6.10087e-05
6.10087e-05
6.0296e-05
6.0296e-05
6.0296e-05
6.00482e-05
6.00482e-05
6.00482e-05
5.99335e-05
5.99335e-05
5.99335e-05
6.00657e-05
6.00657e-05
6.00657e-05
6.07949e-05
6.07949e-05
6.07949e-05
6.1046e-05
6.1046e-05
6.1046e-05
6.1181e-05
6.1181e-05
6.1181e-05
6.35297e-05
6.35297e-05
6.35297e-05
6.3792e-05
6.3792e-05
6.3792e-05
6.88827e-05
6.88827e-05
6.88827e-05
6.77573e-05
6.77573e-05
6.77573e-05
6.90293e-05
6.90293e-05
6.90293e-05
6.88914e-05
6.88914e-05
6.88914e-05
6.76134e-05
6.76134e-05
6.76134e-05
6.79538e-05
6.79538e-05
6.79538e-05
6.81011e-05
6.81011e-05
6.81011e-05
6.67144e-05
6.67144e-05
6.67144e-05
6.68447e-05
6.68447e-05
6.68447e-05
6.71054e-05
6.71054e-05
6.71054e-05
6.64405e-05
6.64405e-05
6.64405e-05
6.63108e-05
6.63108e-05
6.63108e-05
6.60386e-05
6.60386e-05
6.60386e-05
6.58961e-05
6.58961e-05
6.58961e-05
6.75527e-05
6.75527e-05
6.75527e-05
6.71474e-05
6.71474e-05
6.71474e-05
6.70193e-05
6.70193e-05
6.70193e-05
6.67444e-05
6.67444e-05
6.67444e-05
6.65978e-05
6.65978e-05
6.65978e-05
6.54974e-05
6.54974e-05
6.54974e-05
6.56256e-05
6.56256e-05
6.56256e-05
6.62341e-05
6.62341e-05
6.62341e-05
6.59447e-05
6.59447e-05
6.59447e-05
6.67001e-05
6.67001e-05
6.67001e-05
6.68299e-05
6.68299e-05
6.68299e-05
6.54544e-05
6.54544e-05
6.54544e-05
6.55813e-05
6.55813e-05
6.55813e-05
6.62845e-05
6.62845e-05
6.62845e-05
6.65574e-05
6.65574e-05
6.65574e-05
6.61453e-05
6.61453e-05
6.61453e-05
6.40328e-05
6.40328e-05
6.40328e-05
7.67659e-05
7.67659e-05
7.67659e-05
7.65993e-05
7.65993e-05
7.65993e-05
7.66087e-05
7.66087e-05
7.66087e-05
7.33034e-05
7.33034e-05
7.33034e-05
7.39078e-05
7.39078e-05
7.39078e-05
7.36099e-05
7.36099e-05
7.36099e-05
7.63123e-05
7.63123e-05
7.63123e-05
7.63148e-05
7.63148e-05
7.63148e-05
7.64049e-05
7.64049e-05
7.64049e-05
6.90995e-05
6.90995e-05
6.90995e-05
6.89704e-05
6.89704e-05
6.89704e-05
6.91252e-05
6.91252e-05
6.91252e-05
6.94104e-05
6.94104e-05
6.94104e-05
6.87124e-05
6.87124e-05
6.87124e-05
6.89957e-05
6.89957e-05
6.89957e-05
7.65775e-05
7.65775e-05
7.65775e-05
7.62557e-05
7.62557e-05
7.62557e-05
7.6733e-05
7.6733e-05
7.6733e-05
7.65651e-05
7.65651e-05
7.65651e-05
7.62301e-05
7.62301e-05
7.62301e-05
7.60629e-05
7.60629e-05
7.60629e-05
7.57438e-05
7.57438e-05
7.57438e-05
7.57292e-05
7.57292e-05
7.57292e-05
7.55778e-05
7.55778e-05
7.55778e-05
7.51108e-05
7.51108e-05
7.51108e-05
7.52613e-05
7.52613e-05
7.52613e-05
7.6658e-05
7.6658e-05
7.6658e-05
7.63378e-05
7.63378e-05
7.63378e-05
7.16144e-05
7.16144e-05
7.16144e-05
7.10234e-05
7.10234e-05
7.10234e-05
7.59592e-05
7.59592e-05
7.59592e-05
7.61118e-05
7.61118e-05
7.61118e-05
7.57924e-05
7.57924e-05
7.57924e-05
7.62772e-05
7.62772e-05
7.62772e-05
6.25404e-05
6.25404e-05
6.25404e-05
6.20098e-05
6.20098e-05
6.20098e-05
6.12705e-05
6.12705e-05
6.12705e-05
6.12772e-05
6.12772e-05
6.12772e-05
6.14005e-05
6.14005e-05
6.14005e-05
6.20401e-05
6.20401e-05
6.20401e-05
6.16543e-05
6.16543e-05
6.16543e-05
6.17848e-05
6.17848e-05
6.17848e-05
6.13934e-05
6.13934e-05
6.13934e-05
6.10375e-05
6.10375e-05
6.10375e-05
6.16676e-05
6.16676e-05
6.16676e-05
6.19232e-05
6.19232e-05
6.19232e-05
5.97935e-05
5.97935e-05
5.97935e-05
6.04186e-05
6.04186e-05
6.04186e-05
6.01702e-05
6.01702e-05
6.01702e-05
6.004e-05
6.004e-05
6.004e-05
6.09189e-05
6.09189e-05
6.09189e-05
6.04427e-05
6.04427e-05
6.04427e-05
6.01941e-05
6.01941e-05
6.01941e-05
6.49309e-05
6.49309e-05
6.49309e-05
6.47988e-05
6.47988e-05
6.47988e-05
6.49336e-05
6.49336e-05
6.49336e-05
6.41361e-05
6.41361e-05
6.41361e-05
6.44009e-05
6.44009e-05
6.44009e-05
6.40029e-05
6.40029e-05
6.40029e-05
6.41336e-05
6.41336e-05
6.41336e-05
6.45325e-05
6.45325e-05
6.45325e-05
6.43984e-05
6.43984e-05
6.43984e-05
6.60086e-05
6.60086e-05
6.60086e-05
6.57339e-05
6.57339e-05
6.57339e-05
6.5877e-05
6.5877e-05
6.5877e-05
6.61482e-05
6.61482e-05
6.61482e-05
6.60113e-05
6.60113e-05
6.60113e-05
7.42753e-05
7.42753e-05
7.42753e-05
7.19734e-05
7.19734e-05
7.19734e-05
7.25741e-05
7.25741e-05
7.25741e-05
7.1045e-05
7.1045e-05
7.1045e-05
7.07515e-05
7.07515e-05
7.07515e-05
7.09502e-05
7.09502e-05
7.09502e-05
7.00753e-05
7.00753e-05
7.00753e-05
6.97859e-05
6.97859e-05
6.97859e-05
7.18383e-05
7.18383e-05
7.18383e-05
7.21342e-05
7.21342e-05
7.21342e-05
7.24348e-05
7.24348e-05
7.24348e-05
7.21368e-05
7.21368e-05
7.21368e-05
7.1986e-05
7.1986e-05
7.1986e-05
7.21258e-05
7.21258e-05
7.21258e-05
7.24261e-05
7.24261e-05
7.24261e-05
7.28868e-05
7.28868e-05
7.28868e-05
7.25839e-05
7.25839e-05
7.25839e-05
7.2431e-05
7.2431e-05
7.2431e-05
7.25795e-05
7.25795e-05
7.25795e-05
7.39294e-05
7.39294e-05
7.39294e-05
6.39999e-05
6.39999e-05
6.39999e-05
6.37367e-05
6.37367e-05
6.37367e-05
6.64153e-05
6.64153e-05
6.64153e-05
6.65501e-05
6.65501e-05
6.65501e-05
6.61427e-05
6.61427e-05
6.61427e-05
6.60049e-05
6.60049e-05
6.60049e-05
6.69598e-05
6.69598e-05
6.69598e-05
6.92129e-05
6.92129e-05
6.92129e-05
6.93542e-05
6.93542e-05
6.93542e-05
6.94984e-05
6.94984e-05
6.94984e-05
6.9496e-05
6.9496e-05
6.9496e-05
6.93512e-05
6.93512e-05
6.93512e-05
6.77989e-05
6.77989e-05
6.77989e-05
6.80786e-05
6.80786e-05
6.80786e-05
6.90571e-05
6.90571e-05
6.90571e-05
6.724e-05
6.724e-05
6.724e-05
6.77956e-05
6.77956e-05
6.77956e-05
6.73802e-05
6.73802e-05
6.73802e-05
6.76581e-05
6.76581e-05
6.76581e-05
7.16066e-05
7.16066e-05
7.16066e-05
7.13108e-05
7.13108e-05
7.13108e-05
6.97452e-05
6.97452e-05
6.97452e-05
7.06831e-05
7.06831e-05
7.06831e-05
7.05529e-05
7.05529e-05
7.05529e-05
6.98447e-05
6.98447e-05
6.98447e-05
7.01332e-05
7.01332e-05
7.01332e-05
6.9716e-05
6.9716e-05
6.9716e-05
6.98745e-05
6.98745e-05
6.98745e-05
6.99034e-05
6.99034e-05
6.99034e-05
7.01922e-05
7.01922e-05
7.01922e-05
7.15326e-05
7.15326e-05
7.15326e-05
7.18295e-05
7.18295e-05
7.18295e-05
6.68653e-05
6.68653e-05
6.68653e-05
6.69901e-05
6.69901e-05
6.69901e-05
6.68401e-05
6.68401e-05
6.68401e-05
6.65664e-05
6.65664e-05
6.65664e-05
6.64426e-05
6.64426e-05
6.64426e-05
6.65915e-05
6.65915e-05
6.65915e-05
6.69133e-05
6.69133e-05
6.69133e-05
6.66391e-05
6.66391e-05
6.66391e-05
6.66618e-05
6.66618e-05
6.66618e-05
6.65138e-05
6.65138e-05
6.65138e-05
6.74652e-05
6.74652e-05
6.74652e-05
6.7894e-05
6.7894e-05
6.7894e-05
6.77429e-05
6.77429e-05
6.77429e-05
6.62633e-05
6.62633e-05
6.62633e-05
6.61165e-05
6.61165e-05
6.61165e-05
6.6138e-05
6.6138e-05
6.6138e-05
6.44403e-05
6.44403e-05
6.44403e-05
6.41761e-05
6.41761e-05
6.41761e-05
6.55527e-05
6.55527e-05
6.55527e-05
6.58865e-05
6.58865e-05
6.58865e-05
6.60646e-05
6.60646e-05
6.60646e-05
6.59153e-05
6.59153e-05
6.59153e-05
6.59434e-05
6.59434e-05
6.59434e-05
6.56736e-05
6.56736e-05
6.56736e-05
6.46964e-05
6.46964e-05
6.46964e-05
6.4286e-05
6.4286e-05
6.4286e-05
6.44317e-05
6.44317e-05
6.44317e-05
6.35268e-05
6.35268e-05
6.35268e-05
6.2864e-05
6.2864e-05
6.2864e-05
6.31228e-05
6.31228e-05
6.31228e-05
6.32665e-05
6.32665e-05
6.32665e-05
6.31499e-05
6.31499e-05
6.31499e-05
6.24019e-05
6.24019e-05
6.24019e-05
6.05631e-05
6.05631e-05
6.05631e-05
6.02932e-05
6.02932e-05
6.02932e-05
6.0542e-05
6.0542e-05
6.0542e-05
6.06774e-05
6.06774e-05
6.06774e-05
6.06983e-05
6.06983e-05
6.06983e-05
6.07186e-05
6.07186e-05
6.07186e-05
6.05836e-05
6.05836e-05
6.05836e-05
6.09488e-05
6.09488e-05
6.09488e-05
6.05201e-05
6.05201e-05
6.05201e-05
6.01367e-05
6.01367e-05
6.01367e-05
6.02716e-05
6.02716e-05
6.02716e-05
6.06332e-05
6.06332e-05
6.06332e-05
6.12937e-05
6.12937e-05
6.12937e-05
6.10422e-05
6.10422e-05
6.10422e-05
6.09276e-05
6.09276e-05
6.09276e-05
6.10638e-05
6.10638e-05
6.10638e-05
6.23492e-05
6.23492e-05
6.23492e-05
6.20933e-05
6.20933e-05
6.20933e-05
6.20059e-05
6.20059e-05
6.20059e-05
6.17517e-05
6.17517e-05
6.17517e-05
6.19796e-05
6.19796e-05
6.19796e-05
6.21203e-05
6.21203e-05
6.21203e-05
6.81992e-05
6.81992e-05
6.81992e-05
6.76415e-05
6.76415e-05
6.76415e-05
6.77939e-05
6.77939e-05
6.77939e-05
6.80728e-05
6.80728e-05
6.80728e-05
6.7614e-05
6.7614e-05
6.7614e-05
6.81714e-05
6.81714e-05
6.81714e-05
6.77667e-05
6.77667e-05
6.77667e-05
6.80455e-05
6.80455e-05
6.80455e-05
6.77387e-05
6.77387e-05
6.77387e-05
6.80173e-05
6.80173e-05
6.80173e-05
6.88895e-05
6.88895e-05
6.88895e-05
6.86068e-05
6.86068e-05
6.86068e-05
6.84519e-05
6.84519e-05
6.84519e-05
6.9017e-05