<VTKFile type="UnstructuredGrid" version="1.0">
<UnstructuredGrid>
<Piece NumberOfPoints="8859" NumberOfCells="2953">
<Points>
<DataArray type="Float64" NumberOfComponents="3" format="ascii">
2.75455 1.50245 10.3176
2.76986 1.48714 10.3296
2.75465 1.50235 10.3433
2.78515 1.47185 10.2667
2.78516 1.47184 10.2415
2.8005 1.4565 10.254
2.76981 1.48719 10.2794
2.78515 1.47185 10.2667
2.78514 1.47186 10.2919
2.72412 1.53288 10.3699
2.73952 1.51748 10.3775
2.70875 1.54825 10.3775
2.72412 1.53288 10.3699
2.73943 1.51757 10.3546
2.73952 1.51748 10.3775
2.75488 1.50212 10.3698
2.77036 1.48664 10.3775
2.73952 1.51748 10.3775
2.75488 1.50212 10.3698
2.73943 1.51757 10.3546
2.75465 1.50235 10.3433
2.73952 1.51748 10.3775
2.73943 1.51757 10.3546
2.75488 1.50212 10.3698
2.75465 1.50235 10.3433
2.76986 1.48714 10.3296
2.76997 1.48703 10.3543
2.76997 1.48703 10.3543
2.75488 1.50212 10.3698
2.75465 1.50235 10.3433
2.77036 1.48664 10.3775
2.75488 1.50212 10.3698
2.76997 1.48703 10.3543
2.76986 1.48714 10.3296
2.75455 1.50245 10.3176
2.76982 1.48718 10.3045
2.76981 1.48719 10.2794
2.78514 1.47186 10.2919
2.76982 1.48718 10.3045
2.7852 1.4718 10.3426
2.76997 1.48703 10.3543
2.76986 1.48714 10.3296
2.8005 1.4565 10.3289
2.8005 1.4565 10.3536
2.7852 1.4718 10.3426
2.8005 1.4565 10.2289
2.8005 1.4565 10.254
2.78516 1.47184 10.2415
2.78515 1.47185 10.2667
2.8005 1.4565 10.254
2.8005 1.4565 10.2791
2.8005 1.4565 10.2791
2.78514 1.47186 10.2919
2.78515 1.47185 10.2667
2.8005 1.4565 9.70152
2.8005 1.4565 9.72665
2.78518 1.47182 9.71407
2.78517 1.47183 10.1661
2.8005 1.4565 10.1786
2.78517 1.47183 10.1912
2.8005 1.4565 10.1535
2.8005 1.4565 10.1786
2.78517 1.47183 10.1661
2.78519 1.47181 10.0404
2.8005 1.4565 10.053
2.78519 1.47181 10.0656
2.32274 1.93426 9.48559
2.33845 1.91855 9.4775
2.33845 1.91855 9.50063
2.27541 1.98159 10.3775
2.24359 2.01341 10.3775
2.25954 1.99746 10.3693
2.78515 1.47185 10.3171
2.76982 1.48718 10.3045
2.78514 1.47186 10.2919
2.76986 1.48714 10.3296
2.76982 1.48718 10.3045
2.78515 1.47185 10.3171
2.78515 1.47185 10.3171
2.7852 1.4718 10.3426
2.76986 1.48714 10.3296
2.8005 1.4565 10.3289
2.7852 1.4718 10.3426
2.78515 1.47185 10.3171
2.78544 1.47156 10.3688
2.8005 1.4565 10.3536
2.8005 1.4565 10.3775
2.78544 1.47156 10.3688
2.7852 1.4718 10.3426
2.8005 1.4565 10.3536
2.8005 1.4565 10.3775
2.77036 1.48664 10.3775
2.78544 1.47156 10.3688
2.77036 1.48664 10.3775
2.76997 1.48703 10.3543
2.78544 1.47156 10.3688
2.76997 1.48703 10.3543
2.7852 1.4718 10.3426
2.78544 1.47156 10.3688
2.78517 1.47183 10.1912
2.8005 1.4565 10.1786
2.8005 1.4565 10.2037
2.78514 1.47186 10.2919
2.8005 1.4565 10.2791
2.8005 1.4565 10.3041
2.8005 1.4565 10.3289
2.78515 1.47185 10.3171
2.8005 1.4565 10.3041
2.8005 1.4565 10.3041
2.78515 1.47185 10.3171
2.78514 1.47186 10.2919
2.8005 1.4565 10.0279
2.8005 1.4565 10.053
2.78519 1.47181 10.0404
2.78518 1.47182 9.71407
2.8005 1.4565 9.72665
2.78518 1.47182 9.7392
2.76985 1.48715 10.1535
2.75454 1.50246 10.141
2.76986 1.48714 10.1284
2.78516 1.47184 10.2164
2.8005 1.4565 10.2289
2.78516 1.47184 10.2415
2.78516 1.47184 10.2164
2.8005 1.4565 10.2037
2.8005 1.4565 10.2289
2.78516 1.47184 10.2164
2.76984 1.48716 10.2038
2.78517 1.47183 10.1912
2.78517 1.47183 10.1912
2.8005 1.4565 10.2037
2.78516 1.47184 10.2164
2.76982 1.48718 10.2542
2.78515 1.47185 10.2667
2.76981 1.48719 10.2794
2.76982 1.48718 10.2542
2.78516 1.47184 10.2415
2.78515 1.47185 10.2667
2.75451 1.50249 10.2165
2.7392 1.5178 10.2291
2.73921 1.51779 10.2039
2.53996 1.71704 10.3434
2.52458 1.73242 10.3299
2.53996 1.71704 10.3177
2.49374 1.76326 10.1788
2.49375 1.76325 10.204
2.47832 1.77868 10.1914
2.8005 1.4565 9.4775
2.8005 1.4565 9.50145
2.78544 1.47156 9.48616
2.27543 1.98157 10.3543
2.27541 1.98159 10.3775
2.25954 1.99746 10.3693
2.33845 1.91855 10.2795
2.32276 1.93424 10.2921
2.32275 1.93425 10.2669
2.25954 1.99746 10.3693
2.24359 2.01341 10.3775
2.24374 2.01326 10.3542
2.76987 1.48713 9.802
2.75455 1.50245 9.78943
2.76987 1.48713 9.77688
2.8005 1.4565 9.95259
2.78519 1.47181 9.94005
2.8005 1.4565 9.9275
2.78519 1.47181 9.99024
2.8005 1.4565 9.97769
2.8005 1.4565 10.0028
2.76988 1.48712 9.90241
2.75456 1.50244 9.91495
2.75456 1.50244 9.88986
2.76988 1.48712 9.9275
2.75456 1.50244 9.91495
2.76988 1.48712 9.90241
2.78519 1.47181 9.94005
2.76988 1.48712 9.95259
2.76988 1.48712 9.9275
2.75455 1.50245 10.0656
2.76987 1.48713 10.0781
2.75455 1.50245 10.0907
2.72393 1.53307 10.0405
2.72392 1.53308 10.0656
2.70861 1.54839 10.053
2.75456 1.50244 10.0405
2.73924 1.51776 10.0279
2.75456 1.50244 10.0153
2.75456 1.50244 10.0153
2.76987 1.48713 10.0279
2.75456 1.50244 10.0405
2.73924 1.51776 10.0279
2.73925 1.51775 10.0028
2.75456 1.50244 10.0153
2.75456 1.50244 10.0153
2.73925 1.51775 10.0028
2.75456 1.50244 9.99024
2.8005 1.4565 10.0028
2.8005 1.4565 10.0279
2.78519 1.47181 10.0153
2.78519 1.47181 10.0153
2.78519 1.47181 9.99024
2.8005 1.4565 10.0028
2.78519 1.47181 10.0153
2.8005 1.4565 10.0279
2.78519 1.47181 10.0404
2.78519 1.47181 10.0404
2.76987 1.48713 10.0279
2.78519 1.47181 10.0153
2.75454 1.50246 10.1158
2.73923 1.51777 10.1033
2.75455 1.50245 10.0907
2.75454 1.50246 10.1158
2.76986 1.48714 10.1284
2.75454 1.50246 10.141
2.7086 1.5484 10.1033
2.72392 1.53308 10.0907
2.72392 1.53308 10.1159
2.72392 1.53308 10.1159
2.72392 1.53308 10.0907
2.73923 1.51777 10.1033
2.8005 1.4565 10.0781
2.78519 1.47181 10.0656
2.8005 1.4565 10.053
2.75455 1.50245 10.0907
2.76987 1.48713 10.0781
2.76986 1.48714 10.1032
2.76986 1.48714 10.1032
2.75454 1.50246 10.1158
2.75455 1.50245 10.0907
2.76986 1.48714 10.1284
2.75454 1.50246 10.1158
2.76986 1.48714 10.1032
2.78517 1.47183 10.1912
2.76984 1.48716 10.2038
2.76985 1.48715 10.1787
2.76985 1.48715 10.1787
2.78517 1.47183 10.1661
2.78517 1.47183 10.1912
2.76985 1.48715 10.1535
2.78517 1.47183 10.1661
2.76985 1.48715 10.1787
2.73921 1.51779 10.2039
2.73921 1.51779 10.1788
2.75452 1.50248 10.1913
2.75452 1.50248 10.1913
2.75451 1.50249 10.2165
2.73921 1.51779 10.2039
2.76984 1.48716 10.2038
2.75451 1.50249 10.2165
2.75452 1.50248 10.1913
2.75452 1.50248 10.1913
2.76985 1.48715 10.1787
2.76984 1.48716 10.2038
2.7239 1.5331 10.1914
2.73921 1.51779 10.1788
2.73921 1.51779 10.2039
2.7239 1.5331 10.1914
2.70859 1.54841 10.204
2.70859 1.54841 10.1788
2.76981 1.48719 10.2794
2.76982 1.48718 10.3045
2.75451 1.50249 10.2922
2.75451 1.50249 10.2922
2.76982 1.48718 10.3045
2.75455 1.50245 10.3176
2.7392 1.5178 10.2291
2.75451 1.50249 10.2165
2.75451 1.50249 10.2417
2.75451 1.50249 10.2417
2.7392 1.5178 10.2544
2.7392 1.5178 10.2291
2.67798 1.57902 10.0782
2.66266 1.59434 10.0907
2.66266 1.59434 10.0656
2.70859 1.54841 10.1788
2.70859 1.54841 10.1536
2.7239 1.5331 10.1662
2.7239 1.5331 10.1662
2.7239 1.5331 10.1914
2.70859 1.54841 10.1788
2.73921 1.51779 10.1788
2.7239 1.5331 10.1914
2.7239 1.5331 10.1662
2.73922 1.51778 10.1536
2.73921 1.51779 10.1788
2.7239 1.5331 10.1662
2.57068 1.68632 10.3178
2.57068 1.68632 10.3434
2.55533 1.70167 10.3299
2.55533 1.70167 10.3299
2.57068 1.68632 10.3434
2.55533 1.70167 10.3545
2.55533 1.70167 10.3299
2.55533 1.70167 10.3545
2.53996 1.71704 10.3434
2.53996 1.71704 10.3434
2.53996 1.71704 10.3177
2.55533 1.70167 10.3299
2.52458 1.73242 10.3048
2.53996 1.71704 10.3177
2.52458 1.73242 10.3299
2.50912 1.74788 9.94005
2.50912 1.74788 9.96515
2.49371 1.76329 9.9526
2.41633 1.84067 10.0656
2.40077 1.85623 10.053
2.41632 1.84068 10.0404
2.41635 1.84065 10.1158
2.40081 1.85619 10.1284
2.40079 1.85621 10.1032
2.33845 1.91855 10.2795
2.32275 1.93425 10.2669
2.33843 1.91857 10.2542
2.33845 1.91855 10.3047
2.32276 1.93424 10.2921
2.33845 1.91855 10.2795
2.40087 1.85613 10.2291
2.40088 1.85612 10.2543
2.38531 1.87169 10.2417
2.30693 1.95007 10.1786
2.32265 1.93435 10.166
2.32267 1.93433 10.1912
2.30684 1.95016 10.078
2.29108 1.96592 10.0906
2.29106 1.96594 10.0655
2.32274 1.93426 10.3694
2.33845 1.91855 10.3775
2.30701 1.94999 10.3775
2.33845 1.91855 10.3544
2.33845 1.91855 10.3775
2.32274 1.93426 10.3694
2.35411 1.90289 10.3695
2.33845 1.91855 10.3775
2.33845 1.91855 10.3544
2.30704 1.94996 10.3046
2.30703 1.94997 10.3297
2.29128 1.96572 10.3175
2.55533 1.70167 10.3775
2.52458 1.73242 10.3775
2.53996 1.71704 10.3697
2.53996 1.71704 10.3434
2.55533 1.70167 10.3545
2.53996 1.71704 10.3697
2.53996 1.71704 10.3697
2.55533 1.70167 10.3545
2.55533 1.70167 10.3775
2.52458 1.73242 10.3545
2.52458 1.73242 10.3299
2.53996 1.71704 10.3434
2.53996 1.71704 10.3434
2.53996 1.71704 10.3697
2.52458 1.73242 10.3545
2.52458 1.73242 10.3545
2.53996 1.71704 10.3697
2.52458 1.73242 10.3775
2.41642 1.84058 10.2418
2.40088 1.85612 10.2543
2.40087 1.85613 10.2291
2.47831 1.77869 10.1662
2.49374 1.76326 10.1536
2.49374 1.76326 10.1788
2.49374 1.76326 10.1788
2.47832 1.77868 10.1914
2.47831 1.77869 10.1662
2.47833 1.77867 10.2166
2.47832 1.77868 10.1914
2.49375 1.76325 10.204
2.47833 1.77867 10.2166
2.49375 1.76325 10.204
2.49376 1.76324 10.2292
2.49376 1.76324 10.2292
2.47834 1.77866 10.2418
2.47833 1.77867 10.2166
2.47833 1.77867 10.2166
2.47834 1.77866 10.2418
2.46289 1.79411 10.2292
2.49377 1.76323 10.2544
2.47834 1.77866 10.2418
2.49376 1.76324 10.2292
2.49377 1.76323 10.2796
2.47835 1.77865 10.2923
2.47834 1.77866 10.2671
2.47834 1.77866 10.2671
2.49377 1.76323 10.2544
2.49377 1.76323 10.2796
2.47834 1.77866 10.2418
2.49377 1.76323 10.2544
2.47834 1.77866 10.2671
2.7852 1.4718 9.51238
2.78544 1.47156 9.48616
2.8005 1.4565 9.50145
2.76997 1.48703 9.50073
2.78544 1.47156 9.48616
2.7852 1.4718 9.51238
2.64739 1.60961 9.50048
2.64738 1.60962 9.4775
2.66272 1.59428 9.48521
2.70875 1.54825 9.4775
2.6934 1.5636 9.48517
2.67805 1.57895 9.4775
2.67805 1.57895 9.4775
2.66272 1.59428 9.48521
2.64738 1.60962 9.4775
2.19638 2.06062 9.51397
2.1963 2.0607 9.48786
2.2122 2.0448 9.50145
2.2122 2.0448 9.50145
2.22771 2.02929 9.48601
2.22802 2.02898 9.51245
2.18073 2.07627 9.50282
2.1963 2.0607 9.48786
2.19638 2.06062 9.51397
2.18073 2.07627 9.50282
2.18123 2.07577 9.4775
2.1963 2.0607 9.48786
2.27543 1.98157 9.50067
2.27541 1.98159 9.4775
[...]
<PointData Scalars="View Factor" >
<DataArray type="Float64" Name="View Factor" NumberOfComponents="1" format="ascii">
5.04074e-06
5.04074e-06
5.04074e-06
5.29099e-06
5.29099e-06
5.29099e-06
5.20646e-06
5.20646e-06
5.20646e-06
4.78485e-06
4.78485e-06
4.78485e-06
4.85505e-06
4.85505e-06
4.85505e-06
4.97863e-06
4.97863e-06
4.97863e-06
4.95851e-06
4.95851e-06
4.95851e-06
4.91968e-06
4.91968e-06
4.91968e-06
5.06424e-06
5.06424e-06
5.06424e-06
5.02285e-06
5.02285e-06
5.02285e-06
5.04772e-06
5.04772e-06
5.04772e-06
5.08178e-06
5.08178e-06
5.08178e-06
5.16521e-06
5.16521e-06
5.16521e-06
5.12879e-06
5.12879e-06
5.12879e-06
5.25805e-06
5.25805e-06
5.25805e-06
5.3333e-06
5.3333e-06
5.3333e-06
5.31428e-06
5.31428e-06
5.31428e-06
5.27179e-06
5.27179e-06
5.27179e-06
5.75271e-06
5.75271e-06
5.75271e-06
5.34817e-06
5.34817e-06
5.34817e-06
5.3909e-06
5.3909e-06
5.3909e-06
5.44474e-06
5.44474e-06
5.44474e-06
3.35899e-06
3.35899e-06
3.35899e-06
3.01259e-06
3.01259e-06
3.01259e-06
5.18849e-06
5.18849e-06
5.18849e-06
5.14662e-06
5.14662e-06
5.14662e-06
5.16983e-06
5.16983e-06
5.16983e-06
5.23468e-06
5.23468e-06
5.23468e-06
5.24003e-06
5.24003e-06
5.24003e-06
5.21675e-06
5.21675e-06
5.21675e-06
5.17e-06
5.17e-06
5.17e-06
5.11209e-06
5.11209e-06
5.11209e-06
5.15235e-06
5.15235e-06
5.15235e-06
5.37162e-06
5.37162e-06
5.37162e-06
5.29537e-06
5.29537e-06
5.29537e-06
5.2766e-06
5.2766e-06
5.2766e-06
5.25361e-06
5.25361e-06
5.25361e-06
5.48856e-06
5.48856e-06
5.48856e-06
5.70665e-06
5.70665e-06
5.70665e-06
5.21025e-06
5.21025e-06
5.21025e-06
5.31027e-06
5.31027e-06
5.31027e-06
5.35241e-06
5.35241e-06
5.35241e-06
5.26279e-06
5.26279e-06
5.26279e-06
5.32872e-06
5.32872e-06
5.32872e-06
5.18312e-06
5.18312e-06
5.18312e-06
5.22546e-06
5.22546e-06
5.22546e-06
5.02377e-06
5.02377e-06
5.02377e-06
3.61735e-06
3.61735e-06
3.61735e-06
3.39138e-06
3.39138e-06
3.39138e-06
5.94536e-06
5.94536e-06
5.94536e-06
3.0079e-06
3.0079e-06
3.0079e-06
3.00185e-06
3.00185e-06
3.00185e-06
3.0242e-06
3.0242e-06
3.0242e-06
5.481e-06
5.481e-06
5.481e-06
5.56818e-06
5.56818e-06
5.56818e-06
5.52819e-06
5.52819e-06
5.52819e-06
5.35781e-06
5.35781e-06
5.35781e-06
5.38215e-06
5.38215e-06
5.38215e-06
5.43175e-06
5.43175e-06
5.43175e-06
5.22439e-06
5.22439e-06
5.22439e-06
4.97445e-06
4.97445e-06
4.97445e-06
5.19461e-06
5.19461e-06
5.19461e-06
5.26212e-06
5.26212e-06
5.26212e-06
5.16986e-06
5.16986e-06
5.16986e-06
5.21335e-06
5.21335e-06
5.21335e-06
5.50834e-06
5.50834e-06
5.50834e-06
5.48469e-06
5.48469e-06
5.48469e-06
5.46467e-06
5.46467e-06
5.46467e-06
5.39716e-06
5.39716e-06
5.39716e-06
5.13914e-06
5.13914e-06
5.13914e-06
5.18664e-06
5.18664e-06
5.18664e-06
4.9382e-06
4.9382e-06
4.9382e-06
5.00498e-06
5.00498e-06
5.00498e-06
5.46886e-06
5.46886e-06
5.46886e-06
5.24877e-06
5.24877e-06
5.24877e-06
5.20593e-06
5.20593e-06
5.20593e-06
5.22993e-06
5.22993e-06
5.22993e-06
5.23923e-06
5.23923e-06
5.23923e-06
5.28203e-06
5.28203e-06
5.28203e-06
5.2587e-06
5.2587e-06
5.2587e-06
5.04128e-06
5.04128e-06
5.04128e-06
5.06514e-06
5.06514e-06
5.06514e-06
5.131e-06
5.131e-06
5.131e-06
5.17323e-06
5.17323e-06
5.17323e-06
4.97533e-06
4.97533e-06
4.97533e-06
4.84404e-06
4.84404e-06
4.84404e-06
5.10012e-06
5.10012e-06
5.10012e-06
5.05797e-06
5.05797e-06
5.05797e-06
5.04726e-06
5.04726e-06
5.04726e-06
5.00547e-06
5.00547e-06
5.00547e-06
4.62123e-06
4.62123e-06
4.62123e-06
4.8612e-06
4.8612e-06
4.8612e-06
4.88577e-06
4.88577e-06
4.88577e-06
4.95182e-06
4.95182e-06
4.95182e-06
4.99383e-06
4.99383e-06
4.99383e-06
3.81191e-06
3.81191e-06
3.81191e-06
3.77254e-06
3.77254e-06
3.77254e-06
3.70788e-06
3.70788e-06
3.70788e-06
3.68214e-06
3.68214e-06
3.68214e-06
3.59187e-06
3.59187e-06
3.59187e-06
3.61189e-06
3.61189e-06
3.61189e-06
3.03689e-06
3.03689e-06
3.03689e-06
3.01343e-06
3.01343e-06
3.01343e-06
3.00331e-06
3.00331e-06
3.00331e-06
2.99258e-06
2.99258e-06
2.99258e-06
2.96747e-06
2.96747e-06
2.96747e-06
3.05301e-06
3.05301e-06
3.05301e-06
3.11361e-06
3.11361e-06
3.11361e-06
2.96512e-06
2.96512e-06
2.96512e-06
2.96067e-06
2.96067e-06
2.96067e-06
2.95295e-06
2.95295e-06
2.95295e-06
3.00532e-06
3.00532e-06
3.00532e-06
3.62748e-06
3.62748e-06
3.62748e-06
3.66866e-06
3.66866e-06
3.66866e-06
3.69519e-06
3.69519e-06
3.69519e-06
3.57852e-06
3.57852e-06
3.57852e-06
3.60411e-06
3.60411e-06
3.60411e-06
3.56628e-06
3.56628e-06
3.56628e-06
2.95987e-06
2.95987e-06
2.95987e-06
3.40331e-06
3.40331e-06
3.40331e-06
3.36443e-06
3.36443e-06
3.36443e-06
3.35245e-06
3.35245e-06
3.35245e-06
3.37949e-06
3.37949e-06
3.37949e-06
3.34031e-06
3.34031e-06
3.34031e-06
3.27434e-06
3.27434e-06
3.27434e-06
3.36707e-06
3.36707e-06
3.36707e-06
3.31635e-06
3.31635e-06
3.31635e-06
3.35526e-06
3.35526e-06
3.35526e-06
3.32822e-06
3.32822e-06
3.32822e-06
5.89854e-06
5.89854e-06
5.89854e-06
5.8261e-06
5.8261e-06
5.8261e-06
4.92333e-06
4.92333e-06
4.92333e-06
5.22185e-06
5.22185e-06
5.22185e-06
5.00135e-06
5.00135e-06
5.00135e-06
3.46498e-06
3.46498e-06
3.46498e-06
3.44714e-06
3.44714e-06
3.44714e-06
3.47398e-06
3.47398e-06
3.47398e-06
3.48461e-06
3.48461e-06
3.48461e-06
3.40329e-06
3.40329e-06
3.40329e-06
3.37163e-06
3.37163e-06
3.37163e-06
3.39765e-06
3.39765e-06
3.39765e-06
3.39765e-06
3.39765e-06
3.39765e-06
3.38698e-06
3.38698e-06
3.38698e-06
2.97641e-06
2.97641e-06
2.97641e-06
3.00384e-06
3.00384e-06
3.00384e-06
2.99468e-06
2.99468e-06
2.99468e-06
3.1314e-06
3.1314e-06
3.1314e-06
3.12184e-06
3.12184e-06
3.12184e-06
3.04701e-06
3.04701e-06
3.04701e-06
5.72778e-06
5.72778e-06
5.72778e-06
5.60852e-06
5.60852e-06
5.60852e-06
5.44113e-06
5.44113e-06
5.44113e-06
5.39668e-06
5.39668e-06
5.39668e-06
5.46086e-06
5.46086e-06
5.46086e-06
5.41624e-06
5.41624e-06
5.41624e-06
5.34675e-06
5.34675e-06
5.34675e-06
5.32133e-06
5.32133e-06
5.32133e-06
5.36646e-06
5.36646e-06
5.36646e-06
5.4362e-06
5.4362e-06
5.4362e-06
4.19286e-06
4.19286e-06
4.19286e-06
4.14962e-06
4.14962e-06
4.14962e-06
4.12356e-06
4.12356e-06
4.12356e-06
5.34066e-06
5.34066e-06
5.34066e-06
5.73181e-06
5.73181e-06
5.73181e-06
4.57088e-06
4.57088e-06
4.57088e-06
4.43609e-06
4.43609e-06
4.43609e-06
4.83992e-06
4.83992e-06
4.83992e-06
4.51037e-06
4.51037e-06
4.51037e-06
4.73102e-06
4.73102e-06
4.73102e-06
4.7049e-06
4.7049e-06
4.7049e-06
4.63666e-06
4.63666e-06
4.63666e-06
4.59425e-06
4.59425e-06
4.59425e-06
5.28908e-06
5.28908e-06
5.28908e-06
5.58831e-06
5.58831e-06
5.58831e-06
5.54398e-06
5.54398e-06
5.54398e-06
5.47549e-06
5.47549e-06
5.47549e-06
5.45076e-06
5.45076e-06
5.45076e-06
5.49529e-06
5.49529e-06
5.49529e-06
5.56403e-06
5.56403e-06
5.56403e-06
4.20048e-06
4.20048e-06
4.20048e-06
4.24258e-06
4.24258e-06
4.24258e-06
4.6275e-06
4.6275e-06
4.6275e-06
4.65366e-06
4.65366e-06
4.65366e-06
4.61136e-06
4.61136e-06
4.61136e-06
4.54299e-06
4.54299e-06
4.54299e-06
4.25791e-06
4.25791e-06
4.25791e-06
4.23066e-06
4.23066e-06
4.23066e-06
4.14745e-06
4.14745e-06
4.14745e-06
4.21614e-06
4.21614e-06
4.21614e-06
4.55888e-06
4.55888e-06
4.55888e-06
4.51668e-06
4.51668e-06
4.51668e-06
5.33423e-06
5.33423e-06
5.33423e-06
5.26707e-06
5.26707e-06
5.26707e-06
5.24292e-06
5.24292e-06
5.24292e-06
5.37747e-06
5.37747e-06
5.37747e-06
5.35376e-06
5.35376e-06
5.35376e-06
5.28636e-06
5.28636e-06
5.28636e-06
5.04171e-06
5.04171e-06
5.04171e-06
5.17566e-06
5.17566e-06
5.17566e-06
5.15187e-06
5.15187e-06
5.15187e-06
5.08448e-06
5.08448e-06
5.08448e-06
4.8749e-06
4.8749e-06
4.8749e-06
4.98491e-06
4.98491e-06
4.98491e-06
4.91705e-06
4.91705e-06
4.91705e-06
5.41693e-06
5.41693e-06
5.41693e-06
5.32487e-06
5.32487e-06
5.32487e-06
5.39275e-06
5.39275e-06
5.39275e-06
5.2811e-06
5.2811e-06
5.2811e-06
5.30542e-06
5.30542e-06
5.30542e-06
5.37306e-06
5.37306e-06
5.37306e-06
5.11435e-06
5.11435e-06
5.11435e-06
5.04744e-06
5.04744e-06
5.04744e-06
5.0233e-06
5.0233e-06
5.0233e-06
5.15737e-06
5.15737e-06
5.15737e-06
5.06622e-06
5.06622e-06
5.06622e-06
5.13338e-06
5.13338e-06
5.13338e-06
4.95629e-06
4.95629e-06
4.95629e-06
4.93165e-06
4.93165e-06
4.93165e-06
4.86451e-06
4.86451e-06
4.86451e-06
4.91365e-06
4.91365e-06
4.91365e-06
5.09627e-06
5.09627e-06
5.09627e-06
5.0296e-06
5.0296e-06
5.0296e-06
5.1201e-06
5.1201e-06
5.1201e-06
5.07768e-06
5.07768e-06
5.07768e-06
4.89657e-06
4.89657e-06
4.89657e-06
5.35909e-06
5.35909e-06
5.35909e-06
5.42615e-06
5.42615e-06
5.42615e-06
5.44926e-06
5.44926e-06
5.44926e-06
5.31569e-06
5.31569e-06
5.31569e-06
5.41027e-06
5.41027e-06
5.41027e-06
5.27671e-06
5.27671e-06
5.27671e-06
5.36739e-06
5.36739e-06
5.36739e-06
5.30102e-06
5.30102e-06
5.30102e-06
5.42972e-06
5.42972e-06
5.42972e-06
5.40544e-06
5.40544e-06
5.40544e-06
5.33864e-06
5.33864e-06
5.33864e-06
5.29663e-06
5.29663e-06
5.29663e-06
5.32042e-06
5.32042e-06
5.32042e-06
5.387e-06
5.387e-06
5.387e-06
5.06002e-06
5.06002e-06
5.06002e-06
5.19246e-06
5.19246e-06
5.19246e-06
5.08368e-06
5.08368e-06
5.08368e-06
5.14978e-06
5.14978e-06
5.14978e-06
5.10229e-06
5.10229e-06
5.10229e-06
5.16863e-06
5.16863e-06
5.16863e-06
4.95805e-06
4.95805e-06
4.95805e-06
4.93349e-06
4.93349e-06
4.93349e-06
4.86769e-06
4.86769e-06
4.86769e-06
5.11779e-06
5.11779e-06
5.11779e-06
4.98786e-06
4.98786e-06
4.98786e-06
5.09484e-06
5.09484e-06
5.09484e-06
5.02946e-06
5.02946e-06
5.02946e-06
5.07663e-06
5.07663e-06
5.07663e-06
5.01149e-06
5.01149e-06
5.01149e-06
4.93532e-06
4.93532e-06
4.93532e-06
4.97615e-06
4.97615e-06
4.97615e-06
4.82971e-06
4.82971e-06
4.82971e-06
4.87084e-06
4.87084e-06
4.87084e-06
4.84669e-06
4.84669e-06
4.84669e-06
4.96954e-06
4.96954e-06
4.96954e-06
4.88738e-06
4.88738e-06
4.88738e-06
4.99311e-06
4.99311e-06
4.99311e-06
4.95206e-06
4.95206e-06
4.95206e-06
5.11288e-06
5.11288e-06
5.11288e-06
5.24455e-06
5.24455e-06
5.24455e-06
5.20204e-06
5.20204e-06
5.20204e-06
5.13647e-06
5.13647e-06
5.13647e-06
5.22106e-06
5.22106e-06
5.22106e-06
5.15526e-06
5.15526e-06
5.15526e-06
4.16692e-06
4.16692e-06
4.16692e-06
4.14093e-06
4.14093e-06
4.14093e-06
4.3688e-06
4.3688e-06
4.3688e-06
4.23422e-06
4.23422e-06
4.23422e-06
4.64637e-06
4.64637e-06
4.64637e-06
3.8206e-06
3.8206e-06
3.8206e-06
3.75963e-06
3.75963e-06
3.75963e-06
3.79773e-06
3.79773e-06
3.79773e-06
3.57076e-06
3.57076e-06
3.57076e-06
3.68041e-06
3.68041e-06
3.68041e-06
4.10544e-06
4.10544e-06
4.10544e-06
4.13204e-06
4.13204e-06
4.13204e-06
3.04623e-06
3.04623e-06
3.04623e-06
3.03369e-06
3.03369e-06
3.03369e-06
3.03496e-06
3.03496e-06
3.03496e-06
3.09816e-06
3.09816e-06
3.09816e-06
3.10484e-06
3.10484e-06
3.10484e-06
3.1062e-06
3.1062e-06
3.1062e-06
3.01245e-06
3.01245e-06
3.01245e-06
2.99077e-06
2.99077e-06
2.99077e-06
2.99863e-06
2.99863e-06
2.99863e-06
2.99742e-06
2.99742e-06
2.99742e-06
2.99549e-06
2.99549e-06
2.99549e-06
2.99661e-06
2.99661e-06
2.99661e-06
2.9798e-06
2.9798e-06
2.9798e-06
2.98884e-06
2.98884e-06
2.98884e-06
3.012e-06
3.012e-06
3.012e-06
3.00423e-06
3.00423e-06
3.00423e-06
3.02769e-06
3.02769e-06
3.02769e-06
3.03559e-06
3.03559e-06
3.03559e-06
3.04501e-06
3.04501e-06
3.04501e-06
3.02585e-06
3.02585e-06
3.02585e-06
2.98277e-06
2.98277e-06
2.98277e-06
2.9905e-06
2.9905e-06
2.9905e-06
3.0625e-06
3.0625e-06
3.0625e-06
3.06397e-06
3.06397e-06
3.06397e-06
3.06692e-06
3.06692e-06
3.06692e-06
3.11509e-06
3.11509e-06
3.11509e-06
2.94279e-06
2.94279e-06
2.94279e-06
2.91979e-06
2.91979e-06
2.91979e-06
3.00973e-06
3.00973e-06
3.00973e-06
3.00813e-06
3.00813e-06
3.00813e-06
3.43316e-06
3.43316e-06
3.43316e-06
3.50177e-06
3.50177e-06
3.50177e-06
3.33351e-06
3.33351e-06
3.33351e-06
3.29362e-06
3.29362e-06
3.29362e-06
3.48243e-06
3.48243e-06
3.48243e-06
3.0869e-06
3.0869e-06
3.0869e-06
3.24731e-06
3.24731e-06
3.24731e-06
3.28622e-06
3.28622e-06
3.28622e-06
3.25087e-06
3.25087e-06
3.25087e-06
3.12015e-06
3.12015e-06
3.12015e-06
5.88132e-06
5.88132e-06
5.88132e-06
5.8013e-06
5.8013e-06
5.8013e-06
5.46292e-06
5.46292e-06
5.46292e-06
5.50815e-06
5.50815e-06
5.50815e-06
5.44178e-06
5.44178e-06
5.44178e-06
3.43944e-06
3.43944e-06
3.43944e-06
3.43811e-06
3.43811e-06
3.43811e-06
3.42536e-06
3.42536e-06
3.42536e-06
3.4303e-06
3.4303e-06
3.4303e-06
3.42013e-06
3.42013e-06
3.42013e-06
3.41231e-06
3.41231e-06
3.41231e-06
3.41108e-06
3.41108e-06
3.41108e-06
3.3998e-06
3.3998e-06
3.3998e-06
3.44489e-06
3.44489e-06
3.44489e-06
3.45212e-06
3.45212e-06
3.45212e-06
3.45385e-06
3.45385e-06
3.45385e-06
3.46664e-06
3.46664e-06
3.46664e-06
3.45777e-06
3.45777e-06
3.45777e-06
3.47977e-06
3.47977e-06
3.47977e-06
3.45264e-06
3.45264e-06
3.45264e-06
3.33121e-06
3.33121e-06
3.33121e-06
3.22515e-06
3.22515e-06
3.22515e-06
3.31021e-06
3.31021e-06
3.31021e-06
3.32048e-06
3.32048e-06
3.32048e-06
3.33245e-06
3.33245e-06
3.33245e-06
3.32197e-06
3.32197e-06
3.32197e-06
3.31451e-06
3.31451e-06
3.31451e-06
3.31301e-06
3.31301e-06
3.31301e-06
3.38084e-06
3.38084e-06
3.38084e-06
3.31791e-06
3.31791e-06
3.31791e-06
3.26283e-06
3.26283e-06
3.26283e-06
3.24392e-06
3.24392e-06
3.24392e-06
3.23377e-06
3.23377e-06
3.23377e-06
3.35256e-06
3.35256e-06
3.35256e-06
3.34367e-06
3.34367e-06
3.34367e-06
3.37046e-06
3.37046e-06
3.37046e-06
3.37948e-06
3.37948e-06
3.37948e-06
3.3779e-06
3.3779e-06
3.3779e-06
3.3018e-06
3.3018e-06
3.3018e-06
3.40529e-06
3.40529e-06
3.40529e-06
3.41756e-06
3.41756e-06
3.41756e-06
3.40682e-06
3.40682e-06
3.40682e-06
3.13012e-06
3.13012e-06
3.13012e-06
3.12049e-06
3.12049e-06
3.12049e-06
3.14649e-06
3.14649e-06
3.14649e-06
3.10115e-06
3.10115e-06
3.10115e-06
3.10279e-06
3.10279e-06
3.10279e-06
3.11252e-06
3.11252e-06
3.11252e-06
3.26813e-06
3.26813e-06
3.26813e-06
3.21102e-06
3.21102e-06
3.21102e-06
3.18584e-06
3.18584e-06
3.18584e-06
3.18722e-06
3.18722e-06
3.18722e-06
2.96953e-06
2.96953e-06
2.96953e-06
2.97732e-06
2.97732e-06
2.97732e-06
2.98681e-06
2.98681e-06
2.98681e-06
2.98824e-06
2.98824e-06
2.98824e-06
2.98426e-06
2.98426e-06
2.98426e-06
2.99288e-06
2.99288e-06
2.99288e-06
2.98917e-06
2.98917e-06
2.98917e-06
2.99991e-06
2.99991e-06
2.99991e-06
3.0008e-06
3.0008e-06
3.0008e-06
3.23813e-06
3.23813e-06
3.23813e-06
3.22658e-06
3.22658e-06
3.22658e-06
3.22798e-06
3.22798e-06
3.22798e-06
3.12038e-06
3.12038e-06
3.12038e-06
3.11712e-06
3.11712e-06
3.11712e-06
3.12686e-06
3.12686e-06
3.12686e-06
3.12866e-06
3.12866e-06
3.12866e-06
3.14519e-06
3.14519e-06
3.14519e-06
3.13395e-06
3.13395e-06
3.13395e-06
3.1352e-06
3.1352e-06
3.1352e-06
3.14234e-06
3.14234e-06
3.14234e-06
3.04846e-06
3.04846e-06
3.04846e-06
3.05154e-06
3.05154e-06
3.05154e-06
3.09361e-06
3.09361e-06
3.09361e-06
3.09469e-06
3.09469e-06
3.09469e-06
3.05507e-06
3.05507e-06
3.05507e-06
3.03237e-06
3.03237e-06
3.03237e-06
3.03727e-06
3.03727e-06
3.03727e-06
3.04876e-06
3.04876e-06
3.04876e-06
3.01178e-06
3.01178e-06
3.01178e-06
3.01055e-06
3.01055e-06
3.01055e-06
3.0168e-06
3.0168e-06
3.0168e-06
3.02486e-06
3.02486e-06
3.02486e-06
3.01856e-06
3.01856e-06
3.01856e-06
3.02816e-06
3.02816e-06
3.02816e-06
5.38991e-06
5.38991e-06
5.38991e-06
5.36236e-06
5.36236e-06
5.36236e-06
5.28916e-06
5.28916e-06
5.28916e-06
5.24358e-06
5.24358e-06
5.24358e-06
5.06945e-06
5.06945e-06
5.06945e-06
5.14257e-06
5.14257e-06
5.14257e-06
5.17059e-06
5.17059e-06
5.17059e-06
4.25697e-06
4.25697e-06
4.25697e-06
5.77829e-06
5.77829e-06
5.77829e-06
5.70593e-06
5.70593e-06
5.70593e-06
5.48839e-06
5.48839e-06
5.48839e-06
5.56099e-06
5.56099e-06
5.56099e-06
5.42118e-06
5.42118e-06
5.42118e-06
5.37721e-06
5.37721e-06
5.37721e-06
5.40224e-06
5.40224e-06
5.40224e-06
5.4711e-06
5.4711e-06
5.4711e-06
5.64924e-06
5.64924e-06
5.64924e-06
5.5105e-06
5.5105e-06
5.5105e-06
5.32744e-06
5.32744e-06
5.32744e-06
5.18927e-06
5.18927e-06
5.18927e-06
5.23335e-06
5.23335e-06
5.23335e-06
5.30271e-06
5.30271e-06
5.30271e-06
3.76144e-06
3.76144e-06
3.76144e-06
3.84511e-06
3.84511e-06
3.84511e-06
3.91543e-06
3.91543e-06
3.91543e-06
3.80219e-06
3.80219e-06
3.80219e-06
3.73139e-06
3.73139e-06
3.73139e-06
3.70274e-06
3.70274e-06
3.70274e-06
3.84458e-06
3.84458e-06
3.84458e-06
3.74505e-06
3.74505e-06
3.74505e-06
3.8161e-06
3.8161e-06
3.8161e-06
3.83079e-06
3.83079e-06
3.83079e-06
3.68924e-06
3.68924e-06
3.68924e-06
3.60534e-06
3.60534e-06
3.60534e-06
3.25223e-06
3.25223e-06
3.25223e-06
3.63175e-06
3.63175e-06
3.63175e-06
3.32457e-06
3.32457e-06
3.32457e-06
4.42179e-06
4.42179e-06
4.42179e-06
3.88648e-06
3.88648e-06
3.88648e-06
3.85862e-06
3.85862e-06
3.85862e-06
4.02784e-06
4.02784e-06
4.02784e-06
4.14026e-06
4.14026e-06
4.14026e-06
4.0981e-06
4.0981e-06
4.0981e-06
4.17806e-06
4.17806e-06
4.17806e-06
4.85026e-06
4.85026e-06
4.85026e-06
4.61507e-06
4.61507e-06
4.61507e-06
4.58752e-06
4.58752e-06
4.58752e-06
4.51457e-06
4.51457e-06
4.51457e-06
4.48502e-06
4.48502e-06
4.48502e-06
3.95807e-06
3.95807e-06
3.95807e-06
4.18584e-06
4.18584e-06
4.18584e-06
4.04376e-06
4.04376e-06
4.04376e-06
5.45564e-06
5.45564e-06
5.45564e-06
5.38565e-06
5.38565e-06
5.38565e-06
4.40548e-06
4.40548e-06
4.40548e-06
4.5458e-06
4.5458e-06
4.5458e-06
4.51925e-06
4.51925e-06
4.51925e-06
4.44909e-06
4.44909e-06
4.44909e-06
4.69518e-06
4.69518e-06
4.69518e-06
4.45369e-06
4.45369e-06
4.45369e-06
4.67077e-06
4.67077e-06
4.67077e-06
5.68691e-06
5.68691e-06
5.68691e-06
5.71103e-06
5.71103e-06
5.71103e-06
5.69032e-06
5.69032e-06
5.69032e-06
5.55089e-06
5.55089e-06
5.55089e-06
5.595e-06
5.595e-06
5.595e-06
5.66501e-06
5.66501e-06
5.66501e-06
5.66973e-06
5.66973e-06
5.66973e-06
5.62472e-06
5.62472e-06
5.62472e-06
5.55523e-06
5.55523e-06
5.55523e-06
5.53049e-06
5.53049e-06
5.53049e-06
5.57571e-06
5.57571e-06
5.57571e-06
5.64546e-06
5.64546e-06
5.64546e-06
5.50384e-06
5.50384e-06
5.50384e-06
5.43584e-06
5.43584e-06
5.43584e-06
5.41159e-06
5.41159e-06
5.41159e-06
5.54815e-06
5.54815e-06
5.54815e-06
5.45578e-06
5.45578e-06
5.45578e-06
5.52403e-06
5.52403e-06
5.52403e-06
4.58682e-06
4.58682e-06
4.58682e-06
4.47777e-06
4.47777e-06
4.47777e-06
4.54515e-06
4.54515e-06
4.54515e-06
4.56127e-06
4.56127e-06
4.56127e-06
4.77266e-06
4.77266e-06
4.77266e-06
4.63815e-06
4.63815e-06
4.63815e-06
4.66338e-06
4.66338e-06
4.66338e-06
4.73052e-06
4.73052e-06
4.73052e-06
4.65433e-06
4.65433e-06
4.65433e-06
4.67992e-06
4.67992e-06
4.67992e-06
4.7473e-06
4.7473e-06
4.7473e-06
4.78932e-06
4.78932e-06
4.78932e-06
4.93537e-06
4.93537e-06
4.93537e-06
4.79914e-06
4.79914e-06
4.79914e-06
4.8922e-06
4.8922e-06
4.8922e-06
4.82423e-06
4.82423e-06
4.82423e-06
5.02848e-06
5.02848e-06
5.02848e-06
5.00349e-06
5.00349e-06
5.00349e-06
4.72217e-06
4.72217e-06
4.72217e-06
4.74784e-06
4.74784e-06
4.74784e-06
4.57825e-06
4.57825e-06
4.57825e-06
4.60363e-06
4.60363e-06
4.60363e-06
4.6885e-06
4.6885e-06
4.6885e-06
4.6205e-06
4.6205e-06
4.6205e-06
5.12004e-06
5.12004e-06
5.12004e-06
5.07624e-06
5.07624e-06
5.07624e-06
4.97081e-06
4.97081e-06
4.97081e-06
5.26421e-06
5.26421e-06
5.26421e-06
5.30822e-06
5.30822e-06
5.30822e-06
5.21416e-06
5.21416e-06
5.21416e-06
5.28326e-06
5.28326e-06
5.28326e-06
4.45207e-06
4.45207e-06
4.45207e-06
4.49365e-06
4.49365e-06
4.49365e-06
4.46837e-06
4.46837e-06
4.46837e-06
4.40061e-06
4.40061e-06
4.40061e-06
4.35836e-06
4.35836e-06
4.35836e-06
4.38454e-06
4.38454e-06
4.38454e-06
4.34271e-06
4.34271e-06
4.34271e-06
4.2753e-06
4.2753e-06
4.2753e-06
4.48398e-06
4.48398e-06
4.48398e-06
4.52613e-06
4.52613e-06
4.52613e-06
4.50067e-06
4.50067e-06
4.50067e-06
4.43242e-06
4.43242e-06
4.43242e-06
4.22731e-06
4.22731e-06
4.22731e-06
4.29561e-06
4.29561e-06
4.29561e-06
4.53274e-06
4.53274e-06
4.53274e-06
4.48066e-06
4.48066e-06
4.48066e-06
4.31112e-06
4.31112e-06
4.31112e-06
4.44818e-06
4.44818e-06
4.44818e-06
4.33756e-06
4.33756e-06
4.33756e-06
4.40597e-06
4.40597e-06
4.40597e-06
4.40094e-06
4.40094e-06
4.40094e-06
3.87244e-06
3.87244e-06
3.87244e-06
3.83079e-06
3.83079e-06
3.83079e-06
4.16173e-06
4.16173e-06
4.16173e-06
4.12029e-06
4.12029e-06
4.12029e-06
4.89995e-06
4.89995e-06
4.89995e-06
4.85682e-06
4.85682e-06
4.85682e-06
4.94944e-06
4.94944e-06
4.94944e-06
4.88205e-06
4.88205e-06
4.88205e-06
5.07756e-06
5.07756e-06
5.07756e-06
5.00982e-06
5.00982e-06
5.00982e-06
5.10223e-06
5.10223e-06
5.10223e-06
4.96757e-06
4.96757e-06
4.96757e-06
5.0596e-06
5.0596e-06
5.0596e-06
4.99211e-06
4.99211e-06
4.99211e-06
4.8123e-06
4.8123e-06
4.8123e-06
4.98787e-06
4.98787e-06
4.98787e-06
4.92132e-06
4.92132e-06
4.92132e-06
5.01126e-06
5.01126e-06
5.01126e-06
4.8787e-06
4.8787e-06
4.8787e-06