<VTKFile type="UnstructuredGrid" version="1.0">
<UnstructuredGrid>
<Piece NumberOfPoints="8859" NumberOfCells="2953">
<Points>
<DataArray type="Float64" NumberOfComponents="3" format="ascii">
2.04744 2.20956 0.912625
2.06275 2.19425 0.924584
2.04754 2.20946 0.938328
2.07804 2.17896 0.861673
2.07805 2.17895 0.836515
2.0934 2.1636 0.84898
2.06271 2.19429 0.874362
2.07804 2.17896 0.861673
2.07804 2.17896 0.886856
2.01701 2.23999 0.96488
2.03242 2.22458 0.9725
2.00164 2.25536 0.9725
2.01701 2.23999 0.96488
2.03232 2.22468 0.949569
2.03242 2.22458 0.9725
2.04777 2.20923 0.964788
2.06326 2.19374 0.9725
2.03242 2.22458 0.9725
2.04777 2.20923 0.964788
2.03232 2.22468 0.949569
2.04754 2.20946 0.938328
2.03242 2.22458 0.9725
2.03232 2.22468 0.949569
2.04777 2.20923 0.964788
2.04754 2.20946 0.938328
2.06275 2.19425 0.924584
2.06287 2.19413 0.94927
2.06287 2.19413 0.94927
2.04777 2.20923 0.964788
2.04754 2.20946 0.938328
2.06326 2.19374 0.9725
2.04777 2.20923 0.964788
2.06287 2.19413 0.94927
2.06275 2.19425 0.924584
2.04744 2.20956 0.912625
2.06271 2.19429 0.899521
2.06271 2.19429 0.874362
2.07804 2.17896 0.886856
2.06271 2.19429 0.899521
2.07809 2.17891 0.937625
2.06287 2.19413 0.94927
2.06275 2.19425 0.924584
2.0934 2.1636 0.923949
2.0934 2.1636 0.948552
2.07809 2.17891 0.937625
2.0934 2.1636 0.823871
2.0934 2.1636 0.84898
2.07805 2.17895 0.836515
2.07804 2.17896 0.861673
2.0934 2.1636 0.84898
2.0934 2.1636 0.874055
2.0934 2.1636 0.874055
2.07804 2.17896 0.886856
2.07804 2.17896 0.861673
2.0934 2.1636 0.29652
2.0934 2.1636 0.321651
2.07807 2.17893 0.309069
2.07807 2.17893 0.76107
2.0934 2.1636 0.773613
2.07806 2.17894 0.786215
2.0934 2.1636 0.74848
2.0934 2.1636 0.773613
2.07807 2.17893 0.76107
2.07808 2.17892 0.635442
2.0934 2.1636 0.647992
2.07808 2.17892 0.660554
1.61564 2.64136 0.0805869
1.63134 2.62566 0.0725
1.63134 2.62566 0.095634
1.5683 2.6887 0.9725
1.53648 2.72052 0.9725
1.55243 2.70457 0.964321
2.07804 2.17896 0.912117
2.06271 2.19429 0.899521
2.07804 2.17896 0.886856
2.06275 2.19425 0.924584
2.06271 2.19429 0.899521
2.07804 2.17896 0.912117
2.07804 2.17896 0.912117
2.07809 2.17891 0.937625
2.06275 2.19425 0.924584
2.0934 2.1636 0.923949
2.07809 2.17891 0.937625
2.07804 2.17896 0.912117
2.07833 2.17867 0.963839
2.0934 2.1636 0.948552
2.0934 2.1636 0.9725
2.07833 2.17867 0.963839
2.07809 2.17891 0.937625
2.0934 2.1636 0.948552
2.0934 2.1636 0.9725
2.06326 2.19374 0.9725
2.07833 2.17867 0.963839
2.06326 2.19374 0.9725
2.06287 2.19413 0.94927
2.07833 2.17867 0.963839
2.06287 2.19413 0.94927
2.07809 2.17891 0.937625
2.07833 2.17867 0.963839
2.07806 2.17894 0.786215
2.0934 2.1636 0.773613
2.0934 2.1636 0.798745
2.07804 2.17896 0.886856
2.0934 2.1636 0.874055
2.0934 2.1636 0.899067
2.0934 2.1636 0.923949
2.07804 2.17896 0.912117
2.0934 2.1636 0.899067
2.0934 2.1636 0.899067
2.07804 2.17896 0.912117
2.07804 2.17896 0.886856
2.0934 2.1636 0.622885
2.0934 2.1636 0.647992
2.07808 2.17892 0.635442
2.07807 2.17893 0.309069
2.0934 2.1636 0.321651
2.07807 2.17893 0.334202
2.06275 2.19425 0.748526
2.04743 2.20957 0.735977
2.06275 2.19425 0.723383
2.07806 2.17894 0.811363
2.0934 2.1636 0.823871
2.07805 2.17895 0.836515
2.07806 2.17894 0.811363
2.0934 2.1636 0.798745
2.0934 2.1636 0.823871
2.07806 2.17894 0.811363
2.06273 2.19427 0.798839
2.07806 2.17894 0.786215
2.07806 2.17894 0.786215
2.0934 2.1636 0.798745
2.07806 2.17894 0.811363
2.06271 2.19429 0.849184
2.07804 2.17896 0.861673
2.06271 2.19429 0.874362
2.06271 2.19429 0.849184
2.07805 2.17895 0.836515
2.07804 2.17896 0.861673
2.04741 2.20959 0.81149
2.03209 2.22491 0.824146
2.0321 2.2249 0.798941
1.83285 2.42415 0.938376
1.81747 2.43953 0.924896
1.83285 2.42415 0.91275
1.78664 2.47036 0.773805
1.78664 2.47036 0.799
1.77121 2.48579 0.786392
2.0934 2.1636 0.0725
2.0934 2.1636 0.096448
2.07833 2.17867 0.0811606
1.56833 2.68867 0.949328
1.5683 2.6887 0.9725
1.55243 2.70457 0.964321
1.63134 2.62566 0.874462
1.61565 2.64135 0.88714
1.61564 2.64136 0.861854
1.55243 2.70457 0.964321
1.53648 2.72052 0.9725
1.53664 2.72036 0.949228
2.06276 2.19424 0.396996
2.04745 2.20955 0.384429
2.06276 2.19424 0.371878
2.0934 2.1636 0.547592
2.07808 2.17892 0.535047
2.0934 2.1636 0.5225
2.07808 2.17892 0.585237
2.0934 2.1636 0.572686
2.0934 2.1636 0.597784
2.06277 2.19423 0.497406
2.04745 2.20955 0.509952
2.04745 2.20955 0.484856
2.06277 2.19423 0.5225
2.04745 2.20955 0.509952
2.06277 2.19423 0.497406
2.07808 2.17892 0.535047
2.06277 2.19423 0.547594
2.06277 2.19423 0.5225
2.04745 2.20955 0.660571
2.06276 2.19424 0.673122
2.04744 2.20956 0.685697
2.01682 2.24018 0.635467
2.01682 2.24018 0.660589
2.0015 2.2555 0.648033
2.04745 2.20955 0.635455
2.03214 2.22486 0.622905
2.04745 2.20955 0.610346
2.04745 2.20955 0.610346
2.06277 2.19423 0.622894
2.04745 2.20955 0.635455
2.03214 2.22486 0.622905
2.03214 2.22486 0.597797
2.04745 2.20955 0.610346
2.04745 2.20955 0.610346
2.03214 2.22486 0.597797
2.04745 2.20955 0.585242
2.0934 2.1636 0.597784
2.0934 2.1636 0.622885
2.07808 2.17892 0.610337
2.07808 2.17892 0.610337
2.07808 2.17892 0.585237
2.0934 2.1636 0.597784
2.07808 2.17892 0.610337
2.0934 2.1636 0.622885
2.07808 2.17892 0.635442
2.07808 2.17892 0.635442
2.06277 2.19423 0.622894
2.07808 2.17892 0.610337
2.04744 2.20956 0.710831
2.03213 2.22487 0.698277
2.04744 2.20956 0.685697
2.04744 2.20956 0.710831
2.06275 2.19425 0.723383
2.04743 2.20957 0.735977
2.0015 2.2555 0.698302
2.01681 2.24019 0.68572
2.01681 2.24019 0.710864
2.01681 2.24019 0.710864
2.01681 2.24019 0.68572
2.03213 2.22487 0.698277
2.0934 2.1636 0.673105
2.07808 2.17892 0.660554
2.0934 2.1636 0.647992
2.04744 2.20956 0.685697
2.06276 2.19424 0.673122
2.06276 2.19424 0.698248
2.06276 2.19424 0.698248
2.04744 2.20956 0.710831
2.04744 2.20956 0.685697
2.06275 2.19425 0.723383
2.04744 2.20956 0.710831
2.06276 2.19424 0.698248
2.07806 2.17894 0.786215
2.06273 2.19427 0.798839
2.06274 2.19426 0.773678
2.06274 2.19426 0.773678
2.07807 2.17893 0.76107
2.07806 2.17894 0.786215
2.06275 2.19425 0.748526
2.07807 2.17893 0.76107
2.06274 2.19426 0.773678
2.0321 2.2249 0.798941
2.03211 2.22489 0.773753
2.04742 2.20958 0.786304
2.04742 2.20958 0.786304
2.04741 2.20959 0.81149
2.0321 2.2249 0.798941
2.06273 2.19427 0.798839
2.04741 2.20959 0.81149
2.04742 2.20958 0.786304
2.04742 2.20958 0.786304
2.06274 2.19426 0.773678
2.06273 2.19427 0.798839
2.01679 2.24021 0.786381
2.03211 2.22489 0.773753
2.0321 2.2249 0.798941
2.01679 2.24021 0.786381
2.00148 2.25552 0.799009
2.00148 2.25552 0.773807
2.06271 2.19429 0.874362
2.06271 2.19429 0.899521
2.04741 2.20959 0.887217
2.04741 2.20959 0.887217
2.06271 2.19429 0.899521
2.04744 2.20956 0.912625
2.03209 2.22491 0.824146
2.04741 2.20959 0.81149
2.0474 2.2096 0.836694
2.0474 2.2096 0.836694
2.03209 2.22491 0.849368
2.03209 2.22491 0.824146
1.97087 2.28613 0.673174
1.95555 2.30145 0.685749
1.95555 2.30145 0.660611
2.00148 2.25552 0.773807
2.00149 2.25551 0.748623
2.0168 2.2402 0.761192
2.0168 2.2402 0.761192
2.01679 2.24021 0.786381
2.00148 2.25552 0.773807
2.03211 2.22489 0.773753
2.01679 2.24021 0.786381
2.0168 2.2402 0.761192
2.03211 2.22489 0.748581
2.03211 2.22489 0.773753
2.0168 2.2402 0.761192
1.86358 2.39342 0.912763
1.86358 2.39342 0.93839
1.84822 2.40878 0.924907
1.84822 2.40878 0.924907
1.86358 2.39342 0.93839
1.84822 2.40878 0.949497
1.84822 2.40878 0.924907
1.84822 2.40878 0.949497
1.83285 2.42415 0.938376
1.83285 2.42415 0.938376
1.83285 2.42415 0.91275
1.84822 2.40878 0.924907
1.81747 2.43953 0.899845
1.83285 2.42415 0.91275
1.81747 2.43953 0.924896
1.80202 2.45498 0.53505
1.80202 2.45498 0.56015
1.7866 2.4704 0.547599
1.70922 2.54778 0.660564
1.69367 2.56333 0.647996
1.70922 2.54778 0.635447
1.70924 2.54776 0.710832
1.6937 2.5633 0.723393
1.69369 2.56331 0.698249
1.63134 2.62566 0.874462
1.61564 2.64136 0.861854
1.63132 2.62568 0.849241
1.63135 2.62565 0.899657
1.61565 2.64135 0.88714
1.63134 2.62566 0.874462
1.69376 2.56324 0.824121
1.69378 2.56322 0.849338
1.6782 2.5788 0.836717
1.59983 2.65717 0.773576
1.61554 2.64146 0.761025
1.61557 2.64143 0.786199
1.59973 2.65727 0.67303
1.58397 2.67303 0.685563
1.58396 2.67304 0.660458
1.61564 2.64136 0.964413
1.63134 2.62566 0.9725
1.5999 2.6571 0.9725
1.63134 2.62566 0.949366
1.63134 2.62566 0.9725
1.61564 2.64136 0.964413
1.647 2.61 0.964474
1.63134 2.62566 0.9725
1.63134 2.62566 0.949366
1.59993 2.65707 0.89961
1.59992 2.65708 0.924693
1.58418 2.67282 0.912459
1.84822 2.40878 0.9725
1.81747 2.43953 0.9725
1.83285 2.42415 0.964721
1.83285 2.42415 0.938376
1.84822 2.40878 0.949497
1.83285 2.42415 0.964721
1.83285 2.42415 0.964721
1.84822 2.40878 0.949497
1.84822 2.40878 0.9725
1.81747 2.43953 0.949489
1.81747 2.43953 0.924896
1.83285 2.42415 0.938376
1.83285 2.42415 0.938376
1.83285 2.42415 0.964721
1.81747 2.43953 0.949489
1.81747 2.43953 0.949489
1.83285 2.42415 0.964721
1.81747 2.43953 0.9725
1.70931 2.54769 0.836759
1.69378 2.56322 0.849338
1.69376 2.56324 0.824121
1.7712 2.4858 0.761204
1.78663 2.47037 0.748624
1.78664 2.47036 0.773805
1.78664 2.47036 0.773805
1.77121 2.48579 0.786392
1.7712 2.4858 0.761204
1.77122 2.48578 0.811596
1.77121 2.48579 0.786392
1.78664 2.47036 0.799
1.77122 2.48578 0.811596
1.78664 2.47036 0.799
1.78665 2.47035 0.824208
1.78665 2.47035 0.824208
1.77123 2.48577 0.836818
1.77122 2.48578 0.811596
1.77122 2.48578 0.811596
1.77123 2.48577 0.836818
1.75578 2.50122 0.824187
1.78666 2.47034 0.849427
1.77123 2.48577 0.836818
1.78665 2.47035 0.824208
1.78666 2.47034 0.874644
1.77124 2.48576 0.887342
1.77124 2.48576 0.862061
1.77124 2.48576 0.862061
1.78666 2.47034 0.849427
1.78666 2.47034 0.874644
1.77123 2.48577 0.836818
1.78666 2.47034 0.849427
1.77124 2.48576 0.862061
2.07809 2.17891 0.107375
2.07833 2.17867 0.0811606
2.0934 2.1636 0.096448
2.06287 2.19413 0.0957297
2.07833 2.17867 0.0811606
2.07809 2.17891 0.107375
1.94028 2.31672 0.0954754
1.94028 2.31672 0.0725
1.95561 2.30139 0.0802084
2.00164 2.25536 0.0725
1.98629 2.27071 0.0801683
1.97095 2.28605 0.0725
1.97095 2.28605 0.0725
1.95561 2.30139 0.0802084
[...]
<PointData Scalars="View Factor" >
<DataArray type="Float64" Name="View Factor" NumberOfComponents="1" format="ascii">
0.00436398
0.00436398
0.00436398
0.00456971
0.00456971
0.00456971
0.00449913
0.00449913
0.00449913
0.00429676
0.00429676
0.00429676
0.00429678
0.00429678
0.00429678
0.00422262
0.00422262
0.00422262
0.00429865
0.00429865
0.00429865
0.00427188
0.00427188
0.00427188
0.00431038
0.00431038
0.00431038
0.00427573
0.00427573
0.00427573
0.0042261
0.0042261
0.0042261
0.00439767
0.00439767
0.00439767
0.00446483
0.00446483
0.00446483
0.00428947
0.00428947
0.00428947
0.00425132
0.00425132
0.00425132
0.00460594
0.00460594
0.00460594
0.00451376
0.00451376
0.00451376
0.00447836
0.00447836
0.00447836
0.00722574
0.00722574
0.00722574
0.00485809
0.00485809
0.00485809
0.00489717
0.00489717
0.00489717
0.00539091
0.00539091
0.00539091
0.0184733
0.0184733
0.0184733
0.00917754
0.00917754
0.00917754
0.00440923
0.00440923
0.00440923
0.00437597
0.00437597
0.00437597
0.00432148
0.00432148
0.00432148
0.0043021
0.0043021
0.0043021
0.00416836
0.00416836
0.00416836
0.00421607
0.00421607
0.00421607
0.00416059
0.00416059
0.00416059
0.00420597
0.00420597
0.00420597
0.00423481
0.00423481
0.00423481
0.00479759
0.00479759
0.00479759
0.00442396
0.00442396
0.00442396
0.0043365
0.0043365
0.0043365
0.00438914
0.00438914
0.00438914
0.00543541
0.00543541
0.00543541
0.00716177
0.00716177
0.00716177
0.00507407
0.00507407
0.00507407
0.0046634
0.0046634
0.0046634
0.00470053
0.00470053
0.00470053
0.00478211
0.00478211
0.00478211
0.0047595
0.0047595
0.0047595
0.00455594
0.00455594
0.00455594
0.00459111
0.00459111
0.00459111
0.00482294
0.00482294
0.00482294
0.00616647
0.00616647
0.00616647
0.00754261
0.00754261
0.00754261
0.00891688
0.00891688
0.00891688
0.00910902
0.00910902
0.00910902
0.0090518
0.0090518
0.0090518
0.00936186
0.00936186
0.00936186
0.00686116
0.00686116
0.00686116
0.00591979
0.00591979
0.00591979
0.00567115
0.00567115
0.00567115
0.00622891
0.00622891
0.00622891
0.00614367
0.00614367
0.00614367
0.00597907
0.00597907
0.00597907
0.00536102
0.00536102
0.00536102
0.00561241
0.00561241
0.00561241
0.00562517
0.00562517
0.00562517
0.00559267
0.00559267
0.00559267
0.0057026
0.0057026
0.0057026
0.00574662
0.00574662
0.00574662
0.00555172
0.00555172
0.00555172
0.00562422
0.00562422
0.00562422
0.00550603
0.00550603
0.00550603
0.00553309
0.00553309
0.00553309
0.00527969
0.00527969
0.00527969
0.00514113
0.00514113
0.00514113
0.00537966
0.00537966
0.00537966
0.0053447
0.0053447
0.0053447
0.00532211
0.00532211
0.00532211
0.00529039
0.00529039
0.00529039
0.00524966
0.00524966
0.00524966
0.00518084
0.00518084
0.00518084
0.0048434
0.0048434
0.0048434
0.0048813
0.0048813
0.0048813
0.00494418
0.00494418
0.00494418
0.00492331
0.00492331
0.00492331
0.00485875
0.00485875
0.00485875
0.00483173
0.00483173
0.00483173
0.00486855
0.00486855
0.00486855
0.00495293
0.00495293
0.00495293
0.00501655
0.00501655
0.00501655
0.00448727
0.00448727
0.00448727
0.00445352
0.00445352
0.00445352
0.00475999
0.00475999
0.00475999
0.00472503
0.00472503
0.00472503
0.00569899
0.00569899
0.00569899
0.00512218
0.00512218
0.00512218
0.00505232
0.00505232
0.00505232
0.00502004
0.00502004
0.00502004
0.00505666
0.00505666
0.00505666
0.00580261
0.00580261
0.00580261
0.00580467
0.00580467
0.00580467
0.0059245
0.0059245
0.0059245
0.00604479
0.00604479
0.00604479
0.00629319
0.00629319
0.00629319
0.00901655
0.00901655
0.00901655
0.00968797
0.00968797
0.00968797
0.00925055
0.00925055
0.00925055
0.00908018
0.00908018
0.00908018
0.00889086
0.00889086
0.00889086
0.00844728
0.00844728
0.00844728
0.0100046
0.0100046
0.0100046
0.0112336
0.0112336
0.0112336
0.00842742
0.00842742
0.00842742
0.00835598
0.00835598
0.00835598
0.0082313
0.0082313
0.0082313
0.00909759
0.00909759
0.00909759
0.00588791
0.00588791
0.00588791
0.00592046
0.00592046
0.00592046
0.00580712
0.00580712
0.00580712
0.00616546
0.00616546
0.00616546
0.00603956
0.00603956
0.00603956
0.00604307
0.00604307
0.00604307
0.00831049
0.00831049
0.00831049
0.00770536
0.00770536
0.00770536
0.00769393
0.00769393
0.00769393
0.0075321
0.0075321
0.0075321
0.00738418
0.00738418
0.00738418
0.00737407
0.00737407
0.00737407
0.00750945
0.00750945
0.00750945
0.00722995
0.00722995
0.00722995
0.00707027
0.00707027
0.00707027
0.00707949
0.00707949
0.00707949
0.00722008
0.00722008
0.00722008
0.0088409
0.0088409
0.0088409
0.00889097
0.00889097
0.00889097
0.0101325
0.0101325
0.0101325
0.00962335
0.00962335
0.00962335
0.0099525
0.0099525
0.0099525
0.0216625
0.0216625
0.0216625
0.0211436
0.0211436
0.0211436
0.0219221
0.0219221
0.0219221
0.0223183
0.0223183
0.0223183
0.0198677
0.0198677
0.0198677
0.0188969
0.0188969
0.0188969
0.0197403
0.0197403
0.0197403
0.0188376
0.0188376
0.0188376
0.0185007
0.0185007
0.0185007
0.00860574
0.00860574
0.00860574
0.00906627
0.00906627
0.00906627
0.00891072
0.00891072
0.00891072
0.011602
0.011602
0.011602
0.0113948
0.0113948
0.0113948
0.00986716
0.00986716
0.00986716
0.00732679
0.00732679
0.00732679
0.00618228
0.00618228
0.00618228
0.00656201
0.00656201
0.00656201
0.00650853
0.00650853
0.00650853
0.00670946
0.00670946
0.00670946
0.00665453
0.00665453
0.00665453
0.00669489
0.00669489
0.00669489
0.00679131
0.00679131
0.00679131
0.00684614
0.00684614
0.00684614
0.00680464
0.00680464
0.00680464
0.0127388
0.0127388
0.0127388
0.0127275
0.0127275
0.0127275
0.0131049
0.0131049
0.0131049
0.00694535
0.00694535
0.00694535
0.00706361
0.00706361
0.00706361
0.00596377
0.00596377
0.00596377
0.00626159
0.00626159
0.00626159
0.00569133
0.00569133
0.00569133
0.00653153
0.00653153
0.00653153
0.00625636
0.00625636
0.00625636
0.00635092
0.00635092
0.00635092
0.00650573
0.00650573
0.00650573
0.00651506
0.00651506
0.00651506
0.00626608
0.00626608
0.00626608
0.00604925
0.00604925
0.00604925
0.00599832
0.00599832
0.00599832
0.00602836
0.00602836
0.00602836
0.00611011
0.00611011
0.00611011
0.00616077
0.00616077
0.00616077
0.00612993
0.00612993
0.00612993
0.00766037
0.00766037
0.00766037
0.00766052
0.00766052
0.00766052
0.00680882
0.00680882
0.00680882
0.00665063
0.00665063
0.00665063
0.00665979
0.00665979
0.00665979
0.00682476
0.00682476
0.00682476
0.00783326
0.00783326
0.00783326
0.00800996
0.00800996
0.00800996
0.00800556
0.00800556
0.00800556
0.00783245
0.00783245
0.00783245
0.00697766
0.00697766
0.00697766
0.00698439
0.00698439
0.00698439
0.00537418
0.00537418
0.00537418
0.00540283
0.00540283
0.00540283
0.00547533
0.00547533
0.00547533
0.00541728
0.00541728
0.00541728
0.00548883
0.00548883
0.00548883
0.00551824
0.00551824
0.00551824
0.00557553
0.00557553
0.00557553
0.00550698
0.00550698
0.00550698
0.00558239
0.00558239
0.00558239
0.00561712
0.00561712
0.00561712
0.00594095
0.00594095
0.00594095
0.00594168
0.00594168
0.00594168
0.00598388
0.00598388
0.00598388
0.00565199
0.00565199
0.00565199
0.00575841
0.00575841
0.00575841
0.00572741
0.00572741
0.00572741
0.00571326
0.00571326
0.00571326
0.00563673
0.00563673
0.00563673
0.00560654
0.00560654
0.00560654
0.00535125
0.00535125
0.00535125
0.00538419
0.00538419
0.00538419
0.00545861
0.00545861
0.00545861
0.00539186
0.00539186
0.00539186
0.00549913
0.00549913
0.00549913
0.00546531
0.00546531
0.00546531
0.00549453
0.00549453
0.00549453
0.00557182
0.00557182
0.00557182
0.00561073
0.00561073
0.00561073
0.00545515
0.00545515
0.00545515
0.00524012
0.00524012
0.00524012
0.00527219
0.00527219
0.00527219
0.00517039
0.00517039
0.00517039
0.00513181
0.00513181
0.00513181
0.00534119
0.00534119
0.00534119
0.00530437
0.00530437
0.00530437
0.00527868
0.00527868
0.00527868
0.00521173
0.00521173
0.00521173
0.00526247
0.00526247
0.00526247
0.00499933
0.00499933
0.00499933
0.00504757
0.00504757
0.00504757
0.00495924
0.00495924
0.00495924
0.00498305
0.00498305
0.00498305
0.00510416
0.00510416
0.00510416
0.00516959
0.00516959
0.00516959
0.00519464
0.00519464
0.00519464
0.00515364
0.00515364
0.00515364
0.00508744
0.00508744
0.00508744
0.00506302
0.00506302
0.00506302
0.00502624
0.00502624
0.00502624
0.00497
0.00497
0.00497
0.00496001
0.00496001
0.00496001
0.00493226
0.00493226
0.00493226
0.00506386
0.00506386
0.00506386
0.00503536
0.00503536
0.00503536
0.00485178
0.00485178
0.00485178
0.0049172
0.0049172
0.0049172
0.00494865
0.00494865
0.00494865
0.00457907
0.00457907
0.00457907
0.00462943
0.00462943
0.00462943
0.00463805
0.00463805
0.00463805
0.00466363
0.00466363
0.00466363
0.00454461
0.00454461
0.00454461
0.00456947
0.00456947
0.00456947
0.00435681
0.00435681
0.00435681
0.00438746
0.00438746
0.00438746
0.00434888
0.00434888
0.00434888
0.00438211
0.00438211
0.00438211
0.00443864
0.00443864
0.00443864
0.00453635
0.00453635
0.00453635
0.00447121
0.00447121
0.00447121
0.00447766
0.00447766
0.00447766
0.00444531
0.00444531
0.00444531
0.00473369
0.00473369
0.00473369
0.00468541
0.00468541
0.00468541
0.00464936
0.00464936
0.00464936
0.00467317
0.00467317
0.00467317
0.00474515
0.00474515
0.00474515
0.00476963
0.00476963
0.00476963
0.00686471
0.00686471
0.00686471
0.00701659
0.00701659
0.00701659
0.00641142
0.00641142
0.00641142
0.00671301
0.00671301
0.00671301
0.00561646
0.00561646
0.00561646
0.00553835
0.00553835
0.00553835
0.00568979
0.00568979
0.00568979
0.0056834
0.0056834
0.0056834
0.00900184
0.00900184
0.00900184
0.00884484
0.00884484
0.00884484
0.00800271
0.00800271
0.00800271
0.00782952
0.00782952
0.00782952
0.00987683
0.00987683
0.00987683
0.00965253
0.00965253
0.00965253
0.00966219
0.00966219
0.00966219
0.0109731
0.0109731
0.0109731
0.0111055
0.0111055
0.0111055
0.0111439
0.0111439
0.0111439
0.00924559
0.00924559
0.00924559
0.0088632
0.0088632
0.0088632
0.00899493
0.00899493
0.00899493
0.0089669
0.0089669
0.0089669
0.00894449
0.00894449
0.00894449
0.00897137
0.00897137
0.00897137
0.00867399
0.00867399
0.00867399
0.0088346
0.0088346
0.0088346
0.00924584
0.00924584
0.00924584
0.00910185
0.00910185
0.00910185
0.00953473
0.00953473
0.00953473
0.00967966
0.00967966
0.00967966
0.00985763
0.00985763
0.00985763
0.00950202
0.00950202
0.00950202
0.0087218
0.0087218
0.0087218
0.00885962
0.00885962
0.00885962
0.0101872
0.0101872
0.0101872
0.0102226
0.0102226
0.0102226
0.0102928
0.0102928
0.0102928
0.0112759
0.0112759
0.0112759
0.00805584
0.00805584
0.00805584
0.00768715
0.00768715
0.00768715
0.00918641
0.00918641
0.00918641
0.00915703
0.00915703
0.00915703
0.00624163
0.00624163
0.00624163
0.00616161
0.00616161
0.00616161
0.00835737
0.00835737
0.00835737
0.00834233
0.00834233
0.00834233
0.0077265
0.0077265
0.0077265
0.00700615
0.00700615
0.00700615
0.00765812
0.00765812
0.00765812
0.00767049
0.00767049
0.00767049
0.00719982
0.00719982
0.00719982
0.0074602
0.0074602
0.0074602
0.00903225
0.00903225
0.00903225
0.00901567
0.00901567
0.00901567
0.00919044
0.00919044
0.00919044
0.0092579
0.0092579
0.0092579
0.00939576
0.00939576
0.00939576
0.0209821
0.0209821
0.0209821
0.0208756
0.0208756
0.0208756
0.0205846
0.0205846
0.0205846
0.0207051
0.0207051
0.0207051
0.0203307
0.0203307
0.0203307
0.0201469
0.0201469
0.0201469
0.0200556
0.0200556
0.0200556
0.0196569
0.0196569
0.0196569
0.0209958
0.0209958
0.0209958
0.0211235
0.0211235
0.0211235
0.0212542
0.0212542
0.0212542
0.0217922
0.0217922
0.0217922
0.0215321
0.0215321
0.0215321
0.0222363
0.0222363
0.0222363
0.0214273
0.0214273
0.0214273
0.0172303
0.0172303
0.0172303
0.0138212
0.0138212
0.0138212
0.0165819
0.0165819
0.0165819
0.0161087
0.0161087
0.0161087
0.0164826
0.0164826
0.0164826
0.016195
0.016195
0.016195
0.0160809
0.0160809
0.0160809
0.0159964
0.0159964
0.0159964
0.0180878
0.0180878
0.0180878
0.0162502
0.0162502
0.0162502
0.0144612
0.0144612
0.0144612
0.014262
0.014262
0.014262
0.014008
0.014008
0.014008
0.0176733
0.0176733
0.0176733
0.0174394
0.0174394
0.0174394
0.0181402
0.0181402
0.0181402
0.018373
0.018373
0.018373
0.0182708
0.0182708
0.0182708
0.016181
0.016181
0.016181
0.01896
0.01896
0.01896
0.019414
0.019414
0.019414
0.0190696
0.0190696
0.0190696
0.0117065
0.0117065
0.0117065
0.0114804
0.0114804
0.0114804
0.0120555
0.0120555
0.0120555
0.0110401
0.0110401
0.0110401
0.0110732
0.0110732
0.0110732
0.011293
0.011293
0.011293
0.00988344
0.00988344
0.00988344
0.0102862
0.0102862
0.0102862
0.0129936
0.0129936
0.0129936
0.0130461
0.0130461
0.0130461
0.00849795
0.00849795
0.00849795
0.00862415
0.00862415
0.00862415
0.0087827
0.0087827
0.0087827
0.00880749
0.00880749
0.00880749
0.00873118
0.00873118
0.00873118
0.00887749
0.00887749
0.00887749
0.00880101
0.00880101
0.00880101
0.00898279
0.00898279
0.00898279
0.0090044
0.0090044
0.0090044
0.0137641
0.0137641
0.0137641
0.0134646
0.0134646
0.0134646
0.0135301
0.0135301
0.0135301
0.0113507
0.0113507
0.0113507
0.0112619
0.0112619
0.0112619
0.0114645
0.0114645
0.0114645
0.0115105
0.0115105
0.0115105
0.0118303
0.0118303
0.0118303
0.011575
0.011575
0.011575
0.0116227
0.0116227
0.0116227
0.0117317
0.0117317
0.0117317
0.0099018
0.0099018
0.0099018
0.00997043
0.00997043
0.00997043
0.0107429
0.0107429
0.0107429
0.0107844
0.0107844
0.0107844
0.0100085
0.0100085
0.0100085
0.00948934
0.00948934
0.00948934
0.009556
0.009556
0.009556
0.00974355
0.00974355
0.00974355
0.00919587
0.00919587
0.00919587
0.00916731
0.00916731
0.00916731
0.00925884
0.00925884
0.00925884
0.0093864
0.0093864
0.0093864
0.00929596
0.00929596
0.00929596
0.00945584
0.00945584
0.00945584
0.00925957
0.00925957
0.00925957
0.0093981
0.0093981
0.0093981
0.00947326
0.00947326
0.00947326
0.00940779
0.00940779
0.00940779
0.00971891
0.00971891
0.00971891
0.00963368
0.00963368
0.00963368
0.00948694
0.00948694
0.00948694
0.0100697
0.0100697
0.0100697
0.00880584
0.00880584
0.00880584
0.00886035
0.00886035
0.00886035
0.00904074
0.00904074
0.00904074
0.00897745
0.00897745
0.00897745
0.00641868
0.00641868
0.00641868
0.00636678
0.00636678
0.00636678
0.00627928
0.00627928
0.00627928
0.00624479
0.00624479
0.00624479
0.00645965
0.00645965
0.00645965
0.00652561
0.00652561
0.00652561
0.00654777
0.00654777
0.00654777
0.00663304
0.00663304
0.00663304
0.00668479
0.00668479
0.00668479
0.00664162
0.00664162
0.00664162
0.00947612
0.00947612
0.00947612
0.00950448
0.00950448
0.00950448
0.0106728
0.0106728
0.0106728
0.0108653
0.0108653
0.0108653
0.0110777
0.0110777
0.0110777
0.0113167
0.0113167
0.0113167
0.0108868
0.0108868
0.0108868
0.0113423
0.0113423
0.0113423
0.0111247
0.0111247
0.0111247
0.0106339
0.0106339
0.0106339
0.0110536
0.0110536
0.0110536
0.011004
0.011004
0.011004
0.0141349
0.0141349
0.0141349
0.0115327
0.0115327
0.0115327
0.0138929
0.0138929
0.0138929
0.00877994
0.00877994
0.00877994
0.00951781
0.00951781
0.00951781
0.00972461
0.00972461
0.00972461
0.00977891
0.00977891
0.00977891
0.00958751
0.00958751
0.00958751
0.00957721
0.00957721
0.00957721
0.0124326
0.0124326
0.0124326
0.0103882
0.0103882
0.0103882
0.0108952
0.0108952
0.0108952
0.0111664
0.0111664
0.0111664
0.0114241
0.0114241
0.0114241
0.0116839
0.0116839
0.0116839
0.0106916
0.0106916
0.0106916
0.0102881
0.0102881
0.0102881
0.0107273
0.0107273
0.0107273
0.00695909
0.00695909
0.00695909
0.00700178
0.00700178
0.00700178
0.00857926
0.00857926
0.00857926
0.00818984
0.00818984
0.00818984
0.00838302
0.00838302
0.00838302
0.00858003
0.00858003
0.00858003
0.0074484
0.0074484
0.0074484
0.00765233
0.00765233
0.00765233
0.00679966
0.00679966
0.00679966
0.00700137
0.00700137
0.00700137
0.0069061
0.0069061
0.0069061
0.00675303
0.00675303
0.00675303
0.00682269
0.00682269
0.00682269
0.00688117
0.00688117
0.00688117
0.00684586
0.00684586
0.00684586
0.00660427
0.00660427
0.00660427
0.00654729
0.00654729
0.00654729
0.00658072
0.00658072
0.00658072
0.00667204
0.00667204
0.00667204
0.00672875
0.00672875
0.00672875
0.0066944
0.0066944
0.0066944
0.00574559
0.00574559
0.00574559
0.00577409
0.00577409
0.00577409
0.00585155
0.00585155
0.00585155
0.0057938
0.0057938
0.0057938
0.00589951
0.00589951
0.00589951
0.00587025
0.00587025
0.00587025
0.00609386
0.00609386
0.00609386
0.00625402
0.00625402
0.00625402
0.00610344
0.00610344
0.00610344
0.006237
0.006237
0.006237
0.00573335
0.00573335
0.00573335
0.00582243
0.00582243
0.00582243
0.00573767
0.00573767
0.00573767
0.00569371
0.00569371
0.00569371
0.00594928
0.00594928
0.00594928
0.00586223
0.00586223
0.00586223
0.00581705
0.00581705
0.00581705
0.00585775
0.00585775
0.00585775
0.00611482
0.00611482
0.00611482
0.00620733
0.00620733
0.00620733
0.00607104
0.00607104
0.00607104
0.00611668
0.00611668
0.00611668
0.00598544
0.00598544
0.00598544
0.00607145
0.00607145
0.00607145
0.00649224
0.00649224
0.00649224
0.00639509
0.00639509
0.00639509
0.00637397
0.00637397
0.00637397
0.00622748
0.00622748
0.00622748
0.00621329
0.00621329
0.00621329
0.00636458
0.00636458
0.00636458
0.00667892
0.00667892
0.00667892
0.00662848
0.00662848
0.00662848
0.00638819
0.00638819
0.00638819
0.00635449
0.00635449
0.00635449
0.00640494
0.00640494
0.00640494
0.00653809
0.00653809
0.00653809
0.00649608
0.00649608
0.00649608
0.00639843
0.00639843
0.00639843
0.00639102
0.00639102
0.00639102
0.00653891
0.00653891
0.00653891
0.00669569
0.00669569
0.00669569
0.00670092
0.00670092
0.00670092
0.00655168
0.00655168
0.00655168
0.00655709
0.00655709
0.00655709
0.00670961
0.00670961
0.00670961
0.0066834
0.0066834
0.0066834
0.00667628
0.00667628
0.00667628
0.00683181
0.00683181
0.00683181
0.00699596
0.00699596
0.00699596
0.00749249
0.00749249
0.00749249
0.00732631
0.00732631
0.00732631
0.00714127
0.00714127
0.00714127
0.0074786
0.0074786
0.0074786
0.00749044
0.00749044
0.00749044
0.00715236
0.00715236
0.00715236
0.007324
0.007324
0.007324
0.00715691
0.00715691
0.00715691
0.00801072
0.00801072
0.00801072
0.00930334
0.00930334
0.00930334
0.00929074
0.00929074
0.00929074
0.00818715
0.00818715
0.00818715
0.00818354
0.00818354
0.00818354
0.00585616
0.00585616
0.00585616
0.00581458
0.00581458
0.00581458
0.00569187
0.00569187
0.00569187
0.00573187
0.00573187
0.00573187
0.00581883
0.00581883
0.00581883
0.00585775
0.00585775
0.00585775
0.00573827
0.00573827
0.00573827
0.00581506
0.00581506
0.00581506
0.00569557
0.00569557
0.00569557
0.00573345
0.00573345
0.00573345
0.00526607
0.00526607
0.00526607
0.00523361
0.00523361
0.00523361
0.00526764
0.00526764
0.00526764
0.00516307
0.00516307
0.00516307
0.00523013
0.00523013
0.00523013
0.00512561
0.00512561
0.00512561
0.00515876
0.00515876
0.00515876
0.00435049
0.00435049
0.00435049
0.00437595
0.00437595
0.00437595
0.00453006
0.00453006
0.00453006
0.00456294
0.00456294
0.00456294
0.00776389
0.00776389
0.00776389
0.00657719
0.00657719
0.00657719
0.00657523
0.00657523
0.00657523
0.0061284
0.0061284
0.0061284
0.0058372
0.0058372
0.0058372
0.00597345
0.00597345
0.00597345
0.00612069
0.00612069
0.00612069
0.00587214
0.00587214
0.00587214
0.00557366
0.00557366
0.00557366
0.00549305
0.00549305
0.00549305
0.0056122
0.0056122
0.0056122
0.00557128
0.00557128
0.00557128
0.00545667
0.00545667
0.00545667
0.00537933
0.00537933
0.00537933
0.00534057
0.00534057
0.00534057
0.0053781
0.0053781
0.0053781
0.00545446
0.00545446
0.00545446
0.00549427
0.00549427
0.00549427
0.00549831
0.00549831
0.00549831
0.00546156
0.00546156
0.00546156
0.00559379
0.00559379
0.00559379
0.00557875
0.00557875
0.00557875
0.00515715
0.00515715
0.00515715
0.0052296
0.0052296
0.0052296
0.00547665
0.00547665
0.00547665
0.00574115
0.00574115
0.00574115
0.00560349
0.00560349
0.00560349
0.00574897
0.00574897
0.00574897
0.00548634
0.00548634
0.00548634
0.005621
0.005621
0.005621
0.00693294
0.00693294
0.00693294
0.00680537
0.00680537
0.00680537
0.0067903
0.0067903
0.0067903
0.00692394
0.00692394
0.00692394
0.00641686
0.00641686
0.00641686
0.00654587
0.00654587
0.00654587
0.00666545
0.00666545
0.00666545
0.00667144
0.00667144
0.00667144
0.00932119
0.00932119
0.00932119
0.00927444
0.00927444
0.00927444
0.00947858
0.00947858
0.00947858
0.00945373
0.00945373
0.00945373
0.00912105
0.00912105
0.00912105
0.00716999
0.00716999
0.00716999
0.00717094
0.00717094
0.00717094
0.0070113
0.0070113
0.0070113
0.00717003
0.00717003
0.00717003
0.00717084
0.00717084
0.00717084
0.00685696
0.00685696
0.00685696
0.00701542
0.00701542
0.00701542
0.00686023
0.00686023
0.00686023
0.00764639
0.00764639
0.00764639
0.00732871
0.00732871
0.00732871
0.00732746
0.00732746
0.00732746
0.00748449
0.00748449
0.00748449