<VTKFile type="UnstructuredGrid" version="1.0">
<UnstructuredGrid>
<Piece NumberOfPoints="8859" NumberOfCells="2953">
<Points>
<DataArray type="Float64" NumberOfComponents="3" format="ascii">
0.5 3.01 16.625
0.512524 3.01 16.6475
0.487476 3.01 16.6475
0.17352 3.01 15.7475
0.160827 3.01 15.7692
0.148445 3.01 15.7475
0.122979 3.01 15.7909
0.110383 3.01 15.7692
0.135644 3.01 15.7692
0.135644 3.01 15.7692
0.110383 3.01 15.7692
0.123433 3.01 15.7475
0.123433 3.01 15.7475
0.148445 3.01 15.7475
0.135644 3.01 15.7692
0.135644 3.01 15.7692
0.148445 3.01 15.7475
0.160827 3.01 15.7692
0.17352 3.01 15.7475
0.198629 3.01 15.7475
0.185985 3.01 15.7692
0.185985 3.01 15.7692
0.160827 3.01 15.7692
0.17352 3.01 15.7475
0.0732297 3.01 15.7907
0.0586606 3.01 15.7688
0.0848754 3.01 15.7691
0.05 3.01 16.5803
0.05 3.01 16.5351
0.058509 3.01 16.5576
0.324276 3.01 15.7475
0.349395 3.01 15.7475
0.336827 3.01 15.7692
0.148138 3.01 15.7909
0.135644 3.01 15.7692
0.160827 3.01 15.7692
0.122979 3.01 15.7909
0.135644 3.01 15.7692
0.148138 3.01 15.7909
0.160827 3.01 15.7692
0.185985 3.01 15.7692
0.173316 3.01 15.7909
0.185806 3.01 15.8125
0.160572 3.01 15.8126
0.173316 3.01 15.7909
0.173316 3.01 15.7909
0.148138 3.01 15.7909
0.160827 3.01 15.7692
0.160572 3.01 15.8126
0.148138 3.01 15.7909
0.173316 3.01 15.7909
0.211137 3.01 15.7692
0.185985 3.01 15.7692
0.198629 3.01 15.7475
0.0979162 3.01 15.7908
0.110383 3.01 15.7692
0.122979 3.01 15.7909
0.122979 3.01 15.7909
0.109875 3.01 15.8125
0.0979162 3.01 15.7908
0.0732297 3.01 15.7907
0.0848754 3.01 15.7691
0.0979162 3.01 15.7908
0.0979162 3.01 15.7908
0.0848754 3.01 15.7691
0.110383 3.01 15.7692
0.0975729 3.01 15.834
0.109875 3.01 15.8125
0.122678 3.01 15.8341
0.0841718 3.01 15.8123
0.0577122 3.01 15.812
0.0732297 3.01 15.7907
0.0729308 3.01 15.8339
0.0577122 3.01 15.812
0.0841718 3.01 15.8123
0.0732297 3.01 15.7907
0.0979162 3.01 15.7908
0.0841718 3.01 15.8123
0.0841718 3.01 15.8123
0.0979162 3.01 15.7908
0.109875 3.01 15.8125
0.0975729 3.01 15.834
0.0729308 3.01 15.8339
0.0841718 3.01 15.8123
0.0841718 3.01 15.8123
0.109875 3.01 15.8125
0.0975729 3.01 15.834
0.073948 3.01 15.7475
0.0586606 3.01 15.7688
0.05 3.01 15.7475
0.073948 3.01 15.7475
0.0848754 3.01 15.7691
0.0586606 3.01 15.7688
0.05 3.01 16.6233
0.05 3.01 16.5803
0.0603641 3.01 16.602
0.0603641 3.01 16.602
0.0753197 3.01 16.624
0.05 3.01 16.6233
0.0709395 3.01 16.6475
0.05 3.01 16.6475
0.05 3.01 16.6233
0.05 3.01 16.6233
0.0753197 3.01 16.624
0.0709395 3.01 16.6475
0.0579641 3.01 16.3346
0.05 3.01 16.3567
0.05 3.01 16.3126
0.0841948 3.01 16.2468
0.097638 3.01 16.2249
0.109814 3.01 16.2468
0.0841948 3.01 16.2468
0.0730539 3.01 16.2687
0.0578646 3.01 16.2468
0.0580261 3.01 16.3788
0.05 3.01 16.4009
0.05 3.01 16.3567
0.942292 3.01 15.9424
0.95 3.01 15.9207
0.95 3.01 15.964
0.95 3.01 15.8773
0.95 3.01 15.9207
0.942332 3.01 15.899
0.73872 3.01 16.1595
0.726137 3.01 16.1378
0.75132 3.01 16.1378
0.751305 3.01 16.1813
0.726124 3.01 16.1813
0.73872 3.01 16.1595
0.713546 3.01 16.1595
0.726137 3.01 16.1378
0.73872 3.01 16.1595
0.73872 3.01 16.1595
0.726124 3.01 16.1813
0.713546 3.01 16.1595
0.814318 3.01 16.2031
0.789096 3.01 16.2031
0.801709 3.01 16.1813
0.7765 3.01 16.1813
0.789115 3.01 16.1595
0.801709 3.01 16.1813
0.801709 3.01 16.1813
0.789096 3.01 16.2031
0.7765 3.01 16.1813
0.7765 3.01 16.1813
0.789096 3.01 16.2031
0.763892 3.01 16.2031
0.763892 3.01 16.2031
0.751305 3.01 16.1813
0.7765 3.01 16.1813
0.95 3.01 16.6475
0.929061 3.01 16.6475
0.95 3.01 16.6233
0.95 3.01 16.4454
0.926844 3.01 16.4454
0.941913 3.01 16.4232
0.941913 3.01 16.4232
0.95 3.01 16.4009
0.95 3.01 16.4454
0.926866 3.01 16.4009
0.95 3.01 16.4009
0.941913 3.01 16.4232
0.941974 3.01 16.3788
0.95 3.01 16.4009
0.926866 3.01 16.4009
0.95 3.01 16.3567
0.95 3.01 16.4009
0.941974 3.01 16.3788
0.941974 3.01 16.3788
0.926895 3.01 16.3567
0.95 3.01 16.3567
0.6127 3.01 16.6475
0.625238 3.01 16.625
0.637734 3.01 16.6475
0.662757 3.01 16.6475
0.637734 3.01 16.6475
0.650275 3.01 16.625
0.650275 3.01 16.625
0.637734 3.01 16.6475
0.625238 3.01 16.625
0.600415 3.01 16.1814
0.587856 3.01 16.2032
0.575304 3.01 16.1814
0.575304 3.01 16.1814
0.587856 3.01 16.2032
0.562749 3.01 16.2032
0.336827 3.01 15.7692
0.349395 3.01 15.7475
0.361946 3.01 15.7692
0.223755 3.01 15.7475
0.211137 3.01 15.7692
0.198629 3.01 15.7475
0.185985 3.01 15.7692
0.211137 3.01 15.7692
0.198492 3.01 15.7909
0.185806 3.01 15.8125
0.173316 3.01 15.7909
0.198492 3.01 15.7909
0.198492 3.01 15.7909
0.173316 3.01 15.7909
0.185985 3.01 15.7692
0.0576202 3.01 15.8555
0.05 3.01 15.8773
0.05 3.01 15.8337
0.05 3.01 15.8337
0.0729308 3.01 15.8339
0.0576202 3.01 15.8555
0.05 3.01 15.8337
0.0577122 3.01 15.812
0.0729308 3.01 15.8339
0.135283 3.01 15.8125
0.109875 3.01 15.8125
0.122979 3.01 15.7909
0.135283 3.01 15.8125
0.122678 3.01 15.8341
0.109875 3.01 15.8125
0.122979 3.01 15.7909
0.148138 3.01 15.7909
0.135283 3.01 15.8125
0.135283 3.01 15.8125
0.148138 3.01 15.7909
0.160572 3.01 15.8126
0.123433 3.01 15.7475
0.110383 3.01 15.7692
0.0985513 3.01 15.7475
0.110383 3.01 15.7692
0.0848754 3.01 15.7691
0.0985513 3.01 15.7475
0.0848754 3.01 15.7691
0.073948 3.01 15.7475
0.0985513 3.01 15.7475
0.0603641 3.01 16.602
0.05 3.01 16.5803
0.0739464 3.01 16.5795
0.0739464 3.01 16.5795
0.05 3.01 16.5803
0.058509 3.01 16.5576
0.058509 3.01 16.5576
0.0849548 3.01 16.5571
0.0739464 3.01 16.5795
0.058509 3.01 16.5576
0.05 3.01 16.5351
0.0732725 3.01 16.5349
0.0732725 3.01 16.5349
0.0849548 3.01 16.5571
0.058509 3.01 16.5576
0.5 3.01 16.625
0.487476 3.01 16.6475
0.47495 3.01 16.625
0.097663 3.01 16.2687
0.0841948 3.01 16.2468
0.109814 3.01 16.2468
0.0730539 3.01 16.2687
0.0841948 3.01 16.2468
0.097663 3.01 16.2687
0.0578646 3.01 16.2468
0.0730539 3.01 16.2687
0.05 3.01 16.2687
0.05 3.01 16.2687
0.05 3.01 16.2249
0.0578646 3.01 16.2468
0.05 3.01 16.4454
0.05 3.01 16.4009
0.0580869 3.01 16.4232
0.05 3.01 16.4009
0.0580261 3.01 16.3788
0.073134 3.01 16.4009
0.073134 3.01 16.4009
0.0580869 3.01 16.4232
0.05 3.01 16.4009
0.942268 3.01 15.9857
0.95 3.01 15.964
0.95 3.01 16.0074
0.942292 3.01 15.9424
0.95 3.01 15.964
0.927025 3.01 15.964
0.927025 3.01 15.964
0.942268 3.01 15.9857
0.915919 3.01 15.9857
0.95 3.01 15.964
0.942268 3.01 15.9857
0.927025 3.01 15.964
0.927013 3.01 16.0074
0.942268 3.01 15.9857
0.95 3.01 16.0074
0.915919 3.01 15.9857
0.942268 3.01 15.9857
0.927013 3.01 16.0074
0.801738 3.01 16.0943
0.814364 3.01 16.0725
0.826957 3.01 16.0942
0.852174 3.01 16.0942
0.826957 3.01 16.0942
0.839609 3.01 16.0725
0.839609 3.01 16.0725
0.826957 3.01 16.0942
0.814364 3.01 16.0725
0.776516 3.01 16.1377
0.75132 3.01 16.1378
0.763923 3.01 16.116
0.776516 3.01 16.1377
0.801725 3.01 16.1377
0.789115 3.01 16.1595
0.738704 3.01 16.2031
0.751305 3.01 16.1813
0.763892 3.01 16.2031
0.726124 3.01 16.1813
0.751305 3.01 16.1813
0.738704 3.01 16.2031
0.915617 3.01 16.4231
0.902228 3.01 16.4009
0.926866 3.01 16.4009
0.926866 3.01 16.4009
0.941913 3.01 16.4232
0.915617 3.01 16.4231
0.915617 3.01 16.4231
0.941913 3.01 16.4232
0.926844 3.01 16.4454
0.915617 3.01 16.4231
0.926844 3.01 16.4454
0.902193 3.01 16.4454
0.926866 3.01 16.4009
0.902228 3.01 16.4009
0.915668 3.01 16.3788
0.902267 3.01 16.3567
0.926895 3.01 16.3567
0.915668 3.01 16.3788
0.915668 3.01 16.3788
0.941974 3.01 16.3788
0.926866 3.01 16.4009
0.926895 3.01 16.3567
0.941974 3.01 16.3788
0.915668 3.01 16.3788
0.902267 3.01 16.3567
0.915668 3.01 16.3788
0.890059 3.01 16.3788
0.890059 3.01 16.3788
0.915668 3.01 16.3788
0.902228 3.01 16.4009
0.826927 3.01 16.1813
0.814318 3.01 16.2031
0.801709 3.01 16.1813
0.864816 3.01 16.2468
0.877308 3.01 16.2249
0.890186 3.01 16.2468
0.877308 3.01 16.2249
0.864816 3.01 16.2468
0.852122 3.01 16.2249
0.890186 3.01 16.2468
0.877308 3.01 16.2249
0.902362 3.01 16.2249
0.902362 3.01 16.2249
0.915805 3.01 16.2468
0.890186 3.01 16.2468
0.902362 3.01 16.2249
0.926964 3.01 16.2249
0.915805 3.01 16.2468
0.915835 3.01 16.2031
0.926964 3.01 16.2249
0.902362 3.01 16.2249
0.942171 3.01 16.2031
0.926964 3.01 16.2249
0.915835 3.01 16.2031
0.915835 3.01 16.2031
0.926978 3.01 16.1813
0.942171 3.01 16.2031
0.942171 3.01 16.2031
0.926978 3.01 16.1813
0.95 3.01 16.1813
0.87737 3.01 16.0508
0.890277 3.01 16.0291
0.902417 3.01 16.0508
0.852144 3.01 16.1813
0.877329 3.01 16.1813
0.864842 3.01 16.2031
0.877308 3.01 16.2249
0.852122 3.01 16.2249
0.864842 3.01 16.2031
0.902396 3.01 16.1377
0.915858 3.01 16.1595
0.890234 3.01 16.1595
0.926997 3.01 16.0942
0.942237 3.01 16.0725
0.95 3.01 16.0942
0.91589 3.01 16.0725
0.942237 3.01 16.0725
0.926997 3.01 16.0942
0.942199 3.01 16.1595
0.95 3.01 16.1377
0.95 3.01 16.1813
0.95 3.01 16.1813
0.926978 3.01 16.1813
0.942199 3.01 16.1595
0.942199 3.01 16.1595
0.926978 3.01 16.1813
0.915858 3.01 16.1595
0.95 3.01 16.0942
0.95 3.01 16.1377
0.942221 3.01 16.116
0.942221 3.01 16.116
0.926997 3.01 16.0942
0.95 3.01 16.0942
0.915876 3.01 16.116
0.926997 3.01 16.0942
0.942221 3.01 16.116
0.926989 3.01 16.1377
0.915858 3.01 16.1595
0.902396 3.01 16.1377
0.902396 3.01 16.1377
0.915876 3.01 16.116
0.926989 3.01 16.1377
0.926989 3.01 16.1377
0.942199 3.01 16.1595
0.915858 3.01 16.1595
0.95 3.01 16.1377
0.942199 3.01 16.1595
0.926989 3.01 16.1377
0.915876 3.01 16.116
0.942221 3.01 16.116
0.926989 3.01 16.1377
0.926989 3.01 16.1377
0.942221 3.01 16.116
0.95 3.01 16.1377
0.91353 3.01 16.6019
0.926054 3.01 16.5795
0.939636 3.01 16.602
0.926728 3.01 16.5349
0.95 3.01 16.5351
0.941491 3.01 16.5576
0.926728 3.01 16.5349
0.941822 3.01 16.5125
0.95 3.01 16.5351
0.95 3.01 16.5803
0.95 3.01 16.6233
0.939636 3.01 16.602
0.95 3.01 16.5803
0.926054 3.01 16.5795
0.941491 3.01 16.5576
0.939636 3.01 16.602
0.926054 3.01 16.5795
0.95 3.01 16.5803
0.941491 3.01 16.5576
0.95 3.01 16.5351
0.95 3.01 16.5803
0.941869 3.01 16.4677
0.926844 3.01 16.4454
0.95 3.01 16.4454
0.762942 3.01 16.6023
0.75028 3.01 16.6249
0.737933 3.01 16.6023
0.71291 3.01 16.6024
0.725533 3.01 16.5799
0.737933 3.01 16.6023
0.71291 3.01 16.6024
0.737933 3.01 16.6023
0.725313 3.01 16.6249
0.725313 3.01 16.6249
[...]
<PointData Scalars="View Factor" >
<DataArray type="Float64" Name="View Factor" NumberOfComponents="1" format="ascii">
0.000107113
0.000107113
0.000107113
0.00014061
0.00014061
0.00014061
0.00013967
0.00013967
0.00013967
0.000140307
0.000140307
0.000140307
0.000140622
0.000140622
0.000140622
0.000140296
0.000140296
0.000140296
0.000140595
0.000140595
0.000140595
0.000140282
0.000140282
0.000140282
0.000139697
0.000139697
0.000139697
0.00011004
0.00011004
0.00011004
0.000140462
0.000140462
0.000140462
0.000139658
0.000139658
0.000139658
0.000139347
0.000139347
0.000139347
0.000139645
0.000139645
0.000139645
0.000138383
0.000138383
0.000138383
0.000139335
0.000139335
0.000139335
0.000138704
0.000138704
0.000138704
0.000140267
0.000140267
0.000140267
0.000139359
0.000139359
0.000139359
0.000138729
0.000138729
0.000138729
0.000139371
0.000139371
0.000139371
0.000139681
0.000139681
0.000139681
0.00013748
0.00013748
0.00013748
0.000138438
0.000138438
0.000138438
0.000137814
0.000137814
0.000137814
0.000138742
0.000138742
0.000138742
0.000138422
0.000138422
0.000138422
0.000137494
0.000137494
0.000137494
0.000137798
0.000137798
0.000137798
0.000140653
0.000140653
0.000140653
0.000140331
0.000140331
0.000140331
0.00010861
0.00010861
0.00010861
0.000108142
0.000108142
0.000108142
0.000107411
0.000107411
0.000107411
0.000107658
0.000107658
0.000107658
0.000117627
0.000117627
0.000117627
0.000121053
0.000121053
0.000121053
0.000120524
0.000120524
0.000120524
0.000116074
0.000116074
0.000116074
0.00013125
0.00013125
0.00013125
0.000133025
0.000133025
0.000133025
0.000123834
0.000123834
0.000123834
0.000122743
0.000122743
0.000122743
0.000123586
0.000123586
0.000123586
0.00012304
0.00012304
0.00012304
0.0001218
0.0001218
0.0001218
0.000122637
0.000122637
0.000122637
0.000122096
0.000122096
0.000122096
0.000121854
0.000121854
0.000121854
0.00012215
0.00012215
0.00012215
0.000106411
0.000106411
0.000106411
0.000112947
0.000112947
0.000112947
0.000113429
0.000113429
0.000113429
0.00011395
0.00011395
0.00011395
0.000114454
0.000114454
0.000114454
0.000114941
0.000114941
0.000114941
0.000115468
0.000115468
0.000115468
0.000106954
0.000106954
0.000106954
0.000106918
0.000106918
0.000106918
0.000107173
0.000107173
0.000107173
0.000122476
0.000122476
0.000122476
0.000122225
0.000122225
0.000122225
0.000140129
0.000140129
0.000140129
0.000140578
0.000140578
0.000140578
0.00013963
0.00013963
0.00013963
0.00013869
0.00013869
0.00013869
0.000139321
0.000139321
0.000139321
0.000136269
0.000136269
0.000136269
0.000136886
0.000136886
0.000136886
0.000137509
0.000137509
0.000137509
0.000138409
0.000138409
0.000138409
0.000137784
0.000137784
0.000137784
0.000138717
0.000138717
0.000138717
0.000138397
0.000138397
0.000138397
0.000140633
0.000140633
0.000140633
0.000140318
0.000140318
0.000140318
0.000140642
0.000140642
0.000140642
0.000109078
0.000109078
0.000109078
0.000109558
0.000109558
0.000109558
0.000109807
0.000109807
0.000109807
0.000110534
0.000110534
0.000110534
0.000110292
0.000110292
0.000110292
0.000107364
0.000107364
0.000107364
0.000120519
0.000120519
0.000120519
0.000120255
0.000120255
0.000120255
0.00012026
0.00012026
0.00012026
0.000120795
0.000120795
0.000120795
0.00011454
0.00011454
0.00011454
0.00011556
0.00011556
0.00011556
0.000115048
0.000115048
0.000115048
0.000129505
0.000129505
0.000129505
0.000130687
0.000130687
0.000130687
0.000129848
0.000129848
0.000129848
0.000130106
0.000130106
0.000130106
0.000128952
0.000128952
0.000128952
0.000129271
0.000129271
0.000129271
0.000125879
0.000125879
0.000125879
0.000125819
0.000125819
0.000125819
0.000126129
0.000126129
0.000126129
0.00012433
0.00012433
0.00012433
0.000123726
0.000123726
0.000123726
0.000121906
0.000121906
0.000121906
0.000122201
0.000122201
0.000122201
0.000114007
0.000114007
0.000114007
0.000113725
0.000113725
0.000113725
0.000113224
0.000113224
0.000113224
0.000113004
0.000113004
0.000113004
0.000114511
0.000114511
0.000114511
0.000115526
0.000115526
0.000115526
0.000114734
0.000114734
0.000114734
0.000115241
0.000115241
0.000115241
0.0001153
0.0001153
0.0001153
0.000114792
0.000114792
0.000114792
0.000122041
0.000122041
0.000122041
0.000120028
0.000120028
0.000120028
0.000120322
0.000120322
0.000120322
0.000120263
0.000120263
0.000120263
0.000119967
0.000119967
0.000119967
0.000120202
0.000120202
0.000120202
0.000120733
0.000120733
0.000120733
0.000120967
0.000120967
0.000120967
0.000121501
0.000121501
0.000121501
0.00012174
0.00012174
0.00012174
0.000127378
0.000127378
0.000127378
0.000121925
0.000121925
0.000121925
0.000120854
0.000120854
0.000120854
0.000123186
0.000123186
0.000123186
0.000125564
0.000125564
0.000125564
0.000125873
0.000125873
0.000125873
0.000122799
0.000122799
0.000122799
0.000122279
0.000122279
0.000122279
0.000122578
0.000122578
0.000122578
0.000124437
0.000124437
0.000124437
0.00012501
0.00012501
0.00012501
0.000124764
0.000124764
0.000124764
0.000123427
0.000123427
0.000123427
0.000123973
0.000123973
0.000123973
0.000123121
0.000123121
0.000123121
0.000123363
0.000123363
0.000123363
0.000124213
0.000124213
0.000124213
0.000123909
0.000123909
0.000123909
0.000107863
0.000107863
0.000107863
0.000109499
0.000109499
0.000109499
0.000109986
0.000109986
0.000109986
0.000107585
0.000107585
0.000107585
0.000108537
0.000108537
0.000108537
0.000108066
0.000108066
0.000108066
0.000108994
0.000108994
0.000108994
0.000112449
0.000112449
0.000112449
0.000107711
0.000107711
0.000107711
0.00010823
0.00010823
0.00010823
0.000107752
0.000107752
0.000107752
0.000107493
0.000107493
0.000107493
0.000106802
0.000106802
0.000106802
0.000107018
0.000107018
0.000107018
0.000106761
0.000106761
0.000106761
0.000110019
0.000110019
0.000110019
0.000109192
0.000109192
0.000109192
0.00010849
0.00010849
0.00010849
0.000108971
0.000108971
0.000108971
0.000108567
0.000108567
0.000108567
0.000109049
0.000109049
0.000109049
0.000107683
0.000107683
0.000107683
0.000107208
0.000107208
0.000107208
0.000106989
0.000106989
0.000106989
0.000123492
0.000123492
0.000123492
0.000122184
0.000122184
0.000122184
0.000120651
0.000120651
0.000120651
0.000120081
0.000120081
0.000120081
0.000120613
0.000120613
0.000120613
0.0001209
0.0001209
0.0001209
0.000121685
0.000121685
0.000121685
0.000121436
0.000121436
0.000121436
0.000120118
0.000120118
0.000120118
0.000119834
0.000119834
0.000119834
0.000116971
0.000116971
0.000116971
0.000120445
0.000120445
0.000120445
0.000120734
0.000120734
0.000120734
0.000121263
0.000121263
0.000121263
0.000120197
0.000120197
0.000120197
0.000140515
0.000140515
0.000140515
0.000140538
0.000140538
0.000140538
0.000140208
0.000140208
0.000140208
0.000139572
0.000139572
0.000139572
0.000139508
0.000139508
0.000139508
0.00012538
0.00012538
0.00012538
0.000124275
0.000124275
0.000124275
0.000125131
0.000125131
0.000125131
0.000124578
0.000124578
0.000124578
0.000124632
0.000124632
0.000124632
0.000124383
0.000124383
0.000124383
0.000139243
0.000139243
0.000139243
0.000140432
0.000140432
0.000140432
0.000139967
0.000139967
0.000139967
0.000130993
0.000130993
0.000130993
0.000131298
0.000131298
0.000131298
0.00013814
0.00013814
0.00013814
0.000140027
0.000140027
0.000140027
0.000139393
0.000139393
0.000139393
0.000138763
0.000138763
0.000138763
0.000109568
0.000109568
0.000109568
0.000107141
0.000107141
0.000107141
0.000117107
0.000117107
0.000117107
0.000116589
0.000116589
0.000116589
0.000119724
0.000119724
0.000119724
0.000135575
0.000135575
0.000135575
0.000117096
0.000117096
0.000117096
0.000116578
0.000116578
0.000116578
0.000121318
0.000121318
0.000121318
0.000121046
0.000121046
0.000121046
0.000121863
0.000121863
0.000121863
0.000121325
0.000121325
0.000121325
0.00012133
0.00012133
0.00012133
0.000121059
0.000121059
0.000121059
0.00012241
0.00012241
0.00012241
0.000121868
0.000121868
0.000121868
0.000122136
0.000122136
0.000122136
0.000122679
0.000122679
0.000122679
0.000122953
0.000122953
0.000122953
0.000122465
0.000122465
0.000122465
0.000122705
0.000122705
0.000122705
0.00012902
0.00012902
0.00012902
0.000125323
0.000125323
0.000125323
0.000125074
0.000125074
0.000125074
0.000124522
0.000124522
0.000124522
0.000126068
0.000126068
0.000126068
0.000125758
0.000125758
0.000125758
0.000127693
0.000127693
0.000127693
0.000131012
0.000131012
0.000131012
0.000129454
0.000129454
0.000129454
0.000123781
0.000123781
0.000123781
0.000122691
0.000122691
0.000122691
0.000122936
0.000122936
0.000122936
0.00012348
0.00012348
0.00012348
0.000123534
0.000123534
0.000123534
0.000122989
0.000122989
0.000122989
0.000121369
0.000121369
0.000121369
0.000121126
0.000121126
0.000121126
0.000121957
0.000121957
0.000121957
0.000121419
0.000121419
0.000121419
0.000119868
0.000119868
0.000119868
0.00011958
0.00011958
0.00011958
0.000121269
0.000121269
0.000121269
0.00011944
0.00011944
0.00011944
0.000115584
0.000115584
0.000115584
0.000116151
0.000116151
0.000116151
0.000116095
0.000116095
0.000116095
0.000116379
0.000116379
0.000116379
0.000108408
0.000108408
0.000108408
0.000108189
0.000108189
0.000108189
0.000108449
0.000108449
0.000108449
0.000108931
0.000108931
0.000108931
0.000111101
0.000111101
0.000111101
0.000109504
0.000109504
0.000109504
0.000109021
0.000109021
0.000109021
0.000111677
0.000111677
0.000111677
0.000111234
0.000111234
0.000111234
0.000111899
0.000111899
0.000111899
0.000124218
0.000124218
0.000124218
0.000121744
0.000121744
0.000121744
0.000121984
0.000121984
0.000121984
0.000121686
0.000121686
0.000121686
0.00012115
0.00012115
0.00012115
0.000119557
0.000119557
0.000119557
0.000120086
0.000120086
0.000120086
0.000121803
0.000121803
0.000121803
0.000122404
0.000122404
0.000122404
0.000122342
0.000122342
0.000122342
0.000122643
0.000122643
0.000122643
0.000120672
0.000120672
0.000120672
0.000121185
0.000121185
0.000121185
0.000124279
0.000124279
0.000124279
0.000125202
0.000125202
0.000125202
0.000124894
0.000124894
0.000124894
0.000126499
0.000126499
0.000126499
0.000126005
0.000126005
0.000126005
0.000126814
0.000126814
0.000126814
0.000126565
0.000126565
0.000126565
0.000127627
0.000127627
0.000127627
0.000128195
0.000128195
0.000128195
0.000128448
0.000128448
0.000128448
0.000107539
0.000107539
0.000107539
0.000108061
0.000108061
0.000108061
0.000107143
0.000107143
0.000107143
0.000107394
0.000107394
0.000107394
0.000106674
0.000106674
0.000106674
0.000108129
0.000108129
0.000108129
0.000109563
0.000109563
0.000109563
0.000108605
0.000108605
0.000108605
0.000108809
0.000108809
0.000108809
0.000109288
0.000109288
0.000109288
0.000110475
0.000110475
0.000110475
0.000111185
0.000111185
0.000111185
0.000110964
0.000110964
0.000110964
0.000110915
0.000110915
0.000110915
0.000112506
0.000112506
0.000112506
0.000112227
0.000112227
0.000112227
0.000110258
0.000110258
0.000110258
0.000110046
0.000110046
0.000110046
0.000108308
0.000108308
0.000108308
0.00010827
0.00010827
0.00010827
0.000108529
0.000108529
0.000108529
0.000106842
0.000106842
0.000106842
0.000107059
0.000107059
0.000107059
0.000107534
0.000107534
0.000107534
0.000107791
0.000107791
0.000107791
0.000106847
0.000106847
0.000106847
0.000107584
0.000107584
0.000107584
0.000107323
0.000107323
0.000107323
0.000106631
0.000106631
0.000106631
0.000107452
0.000107452
0.000107452
0.000106977
0.000106977
0.000106977
0.000109677
0.000109677
0.000109677
0.00010994
0.00010994
0.00010994
0.000113443
0.000113443
0.000113443
0.000113673
0.000113673
0.000113673
0.000112088
0.000112088
0.000112088
0.000110428
0.000110428
0.000110428
0.000110652
0.000110652
0.000110652
0.000110507
0.000110507
0.000110507
0.000111862
0.000111862
0.000111862
0.000111368
0.000111368
0.000111368
0.000111143
0.000111143
0.000111143
0.00011141
0.00011141
0.00011141
0.000109232
0.000109232
0.000109232
0.000109756
0.000109756
0.000109756
0.000109271
0.000109271
0.000109271
0.00010901
0.00010901
0.00010901
0.00010998
0.00010998
0.00010998
0.000109717
0.000109717
0.000109717
0.000108346
0.000108346
0.000108346
0.000107867
0.000107867
0.000107867
0.000107647
0.000107647
0.000107647
0.000107903
0.000107903
0.000107903
0.000109309
0.000109309
0.000109309
0.000109794
0.000109794
0.000109794
0.000110056
0.000110056
0.000110056
0.00011461
0.00011461
0.00011461
0.000115118
0.000115118
0.000115118
0.00012506
0.00012506
0.00012506
0.000122861
0.000122861
0.000122861
0.000125347
0.000125347
0.000125347
0.000125078
0.000125078
0.000125078
0.00012258
0.00012258
0.00012258
0.000123234
0.000123234
0.000123234
0.000123522
0.000123522
0.000123522
0.000120817
0.000120817
0.000120817
0.00012107
0.00012107
0.00012107
0.000121576
0.000121576
0.000121576
0.000120283
0.000120283
0.000120283
0.000120031
0.000120031
0.000120031
0.000119501
0.000119501
0.000119501
0.000119223
0.000119223
0.000119223
0.000122434
0.000122434
0.000122434
0.000121645
0.000121645
0.000121645
0.000121396
0.000121396
0.000121396
0.000120861
0.000120861
0.000120861
0.000120574
0.000120574
0.000120574
0.000118447
0.000118447
0.000118447
0.000118696
0.000118696
0.000118696
0.000119871
0.000119871
0.000119871
0.000119305
0.000119305
0.000119305
0.000120787
0.000120787
0.000120787
0.000121039
0.000121039
0.000121039
0.000118358
0.000118358
0.000118358
0.000118604
0.000118604
0.000118604
0.000119958
0.000119958
0.000119958
0.000120489
0.000120489
0.000120489
0.000119668
0.000119668
0.000119668
0.000115565
0.000115565
0.000115565
0.000140559
0.000140559
0.000140559
0.00014023
0.00014023
0.00014023
0.000140249
0.000140249
0.000140249
0.000133646
0.000133646
0.000133646
0.000134833
0.000134833
0.000134833
0.000134249
0.000134249
0.000134249
0.000139622
0.000139622
0.000139622
0.000139605
0.000139605
0.000139605
0.000139795
0.000139795
0.000139795
0.000125436
0.000125436
0.000125436
0.000125185
0.000125185
0.000125185
0.00012549
0.00012549
0.00012549
0.000126047
0.000126047
0.000126047
0.000124685
0.000124685
0.000124685
0.000125238
0.000125238
0.000125238
0.000140183
0.000140183
0.000140183
0.000139548
0.000139548
0.000139548
0.00014049
0.00014049
0.00014049
0.000140157
0.000140157
0.000140157
0.000139493
0.000139493
0.000139493
0.000139162
0.000139162
0.000139162
0.000138533
0.000138533
0.000138533
0.000138502
0.000138502
0.000138502
0.000138204
0.000138204
0.000138204
0.000137284
0.000137284
0.000137284
0.00013758
0.00013758
0.00013758
0.000140331
0.000140331
0.000140331
0.000139676
0.000139676
0.000139676
0.000130408
0.000130408
0.000130408
0.000129249
0.000129249
0.000129249
0.000138943
0.000138943
0.000138943
0.000139266
0.000139266
0.000139266
0.000138635
0.000138635
0.000138635
0.000139593
0.000139593
0.000139593
0.000112715
0.000112715
0.000112715
0.000111685
0.000111685
0.000111685
0.000110257
0.000110257
0.000110257
0.000110271
0.000110271
0.000110271
0.000110509
0.000110509
0.000110509
0.000111747
0.000111747
0.000111747
0.000111
0.000111
0.000111
0.000111253
0.000111253
0.000111253
0.000110495
0.000110495
0.000110495
0.000109809
0.000109809
0.000109809
0.000111028
0.000111028
0.000111028
0.000111523
0.000111523
0.000111523
0.000107391
0.000107391
0.000107391
0.000108599
0.000108599
0.000108599
0.000108119
0.000108119
0.000108119
0.000107867
0.000107867
0.000107867
0.000109565
0.000109565
0.000109565
0.000108648
0.000108648
0.000108648
0.000108168
0.000108168
0.000108168
0.000117359
0.000117359
0.000117359
0.000117102
0.000117102
0.000117102
0.000117364
0.000117364
0.000117364
0.000115814
0.000115814
0.000115814
0.000116329
0.000116329
0.000116329
0.000115556
0.000115556
0.000115556
0.000115809
0.000115809
0.000115809
0.000116584
0.000116584
0.000116584
0.000116324
0.000116324
0.000116324
0.000119456
0.000119456
0.000119456
0.000118921
0.000118921
0.000118921
0.000119201
0.000119201
0.000119201
0.000119729
0.000119729
0.000119729
0.000119462
0.000119462
0.000119462
0.000135651
0.000135651
0.000135651
0.000131122
0.000131122
0.000131122
0.000132302
0.000132302
0.000132302
0.000129294
0.000129294
0.000129294
0.000128719
0.000128719
0.000128719
0.000129115
0.000129115
0.000129115
0.000127401
0.000127401
0.000127401
0.000126834
0.000126834
0.000126834
0.000130858
0.000130858
0.000130858
0.000131439
0.000131439
0.000131439
0.000132029
0.000132029
0.000132029
0.000131444
0.000131444
0.000131444
0.000131148
0.000131148
0.000131148
0.000131421
0.000131421
0.000131421
0.000132011
0.000132011
0.000132011
0.000132918
0.000132918
0.000132918
0.000132322
0.000132322
0.000132322
0.000132022
0.000132022
0.000132022
0.000132313
0.000132313
0.000132313
0.000134966
0.000134966
0.000134966
0.000115549
0.000115549
0.000115549
0.000115038
0.000115038
0.000115038
0.000120248
0.000120248
0.000120248
0.000120511
0.000120511
0.000120511
0.000119717
0.000119717
0.000119717
0.000119449
0.000119449
0.000119449
0.000121309
0.000121309
0.000121309
0.000125712
0.000125712
0.000125712
0.000125988
0.000125988
0.000125988
0.000126271
0.000126271
0.000126271
0.000126266
0.000126266
0.000126266
0.000125982
0.000125982
0.000125982
0.000122948
0.000122948
0.000122948
0.000123494
0.000123494
0.000123494
0.000125406
0.000125406
0.000125406
0.000121857
0.000121857
0.000121857
0.000122941
0.000122941
0.000122941
0.00012213
0.00012213
0.00012213
0.000122673
0.000122673
0.000122673
0.000130351
0.000130351
0.000130351
0.000129771
0.000129771
0.000129771
0.000126689
0.000126689
0.000126689
0.000128515
0.000128515
0.000128515
0.000128262
0.000128262
0.000128262
0.000126878
0.000126878
0.000126878
0.000127442
0.000127442
0.000127442
0.000126628
0.000126628
0.000126628
0.00012694
0.00012694
0.00012694
0.000127001
0.000127001
0.000127001
0.000127566
0.000127566
0.000127566
0.000130175
0.000130175
0.000130175
0.000130757
0.000130757
0.000130757
0.000121075
0.000121075
0.000121075
0.000121317
0.000121317
0.000121317
0.000121023
0.000121023
0.000121023
0.000120489
0.000120489
0.000120489
0.00012025
0.00012025
0.00012025
0.000120542
0.000120542
0.000120542
0.000121175
0.000121175
0.000121175
0.000120641
0.000120641
0.000120641
0.000120688
0.000120688
0.000120688
0.000120399
0.000120399
0.000120399
0.000122251
0.000122251
0.000122251
0.00012309
0.00012309
0.00012309
0.000122793
0.000122793
0.000122793
0.000119914
0.000119914
0.000119914
0.000119626
0.000119626
0.000119626
0.000119671
0.000119671
0.000119671
0.000116358
0.000116358
0.000116358
0.000115845
0.000115845
0.000115845
0.000118508
0.000118508
0.000118508
0.000119147
0.000119147
0.000119147
0.0001195
0.0001195
0.0001195
0.000119207
0.000119207
0.000119207
0.000119266
0.000119266
0.000119266
0.000118741
0.000118741
0.000118741
0.000116836
0.000116836
0.000116836
0.000116037
0.000116037
0.000116037
0.000116322
0.000116322
0.000116322
0.000114568
0.000114568
0.000114568
0.000113282
0.000113282
0.000113282
0.000113783
0.000113783
0.000113783
0.000114063
0.000114063
0.000114063
0.000113839
0.000113839
0.000113839
0.000112394
0.000112394
0.000112394
0.000108847
0.000108847
0.000108847
0.000108323
0.000108323
0.000108323
0.000108803
0.000108803
0.000108803
0.000109066
0.000109066
0.000109066
0.000109109
0.000109109
0.000109109
0.000109151
0.000109151
0.000109151
0.000108889
0.000108889
0.000108889
0.000109593
0.000109593
0.000109593
0.000108758
0.000108758
0.000108758
0.000108016
0.000108016
0.000108016
0.000108278
0.000108278
0.000108278
0.000108974
0.000108974
0.000108974
0.000110255
0.000110255
0.000110255
0.000109769
0.000109769
0.000109769
0.000109549
0.000109549
0.000109549
0.000109814
0.000109814
0.000109814
0.000112285
0.000112285
0.000112285
0.00011179
0.00011179
0.00011179
0.000111626
0.000111626
0.000111626
0.000111134
0.000111134
0.000111134
0.000111571
0.000111571
0.000111571
0.000111845
0.000111845
0.000111845
0.00012367
0.00012367
0.00012367
0.000122581
0.000122581
0.000122581
0.000122881
0.000122881
0.000122881
0.000123425
0.000123425
0.000123425
0.000122524
0.000122524
0.000122524
0.000123612
0.000123612
0.000123612
0.000122824
0.000122824
0.000122824
0.000123368
0.000123368
0.000123368
0.000122765
0.000122765
0.000122765
0.000123309
0.000123309
0.000123309
0.000125016
0.000125016
0.000125016
0.000124464
0.000124464
0.000124464
0.000124159
0.000124159
0.000124159