<VTKFile type="UnstructuredGrid" version="1.0">
<UnstructuredGrid>
<Piece NumberOfPoints="11046" NumberOfCells="3682">
<Points>
<DataArray type="Float64" NumberOfComponents="3" format="ascii">
0.0582363 3.01 17.8568
0.05 3.01 17.8375
0.0717021 3.01 17.8375
0.95 3.01 18.2662
0.95 3.01 18.3052
0.942301 3.01 18.2857
0.0962623 3.01 18.7375
0.086422 3.01 18.7172
0.107711 3.01 18.7173
0.466226 3.01 18.4811
0.454968 3.01 18.5007
0.443707 3.01 18.4811
0.353567 3.01 18.4028
0.364839 3.01 18.3833
0.376113 3.01 18.4028
0.376113 3.01 18.4028
0.364843 3.01 18.4224
0.353567 3.01 18.4028
0.353567 3.01 18.4028
0.364843 3.01 18.4224
0.342292 3.01 18.4224
0.37611 3.01 18.3638
0.364837 3.01 18.3442
0.387379 3.01 18.3442
0.376113 3.01 18.4028
0.364839 3.01 18.3833
0.387381 3.01 18.3833
0.364839 3.01 18.3833
0.37611 3.01 18.3638
0.387381 3.01 18.3833
0.066417 3.01 18.7195
0.05 3.01 18.7375
0.05 3.01 18.7137
0.0582363 3.01 17.8568
0.0717021 3.01 17.8375
0.0817675 3.01 17.857
0.0817675 3.01 17.857
0.0711754 3.01 17.8764
0.0582363 3.01 17.8568
0.11641 3.01 17.8375
0.138968 3.01 17.8375
0.127475 3.01 17.857
0.127475 3.01 17.857
0.104722 3.01 17.857
0.11641 3.01 17.8375
0.0711754 3.01 17.8764
0.0817675 3.01 17.857
0.0934889 3.01 17.8765
0.0934889 3.01 17.8765
0.0817675 3.01 17.857
0.104722 3.01 17.857
0.116091 3.01 17.8765
0.104722 3.01 17.857
0.127475 3.01 17.857
0.116091 3.01 17.8765
0.0934889 3.01 17.8765
0.104722 3.01 17.857
0.116091 3.01 17.8765
0.127244 3.01 17.896
0.104394 3.01 17.896
0.104394 3.01 17.896
0.0934889 3.01 17.8765
0.116091 3.01 17.8765
0.941764 3.01 17.8568
0.928298 3.01 17.8375
0.95 3.01 17.8375
0.387379 3.01 18.3442
0.364837 3.01 18.3442
0.376108 3.01 18.3247
0.161282 3.01 18.2662
0.138583 3.01 18.2662
0.149908 3.01 18.2467
0.0933091 3.01 18.3442
0.0813038 3.01 18.3247
0.104333 3.01 18.3247
0.104333 3.01 18.3247
0.0813038 3.01 18.3247
0.0933065 3.01 18.3052
0.331016 3.01 18.4419
0.319739 3.01 18.4615
0.308447 3.01 18.4419
0.308447 3.01 18.4419
0.319729 3.01 18.4224
0.331016 3.01 18.4419
0.331016 3.01 18.4419
0.319729 3.01 18.4224
0.342292 3.01 18.4224
0.138613 3.01 18.4614
0.12718 3.01 18.4419
0.149933 3.01 18.4419
0.138613 3.01 18.4614
0.149933 3.01 18.4419
0.161316 3.01 18.4614
0.161316 3.01 18.4614
0.149933 3.01 18.4419
0.172648 3.01 18.4419
0.206681 3.01 18.4614
0.195336 3.01 18.4419
0.217999 3.01 18.4419
0.263262 3.01 18.4419
0.285863 3.01 18.4419
0.274572 3.01 18.4615
0.274559 3.01 18.4223
0.285863 3.01 18.4419
0.263262 3.01 18.4419
0.240697 3.01 17.857
0.229409 3.01 17.8375
0.252012 3.01 17.8375
0.138758 3.01 17.8765
0.116091 3.01 17.8765
0.127475 3.01 17.857
0.127244 3.01 17.896
0.116091 3.01 17.8765
0.138758 3.01 17.8765
0.229332 3.01 17.9155
0.206685 3.01 17.9155
0.218031 3.01 17.896
0.184016 3.01 17.9155
0.161325 3.01 17.9155
0.172705 3.01 17.896
0.184093 3.01 17.8765
0.172705 3.01 17.896
0.161431 3.01 17.8765
0.218082 3.01 17.857
0.229409 3.01 17.8375
0.240697 3.01 17.857
0.218082 3.01 17.857
0.206798 3.01 17.8375
0.229409 3.01 17.8375
0.138617 3.01 17.9155
0.161325 3.01 17.9155
0.149916 3.01 17.935
0.376107 3.01 18.2467
0.353559 3.01 18.2467
0.364834 3.01 18.2272
0.942264 3.01 18.481
0.95 3.01 18.4614
0.95 3.01 18.5006
0.466226 3.01 18.4811
0.443707 3.01 18.4811
0.454966 3.01 18.4615
0.466223 3.01 18.4028
0.477482 3.01 18.3833
0.488741 3.01 18.4028
0.466223 3.01 18.4028
0.454964 3.01 18.4224
0.443703 3.01 18.4028
0.511259 3.01 18.4028
0.522518 3.01 18.3833
0.533777 3.01 18.4028
0.533777 3.01 18.4028
0.522517 3.01 18.4224
0.511259 3.01 18.4028
0.488741 3.01 18.4028
0.477482 3.01 18.3833
0.5 3.01 18.3833
0.511259 3.01 18.4028
0.488741 3.01 18.4028
0.5 3.01 18.3833
0.5 3.01 18.3833
0.522518 3.01 18.3833
0.511259 3.01 18.4028
0.387388 3.01 18.4615
0.398653 3.01 18.4419
0.40992 3.01 18.4615
0.376117 3.01 18.4419
0.398653 3.01 18.4419
0.387388 3.01 18.4615
0.443703 3.01 18.4028
0.454964 3.01 18.4224
0.432443 3.01 18.4224
0.432443 3.01 18.4224
0.454964 3.01 18.4224
0.443705 3.01 18.4419
0.274559 3.01 18.4223
0.26325 3.01 18.4028
0.285853 3.01 18.4028
0.387384 3.01 18.4224
0.398653 3.01 18.4419
0.376117 3.01 18.4419
0.376117 3.01 18.4419
0.364843 3.01 18.4224
0.387384 3.01 18.4224
0.387384 3.01 18.4224
0.364843 3.01 18.4224
0.376113 3.01 18.4028
0.342292 3.01 18.4224
0.319729 3.01 18.4224
0.331009 3.01 18.4028
0.331009 3.01 18.4028
0.353567 3.01 18.4028
0.342292 3.01 18.4224
0.545011 3.01 18.7375
0.522505 3.01 18.7375
0.533759 3.01 18.7177
0.533762 3.01 18.6781
0.545018 3.01 18.6583
0.55627 3.01 18.6781
0.55627 3.01 18.6781
0.545018 3.01 18.6583
0.567528 3.01 18.6583
0.567528 3.01 18.6583
0.578788 3.01 18.6386
0.59004 3.01 18.6583
0.466232 3.01 18.5991
0.454974 3.01 18.5794
0.477488 3.01 18.5794
0.567516 3.01 18.7375
0.578772 3.01 18.7177
0.590022 3.01 18.7375
0.601316 3.01 18.5991
0.61257 3.01 18.6188
0.590051 3.01 18.6188
0.62384 3.01 18.5991
0.61257 3.01 18.6188
0.601316 3.01 18.5991
0.680198 3.01 18.5793
0.691494 3.01 18.5596
0.702757 3.01 18.5793
0.086422 3.01 18.7172
0.0962623 3.01 18.7375
0.073896 3.01 18.7375
0.073896 3.01 18.7375
0.066417 3.01 18.7195
0.086422 3.01 18.7172
0.05 3.01 18.7375
0.066417 3.01 18.7195
0.073896 3.01 18.7375
0.0721919 3.01 18.6979
0.066417 3.01 18.7195
0.05 3.01 18.7137
0.086422 3.01 18.7172
0.066417 3.01 18.7195
0.0721919 3.01 18.6979
0.118481 3.01 18.7375
0.0962623 3.01 18.7375
0.107711 3.01 18.7173
0.5 3.01 18.7375
0.477495 3.01 18.7375
0.488747 3.01 18.7177
0.432484 3.01 18.7375
0.409978 3.01 18.7375
0.421228 3.01 18.7177
0.443725 3.01 18.6386
0.421212 3.01 18.6386
0.432465 3.01 18.6188
0.319802 3.01 18.5793
0.331063 3.01 18.5596
0.342348 3.01 18.5793
0.353629 3.01 18.599
0.342348 3.01 18.5793
0.364886 3.01 18.5793
0.10433 3.01 18.2857
0.0933065 3.01 18.3052
0.0813011 3.01 18.2857
0.0939466 3.01 17.8375
0.11641 3.01 17.8375
0.104722 3.01 17.857
0.0939466 3.01 17.8375
0.0817675 3.01 17.857
0.0717021 3.01 17.8375
0.104722 3.01 17.857
0.0817675 3.01 17.857
0.0939466 3.01 17.8375
0.0933065 3.01 18.3052
0.0813038 3.01 18.3247
0.0710513 3.01 18.3052
0.0710513 3.01 18.3052
0.0813011 3.01 18.2857
0.0933065 3.01 18.3052
0.115908 3.01 18.3832
0.0933131 3.01 18.3832
0.104337 3.01 18.3637
0.104337 3.01 18.3637
0.127165 3.01 18.3637
0.115908 3.01 18.3832
0.104343 3.01 18.4028
0.0933131 3.01 18.3832
0.115908 3.01 18.3832
0.104343 3.01 18.4028
0.115915 3.01 18.4223
0.0933188 3.01 18.4223
0.942303 3.01 18.2467
0.95 3.01 18.2272
0.95 3.01 18.2662
0.92895 3.01 18.2272
0.95 3.01 18.2272
0.942303 3.01 18.2467
0.9187 3.01 18.2467
0.906695 3.01 18.2662
0.895671 3.01 18.2467
0.92895 3.01 18.2272
0.942303 3.01 18.2467
0.9187 3.01 18.2467
0.942316 3.01 18.0129
0.928965 3.01 17.9934
0.95 3.01 17.9934
0.95 3.01 18.0713
0.942309 3.01 18.0518
0.95 3.01 18.0323
0.942316 3.01 18.0129
0.95 3.01 17.9934
0.95 3.01 18.0323
0.95 3.01 17.8761
0.941764 3.01 17.8568
0.95 3.01 17.8375
0.95 3.01 17.8761
0.95 3.01 17.9153
0.942358 3.01 17.8957
0.612617 3.01 17.9154
0.635157 3.01 17.9154
0.623887 3.01 17.9349
0.895671 3.01 18.2467
0.884102 3.01 18.2272
0.906696 3.01 18.2272
0.906696 3.01 18.2272
0.9187 3.01 18.2467
0.895671 3.01 18.2467
0.92895 3.01 18.2272
0.9187 3.01 18.2467
0.906696 3.01 18.2272
0.353563 3.01 18.3638
0.37611 3.01 18.3638
0.364839 3.01 18.3833
0.364837 3.01 18.3442
0.37611 3.01 18.3638
0.353563 3.01 18.3638
0.297145 3.01 18.3833
0.319723 3.01 18.3833
0.308439 3.01 18.4028
0.308439 3.01 18.4028
0.285853 3.01 18.4028
0.297145 3.01 18.3833
0.308439 3.01 18.4028
0.331009 3.01 18.4028
0.319729 3.01 18.4224
0.319723 3.01 18.3833
0.331009 3.01 18.4028
0.308439 3.01 18.4028
0.17262 3.01 18.2467
0.161282 3.01 18.2662
0.149908 3.01 18.2467
0.138583 3.01 18.2662
0.161282 3.01 18.2662
0.149909 3.01 18.2857
0.149909 3.01 18.2857
0.127158 3.01 18.2857
0.138583 3.01 18.2662
0.149909 3.01 18.2857
0.172622 3.01 18.2857
0.161284 3.01 18.3052
0.161282 3.01 18.2662
0.172622 3.01 18.2857
0.149909 3.01 18.2857
0.240621 3.01 18.3637
0.217979 3.01 18.3637
0.229301 3.01 18.3442
0.229301 3.01 18.3442
0.217979 3.01 18.3637
0.206649 3.01 18.3442
0.195316 3.01 18.3637
0.206649 3.01 18.3442
0.217979 3.01 18.3637
0.115908 3.01 18.3832
0.127165 3.01 18.3637
0.138594 3.01 18.3832
0.0933091 3.01 18.3442
0.104333 3.01 18.3247
0.115904 3.01 18.3442
0.115904 3.01 18.3442
0.104333 3.01 18.3247
0.127161 3.01 18.3247
0.115904 3.01 18.3442
0.104337 3.01 18.3637
0.0933091 3.01 18.3442
0.127165 3.01 18.3637
0.104337 3.01 18.3637
0.115904 3.01 18.3442
0.115901 3.01 18.3052
0.104333 3.01 18.3247
0.0933065 3.01 18.3052
0.127161 3.01 18.3247
0.104333 3.01 18.3247
0.115901 3.01 18.3052
0.115901 3.01 18.3052
0.0933065 3.01 18.3052
0.10433 3.01 18.2857
0.10433 3.01 18.2857
0.127158 3.01 18.2857
0.115901 3.01 18.3052
0.183972 3.01 18.2662
0.17262 3.01 18.2467
0.195307 3.01 18.2467
0.161282 3.01 18.2662
0.17262 3.01 18.2467
0.183972 3.01 18.2662
0.183972 3.01 18.2662
0.172622 3.01 18.2857
0.161282 3.01 18.2662
0.263244 3.01 18.3637
0.240621 3.01 18.3637
0.251933 3.01 18.3442
0.229301 3.01 18.3442
0.240617 3.01 18.3247
0.251933 3.01 18.3442
0.251933 3.01 18.3442
0.240621 3.01 18.3637
0.229301 3.01 18.3442
0.274543 3.01 18.3052
0.263237 3.01 18.2857
0.285842 3.01 18.2857
0.285842 3.01 18.2857
0.263237 3.01 18.2857
0.274541 3.01 18.2662
0.319739 3.01 18.4615
0.331016 3.01 18.4419
0.3423 3.01 18.4615
0.297163 3.01 18.4615
0.285878 3.01 18.4811
0.274572 3.01 18.4615
0.308447 3.01 18.4419
0.319739 3.01 18.4615
0.297163 3.01 18.4615
0.297163 3.01 18.4615
0.285863 3.01 18.4419
0.308447 3.01 18.4419
0.274572 3.01 18.4615
0.285863 3.01 18.4419
0.297163 3.01 18.4615
0.183992 3.01 18.4223
0.195336 3.01 18.4419
0.172648 3.01 18.4419
0.183992 3.01 18.4223
0.172636 3.01 18.4028
0.195323 3.01 18.4028
0.184008 3.01 18.4614
0.161316 3.01 18.4614
0.172648 3.01 18.4419
0.172648 3.01 18.4419
0.195336 3.01 18.4419
0.184008 3.01 18.4614
0.184008 3.01 18.4614
0.206681 3.01 18.4614
0.195356 3.01 18.481
0.195336 3.01 18.4419
0.206681 3.01 18.4614
0.184008 3.01 18.4614
0.308434 3.01 18.3637
0.319723 3.01 18.3833
0.297145 3.01 18.3833
0.297145 3.01 18.3833
[...]
<PointData Scalars="View Factor" >
<DataArray type="Float64" Name="View Factor" NumberOfComponents="1" format="ascii">
0.721766
0.721766
0.721766
0.571236
0.571236
0.571236
0.462606
0.462606
0.462606
0.543755
0.543755
0.543755
0.578017
0.578017
0.578017
0.573718
0.573718
0.573718
0.571906
0.571906
0.571906
0.592294
0.592294
0.592294
0.579775
0.579775
0.579775
0.583998
0.583998
0.583998
0.462985
0.462985
0.462985
0.720557
0.720557
0.720557
0.718262
0.718262
0.718262
0.721081
0.721081
0.721081
0.72009
0.72009
0.72009
0.716987
0.716987
0.716987
0.718043
0.718043
0.718043
0.717788
0.717788
0.717788
0.716755
0.716755
0.716755
0.713068
0.713068
0.713068
0.714395
0.714395
0.714395
0.667183
0.667183
0.667183
0.596367
0.596367
0.596367
0.625288
0.625288
0.625288
0.604363
0.604363
0.604363
0.608397
0.608397
0.608397
0.561862
0.561862
0.561862
0.566314
0.566314
0.566314
0.568204
0.568204
0.568204
0.565378
0.565378
0.565378
0.562987
0.562987
0.562987
0.565093
0.565093
0.565093
0.564392
0.564392
0.564392
0.563009
0.563009
0.563009
0.567468
0.567468
0.567468
0.718864
0.718864
0.718864
0.716477
0.716477
0.716477
0.714116
0.714116
0.714116
0.70764
0.70764
0.70764
0.708564
0.708564
0.708564
0.713404
0.713404
0.713404
0.718017
0.718017
0.718017
0.71942
0.71942
0.71942
0.706461
0.706461
0.706461
0.625695
0.625695
0.625695
0.512087
0.512087
0.512087
0.548312
0.548312
0.548312
0.573721
0.573721
0.573721
0.570408
0.570408
0.570408
0.571629
0.571629
0.571629
0.567374
0.567374
0.567374
0.575333
0.575333
0.575333
0.572703
0.572703
0.572703
0.574284
0.574284
0.574284
0.557174
0.557174
0.557174
0.559795
0.559795
0.559795
0.568709
0.568709
0.568709
0.564357
0.564357
0.564357
0.576245
0.576245
0.576245
0.564233
0.564233
0.564233
0.566812
0.566812
0.566812
0.571182
0.571182
0.571182
0.572583
0.572583
0.572583
0.574421
0.574421
0.574421
0.449876
0.449876
0.449876
0.472298
0.472298
0.472298
0.474319
0.474319
0.474319
0.478291
0.478291
0.478291
0.507805
0.507805
0.507805
0.447956
0.447956
0.447956
0.492016
0.492016
0.492016
0.493876
0.493876
0.493876
0.501384
0.501384
0.501384
0.460019
0.460019
0.460019
0.462444
0.462444
0.462444
0.459822
0.459822
0.459822
0.468164
0.468164
0.468164
0.467657
0.467657
0.467657
0.459851
0.459851
0.459851
0.451613
0.451613
0.451613
0.45389
0.45389
0.45389
0.491731
0.491731
0.491731
0.517057
0.517057
0.517057
0.511545
0.511545
0.511545
0.616312
0.616312
0.616312
0.721358
0.721358
0.721358
0.721584
0.721584
0.721584
0.720344
0.720344
0.720344
0.610481
0.610481
0.610481
0.614439
0.614439
0.614439
0.589748
0.589748
0.589748
0.591752
0.591752
0.591752
0.585489
0.585489
0.585489
0.576824
0.576824
0.576824
0.581779
0.581779
0.581779
0.586026
0.586026
0.586026
0.584658
0.584658
0.584658
0.585532
0.585532
0.585532
0.639455
0.639455
0.639455
0.627987
0.627987
0.627987
0.635973
0.635973
0.635973
0.664141
0.664141
0.664141
0.657646
0.657646
0.657646
0.686088
0.686088
0.686088
0.591113
0.591113
0.591113
0.588127
0.588127
0.588127
0.588598
0.588598
0.588598
0.586468
0.586468
0.586468
0.590619
0.590619
0.590619
0.581832
0.581832
0.581832
0.579996
0.579996
0.579996
0.575076
0.575076
0.575076
0.579384
0.579384
0.579384
0.627007
0.627007
0.627007
0.621489
0.621489
0.621489
0.619717
0.619717
0.619717
0.615533
0.615533
0.615533
0.61941
0.61941
0.61941
0.594221
0.594221
0.594221
0.596513
0.596513
0.596513
0.594656
0.594656
0.594656
0.589522
0.589522
0.589522
0.602227
0.602227
0.602227
0.604154
0.604154
0.604154
0.598118
0.598118
0.598118
0.595936
0.595936
0.595936
0.610294
0.610294
0.610294
0.608187
0.608187
0.608187
0.614251
0.614251
0.614251
0.616099
0.616099
0.616099
0.626648
0.626648
0.626648
0.624954
0.624954
0.624954
0.621156
0.621156
0.621156
0.59374
0.59374
0.59374
0.600151
0.600151
0.600151
0.596054
0.596054
0.596054
0.613292
0.613292
0.613292
0.617154
0.617154
0.617154
0.559305
0.559305
0.559305
0.555965
0.555965
0.555965
0.559921
0.559921
0.559921
0.562458
0.562458
0.562458
0.560492
0.560492
0.560492
0.569235
0.569235
0.569235
0.578033
0.578033
0.578033
0.562682
0.562682
0.562682
0.564765
0.564765
0.564765
0.557794
0.557794
0.557794
0.562332
0.562332
0.562332
0.586069
0.586069
0.586069
0.588472
0.588472
0.588472
0.592636
0.592636
0.592636
0.594393
0.594393
0.594393
0.568829
0.568829
0.568829
0.566914
0.566914
0.566914
0.573212
0.573212
0.573212
0.575683
0.575683
0.575683
0.569408
0.569408
0.569408
0.573795
0.573795
0.573795
0.581079
0.581079
0.581079
0.589569
0.589569
0.589569
0.567977
0.567977
0.567977
0.57676
0.57676
0.57676
0.574331
0.574331
0.574331
0.569941
0.569941
0.569941
0.718251
0.718251
0.718251
0.717434
0.717434
0.717434
0.720749
0.720749
0.720749
0.716147
0.716147
0.716147
0.719785
0.719785
0.719785
0.717484
0.717484
0.717484
0.713787
0.713787
0.713787
0.712408
0.712408
0.712408
0.709987
0.709987
0.709987
0.708945
0.708945
0.708945
0.710342
0.710342
0.710342
0.712764
0.712764
0.712764
0.715143
0.715143
0.715143
0.713671
0.713671
0.713671
0.720362
0.720362
0.720362
0.715763
0.715763
0.715763
0.717127
0.717127
0.717127
0.719427
0.719427
0.719427
0.712967
0.712967
0.712967
0.711535
0.711535
0.711535
0.709117
0.709117
0.709117
0.708129
0.708129
0.708129
0.709579
0.709579
0.709579
0.711999
0.711999
0.711999
0.719919
0.719919
0.719919
0.715325
0.715325
0.715325
0.716247
0.716247
0.716247
0.718543
0.718543
0.718543
0.719013
0.719013
0.719013
0.716715
0.716715
0.716715
0.715724
0.715724
0.715724
0.714279
0.714279
0.714279
0.712475
0.712475
0.712475
0.71483
0.71483
0.71483
0.687146
0.687146
0.687146
0.684332
0.684332
0.684332
0.681977
0.681977
0.681977
0.683724
0.683724
0.683724
0.679727
0.679727
0.679727
0.682611
0.682611
0.682611
0.70516
0.70516
0.70516
0.705647
0.705647
0.705647
0.704154
0.704154
0.704154
0.701607
0.701607
0.701607
0.624008
0.624008
0.624008
0.632926
0.632926
0.632926
0.624879
0.624879
0.624879
0.626274
0.626274
0.626274
0.629882
0.629882
0.629882
0.632101
0.632101
0.632101
0.62712
0.62712
0.62712
0.630733
0.630733
0.630733
0.629336
0.629336
0.629336
0.627168
0.627168
0.627168
0.654933
0.654933
0.654933
0.64283
0.64283
0.64283
0.70364
0.70364
0.70364
0.716851
0.716851
0.716851
0.710433
0.710433
0.710433
0.712706
0.712706
0.712706
0.715338
0.715338
0.715338
0.716063
0.716063
0.716063
0.714522
0.714522
0.714522
0.432172
0.432172
0.432172
0.435482
0.435482
0.435482
0.440458
0.440458
0.440458
0.435339
0.435339
0.435339
0.433783
0.433783
0.433783
0.437068
0.437068
0.437068
0.448684
0.448684
0.448684
0.442052
0.442052
0.442052
0.443742
0.443742
0.443742
0.438601
0.438601
0.438601
0.477171
0.477171
0.477171
0.481769
0.481769
0.481769
0.485062
0.485062
0.485062
0.489606
0.489606
0.489606
0.551018
0.551018
0.551018
0.555511
0.555511
0.555511
0.613661
0.613661
0.613661
0.621191
0.621191
0.621191
0.609819
0.609819
0.609819
0.564676
0.564676
0.564676
0.560353
0.560353
0.560353
0.557613
0.557613
0.557613
0.569451
0.569451
0.569451
0.567782
0.567782
0.567782
0.557291
0.557291
0.557291
0.560767
0.560767
0.560767
0.561711
0.561711
0.561711
0.563436
0.563436
0.563436
0.550118
0.550118
0.550118
0.554604
0.554604
0.554604
0.556354
0.556354
0.556354
0.541897
0.541897
0.541897
0.533579
0.533579
0.533579
0.538295
0.538295
0.538295
0.54496
0.54496
0.54496
0.54031
0.54031
0.54031
0.546925
0.546925
0.546925
0.562602
0.562602
0.562602
0.55901
0.55901
0.55901
0.556367
0.556367
0.556367
0.558176
0.558176
0.558176
0.571312
0.571312
0.571312
0.566044
0.566044
0.566044
0.563442
0.563442
0.563442
0.565225
0.565225
0.565225
0.569583
0.569583
0.569583
0.613917
0.613917
0.613917
0.608057
0.608057
0.608057
0.448939
0.448939
0.448939
0.451972
0.451972
0.451972
0.451008
0.451008
0.451008
0.504999
0.504999
0.504999
0.509836
0.509836
0.509836
0.466104
0.466104
0.466104
0.46819
0.46819
0.46819
0.471296
0.471296
0.471296
0.473288
0.473288
0.473288
0.490842
0.490842
0.490842
0.489615
0.489615
0.489615
0.49267
0.49267
0.49267
0.480242
0.480242
0.480242
0.487107
0.487107
0.487107
0.4852
0.4852
0.4852
0.532653
0.532653
0.532653
0.521193
0.521193
0.521193
0.525811
0.525811
0.525811
0.50445
0.50445
0.50445
0.498731
0.498731
0.498731
0.483407
0.483407
0.483407
0.491307
0.491307
0.491307
0.488029
0.488029
0.488029
0.493716
0.493716
0.493716
0.492081
0.492081
0.492081
0.495199
0.495199
0.495199
0.467369
0.467369
0.467369
0.442303
0.442303
0.442303
0.527438
0.527438
0.527438
0.550385
0.550385
0.550385
0.481655
0.481655
0.481655
0.471733
0.471733
0.471733
0.47656
0.47656
0.47656
0.467908
0.467908
0.467908
0.470534
0.470534
0.470534
0.458878
0.458878
0.458878
0.46241
0.46241
0.46241
0.459659
0.459659
0.459659
0.477288
0.477288
0.477288
0.456862
0.456862
0.456862
0.467231
0.467231
0.467231
0.450767
0.450767
0.450767
0.453763
0.453763
0.453763
0.452891
0.452891
0.452891
0.458888
0.458888
0.458888
0.461008
0.461008
0.461008
0.458007
0.458007
0.458007
0.46197
0.46197
0.46197
0.454565
0.454565
0.454565
0.456815
0.456815
0.456815
0.455792
0.455792
0.455792
0.493836
0.493836
0.493836
0.488806
0.488806
0.488806
0.485957
0.485957
0.485957
0.470013
0.470013
0.470013
0.46488
0.46488
0.46488
0.473543
0.473543
0.473543
0.478012
0.478012
0.478012
0.470667
0.470667
0.470667
0.472907
0.472907
0.472907
0.478655
0.478655
0.478655
0.480884
0.480884
0.480884
0.517637
0.517637
0.517637
0.519787
0.519787
0.519787
0.508763
0.508763
0.508763
0.530882
0.530882
0.530882
0.519185
0.519185
0.519185
0.516436
0.516436
0.516436
0.524022
0.524022
0.524022
0.526106
0.526106
0.526106
0.535078
0.535078
0.535078
0.523365
0.523365
0.523365
0.558445
0.558445
0.558445
0.556292
0.556292
0.556292
0.521011
0.521011
0.521011
0.516105
0.516105
0.516105
0.523531
0.523531
0.523531
0.521147
0.521147
0.521147
0.513704
0.513704
0.513704
0.516226
0.516226
0.516226
0.618522
0.618522
0.618522
0.61458
0.61458
0.61458
0.616479
0.616479
0.616479
0.606645
0.606645
0.606645
0.610621
0.610621
0.610621
0.608562
0.608562
0.608562
0.594311
0.594311
0.594311
0.590066
0.590066
0.590066
0.581527
0.581527
0.581527
0.585805
0.585805
0.585805
0.591884
0.591884
0.591884
0.589399
0.589399
0.589399
0.581675
0.581675
0.581675
0.57814
0.57814
0.57814
0.579133
0.579133
0.579133
0.582079
0.582079
0.582079
0.575613
0.575613
0.575613
0.575025
0.575025
0.575025
0.590608
0.590608
0.590608
0.644579
0.644579
0.644579
0.641989
0.641989
0.641989
0.643565
0.643565
0.643565
0.647685
0.647685
0.647685
0.6395
0.6395
0.6395
0.662974
0.662974
0.662974
0.660785
0.660785
0.660785
0.668725
0.668725
0.668725
0.701578
0.701578
0.701578
0.703171
0.703171
0.703171
0.701283
0.701283
0.701283
0.685786
0.685786
0.685786
0.693186
0.693186
0.693186
0.690762
0.690762
0.690762
0.690512
0.690512
0.690512
0.688494
0.688494
0.688494
0.694412
0.694412
0.694412
0.699655
0.699655
0.699655
0.673302
0.673302
0.673302
0.682585
0.682585
0.682585
0.671366
0.671366
0.671366
0.671075
0.671075
0.671075
0.654137
0.654137
0.654137
0.656544
0.656544
0.656544
0.6691
0.6691
0.6691
0.666534
0.666534
0.666534
0.66034
0.66034
0.66034
0.657863
0.657863
0.657863
0.7112
0.7112
0.7112
0.70951
0.70951
0.70951
0.713334
0.713334
0.713334
0.695101
0.695101
0.695101
0.688993
0.688993
0.688993
0.688091
0.688091
0.688091
0.687203
0.687203
0.687203
0.656203
0.656203
0.656203
0.682278
0.682278
0.682278
0.684025
0.684025
0.684025
0.684377
0.684377
0.684377
0.599575
0.599575
0.599575
0.608545
0.608545
0.608545
0.605818
0.605818
0.605818
0.602349
0.602349
0.602349
0.601595
0.601595
0.601595
0.584737
0.584737
0.584737
0.580509
0.580509
0.580509
0.578725
0.578725
0.578725
0.581195
0.581195
0.581195
0.613406
0.613406
0.613406
0.61584
0.61584
0.61584
0.61006
0.61006
0.61006
0.614016
0.614016
0.614016
0.613734
0.613734
0.613734
0.651978
0.651978
0.651978
0.648565
0.648565
0.648565
0.577229
0.577229
0.577229
0.568441
0.568441
0.568441
0.574822
0.574822
0.574822
0.570429
0.570429
0.570429
0.577653
0.577653
0.577653
0.575668
0.575668
0.575668
0.57127
0.57127
0.57127
0.56886
0.56886
0.56886
0.570871
0.570871
0.570871
0.575267
0.575267
0.575267
0.581978
0.581978
0.581978
0.590479
0.590479
0.590479
0.590047
0.590047
0.590047
0.588163
0.588163
0.588163
0.583913
0.583913
0.583913
0.581551
0.581551
0.581551
0.583462
0.583462
0.583462
0.587709
0.587709
0.587709
0.582359
0.582359
0.582359
0.584318
0.584318
0.584318
0.588571
0.588571
0.588571
0.590865
0.590865
0.590865
0.584679
0.584679
0.584679
0.588933
0.588933
0.588933
0.569565
0.569565
0.569565
0.571623
0.571623
0.571623
0.576023
0.576023
0.576023
0.601996
0.601996
0.601996
0.597888
0.597888
0.597888
0.628991
0.628991
0.628991
0.624726
0.624726
0.624726
0.627827
0.627827
0.627827
0.611618
0.611618
0.611618
0.613836
0.613836
0.613836
0.612608
0.612608
0.612608
0.614332
0.614332
0.614332
0.612137
0.612137
0.612137
0.608192
0.608192
0.608192
0.61478
0.61478
0.61478
0.61303
0.61303
0.61303
0.619054
0.619054
0.619054
0.61518
0.61518
0.61518
0.631089
0.631089
0.631089
0.629499
0.629499
0.629499
0.595548
0.595548
0.595548
0.593212
0.593212
0.593212
0.594994
0.594994
0.594994
0.623467
0.623467
0.623467
0.615212
0.615212
0.615212
0.62276
0.62276
0.62276
0.617475
0.617475
0.617475
0.621251
0.621251
0.621251
0.622002
0.622002
0.622002
0.620521
0.620521
0.620521
0.616749
0.616749
0.616749
0.614463
0.614463
0.614463
0.615971
0.615971
0.615971
0.619739
0.619739
0.619739
0.610616
0.610616
0.610616
0.608283
0.608283
0.608283
0.604362
0.604362
0.604362
0.611051
0.611051
0.611051
0.56122
0.56122
0.56122
0.564975
0.564975
0.564975
0.567532
0.567532
0.567532
0.565668
0.565668
0.565668
0.554126
0.554126
0.554126
0.551506
0.551506
0.551506
0.553421
0.553421
0.553421
0.557932
0.557932
0.557932
0.560532
0.560532
0.560532
0.558642
0.558642
0.558642
0.558142
0.558142
0.558142
0.556011
0.556011
0.556011
0.551403
0.551403
0.551403
0.548926
0.548926
0.548926
0.555687
0.555687
0.555687
0.55108
0.55108
0.55108
0.58056
0.58056
0.58056
0.589044
0.589044
0.589044
0.582423
0.582423
0.582423
0.586663
0.586663
0.586663
0.587209
0.587209
0.587209
0.582966
0.582966
0.582966
0.587185
0.587185
0.587185
0.585427
0.585427
0.585427
0.587853
0.587853
0.587853
0.592013
0.592013
0.592013
0.704617
0.704617
0.704617
0.711321
0.711321
0.711321
0.709807
0.709807
0.709807
0.707395
0.707395
0.707395
0.706495
0.706495
0.706495
0.668619
0.668619
0.668619
0.679097
0.679097
0.679097
0.673192
0.673192
0.673192
0.67796
0.67796
0.67796
0.675006
0.675006
0.675006
0.680544
0.680544
0.680544
0.678411
0.678411
0.678411
0.677303
0.677303
0.677303
0.674352
0.674352
0.674352
0.657847
0.657847
0.657847
0.644904
0.644904
0.644904
0.648298
0.648298
0.648298
0.700553
0.700553
0.700553
0.638611
0.638611
0.638611
0.636465
0.636465
0.636465
0.62865
0.62865
0.62865
0.626458
0.626458
0.626458
0.627911
0.627911
0.627911
0.631529
0.631529
0.631529
0.632962
0.632962
0.632962
0.658175
0.658175
0.658175
0.644173
0.644173
0.644173
0.642075
0.642075
0.642075
0.65293
0.65293
0.65293
0.649614
0.649614
0.649614
0.647563
0.647563
0.647563
0.654191
0.654191
0.654191
0.652163
0.652163
0.652163
0.648851
0.648851
0.648851
0.706708
0.706708
0.706708
0.705838
0.705838
0.705838
0.701095
0.701095
0.701095
0.695874
0.695874
0.695874
0.700069
0.700069
0.700069
0.697457
0.697457
0.697457
0.692635
0.692635
0.692635
0.71758
0.71758
0.71758
0.716794
0.716794
0.716794
0.714505
0.714505
0.714505
0.716095
0.716095
0.716095
0.715215
0.715215
0.715215
0.714306
0.714306
0.714306
0.713645
0.713645
0.713645
0.705158
0.705158
0.705158
0.712242
0.712242
0.712242
0.707561
0.707561
0.707561
0.442115
0.442115
0.442115
0.451949
0.451949
0.451949
0.458441
0.458441
0.458441
0.453517
0.453517
0.453517
0.450271
0.450271
0.450271
0.445316
0.445316
0.445316
0.443594
0.443594
0.443594
0.451805
0.451805
0.451805
0.446838
0.446838
0.446838
0.457679
0.457679
0.457679
0.471848
0.471848
0.471848
0.495318
0.495318
0.495318
0.490841
0.490841
0.490841
0.499044
0.499044
0.499044
0.485632
0.485632
0.485632
0.48932
0.48932
0.48932
0.495889
0.495889
0.495889
0.55872
0.55872
0.55872
0.554322
0.554322
0.554322
0.550443
0.550443
0.550443
0.553223
0.553223
0.553223
0.551565
0.551565
0.551565
0.575595
0.575595
0.575595
0.578155
0.578155
0.578155
0.582367
0.582367
0.582367
0.584013
0.584013
0.584013
0.60025
0.60025
0.60025
0.599303
0.599303
0.599303
0.601755
0.601755
0.601755
0.612806
0.612806
0.612806
0.620326
0.620326
0.620326
0.618903
0.618903
0.618903
0.615141
0.615141
0.615141
0.608065
0.608065
0.608065
0.60566
0.60566
0.60566
0.607106
0.607106
0.607106
0.607462
0.607462
0.607462
0.608969
0.608969
0.608969
0.602678
0.602678
0.602678
0.606588
0.606588
0.606588
0.600777
0.600777
0.600777
0.598301
0.598301
0.598301
0.599743
0.599743
0.599743
0.604676
0.604676
0.604676
0.603635
0.603635
0.603635
0.606091
0.606091
0.606091
0.60991
0.60991
0.60991
0.563831
0.563831
0.563831
0.561058
0.561058
0.561058
0.568061
0.568061
0.568061
0.569508
0.569508
0.569508
0.576374
0.576374
0.576374
0.57366
0.57366
0.57366
0.577497
0.577497
0.577497
0.57625
0.57625
0.57625
0.573178
0.573178
0.573178
0.577356
0.577356
0.577356
0.578469
0.578469
0.578469
0.579992
0.579992
0.579992
0.586692
0.586692
0.586692
0.5841
0.5841
0.5841
0.566252
0.566252
0.566252
0.570499
0.570499
0.570499
0.547389
0.547389
0.547389
0.541871
0.541871
0.541871
0.531517
0.531517
0.531517
0.527324
0.527324
0.527324
0.526737
0.526737
0.526737
0.524629
0.524629
0.524629
0.534767
0.534767
0.534767
0.532109
0.532109
0.532109
0.534195
0.534195
0.534195
0.54462
0.54462
0.54462
0.551868
0.551868
0.551868
0.549184
0.549184
0.549184
0.537631
0.537631
0.537631
0.532919
0.532919
0.532919
0.521154
0.521154
0.521154
0.570407
0.570407
0.570407
0.572164
0.572164
0.572164
0.572966
0.572966
0.572966
0.57726
0.57726
0.57726
0.57899
0.57899
0.57899
0.576453
0.576453
0.576453
0.573108
0.573108
0.573108
0.575921
0.575921
0.575921
0.574714
0.574714
0.574714
0.551111
0.551111
0.551111
0.559214
0.559214
0.559214
0.562323
0.562323
0.562323
0.565071
0.565071
0.565071
0.563529
0.563529
0.563529
0.556761
0.556761
0.556761
0.533556
0.533556
0.533556
0.531987
0.531987
0.531987
0.542462
0.542462
0.542462
0.589789
0.589789
0.589789
0.585985
0.585985
0.585985
0.574274
0.574274
0.574274
0.578227
0.578227
0.578227
0.585564
0.585564
0.585564
0.602164
0.602164
0.602164
0.599531
0.599531
0.599531
0.595458
0.595458
0.595458
0.588022
0.588022
0.588022
0.594519
0.594519
0.594519
0.590796
0.590796
0.590796
0.5991
0.5991
0.5991
0.601815
0.601815
0.601815
0.605388
0.605388
0.605388
0.59997
0.59997
0.59997
0.610505
0.610505
0.610505
0.604333
0.604333
0.604333
0.607814
0.607814
0.607814
0.603532
0.603532
0.603532
0.609727
0.609727
0.609727
0.606235
0.606235
0.606235
0.607165
0.607165
0.607165
0.59253
0.59253
0.59253
0.59148
0.59148
0.59148
0.594189
0.594189
0.594189
0.467245
0.467245
0.467245
0.465187
0.465187
0.465187
0.4601
0.4601
0.4601
0.45708
0.45708
0.45708
0.479331
0.479331
0.479331
0.482332
0.482332
0.482332
0.481312
0.481312
0.481312
0.487309
0.487309
0.487309
0.511723
0.511723
0.511723
0.515415
0.515415
0.515415
0.501736
0.501736
0.501736
0.480322
0.480322
0.480322
0.4753
0.4753
0.4753
0.473251
0.473251
0.473251
0.484728
0.484728
0.484728
0.509436
0.509436
0.509436
0.513511
0.513511
0.513511
0.516338
0.516338
0.516338
0.514311
0.514311
0.514311
0.499584
0.499584
0.499584
0.494609
0.494609
0.494609
0.505785
0.505785
0.505785
0.508644
0.508644
0.508644
0.506597
0.506597
0.506597
0.501674
0.501674
0.501674
0.498805
0.498805
0.498805
0.500869
0.500869
0.500869
0.53727
0.53727
0.53727
0.534508
0.534508
0.534508
0.535458
0.535458
0.535458
0.533605
0.533605
0.533605
0.536389
0.536389
0.536389
0.540071
0.540071
0.540071
0.541009
0.541009
0.541009
0.542839
0.542839
0.542839
0.52798
0.52798
0.52798
0.512746
0.512746
0.512746
0.518511
0.518511
0.518511
0.521366
0.521366
0.521366
0.528925
0.528925
0.528925
0.526105
0.526105
0.526105
0.51464
0.51464
0.51464
0.512666
0.512666
0.512666
0.515513
0.515513
0.515513
0.519441
0.519441
0.519441
0.543589
0.543589
0.543589
0.548026
0.548026
0.548026
0.514824
0.514824
0.514824
0.519508
0.519508
0.519508
0.528754
0.528754
0.528754
0.499948
0.499948
0.499948
0.503037
0.503037
0.503037
0.51243
0.51243
0.51243
0.511836
0.511836
0.511836
0.49141
0.49141