<VTKFile type="UnstructuredGrid" version="1.0">
<UnstructuredGrid>
<Piece NumberOfPoints="11046" NumberOfCells="3682">
<Points>
<DataArray type="Float64" NumberOfComponents="3" format="ascii">
3.01 0.0582363 13.6768
3.01 0.0717021 13.6575
3.01 0.05 13.6575
3.01 0.95 14.0862
3.01 0.942301 14.1057
3.01 0.95 14.1252
3.01 0.0962623 14.5575
3.01 0.107711 14.5373
3.01 0.086422 14.5372
3.01 0.466226 14.3011
3.01 0.443707 14.3011
3.01 0.454968 14.3207
3.01 0.353567 14.2228
3.01 0.376113 14.2228
3.01 0.364839 14.2033
3.01 0.376113 14.2228
3.01 0.353567 14.2228
3.01 0.364843 14.2424
3.01 0.353567 14.2228
3.01 0.342292 14.2424
3.01 0.364843 14.2424
3.01 0.37611 14.1838
3.01 0.387379 14.1642
3.01 0.364837 14.1642
3.01 0.376113 14.2228
3.01 0.387381 14.2033
3.01 0.364839 14.2033
3.01 0.364839 14.2033
3.01 0.387381 14.2033
3.01 0.37611 14.1838
3.01 0.066417 14.5395
3.01 0.05 14.5337
3.01 0.05 14.5575
3.01 0.0582363 13.6768
3.01 0.0817675 13.677
3.01 0.0717021 13.6575
3.01 0.0817675 13.677
3.01 0.0582363 13.6768
3.01 0.0711754 13.6964
3.01 0.11641 13.6575
3.01 0.127475 13.677
3.01 0.138968 13.6575
3.01 0.127475 13.677
3.01 0.11641 13.6575
3.01 0.104722 13.677
3.01 0.0711754 13.6964
3.01 0.0934889 13.6965
3.01 0.0817675 13.677
3.01 0.0934889 13.6965
3.01 0.104722 13.677
3.01 0.0817675 13.677
3.01 0.116091 13.6965
3.01 0.127475 13.677
3.01 0.104722 13.677
3.01 0.116091 13.6965
3.01 0.104722 13.677
3.01 0.0934889 13.6965
3.01 0.116091 13.6965
3.01 0.104394 13.716
3.01 0.127244 13.716
3.01 0.104394 13.716
3.01 0.116091 13.6965
3.01 0.0934889 13.6965
3.01 0.941764 13.6768
3.01 0.95 13.6575
3.01 0.928298 13.6575
3.01 0.387379 14.1642
3.01 0.376108 14.1447
3.01 0.364837 14.1642
3.01 0.161282 14.0862
3.01 0.149908 14.0667
3.01 0.138583 14.0862
3.01 0.0933091 14.1642
3.01 0.104333 14.1447
3.01 0.0813038 14.1447
3.01 0.104333 14.1447
3.01 0.0933065 14.1252
3.01 0.0813038 14.1447
3.01 0.331016 14.2619
3.01 0.308447 14.2619
3.01 0.319739 14.2815
3.01 0.308447 14.2619
3.01 0.331016 14.2619
3.01 0.319729 14.2424
3.01 0.331016 14.2619
3.01 0.342292 14.2424
3.01 0.319729 14.2424
3.01 0.138613 14.2814
3.01 0.149933 14.2619
3.01 0.12718 14.2619
3.01 0.138613 14.2814
3.01 0.161316 14.2814
3.01 0.149933 14.2619
3.01 0.161316 14.2814
3.01 0.172648 14.2619
3.01 0.149933 14.2619
3.01 0.206681 14.2814
3.01 0.217999 14.2619
3.01 0.195336 14.2619
3.01 0.263262 14.2619
3.01 0.274572 14.2815
3.01 0.285863 14.2619
3.01 0.274559 14.2423
3.01 0.263262 14.2619
3.01 0.285863 14.2619
3.01 0.240697 13.677
3.01 0.252012 13.6575
3.01 0.229409 13.6575
3.01 0.138758 13.6965
3.01 0.127475 13.677
3.01 0.116091 13.6965
3.01 0.127244 13.716
3.01 0.138758 13.6965
3.01 0.116091 13.6965
3.01 0.229332 13.7355
3.01 0.218031 13.716
3.01 0.206685 13.7355
3.01 0.184016 13.7355
3.01 0.172705 13.716
3.01 0.161325 13.7355
3.01 0.184093 13.6965
3.01 0.161431 13.6965
3.01 0.172705 13.716
3.01 0.218082 13.677
3.01 0.240697 13.677
3.01 0.229409 13.6575
3.01 0.218082 13.677
3.01 0.229409 13.6575
3.01 0.206798 13.6575
3.01 0.138617 13.7355
3.01 0.149916 13.755
3.01 0.161325 13.7355
3.01 0.376107 14.0667
3.01 0.364834 14.0472
3.01 0.353559 14.0667
3.01 0.942264 14.301
3.01 0.95 14.3206
3.01 0.95 14.2814
3.01 0.466226 14.3011
3.01 0.454966 14.2815
3.01 0.443707 14.3011
3.01 0.466223 14.2228
3.01 0.488741 14.2228
3.01 0.477482 14.2033
3.01 0.466223 14.2228
3.01 0.443703 14.2228
3.01 0.454964 14.2424
3.01 0.511259 14.2228
3.01 0.533777 14.2228
3.01 0.522518 14.2033
3.01 0.533777 14.2228
3.01 0.511259 14.2228
3.01 0.522517 14.2424
3.01 0.488741 14.2228
3.01 0.5 14.2033
3.01 0.477482 14.2033
3.01 0.511259 14.2228
3.01 0.5 14.2033
3.01 0.488741 14.2228
3.01 0.5 14.2033
3.01 0.511259 14.2228
3.01 0.522518 14.2033
3.01 0.387388 14.2815
3.01 0.40992 14.2815
3.01 0.398653 14.2619
3.01 0.376117 14.2619
3.01 0.387388 14.2815
3.01 0.398653 14.2619
3.01 0.443703 14.2228
3.01 0.432443 14.2424
3.01 0.454964 14.2424
3.01 0.432443 14.2424
3.01 0.443705 14.2619
3.01 0.454964 14.2424
3.01 0.274559 14.2423
3.01 0.285853 14.2228
3.01 0.26325 14.2228
3.01 0.387384 14.2424
3.01 0.376117 14.2619
3.01 0.398653 14.2619
3.01 0.376117 14.2619
3.01 0.387384 14.2424
3.01 0.364843 14.2424
3.01 0.387384 14.2424
3.01 0.376113 14.2228
3.01 0.364843 14.2424
3.01 0.342292 14.2424
3.01 0.331009 14.2228
3.01 0.319729 14.2424
3.01 0.331009 14.2228
3.01 0.342292 14.2424
3.01 0.353567 14.2228
3.01 0.545011 14.5575
3.01 0.533759 14.5377
3.01 0.522505 14.5575
3.01 0.533762 14.4981
3.01 0.55627 14.4981
3.01 0.545018 14.4783
3.01 0.55627 14.4981
3.01 0.567528 14.4783
3.01 0.545018 14.4783
3.01 0.567528 14.4783
3.01 0.59004 14.4783
3.01 0.578788 14.4586
3.01 0.466232 14.4191
3.01 0.477488 14.3994
3.01 0.454974 14.3994
3.01 0.567516 14.5575
3.01 0.590022 14.5575
3.01 0.578772 14.5377
3.01 0.601316 14.4191
3.01 0.590051 14.4388
3.01 0.61257 14.4388
3.01 0.62384 14.4191
3.01 0.601316 14.4191
3.01 0.61257 14.4388
3.01 0.680198 14.3993
3.01 0.702757 14.3993
3.01 0.691494 14.3796
3.01 0.086422 14.5372
3.01 0.073896 14.5575
3.01 0.0962623 14.5575
3.01 0.073896 14.5575
3.01 0.086422 14.5372
3.01 0.066417 14.5395
3.01 0.05 14.5575
3.01 0.073896 14.5575
3.01 0.066417 14.5395
3.01 0.0721919 14.5179
3.01 0.05 14.5337
3.01 0.066417 14.5395
3.01 0.086422 14.5372
3.01 0.0721919 14.5179
3.01 0.066417 14.5395
3.01 0.118481 14.5575
3.01 0.107711 14.5373
3.01 0.0962623 14.5575
3.01 0.5 14.5575
3.01 0.488747 14.5377
3.01 0.477495 14.5575
3.01 0.432484 14.5575
3.01 0.421228 14.5377
3.01 0.409978 14.5575
3.01 0.443725 14.4586
3.01 0.432465 14.4388
3.01 0.421212 14.4586
3.01 0.319802 14.3993
3.01 0.342348 14.3993
3.01 0.331063 14.3796
3.01 0.353629 14.419
3.01 0.364886 14.3993
3.01 0.342348 14.3993
3.01 0.10433 14.1057
3.01 0.0813011 14.1057
3.01 0.0933065 14.1252
3.01 0.0939466 13.6575
3.01 0.104722 13.677
3.01 0.11641 13.6575
3.01 0.0939466 13.6575
3.01 0.0717021 13.6575
3.01 0.0817675 13.677
3.01 0.104722 13.677
3.01 0.0939466 13.6575
3.01 0.0817675 13.677
3.01 0.0933065 14.1252
3.01 0.0710513 14.1252
3.01 0.0813038 14.1447
3.01 0.0710513 14.1252
3.01 0.0933065 14.1252
3.01 0.0813011 14.1057
3.01 0.115908 14.2032
3.01 0.104337 14.1837
3.01 0.0933131 14.2032
3.01 0.104337 14.1837
3.01 0.115908 14.2032
3.01 0.127165 14.1837
3.01 0.104343 14.2228
3.01 0.115908 14.2032
3.01 0.0933131 14.2032
3.01 0.104343 14.2228
3.01 0.0933188 14.2423
3.01 0.115915 14.2423
3.01 0.942303 14.0667
3.01 0.95 14.0862
3.01 0.95 14.0472
3.01 0.92895 14.0472
3.01 0.942303 14.0667
3.01 0.95 14.0472
3.01 0.9187 14.0667
3.01 0.895671 14.0667
3.01 0.906695 14.0862
3.01 0.92895 14.0472
3.01 0.9187 14.0667
3.01 0.942303 14.0667
3.01 0.942316 13.8329
3.01 0.95 13.8134
3.01 0.928965 13.8134
3.01 0.95 13.8913
3.01 0.95 13.8523
3.01 0.942309 13.8718
3.01 0.942316 13.8329
3.01 0.95 13.8523
3.01 0.95 13.8134
3.01 0.95 13.6961
3.01 0.95 13.6575
3.01 0.941764 13.6768
3.01 0.95 13.6961
3.01 0.942358 13.7157
3.01 0.95 13.7353
3.01 0.612617 13.7354
3.01 0.623887 13.7549
3.01 0.635157 13.7354
3.01 0.895671 14.0667
3.01 0.906696 14.0472
3.01 0.884102 14.0472
3.01 0.906696 14.0472
3.01 0.895671 14.0667
3.01 0.9187 14.0667
3.01 0.92895 14.0472
3.01 0.906696 14.0472
3.01 0.9187 14.0667
3.01 0.353563 14.1838
3.01 0.364839 14.2033
3.01 0.37611 14.1838
3.01 0.364837 14.1642
3.01 0.353563 14.1838
3.01 0.37611 14.1838
3.01 0.297145 14.2033
3.01 0.308439 14.2228
3.01 0.319723 14.2033
3.01 0.308439 14.2228
3.01 0.297145 14.2033
3.01 0.285853 14.2228
3.01 0.308439 14.2228
3.01 0.319729 14.2424
3.01 0.331009 14.2228
3.01 0.319723 14.2033
3.01 0.308439 14.2228
3.01 0.331009 14.2228
3.01 0.17262 14.0667
3.01 0.149908 14.0667
3.01 0.161282 14.0862
3.01 0.138583 14.0862
3.01 0.149909 14.1057
3.01 0.161282 14.0862
3.01 0.149909 14.1057
3.01 0.138583 14.0862
3.01 0.127158 14.1057
3.01 0.149909 14.1057
3.01 0.161284 14.1252
3.01 0.172622 14.1057
3.01 0.161282 14.0862
3.01 0.149909 14.1057
3.01 0.172622 14.1057
3.01 0.240621 14.1837
3.01 0.229301 14.1642
3.01 0.217979 14.1837
3.01 0.229301 14.1642
3.01 0.206649 14.1642
3.01 0.217979 14.1837
3.01 0.195316 14.1837
3.01 0.217979 14.1837
3.01 0.206649 14.1642
3.01 0.115908 14.2032
3.01 0.138594 14.2032
3.01 0.127165 14.1837
3.01 0.0933091 14.1642
3.01 0.115904 14.1642
3.01 0.104333 14.1447
3.01 0.115904 14.1642
3.01 0.127161 14.1447
3.01 0.104333 14.1447
3.01 0.115904 14.1642
3.01 0.0933091 14.1642
3.01 0.104337 14.1837
3.01 0.127165 14.1837
3.01 0.115904 14.1642
3.01 0.104337 14.1837
3.01 0.115901 14.1252
3.01 0.0933065 14.1252
3.01 0.104333 14.1447
3.01 0.127161 14.1447
3.01 0.115901 14.1252
3.01 0.104333 14.1447
3.01 0.115901 14.1252
3.01 0.10433 14.1057
3.01 0.0933065 14.1252
3.01 0.10433 14.1057
3.01 0.115901 14.1252
3.01 0.127158 14.1057
3.01 0.183972 14.0862
3.01 0.195307 14.0667
3.01 0.17262 14.0667
3.01 0.161282 14.0862
3.01 0.183972 14.0862
3.01 0.17262 14.0667
3.01 0.183972 14.0862
3.01 0.161282 14.0862
3.01 0.172622 14.1057
3.01 0.263244 14.1837
3.01 0.251933 14.1642
3.01 0.240621 14.1837
3.01 0.229301 14.1642
3.01 0.251933 14.1642
3.01 0.240617 14.1447
3.01 0.251933 14.1642
3.01 0.229301 14.1642
3.01 0.240621 14.1837
3.01 0.274543 14.1252
3.01 0.285842 14.1057
3.01 0.263237 14.1057
3.01 0.285842 14.1057
3.01 0.274541 14.0862
3.01 0.263237 14.1057
3.01 0.319739 14.2815
3.01 0.3423 14.2815
3.01 0.331016 14.2619
3.01 0.297163 14.2815
3.01 0.274572 14.2815
3.01 0.285878 14.3011
3.01 0.308447 14.2619
3.01 0.297163 14.2815
3.01 0.319739 14.2815
3.01 0.297163 14.2815
3.01 0.308447 14.2619
3.01 0.285863 14.2619
3.01 0.274572 14.2815
3.01 0.297163 14.2815
3.01 0.285863 14.2619
3.01 0.183992 14.2423
3.01 0.172648 14.2619
3.01 0.195336 14.2619
3.01 0.183992 14.2423
3.01 0.195323 14.2228
3.01 0.172636 14.2228
3.01 0.184008 14.2814
3.01 0.172648 14.2619
3.01 0.161316 14.2814
3.01 0.172648 14.2619
3.01 0.184008 14.2814
3.01 0.195336 14.2619
3.01 0.184008 14.2814
3.01 0.195356 14.301
3.01 0.206681 14.2814
3.01 0.195336 14.2619
3.01 0.184008 14.2814
3.01 0.206681 14.2814
3.01 0.308434 14.1837
3.01 0.297145 14.2033
3.01 0.319723 14.2033
3.01 0.297145 14.2033
[...]
<PointData Scalars="View Factor" >
<DataArray type="Float64" Name="View Factor" NumberOfComponents="1" format="ascii">
0.864734
0.864734
0.864734
0.786861
0.786861
0.786861
0.862357
0.862357
0.862357
0.848187
0.848187
0.848187
0.8541
0.8541
0.8541
0.854069
0.854069
0.854069
0.854667
0.854667
0.854667
0.853571
0.853571
0.853571
0.853481
0.853481
0.853481
0.853511
0.853511
0.853511
0.86281
0.86281
0.86281
0.864624
0.864624
0.864624
0.864605
0.864605
0.864605
0.863819
0.863819
0.863819
0.864009
0.864009
0.864009
0.864466
0.864466
0.864466
0.864335
0.864335
0.864335
0.863991
0.863991
0.863991
0.864161
0.864161
0.864161
0.863952
0.863952
0.863952
0.864142
0.864142
0.864142
0.789046
0.789046
0.789046
0.853601
0.853601
0.853601
0.862609
0.862609
0.862609
0.863451
0.863451
0.863451
0.863481
0.863481
0.863481
0.856302
0.856302
0.856302
0.856334
0.856334
0.856334
0.855799
0.855799
0.855799
0.862412
0.862412
0.862412
0.862159
0.862159
0.862159
0.861919
0.861919
0.861919
0.860704
0.860704
0.860704
0.858301
0.858301
0.858301
0.858333
0.858333
0.858333
0.860781
0.860781
0.860781
0.863781
0.863781
0.863781
0.863761
0.863761
0.863761
0.861441
0.861441
0.861441
0.862733
0.862733
0.862733
0.862774
0.862774
0.862774
0.861161
0.861161
0.861161
0.861542
0.861542
0.861542
0.863244
0.863244
0.863244
0.854447
0.854447
0.854447
0.786429
0.786429
0.786429
0.84822
0.84822
0.84822
0.84676
0.84676
0.84676
0.848378
0.848378
0.848378
0.843176
0.843176
0.843176
0.843145
0.843145
0.843145
0.845916
0.845916
0.845916
0.845017
0.845017
0.845017
0.844124
0.844124
0.844124
0.85199
0.85199
0.85199
0.852684
0.852684
0.852684
0.849153
0.849153
0.849153
0.849121
0.849121
0.849121
0.858396
0.858396
0.858396
0.852716
0.852716
0.852716
0.853388
0.853388
0.853388
0.853419
0.853419
0.853419
0.855831
0.855831
0.855831
0.855275
0.855275
0.855275
0.841324
0.841324
0.841324
0.84052
0.84052
0.84052
0.839532
0.839532
0.839532
0.837478
0.837478
0.837478
0.847116
0.847116
0.847116
0.837246
0.837246
0.837246
0.835391
0.835391
0.835391
0.834269
0.834269
0.834269
0.825584
0.825584
0.825584
0.862484
0.862484
0.862484
0.862618
0.862618
0.862618
0.862718
0.862718
0.862718
0.862788
0.862788
0.862788
0.862665
0.862665
0.862665
0.862179
0.862179
0.862179
0.845001
0.845001
0.845001
0.849804
0.849804
0.849804
0.849355
0.849355
0.849355
0.855427
0.855427
0.855427
0.854228
0.854228
0.854228
0.863538
0.863538
0.863538
0.864198
0.864198
0.864198
0.864503
0.864503
0.864503
0.864353
0.864353
0.864353
0.863635
0.863635
0.863635
0.863663
0.863663
0.863663
0.863183
0.863183
0.863183
0.863018
0.863018
0.863018
0.863152
0.863152
0.863152
0.86309
0.86309
0.86309
0.78694
0.78694
0.78694
0.788299
0.788299
0.788299
0.794393
0.794393
0.794393
0.79024
0.79024
0.79024
0.788723
0.788723
0.788723
0.787303
0.787303
0.787303
0.787369
0.787369
0.787369
0.787653
0.787653
0.787653
0.787555
0.787555
0.787555
0.834548
0.834548
0.834548
0.79647
0.79647
0.79647
0.794419
0.794419
0.794419
0.792433
0.792433
0.792433
0.854161
0.854161
0.854161
0.854191
0.854191
0.854191
0.856974
0.856974
0.856974
0.857468
0.857468
0.857468
0.856397
0.856397
0.856397
0.856428
0.856428
0.856428
0.862367
0.862367
0.862367
0.862581
0.862581
0.862581
0.862805
0.862805
0.862805
0.862283
0.862283
0.862283
0.862311
0.862311
0.862311
0.860199
0.860199
0.860199
0.860585
0.860585
0.860585
0.860922
0.860922
0.860922
0.862803
0.862803
0.862803
0.863272
0.863272
0.863272
0.863108
0.863108
0.863108
0.863243
0.863243
0.863243
0.863049
0.863049
0.863049
0.863331
0.863331
0.863331
0.863137
0.863137
0.863137
0.86336
0.86336
0.86336
0.863195
0.863195
0.863195
0.861798
0.861798
0.861798
0.862078
0.862078
0.862078
0.86205
0.86205
0.86205
0.859398
0.859398
0.859398
0.859853
0.859853
0.859853
0.859823
0.859823
0.859823
0.858664
0.858664
0.858664
0.858693
0.858693
0.858693
0.855735
0.855735
0.855735
0.857782
0.857782
0.857782
0.856816
0.856816
0.856816
0.857342
0.857342
0.857342
0.857815
0.857815
0.857815
0.861382
0.861382
0.861382
0.861445
0.861445
0.861445
0.861628
0.861628
0.861628
0.86135
0.86135
0.86135
0.860987
0.860987
0.860987
0.86102
0.86102
0.86102
0.857004
0.857004
0.857004
0.857529
0.857529
0.857529
0.857559
0.857559
0.857559
0.857064
0.857064
0.857064
0.85688
0.85688
0.85688
0.857374
0.857374
0.857374
0.856912
0.856912
0.856912
0.857437
0.857437
0.857437
0.85788
0.85788
0.85788
0.857911
0.857911
0.857911
0.859307
0.859307
0.859307
0.859368
0.859368
0.859368
0.859212
0.859212
0.859212
0.859276
0.859276
0.859276
0.85883
0.85883
0.85883
0.858799
0.858799
0.858799
0.85994
0.85994
0.85994
0.86036
0.86036
0.86036
0.863364
0.863364
0.863364
0.863325
0.863325
0.863325
0.863592
0.863592
0.863592
0.863572
0.863572
0.863572
0.863306
0.863306
0.863306
0.863039
0.863039
0.863039
0.863019
0.863019
0.863019
0.863265
0.863265
0.863265
0.863513
0.863513
0.863513
0.863533
0.863533
0.863533
0.86034
0.86034
0.86034
0.8599
0.8599
0.8599
0.862833
0.862833
0.862833
0.862794
0.862794
0.862794
0.863079
0.863079
0.863079
0.863098
0.863098
0.863098
0.862166
0.862166
0.862166
0.861824
0.861824
0.861824
0.861803
0.861803
0.861803
0.862125
0.862125
0.862125
0.862449
0.862449
0.862449
0.86247
0.86247
0.86247
0.862226
0.862226
0.862226
0.862186
0.862186
0.862186
0.861864
0.861864
0.861864
0.861884
0.861884
0.861884
0.862529
0.862529
0.862529
0.86251
0.86251
0.86251
0.861141
0.861141
0.861141
0.86074
0.86074
0.86074
0.861482
0.861482
0.861482
0.861502
0.861502
0.861502
0.860104
0.860104
0.860104
0.860081
0.860081
0.860081
0.85872
0.85872
0.85872
0.859201
0.859201
0.859201
0.859616
0.859616
0.859616
0.85964
0.85964
0.85964
0.86142
0.86142
0.86142
0.862105
0.862105
0.862105
0.861761
0.861761
0.861761
0.86174
0.86174
0.86174
0.851778
0.851778
0.851778
0.854501
0.854501
0.854501
0.853156
0.853156
0.853156
0.852491
0.852491
0.852491
0.852518
0.852518
0.852518
0.853209
0.853209
0.853209
0.853825
0.853825
0.853825
0.853852
0.853852
0.853852
0.85732
0.85732
0.85732
0.856776
0.856776
0.856776
0.856985
0.856985
0.856985
0.856344
0.856344
0.856344
0.861038
0.861038
0.861038
0.858021
0.858021
0.858021
0.853839
0.853839
0.853839
0.853859
0.853859
0.853859
0.857481
0.857481
0.857481
0.85694
0.85694
0.85694
0.856358
0.856358
0.856358
0.803197
0.803197
0.803197
0.804988
0.804988
0.804988
0.805008
0.805008
0.805008
0.810106
0.810106
0.810106
0.806716
0.806716
0.806716
0.808442
0.808442
0.808442
0.806777
0.806777
0.806777
0.808468
0.808468
0.808468
0.806761
0.806761
0.806761
0.811769
0.811769
0.811769
0.787498
0.787498
0.787498
0.787535
0.787535
0.787535
0.789506
0.789506
0.789506
0.789541
0.789541
0.789541
0.849025
0.849025
0.849025
0.849058
0.849058
0.849058
0.853073
0.853073
0.853073
0.853128
0.853128
0.853128
0.853045
0.853045
0.853045
0.842173
0.842173
0.842173
0.842142
0.842142
0.842142
0.841144
0.841144
0.841144
0.84673
0.84673
0.84673
0.84755
0.84755
0.84755
0.848284
0.848284
0.848284
0.846667
0.846667
0.846667
0.848316
0.848316
0.848316
0.847519
0.847519
0.847519
0.847423
0.847423
0.847423
0.847456
0.847456
0.847456
0.846635
0.846635
0.846635
0.84896
0.84896
0.84896
0.85498
0.85498
0.85498
0.855014
0.855014
0.855014
0.854473
0.854473
0.854473
0.854439
0.854439
0.854439
0.853876
0.853876
0.853876
0.849872
0.849872
0.849872
0.851306
0.851306
0.851306
0.850569
0.850569
0.850569
0.84984
0.84984
0.84984
0.849935
0.849935
0.849935
0.852054
0.852054
0.852054
0.851338
0.851338
0.851338
0.850632
0.850632
0.850632
0.850664
0.850664
0.850664
0.819239
0.819239
0.819239
0.823582
0.823582
0.823582
0.839337
0.839337
0.839337
0.840363
0.840363
0.840363
0.838324
0.838324
0.838324
0.841742
0.841742
0.841742
0.841777
0.841777
0.841777
0.843331
0.843331
0.843331
0.842419
0.842419
0.842419
0.83848
0.83848
0.83848
0.837441
0.837441
0.837441
0.833084
0.833084
0.833084
0.830666
0.830666
0.830666
0.831907
0.831907
0.831907
0.836412
0.836412
0.836412
0.835355
0.835355
0.835355
0.836449
0.836449
0.836449
0.844729
0.844729
0.844729
0.832113
0.832113
0.832113
0.832146
0.832146
0.832146
0.826942
0.826942
0.826942
0.834305
0.834305
0.834305
0.799588
0.799588
0.799588
0.801519
0.801519
0.801519
0.799615
0.799615
0.799615
0.819876
0.819876
0.819876
0.821326
0.821326
0.821326
0.822776
0.822776
0.822776
0.825343
0.825343
0.825343
0.825159
0.825159
0.825159
0.830938
0.830938
0.830938
0.817247
0.817247
0.817247
0.862967
0.862967
0.862967
0.862863
0.862863
0.862863
0.862867
0.862867
0.862867
0.862403
0.862403
0.862403
0.862577
0.862577
0.862577
0.86022
0.86022
0.86022
0.862018
0.862018
0.862018
0.861801
0.861801
0.861801
0.860683
0.860683
0.860683
0.856038
0.856038
0.856038
0.856121
0.856121
0.856121
0.843212
0.843212
0.843212
0.844139
0.844139
0.844139
0.8423
0.8423
0.8423
0.844179
0.844179
0.844179
0.843292
0.843292
0.843292
0.84234
0.84234
0.84234
0.850586
0.850586
0.850586
0.851223
0.851223
0.851223
0.850545
0.850545
0.850545
0.8538
0.8538
0.8538
0.848607
0.848607
0.848607
0.853447
0.853447
0.853447
0.852794
0.852794
0.852794
0.851344
0.851344
0.851344
0.851304
0.851304
0.851304
0.853329
0.853329
0.853329
0.85208
0.85208
0.85208
0.852676
0.852676
0.852676
0.852041
0.852041
0.852041
0.853369
0.853369
0.853369
0.852755
0.852755
0.852755
0.856507
0.856507
0.856507
0.855995
0.855995
0.855995
0.853597
0.853597
0.853597
0.85437
0.85437
0.85437
0.854874
0.854874
0.854874
0.854264
0.854264
0.854264
0.85491
0.85491
0.85491
0.854335
0.854335
0.854335
0.861956
0.861956
0.861956
0.862524
0.862524
0.862524
0.862126
0.862126
0.862126
0.862347
0.862347
0.862347
0.862686
0.862686
0.862686
0.862649
0.862649
0.862649
0.862868
0.862868
0.862868
0.86299
0.86299
0.86299
0.862795
0.862795
0.862795
0.862954
0.862954
0.862954
0.863975
0.863975
0.863975
0.86389
0.86389
0.86389
0.863807
0.863807
0.863807
0.863889
0.863889
0.863889
0.863861
0.863861
0.863861
0.86375
0.86375
0.86375
0.8638
0.8638
0.8638
0.863713
0.863713
0.863713
0.863708
0.863708
0.863708
0.863682
0.863682
0.863682
0.787017
0.787017
0.787017
0.788325
0.788325
0.788325
0.792381
0.792381
0.792381
0.792355
0.792355
0.792355
0.788247
0.788247
0.788247
0.790214
0.790214
0.790214
0.788221
0.788221
0.788221
0.790161
0.790161
0.790161
0.798413
0.798413
0.798413
0.790706
0.790706
0.790706
0.788744
0.788744
0.788744
0.787432
0.787432
0.787432
0.800792
0.800792
0.800792
0.790665
0.790665
0.790665
0.788974
0.788974
0.788974
0.788917
0.788917
0.788917
0.797151
0.797151
0.797151
0.836982
0.836982
0.836982
0.839183
0.839183
0.839183
0.838086
0.838086
0.838086
0.841112
0.841112
0.841112
0.841176
0.841176
0.841176
0.841155
0.841155
0.841155
0.835748
0.835748
0.835748
0.834569
0.834569
0.834569
0.827054
0.827054
0.827054
0.83583
0.83583
0.83583
0.826864
0.826864
0.826864
0.829586
0.829586
0.829586
0.824084
0.824084
0.824084
0.825479
0.825479
0.825479
0.818029
0.818029
0.818029
0.819575
0.819575
0.819575
0.822636
0.822636
0.822636
0.822614
0.822614
0.822614
0.808205
0.808205
0.808205
0.806412
0.806412
0.806412
0.850256
0.850256
0.850256
0.849456
0.849456
0.849456
0.853191
0.853191
0.853191
0.842195
0.842195
0.842195
0.854939
0.854939
0.854939
0.853647
0.853647
0.853647
0.854293
0.854293
0.854293
0.821066
0.821066
0.821066
0.830859
0.830859
0.830859
0.83334
0.83334
0.83334
0.832125
0.832125
0.832125
0.812819
0.812819
0.812819
0.816111
0.816111
0.816111
0.814495
0.814495
0.814495
0.814469
0.814469
0.814469
0.816058
0.816058
0.816058
0.854759
0.854759
0.854759
0.854729
0.854729
0.854729
0.855306
0.855306
0.855306
0.855893
0.855893
0.855893
0.861994
0.861994
0.861994
0.862777
0.862777
0.862777
0.862951
0.862951
0.862951
0.86298
0.86298
0.86298
0.862525
0.862525
0.862525
0.862554
0.862554
0.862554
0.862528
0.862528
0.862528
0.860077
0.860077
0.860077
0.860013
0.860013
0.860013
0.85967
0.85967
0.85967
0.859639
0.859639
0.859639
0.860799
0.860799
0.860799
0.861116
0.861116
0.861116
0.861084
0.861084
0.861084
0.860736
0.860736
0.860736
0.8604
0.8604
0.8604
0.860432
0.860432
0.860432
0.860831
0.860831
0.860831
0.860892
0.860892
0.860892
0.860169
0.860169
0.860169
0.860525
0.860525
0.860525
0.860494
0.860494
0.860494
0.860108
0.860108
0.860108
0.859732
0.859732
0.859732
0.859763
0.859763
0.859763
0.861476
0.861476
0.861476
0.861178
0.861178
0.861178
0.861209
0.861209
0.861209
0.861538
0.861538
0.861538
0.861786
0.861786
0.861786
0.861816
0.861816
0.861816
0.861951
0.861951
0.861951
0.861692
0.861692
0.861692
0.861724
0.861724
0.861724
0.862893
0.862893
0.862893
0.862863
0.862863
0.862863
0.859655
0.859655
0.859655
0.858748
0.858748
0.858748
0.857816
0.857816
0.857816
0.8591
0.8591
0.8591
0.859544
0.859544
0.859544
0.860702
0.860702
0.860702
0.860345
0.860345
0.860345
0.85994
0.85994
0.85994
0.859911
0.859911
0.859911
0.861068
0.861068
0.861068
0.861386
0.861386
0.861386
0.861742
0.861742
0.861742
0.861714
0.861714
0.861714
0.860079
0.860079
0.860079
0.860456
0.860456
0.860456
0.858983
0.858983
0.858983
0.858519
0.858519
0.858519
0.858064
0.858064
0.858064
0.856748
0.856748
0.856748
0.85557
0.85557
0.85557
0.855626
0.855626
0.855626
0.856156
0.856156
0.856156
0.856184
0.856184
0.856184
0.85442
0.85442
0.85442
0.855019
0.855019
0.855019
0.854992
0.854992
0.854992
0.854364
0.854364
0.854364
0.853743
0.853743
0.853743
0.853771
0.853771
0.853771
0.854336
0.854336
0.854336
0.853687
0.853687
0.853687
0.853659
0.853659
0.853659
0.85818
0.85818
0.85818
0.85518
0.85518
0.85518
0.854006
0.854006
0.854006
0.854636
0.854636
0.854636
0.855212
0.855212
0.855212
0.854539
0.854539
0.854539
0.853909
0.853909
0.853909
0.853291
0.853291
0.853291
0.853324
0.853324
0.853324
0.853974
0.853974
0.853974
0.854571
0.854571
0.854571
0.861595
0.861595
0.861595
0.861854
0.861854
0.861854
0.86182
0.86182
0.86182
0.861528
0.861528
0.861528
0.861284
0.861284
0.861284
0.861251
0.861251
0.861251
0.858427
0.858427
0.858427
0.858489
0.858489
0.858489
0.857973
0.857973
0.857973
0.858004
0.858004
0.858004
0.858923
0.858923
0.858923
0.858892
0.858892
0.858892
0.855367
0.855367
0.855367
0.855923
0.855923
0.855923
0.856489
0.856489
0.856489
0.856519
0.856519
0.856519
0.860658
0.860658
0.860658
0.85988
0.85988
0.85988
0.85942
0.85942
0.85942
0.859399
0.859399
0.859399
0.859838
0.859838
0.859838
0.863173
0.863173
0.863173
0.858697
0.858697
0.858697
0.85865
0.85865
0.85865
0.859155
0.859155
0.859155
0.859131
0.859131
0.859131
0.856638
0.856638
0.856638
0.857697
0.857697
0.857697
0.858195
0.858195
0.858195
0.858171
0.858171
0.858171
0.861389
0.861389
0.861389
0.856908
0.856908
0.856908
0.856934
0.856934
0.856934
0.862062
0.862062
0.862062
0.855154
0.855154
0.855154
0.854527
0.854527
0.854527
0.856238
0.856238
0.856238
0.855653
0.855653
0.855653
0.855074
0.855074
0.855074
0.855101
0.855101
0.855101
0.857346
0.857346
0.857346
0.85701
0.85701
0.85701
0.855785
0.855785
0.855785
0.85518
0.85518
0.85518
0.856421
0.856421
0.856421
0.856396
0.856396
0.856396
0.855811
0.855811
0.855811
0.855862
0.855862
0.855862
0.855257
0.855257
0.855257
0.855231
0.855231
0.855231
0.858439
0.858439
0.858439
0.858918
0.858918
0.858918
0.861016
0.861016
0.861016
0.860973
0.860973
0.860973
0.861377
0.861377
0.861377
0.861355
0.861355
0.861355
0.860149
0.860149
0.860149
0.859021
0.859021
0.859021
0.859481
0.859481
0.859481
0.85946
0.85946
0.85946
0.858521
0.858521
0.858521
0.855775
0.855775
0.855775
0.854526
0.854526
0.854526
0.855151
0.855151
0.855151
0.856275
0.856275
0.856275
0.856337
0.856337
0.856337
0.856296
0.856296
0.856296
0.803229
0.803229
0.803229
0.808508
0.808508
0.808508
0.811876
0.811876
0.811876
0.811851
0.811851
0.811851
0.810185
0.810185
0.810185
0.810161
0.810161
0.810161
0.811798
0.811798
0.811798
0.813459
0.813459
0.813459
0.81343
0.81343
0.81343
0.786035
0.786035
0.786035
0.786131
0.786131
0.786131
0.787636
0.787636
0.787636
0.787603
0.787603
0.787603
0.786335
0.786335
0.786335
0.786236
0.786236
0.786236
0.797686
0.797686
0.797686
0.801548
0.801548
0.801548
0.843083
0.843083
0.843083
0.843052
0.843052
0.843052
0.840088
0.840088
0.840088
0.841112
0.841112
0.841112
0.842079
0.842079
0.842079
0.849966
0.849966
0.849966
0.850725
0.850725
0.850725
0.850756
0.850756
0.850756
0.850026
0.850026
0.850026
0.850144
0.850144
0.850144
0.848587
0.848587
0.848587
0.849391
0.849391
0.849391
0.851695
0.851695
0.851695
0.85175
0.85175
0.85175
0.852437
0.852437
0.852437
0.852409
0.852409
0.852409
0.850201
0.850201
0.850201
0.84942
0.84942
0.84942
0.848644
0.848644
0.848644
0.852353
0.852353
0.852353
0.851667
0.851667
0.851667
0.850902
0.850902
0.850902
0.850931
0.850931
0.850931
0.847788
0.847788
0.847788
0.846938
0.846938
0.846938
0.846092
0.846092
0.846092
0.847817
0.847817
0.847817
0.84612
0.84612
0.84612
0.846994
0.846994
0.846994
0.847022
0.847022
0.847022
0.837017
0.837017
0.837017
0.835888
0.835888
0.835888
0.837048
0.837048
0.837048
0.835949
0.835949
0.835949
0.837107
0.837107
0.837107
0.835979
0.835979
0.835979
0.828769
0.828769
0.828769
0.830038
0.830038
0.830038
0.842234
0.842234
0.842234
0.842264
0.842264
0.842264
0.844154
0.844154
0.844154
0.843236
0.843236
0.843236
0.844213
0.844213
0.844213
0.843266
0.843266
0.843266
0.841206
0.841206
0.841206
0.841236
0.841236
0.841236
0.846571
0.846571
0.846571
0.844795
0.844795
0.844795
0.855533
0.855533
0.855533
0.856579
0.856579
0.856579
0.855498
0.855498
0.855498
0.856031
0.856031
0.856031
0.857141
0.857141
0.857141
0.856614
0.856614
0.856614
0.856101
0.856101
0.856101
0.849743
0.849743
0.849743
0.850536
0.850536
0.850536
0.849776
0.849776
0.849776
0.853809
0.853809
0.853809
0.853774
0.853774
0.853774
0.849573
0.849573
0.849573
0.852085
0.852085
0.852085
0.851401
0.851401
0.851401
0.852778
0.852778
0.852778
0.852809
0.852809
0.852809
0.852147
0.852147
0.852147
0.851432
0.851432
0.851432
0.824725
0.824725
0.824725
0.826113
0.826113
0.826113
0.827442
0.827442
0.827442
0.825935
0.825935
0.825935
0.840151
0.840151
0.840151
0.838088
0.838088
0.838088
0.839164
0.839164
0.839164
0.840182
0.840182
0.840182
0.835858
0.835858
0.835858
0.829733
0.829733
0.829733
0.83097
0.83097
0.83097
0.825874
0.825874
0.825874
0.823447
0.823447
0.823447
0.823419
0.823419
0.823419
0.823334
0.823334
0.823334
0.823363
0.823363
0.823363
0.842323
0.842323
0.842323
0.831475
0.831475
0.831475
0.830208
0.830208
0.830208
0.820596
0.820596
0.820596
0.820541
0.820541
0.820541
0.822051
0.822051
0.822051
0.822024
0.822024
0.822024
0.820623
0.820623
0.820623
0.822105
0.822105
0.822105
0.822132
0.822132
0.822132
0.819135
0.819135
0.819135
0.819213
0.819213
0.819213
0.81764
0.81764
0.81764
0.817666
0.817666
0.817666
0.819161
0.819161
0.819161
0.820702
0.820702
0.820702
0.820676
0.820676
0.820676
0.824974
0.824974
0.824974
0.824866
0.824866
0.824866
0.826226
0.826226
0.826226
0.827583
0.827583
0.827583
0.840481
0.840481
0.840481
0.841443
0.841443
0.841443
0.841404
0.841404
0.841404
0.840403
0.840403
0.840403
0.83957
0.83957
0.83957
0.840596
0.840596
0.840596
0.838556
0.838556
0.838556
0.840633
0.840633
0.840633
0.840813
0.840813
0.840813
0.838807
0.838807
0.838807
0.835462
0.835462
0.835462
0.841558
0.841558
0.841558
0.84152
0.84152
0.84152
0.842458
0.842458
0.842458
0.830631
0.830631
0.830631
0.850227
0.850227
0.850227
0.848753
0.848753
0.848753
0.849537
0.849537
0.849537
0.850263
0.850263
0.850263
0.850154
0.850154
0.850154
0.850117
0.850117
0.850117
0.84791
0.84791
0.84791
0.848717
0.848717
0.848717
0.849466
0.849466
0.849466
0.849429
0.849429
0.849429
0.848644
0.848644
0.848644
0.847874
0.847874
0.847874
0.848926
0.848926
0.848926
0.84812
0.84812
0.84812
0.845629
0.845629
0.845629
0.846472
0.846472
0.846472
0.847324
0.847324
0.847324
0.845662
0.845662
0.845662
0.847358
0.847358
0.847358
0.846538
0.846538
0.846538
0.844695
0.844695
0.844695
0.842751
0.842751
0.842751
0.844626
0.844626
0.844626
0.845527
0.845527
0.845527
0.846438
0.846438
0.846438
0.845561
0.845561
0.845561
0.846334
0.846334
0.846334
0.847152
0.847152
0.847152
0.847982
0.847982
0.847982
0.846369
0.846369
0.846369
0.835763
0.835763
0.835763
0.835795
0.835795
0.835795
0.833258
0.833258
0.833258
0.833292
0.833292
0.833292
0.833358
0.833358
0.833358
0.822809
0.822809
0.822809
0.824228
0.824228
0.824228
0.820004
0.820004
0.820004
0.832045
0.832045
0.832045
0.829432
0.829432
0.829432
0.819682