<VTKFile type="UnstructuredGrid" version="1.0">
<UnstructuredGrid>
<Piece NumberOfPoints="11046" NumberOfCells="3682">
<Points>
<DataArray type="Float64" NumberOfComponents="3" format="ascii">
3.01 0.0582363 5.31676
3.01 0.0717021 5.2975
3.01 0.05 5.2975
3.01 0.95 5.72621
3.01 0.942301 5.7457
3.01 0.95 5.7652
3.01 0.0962623 6.1975
3.01 0.107711 6.17733
3.01 0.086422 6.17716
3.01 0.466226 5.94111
3.01 0.443707 5.9411
3.01 0.454968 5.96072
3.01 0.353567 5.86281
3.01 0.376113 5.86282
3.01 0.364839 5.84328
3.01 0.376113 5.86282
3.01 0.353567 5.86281
3.01 0.364843 5.88236
3.01 0.353567 5.86281
3.01 0.342292 5.88236
3.01 0.364843 5.88236
3.01 0.37611 5.82375
3.01 0.387379 5.80423
3.01 0.364837 5.80423
3.01 0.376113 5.86282
3.01 0.387381 5.84328
3.01 0.364839 5.84328
3.01 0.364839 5.84328
3.01 0.387381 5.84328
3.01 0.37611 5.82375
3.01 0.066417 6.17952
3.01 0.05 6.17375
3.01 0.05 6.1975
3.01 0.0582363 5.31676
3.01 0.0817675 5.31698
3.01 0.0717021 5.2975
3.01 0.0817675 5.31698
3.01 0.0582363 5.31676
3.01 0.0711754 5.33639
3.01 0.11641 5.2975
3.01 0.127475 5.31704
3.01 0.138968 5.2975
3.01 0.127475 5.31704
3.01 0.11641 5.2975
3.01 0.104722 5.31703
3.01 0.0711754 5.33639
3.01 0.0934889 5.3365
3.01 0.0817675 5.31698
3.01 0.0934889 5.3365
3.01 0.104722 5.31703
3.01 0.0817675 5.31698
3.01 0.116091 5.33653
3.01 0.127475 5.31704
3.01 0.104722 5.31703
3.01 0.116091 5.33653
3.01 0.104722 5.31703
3.01 0.0934889 5.3365
3.01 0.116091 5.33653
3.01 0.104394 5.35598
3.01 0.127244 5.35601
3.01 0.104394 5.35598
3.01 0.116091 5.33653
3.01 0.0934889 5.3365
3.01 0.941764 5.31676
3.01 0.95 5.2975
3.01 0.928298 5.2975
3.01 0.387379 5.80423
3.01 0.376108 5.78472
3.01 0.364837 5.80423
3.01 0.161282 5.72621
3.01 0.149908 5.70672
3.01 0.138583 5.72621
3.01 0.0933091 5.80421
3.01 0.104333 5.7847
3.01 0.0813038 5.7847
3.01 0.104333 5.7847
3.01 0.0933065 5.7652
3.01 0.0813038 5.7847
3.01 0.331016 5.90192
3.01 0.308447 5.90191
3.01 0.319739 5.92149
3.01 0.308447 5.90191
3.01 0.331016 5.90192
3.01 0.319729 5.88236
3.01 0.331016 5.90192
3.01 0.342292 5.88236
3.01 0.319729 5.88236
3.01 0.138613 5.92141
3.01 0.149933 5.90186
3.01 0.12718 5.90185
3.01 0.138613 5.92141
3.01 0.161316 5.92142
3.01 0.149933 5.90186
3.01 0.161316 5.92142
3.01 0.172648 5.90186
3.01 0.149933 5.90186
3.01 0.206681 5.92144
3.01 0.217999 5.90188
3.01 0.195336 5.90187
3.01 0.263262 5.9019
3.01 0.274572 5.92147
3.01 0.285863 5.90191
3.01 0.274559 5.88235
3.01 0.263262 5.9019
3.01 0.285863 5.90191
3.01 0.240697 5.317
3.01 0.252012 5.2975
3.01 0.229409 5.2975
3.01 0.138758 5.33653
3.01 0.127475 5.31704
3.01 0.116091 5.33653
3.01 0.127244 5.35601
3.01 0.138758 5.33653
3.01 0.116091 5.33653
3.01 0.229332 5.37547
3.01 0.218031 5.35599
3.01 0.206685 5.37548
3.01 0.184016 5.37549
3.01 0.172705 5.35601
3.01 0.161325 5.37549
3.01 0.184093 5.33651
3.01 0.161431 5.33653
3.01 0.172705 5.35601
3.01 0.218082 5.317
3.01 0.240697 5.317
3.01 0.229409 5.2975
3.01 0.218082 5.317
3.01 0.229409 5.2975
3.01 0.206798 5.2975
3.01 0.138617 5.37549
3.01 0.149916 5.39496
3.01 0.161325 5.37549
3.01 0.376107 5.70672
3.01 0.364834 5.68723
3.01 0.353559 5.70672
3.01 0.942264 5.94097
3.01 0.95 5.96056
3.01 0.95 5.9214
3.01 0.466226 5.94111
3.01 0.454966 5.92151
3.01 0.443707 5.9411
3.01 0.466223 5.86282
3.01 0.488741 5.86282
3.01 0.477482 5.84328
3.01 0.466223 5.86282
3.01 0.443703 5.86282
3.01 0.454964 5.88237
3.01 0.511259 5.86282
3.01 0.533777 5.86282
3.01 0.522518 5.84328
3.01 0.533777 5.86282
3.01 0.511259 5.86282
3.01 0.522517 5.88237
3.01 0.488741 5.86282
3.01 0.5 5.84328
3.01 0.477482 5.84328
3.01 0.511259 5.86282
3.01 0.5 5.84328
3.01 0.488741 5.86282
3.01 0.5 5.84328
3.01 0.511259 5.86282
3.01 0.522518 5.84328
3.01 0.387388 5.92151
3.01 0.40992 5.92151
3.01 0.398653 5.90193
3.01 0.376117 5.90193
3.01 0.387388 5.92151
3.01 0.398653 5.90193
3.01 0.443703 5.86282
3.01 0.432443 5.88237
3.01 0.454964 5.88237
3.01 0.432443 5.88237
3.01 0.443705 5.90193
3.01 0.454964 5.88237
3.01 0.274559 5.88235
3.01 0.285853 5.8628
3.01 0.26325 5.8628
3.01 0.387384 5.88237
3.01 0.376117 5.90193
3.01 0.398653 5.90193
3.01 0.376117 5.90193
3.01 0.387384 5.88237
3.01 0.364843 5.88236
3.01 0.387384 5.88237
3.01 0.376113 5.86282
3.01 0.364843 5.88236
3.01 0.342292 5.88236
3.01 0.331009 5.86281
3.01 0.319729 5.88236
3.01 0.331009 5.86281
3.01 0.342292 5.88236
3.01 0.353567 5.86281
3.01 0.545011 6.1975
3.01 0.533759 6.1777
3.01 0.522505 6.1975
3.01 0.533762 6.13811
3.01 0.55627 6.13811
3.01 0.545018 6.11833
3.01 0.55627 6.13811
3.01 0.567528 6.11832
3.01 0.545018 6.11833
3.01 0.567528 6.11832
3.01 0.59004 6.11832
3.01 0.578788 6.09856
3.01 0.466232 6.05908
3.01 0.477488 6.03937
3.01 0.454974 6.03936
3.01 0.567516 6.1975
3.01 0.590022 6.1975
3.01 0.578772 6.1777
3.01 0.601316 6.05907
3.01 0.590051 6.0788
3.01 0.61257 6.0788
3.01 0.62384 6.05906
3.01 0.601316 6.05907
3.01 0.61257 6.0788
3.01 0.680198 6.03931
3.01 0.702757 6.03929
3.01 0.691494 6.01962
3.01 0.086422 6.17716
3.01 0.073896 6.1975
3.01 0.0962623 6.1975
3.01 0.073896 6.1975
3.01 0.086422 6.17716
3.01 0.066417 6.17952
3.01 0.05 6.1975
3.01 0.073896 6.1975
3.01 0.066417 6.17952
3.01 0.0721919 6.15789
3.01 0.05 6.17375
3.01 0.066417 6.17952
3.01 0.086422 6.17716
3.01 0.0721919 6.15789
3.01 0.066417 6.17952
3.01 0.118481 6.1975
3.01 0.107711 6.17733
3.01 0.0962623 6.1975
3.01 0.5 6.1975
3.01 0.488747 6.1777
3.01 0.477495 6.1975
3.01 0.432484 6.1975
3.01 0.421228 6.1777
3.01 0.409978 6.1975
3.01 0.443725 6.09856
3.01 0.432465 6.07881
3.01 0.421212 6.09856
3.01 0.319802 6.03931
3.01 0.342348 6.03933
3.01 0.331063 6.01963
3.01 0.353629 6.05905
3.01 0.364886 6.03934
3.01 0.342348 6.03933
3.01 0.10433 5.7457
3.01 0.0813011 5.7457
3.01 0.0933065 5.7652
3.01 0.0939466 5.2975
3.01 0.104722 5.31703
3.01 0.11641 5.2975
3.01 0.0939466 5.2975
3.01 0.0717021 5.2975
3.01 0.0817675 5.31698
3.01 0.104722 5.31703
3.01 0.0939466 5.2975
3.01 0.0817675 5.31698
3.01 0.0933065 5.7652
3.01 0.0710513 5.7652
3.01 0.0813038 5.7847
3.01 0.0710513 5.7652
3.01 0.0933065 5.7652
3.01 0.0813011 5.7457
3.01 0.115908 5.84324
3.01 0.104337 5.82372
3.01 0.0933131 5.84324
3.01 0.104337 5.82372
3.01 0.115908 5.84324
3.01 0.127165 5.82372
3.01 0.104343 5.86276
3.01 0.115908 5.84324
3.01 0.0933131 5.84324
3.01 0.104343 5.86276
3.01 0.0933188 5.8823
3.01 0.115915 5.8823
3.01 0.942303 5.70671
3.01 0.95 5.72621
3.01 0.95 5.68722
3.01 0.92895 5.68722
3.01 0.942303 5.70671
3.01 0.95 5.68722
3.01 0.9187 5.70671
3.01 0.895671 5.70672
3.01 0.906695 5.72621
3.01 0.92895 5.68722
3.01 0.9187 5.70671
3.01 0.942303 5.70671
3.01 0.942316 5.47285
3.01 0.95 5.45336
3.01 0.928965 5.45335
3.01 0.95 5.53132
3.01 0.95 5.49234
3.01 0.942309 5.51183
3.01 0.942316 5.47285
3.01 0.95 5.49234
3.01 0.95 5.45336
3.01 0.95 5.33605
3.01 0.95 5.2975
3.01 0.941764 5.31676
3.01 0.95 5.33605
3.01 0.942358 5.35571
3.01 0.95 5.37525
3.01 0.612617 5.37545
3.01 0.623887 5.39493
3.01 0.635157 5.37545
3.01 0.895671 5.70672
3.01 0.906696 5.68722
3.01 0.884102 5.68722
3.01 0.906696 5.68722
3.01 0.895671 5.70672
3.01 0.9187 5.70671
3.01 0.92895 5.68722
3.01 0.906696 5.68722
3.01 0.9187 5.70671
3.01 0.353563 5.82375
3.01 0.364839 5.84328
3.01 0.37611 5.82375
3.01 0.364837 5.80423
3.01 0.353563 5.82375
3.01 0.37611 5.82375
3.01 0.297145 5.84327
3.01 0.308439 5.86281
3.01 0.319723 5.84327
3.01 0.308439 5.86281
3.01 0.297145 5.84327
3.01 0.285853 5.8628
3.01 0.308439 5.86281
3.01 0.319729 5.88236
3.01 0.331009 5.86281
3.01 0.319723 5.84327
3.01 0.308439 5.86281
3.01 0.331009 5.86281
3.01 0.17262 5.70672
3.01 0.149908 5.70672
3.01 0.161282 5.72621
3.01 0.138583 5.72621
3.01 0.149909 5.7457
3.01 0.161282 5.72621
3.01 0.149909 5.7457
3.01 0.138583 5.72621
3.01 0.127158 5.7457
3.01 0.149909 5.7457
3.01 0.161284 5.7652
3.01 0.172622 5.74571
3.01 0.161282 5.72621
3.01 0.149909 5.7457
3.01 0.172622 5.74571
3.01 0.240621 5.82374
3.01 0.229301 5.80422
3.01 0.217979 5.82373
3.01 0.229301 5.80422
3.01 0.206649 5.80422
3.01 0.217979 5.82373
3.01 0.195316 5.82373
3.01 0.217979 5.82373
3.01 0.206649 5.80422
3.01 0.115908 5.84324
3.01 0.138594 5.84324
3.01 0.127165 5.82372
3.01 0.0933091 5.80421
3.01 0.115904 5.80421
3.01 0.104333 5.7847
3.01 0.115904 5.80421
3.01 0.127161 5.7847
3.01 0.104333 5.7847
3.01 0.115904 5.80421
3.01 0.0933091 5.80421
3.01 0.104337 5.82372
3.01 0.127165 5.82372
3.01 0.115904 5.80421
3.01 0.104337 5.82372
3.01 0.115901 5.7652
3.01 0.0933065 5.7652
3.01 0.104333 5.7847
3.01 0.127161 5.7847
3.01 0.115901 5.7652
3.01 0.104333 5.7847
3.01 0.115901 5.7652
3.01 0.10433 5.7457
3.01 0.0933065 5.7652
3.01 0.10433 5.7457
3.01 0.115901 5.7652
3.01 0.127158 5.7457
3.01 0.183972 5.72621
3.01 0.195307 5.70672
3.01 0.17262 5.70672
3.01 0.161282 5.72621
3.01 0.183972 5.72621
3.01 0.17262 5.70672
3.01 0.183972 5.72621
3.01 0.161282 5.72621
3.01 0.172622 5.74571
3.01 0.263244 5.82374
3.01 0.251933 5.80422
3.01 0.240621 5.82374
3.01 0.229301 5.80422
3.01 0.251933 5.80422
3.01 0.240617 5.78471
3.01 0.251933 5.80422
3.01 0.229301 5.80422
3.01 0.240621 5.82374
3.01 0.274543 5.76521
3.01 0.285842 5.74571
3.01 0.263237 5.74571
3.01 0.285842 5.74571
3.01 0.274541 5.72621
3.01 0.263237 5.74571
3.01 0.319739 5.92149
3.01 0.3423 5.9215
3.01 0.331016 5.90192
3.01 0.297163 5.92148
3.01 0.274572 5.92147
3.01 0.285878 5.94106
3.01 0.308447 5.90191
3.01 0.297163 5.92148
3.01 0.319739 5.92149
3.01 0.297163 5.92148
3.01 0.308447 5.90191
3.01 0.285863 5.90191
3.01 0.274572 5.92147
3.01 0.297163 5.92148
3.01 0.285863 5.90191
3.01 0.183992 5.88232
3.01 0.172648 5.90186
3.01 0.195336 5.90187
3.01 0.183992 5.88232
3.01 0.195323 5.86278
3.01 0.172636 5.86278
3.01 0.184008 5.92143
3.01 0.172648 5.90186
3.01 0.161316 5.92142
3.01 0.172648 5.90186
3.01 0.184008 5.92143
3.01 0.195336 5.90187
3.01 0.184008 5.92143
3.01 0.195356 5.94101
3.01 0.206681 5.92144
3.01 0.195336 5.90187
3.01 0.184008 5.92143
3.01 0.206681 5.92144
3.01 0.308434 5.82375
3.01 0.297145 5.84327
3.01 0.319723 5.84327
3.01 0.297145 5.84327
3.01 0.308434 5.82375
3.01 0.285847 5.82374
3.01 0.308434 5.82375
[...]
<PointData Scalars="View Factor" >
<DataArray type="Float64" Name="View Factor" NumberOfComponents="1" format="ascii">
0.867405
0.867405
0.867405
0.790205
0.790205
0.790205
0.866954
0.866954
0.866954
0.852093
0.852093
0.852093
0.8578
0.8578
0.8578
0.857799
0.857799
0.857799
0.858414
0.858414
0.858414
0.857166
0.857166
0.857166
0.857164
0.857164
0.857164
0.857165
0.857165
0.857165
0.867408
0.867408
0.867408
0.867306
0.867306
0.867306
0.867307
0.867307
0.867307
0.866489
0.866489
0.866489
0.866691
0.866691
0.866691
0.867178
0.867178
0.867178
0.867036
0.867036
0.867036
0.866692
0.866692
0.866692
0.866872
0.866872
0.866872
0.866694
0.866694
0.866694
0.866874
0.866874
0.866874
0.791631
0.791631
0.791631
0.857167
0.857167
0.857167
0.866025
0.866025
0.866025
0.867024
0.867024
0.867024
0.867024
0.867024
0.867024
0.86013
0.86013
0.86013
0.860131
0.860131
0.860131
0.85958
0.85958
0.85958
0.866255
0.866255
0.866255
0.866017
0.866017
0.866017
0.865761
0.865761
0.865761
0.864543
0.864543
0.864543
0.862134
0.862134
0.862134
0.862135
0.862135
0.862135
0.863447
0.863447
0.863447
0.866492
0.866492
0.866492
0.866493
0.866493
0.866493
0.86421
0.86421
0.86421
0.865505
0.865505
0.865505
0.865504
0.865504
0.865504
0.863838
0.863838
0.863838
0.86421
0.86421
0.86421
0.866037
0.866037
0.866037
0.857807
0.857807
0.857807
0.7902
0.7902
0.7902
0.852094
0.852094
0.852094
0.850445
0.850445
0.850445
0.852097
0.852097
0.852097
0.846853
0.846853
0.846853
0.846853
0.846853
0.846853
0.849583
0.849583
0.849583
0.848697
0.848697
0.848697
0.847788
0.847788
0.847788
0.855824
0.855824
0.855824
0.856504
0.856504
0.856504
0.852888
0.852888
0.852888
0.852887
0.852887
0.852887
0.862136
0.862136
0.862136
0.856505
0.856505
0.856505
0.857163
0.857163
0.857163
0.857163
0.857163
0.857163
0.85958
0.85958
0.85958
0.859008
0.859008
0.859008
0.845881
0.845881
0.845881
0.844899
0.844899
0.844899
0.84389
0.84389
0.84389
0.841794
0.841794
0.841794
0.851274
0.851274
0.851274
0.841792
0.841792
0.841792
0.839592
0.839592
0.839592
0.838449
0.838449
0.838449
0.829657
0.829657
0.829657
0.867102
0.867102
0.867102
0.867218
0.867218
0.867218
0.867339
0.867339
0.867339
0.867346
0.867346
0.867346
0.867225
0.867225
0.867225
0.866796
0.866796
0.866796
0.849568
0.849568
0.849568
0.854385
0.854385
0.854385
0.853645
0.853645
0.853645
0.859571
0.859571
0.859571
0.858404
0.858404
0.858404
0.867025
0.867025
0.867025
0.866869
0.866869
0.866869
0.867175
0.867175
0.867175
0.867035
0.867035
0.867035
0.867164
0.867164
0.867164
0.867165
0.867165
0.867165
0.866857
0.866857
0.866857
0.866678
0.866678
0.866678
0.866857
0.866857
0.866857
0.866856
0.866856
0.866856
0.790207
0.790207
0.790207
0.791542
0.791542
0.791542
0.797683
0.797683
0.797683
0.793498
0.793498
0.793498
0.791549
0.791549
0.791549
0.790214
0.790214
0.790214
0.790215
0.790215
0.790215
0.790255
0.790255
0.790255
0.790216
0.790216
0.790216
0.837301
0.837301
0.837301
0.799724
0.799724
0.799724
0.797683
0.797683
0.797683
0.795682
0.795682
0.795682
0.857801
0.857801
0.857801
0.857802
0.857802
0.857802
0.860665
0.860665
0.860665
0.861175
0.861175
0.861175
0.860133
0.860133
0.860133
0.860133
0.860133
0.860133
0.865769
0.865769
0.865769
0.866025
0.866025
0.866025
0.866263
0.866263
0.866263
0.865768
0.865768
0.865768
0.865768
0.865768
0.865768
0.863823
0.863823
0.863823
0.864195
0.864195
0.864195
0.864547
0.864547
0.864547
0.866477
0.866477
0.866477
0.866859
0.866859
0.866859
0.866679
0.866679
0.866679
0.866858
0.866858
0.866858
0.866678
0.866678
0.866678
0.86686
0.86686
0.86686
0.86668
0.86668
0.86668
0.86686
0.86686
0.86686
0.866681
0.866681
0.866681
0.865199
0.865199
0.865199
0.865493
0.865493
0.865493
0.865493
0.865493
0.865493
0.86302
0.86302
0.86302
0.863432
0.863432
0.863432
0.863431
0.863431
0.863431
0.862141
0.862141
0.862141
0.862142
0.862142
0.862142
0.859578
0.859578
0.859578
0.861662
0.861662
0.861662
0.860661
0.860661
0.860661
0.861173
0.861173
0.861173
0.861663
0.861663
0.861663
0.865191
0.865191
0.865191
0.865192
0.865192
0.865192
0.865484
0.865484
0.865484
0.86519
0.86519
0.86519
0.864875
0.864875
0.864875
0.864875
0.864875
0.864875
0.860665
0.860665
0.860665
0.861177
0.861177
0.861177
0.861177
0.861177
0.861177
0.860667
0.860667
0.860667
0.860663
0.860663
0.860663
0.861174
0.861174
0.861174
0.860664
0.860664
0.860664
0.861175
0.861175
0.861175
0.861665
0.861665
0.861665
0.861665
0.861665
0.861665
0.863018
0.863018
0.863018
0.863019
0.863019
0.863019
0.863016
0.863016
0.863016
0.863018
0.863018
0.863018
0.862586
0.862586
0.862586
0.862586
0.862586
0.862586
0.862606
0.862606
0.862606
0.863036
0.863036
0.863036
0.866034
0.866034
0.866034
0.866036
0.866036
0.866036
0.866272
0.866272
0.866272
0.866273
0.866273
0.866273
0.866036
0.866036
0.866036
0.86578
0.86578
0.86578
0.86578
0.86578
0.86578
0.866037
0.866037
0.866037
0.866275
0.866275
0.866275
0.866275
0.866275
0.866275
0.863036
0.863036
0.863036
0.862606
0.862606
0.862606
0.865503
0.865503
0.865503
0.865504
0.865504
0.865504
0.865779
0.865779
0.865779
0.865778
0.865778
0.865778
0.864895
0.864895
0.864895
0.864563
0.864563
0.864563
0.864563
0.864563
0.864563
0.864896
0.864896
0.864896
0.86521
0.86521
0.86521
0.86521
0.86521
0.86521
0.864895
0.864895
0.864895
0.864895
0.864895
0.864895
0.864562
0.864562
0.864562
0.864562
0.864562
0.864562
0.865208
0.865208
0.865208
0.865209
0.865209
0.865209
0.863838
0.863838
0.863838
0.863447
0.863447
0.863447
0.86421
0.86421
0.86421
0.86421
0.86421
0.86421
0.863034
0.863034
0.863034
0.863033
0.863033
0.863033
0.861681
0.861681
0.861681
0.862152
0.862152
0.862152
0.862602
0.862602
0.862602
0.862602
0.862602
0.862602
0.86421
0.86421
0.86421
0.864896
0.864896
0.864896
0.864563
0.864563
0.864563
0.864562
0.864562
0.864562
0.855132
0.855132
0.855132
0.857808
0.857808
0.857808
0.856513
0.856513
0.856513
0.855834
0.855834
0.855834
0.855834
0.855834
0.855834
0.856514
0.856514
0.856514
0.857171
0.857171
0.857171
0.857171
0.857171
0.857171
0.860671
0.860671
0.860671
0.86014
0.86014
0.86014
0.860144
0.860144
0.860144
0.85959
0.85959
0.85959
0.863838
0.863838
0.863838
0.860684
0.860684
0.860684
0.856526
0.856526
0.856526
0.856527
0.856527
0.856527
0.860153
0.860153
0.860153
0.859601
0.859601
0.859601
0.859028
0.859028
0.859028
0.807658
0.807658
0.807658
0.809433
0.809433
0.809433
0.809415
0.809415
0.809415
0.814583
0.814583
0.814583
0.811185
0.811185
0.811185
0.812895
0.812895
0.812895
0.811132
0.811132
0.811132
0.812883
0.812883
0.812883
0.811153
0.811153
0.811153
0.81623
0.81623
0.81623
0.791529
0.791529
0.791529
0.791531
0.791531
0.791531
0.79349
0.79349
0.79349
0.793492
0.793492
0.793492
0.852885
0.852885
0.852885
0.852886
0.852886
0.852886
0.856511
0.856511
0.856511
0.856513
0.856513
0.856513
0.856511
0.856511
0.856511
0.845893
0.845893
0.845893
0.845893
0.845893
0.845893
0.844908
0.844908
0.844908
0.850444
0.850444
0.850444
0.851282
0.851282
0.851282
0.852095
0.852095
0.852095
0.850443
0.850443
0.850443
0.852095
0.852095
0.852095
0.851281
0.851281
0.851281
0.851279
0.851279
0.851279
0.85128
0.85128
0.85128
0.850442
0.850442
0.850442
0.852884
0.852884
0.852884
0.859001
0.859001
0.859001
0.859002
0.859002
0.859002
0.85841
0.85841
0.85841
0.858409
0.858409
0.858409
0.857796
0.857796
0.857796
0.853655
0.853655
0.853655
0.855124
0.855124
0.855124
0.8544
0.8544
0.8544
0.853655
0.853655
0.853655
0.853656
0.853656
0.853656
0.855826
0.855826
0.855826
0.855124
0.855124
0.855124
0.854401
0.854401
0.854401
0.854402
0.854402
0.854402
0.822463
0.822463
0.822463
0.826876
0.826876
0.826876
0.843888
0.843888
0.843888
0.844897
0.844897
0.844897
0.842853
0.842853
0.842853
0.845887
0.845887
0.845887
0.845887
0.845887
0.845887
0.847775
0.847775
0.847775
0.846842
0.846842
0.846842
0.842855
0.842855
0.842855
0.841793
0.841793
0.841793
0.83728
0.83728
0.83728
0.834856
0.834856
0.834856
0.836082
0.836082
0.836082
0.840706
0.840706
0.840706
0.839591
0.839591
0.839591
0.840706
0.840706
0.840706
0.848693
0.848693
0.848693
0.836082
0.836082
0.836082
0.836082
0.836082
0.836082
0.831001
0.831001
0.831001
0.83845
0.83845
0.83845
0.803641
0.803641
0.803641
0.805525
0.805525
0.805525
0.803634
0.803634
0.803634
0.823971
0.823971
0.823971
0.825441
0.825441
0.825441
0.826877
0.826877
0.826877
0.829666
0.829666
0.829666
0.829673
0.829673
0.829673
0.834855
0.834855
0.834855
0.82092
0.82092
0.82092
0.867422
0.867422
0.867422
0.867393
0.867393
0.867393
0.86736
0.86736
0.86736
0.86696
0.86696
0.86696
0.867115
0.867115
0.867115
0.864832
0.864832
0.864832
0.866615
0.866615
0.866615
0.866417
0.866417
0.866417
0.865156
0.865156
0.865156
0.860637
0.860637
0.860637
0.86064
0.86064
0.86064
0.847774
0.847774
0.847774
0.848683
0.848683
0.848683
0.84684
0.84684
0.84684
0.848684
0.848684
0.848684
0.847775
0.847775
0.847775
0.846841
0.846841
0.846841
0.855109
0.855109
0.855109
0.855808
0.855808
0.855808
0.855108
0.855108
0.855108
0.858392
0.858392
0.858392
0.852877
0.852877
0.852877
0.857785
0.857785
0.857785
0.857149
0.857149
0.857149
0.855811
0.855811
0.855811
0.85581
0.85581
0.85581
0.857782
0.857782
0.857782
0.856491
0.856491
0.856491
0.857146
0.857146
0.857146
0.85649
0.85649
0.85649
0.857783
0.857783
0.857783
0.857148
0.857148
0.857148
0.860653
0.860653
0.860653
0.860123
0.860123
0.860123
0.857789
0.857789
0.857789
0.858407
0.858407
0.858407
0.858999
0.858999
0.858999
0.858405
0.858405
0.858405
0.859
0.859
0.859
0.858407
0.858407
0.858407
0.866012
0.866012
0.866012
0.866668
0.866668
0.866668
0.866016
0.866016
0.866016
0.866254
0.866254
0.866254
0.866848
0.866848
0.866848
0.866847
0.866847
0.866847
0.867013
0.867013
0.867013
0.867153
0.867153
0.867153
0.867011
0.867011
0.867011
0.867152
0.867152
0.867152
0.867449
0.867449
0.867449
0.867392
0.867392
0.867392
0.867295
0.867295
0.867295
0.867448
0.867448
0.867448
0.867392
0.867392
0.867392
0.867294
0.867294
0.867294
0.867446
0.867446
0.867446
0.867389
0.867389
0.867389
0.867445
0.867445
0.867445
0.867388
0.867388
0.867388
0.790208
0.790208
0.790208
0.791542
0.791542
0.791542
0.795681
0.795681
0.795681
0.79568
0.79568
0.79568
0.791541
0.791541
0.791541
0.793497
0.793497
0.793497
0.791541
0.791541
0.791541
0.793496
0.793496
0.793496
0.801682
0.801682
0.801682
0.793502
0.793502
0.793502
0.791548
0.791548
0.791548
0.790215
0.790215
0.790215
0.803631
0.803631
0.803631
0.793504
0.793504
0.793504
0.791597
0.791597
0.791597
0.791559
0.791559
0.791559
0.799783
0.799783
0.799783
0.839618
0.839618
0.839618
0.841822
0.841822
0.841822
0.840733
0.840733
0.840733
0.843916
0.843916
0.843916
0.843918
0.843918
0.843918
0.843917
0.843917
0.843917
0.838473
0.838473
0.838473
0.837302
0.837302
0.837302
0.829678
0.829678
0.829678
0.838475
0.838475
0.838475
0.829671
0.829671
0.829671
0.832334
0.832334
0.832334
0.826887
0.826887
0.826887
0.828294
0.828294
0.828294
0.820932
0.820932
0.820932
0.82247
0.82247
0.82247
0.825448
0.825448
0.825448
0.825447
0.825447
0.825447
0.810989
0.810989
0.810989
0.809204
0.809204
0.809204
0.852909
0.852909
0.852909
0.852117
0.852117
0.852117
0.855847
0.855847
0.855847
0.844928
0.844928
0.844928
0.857816
0.857816
0.857816
0.856523
0.856523
0.856523
0.85718
0.85718
0.85718
0.823973
0.823973
0.823973
0.833619
0.833619
0.833619
0.836102
0.836102
0.836102
0.834875
0.834875
0.834875
0.81611
0.81611
0.81611
0.819355
0.819355
0.819355
0.81775
0.81775
0.81775
0.817749
0.817749
0.817749
0.819354
0.819354
0.819354
0.858416
0.858416
0.858416
0.858415
0.858415
0.858415
0.859008
0.859008
0.859008
0.859581
0.859581
0.859581
0.865492
0.865492
0.865492
0.866262
0.866262
0.866262
0.86648
0.86648
0.86648
0.86648
0.86648
0.86648
0.866024
0.866024
0.866024
0.865773
0.865773
0.865773
0.865772
0.865772
0.865772
0.86382
0.86382
0.86382
0.863819
0.863819
0.863819
0.863428
0.863428
0.863428
0.863428
0.863428
0.863428
0.864545
0.864545
0.864545
0.864878
0.864878
0.864878
0.864877
0.864877
0.864877
0.864543
0.864543
0.864543
0.864191
0.864191
0.864191
0.864192
0.864192
0.864192
0.864545
0.864545
0.864545
0.864546
0.864546
0.864546
0.863822
0.863822
0.863822
0.864194
0.864194
0.864194
0.864193
0.864193
0.864193
0.863821
0.863821
0.863821
0.86343
0.86343
0.86343
0.86343
0.86343
0.86343
0.865193
0.865193
0.865193
0.864879
0.864879
0.864879
0.864879
0.864879
0.864879
0.865194
0.865194
0.865194
0.865488
0.865488
0.865488
0.865488
0.865488
0.865488
0.865761
0.865761
0.865761
0.865486
0.865486
0.865486
0.865486
0.865486
0.865486
0.866478
0.866478
0.866478
0.866478
0.866478
0.866478
0.863025
0.863025
0.863025
0.862143
0.862143
0.862143
0.861182
0.861182
0.861182
0.862592
0.862592
0.862592
0.863023
0.863023
0.863023
0.864197
0.864197
0.864197
0.863825
0.863825
0.863825
0.863434
0.863434
0.863434
0.863433
0.863433
0.863433
0.86455
0.86455
0.86455
0.864883
0.864883
0.864883
0.865198
0.865198
0.865198
0.865197
0.865197
0.865197
0.863436
0.863436
0.863436
0.863827
0.863827
0.863827
0.86259
0.86259
0.86259
0.862139
0.862139
0.862139
0.861668
0.861668
0.861668
0.860139
0.860139
0.860139
0.859014
0.859014
0.859014
0.859015
0.859015
0.859015
0.859587
0.859587
0.859587
0.859587
0.859587
0.859587
0.857806
0.857806
0.857806
0.858421
0.858421
0.858421
0.85842
0.85842
0.85842
0.857805
0.857805
0.857805
0.857169
0.857169
0.857169
0.85717
0.85717
0.85717
0.857805
0.857805
0.857805
0.857168
0.857168
0.857168
0.857168
0.857168
0.857168
0.861671
0.861671
0.861671
0.859006
0.859006
0.859006
0.857798
0.857798
0.857798
0.858413
0.858413
0.858413
0.859007
0.859007
0.859007
0.858411
0.858411
0.858411
0.857796
0.857796
0.857796
0.857161
0.857161
0.857161
0.857161
0.857161
0.857161
0.857798
0.857798
0.857798
0.858412
0.858412
0.858412
0.865484
0.865484
0.865484
0.865759
0.865759
0.865759
0.865759
0.865759
0.865759
0.865482
0.865482
0.865482
0.865188
0.865188
0.865188
0.865188
0.865188
0.865188
0.862137
0.862137
0.862137
0.862138
0.862138
0.862138
0.861667
0.861667
0.861667
0.861667
0.861667
0.861667
0.862588
0.862588
0.862588
0.862588
0.862588
0.862588
0.85901
0.85901
0.85901
0.859582
0.859582
0.859582
0.860134
0.860134
0.860134
0.860135
0.860135
0.860135
0.863447
0.863447
0.863447
0.862605
0.862605
0.862605
0.862155
0.862155
0.862155
0.862155
0.862155
0.862155
0.862605
0.862605
0.862605
0.86627
0.86627
0.86627
0.86168
0.86168
0.86168
0.86168
0.86168
0.86168
0.862151
0.862151
0.862151
0.86215
0.86215
0.86215
0.859596
0.859596
0.859596
0.860679
0.860679
0.860679
0.86119
0.86119
0.86119
0.861189
0.861189
0.861189
0.864556
0.864556
0.864556
0.860142
0.860142
0.860142
0.860143
0.860143
0.860143
0.864896
0.864896
0.864896
0.858423
0.858423
0.858423
0.857808
0.857808
0.857808
0.859588
0.859588
0.859588
0.859015
0.859015
0.859015
0.858422
0.858422
0.858422
0.858422
0.858422
0.858422
0.860672
0.860672
0.860672
0.860144
0.860144
0.860144
0.859018
0.859018
0.859018
0.858424
0.858424
0.858424
0.859592
0.859592
0.859592
0.859591
0.859591
0.859591
0.859018
0.859018
0.859018
0.859019
0.859019
0.859019
0.858425
0.858425
0.858425
0.858425
0.858425
0.858425
0.861194
0.861194
0.861194
0.861684
0.861684
0.861684
0.863838
0.863838
0.863838
0.863837
0.863837
0.863837
0.86421
0.86421
0.86421
0.864209
0.864209
0.864209
0.863034
0.863034
0.863034
0.861685
0.861685
0.861685
0.862155
0.862155
0.862155
0.862155
0.862155
0.862155
0.861195
0.861195
0.861195
0.858435
0.858435
0.858435
0.857184
0.857184
0.857184
0.85782
0.85782
0.85782
0.859027
0.859027
0.859027
0.859028
0.859028
0.859028
0.859027
0.859027
0.859027
0.807613
0.807613
0.807613
0.812847
0.812847
0.812847
0.816186
0.816186
0.816186
0.816198
0.816198
0.816198
0.814547
0.814547
0.814547
0.814561
0.814561
0.814561
0.816221
0.816221
0.816221
0.817828
0.817828
0.817828
0.817838
0.817838
0.817838
0.790202
0.790202
0.790202
0.790193
0.790193
0.790193
0.791534
0.791534
0.791534
0.791534
0.791534
0.791534
0.790199
0.790199
0.790199
0.790197
0.790197
0.790197
0.801685
0.801685
0.801685
0.805521
0.805521
0.805521
0.846852
0.846852
0.846852
0.846851
0.846851
0.846851
0.843897
0.843897
0.843897
0.844907
0.844907
0.844907
0.845892
0.845892
0.845892
0.853657
0.853657
0.853657
0.854403
0.854403
0.854403
0.854403
0.854403
0.854403
0.853658
0.853658
0.853658
0.85366
0.85366
0.85366
0.8521
0.8521
0.8521
0.852892
0.852892
0.852892
0.855131
0.855131
0.855131
0.855132
0.855132
0.855132
0.855833
0.855833
0.855833
0.855832
0.855832
0.855832
0.853661
0.853661
0.853661
0.852892
0.852892
0.852892
0.852101
0.852101
0.852101
0.855831
0.855831
0.855831
0.85513
0.85513
0.85513
0.854406
0.854406
0.854406
0.854407
0.854407
0.854407
0.851286
0.851286
0.851286
0.850448
0.850448
0.850448
0.849587
0.849587
0.849587
0.851287
0.851287
0.851287
0.849587
0.849587
0.849587
0.850449
0.850449
0.850449
0.850449
0.850449
0.850449
0.840712
0.840712
0.840712
0.839596
0.839596
0.839596
0.840712
0.840712
0.840712
0.839597
0.839597
0.839597
0.840713
0.840713
0.840713
0.839598
0.839598
0.839598
0.832317
0.832317
0.832317
0.833602
0.833602
0.833602
0.845894
0.845894
0.845894
0.845895
0.845895
0.845895
0.847788
0.847788
0.847788
0.846854
0.846854
0.846854
0.847789
0.847789
0.847789
0.846855
0.846855
0.846855
0.844909
0.844909
0.844909
0.844909
0.844909
0.844909
0.850441
0.850441
0.850441
0.848694
0.848694
0.848694
0.859573
0.859573
0.859573
0.860655
0.860655
0.860655
0.859573
0.859573
0.859573
0.860124
0.860124
0.860124
0.861168
0.861168
0.861168
0.860656
0.860656
0.860656
0.860126
0.860126
0.860126
0.853653
0.853653
0.853653
0.854399
0.854399
0.854399
0.853653
0.853653
0.853653
0.857794
0.857794
0.857794
0.857793
0.857793
0.857793
0.853649
0.853649
0.853649
0.855826
0.855826
0.855826
0.855125
0.855125
0.855125
0.856506
0.856506
0.856506
0.856507
0.856507
0.856507
0.855828
0.855828
0.855828
0.855126
0.855126
0.855126
0.828279
0.828279
0.828279
0.829656
0.829656
0.829656
0.831001
0.831001
0.831001
0.829654
0.829654
0.829654
0.843898
0.843898
0.843898
0.8418
0.8418
0.8418
0.842863
0.842863
0.842863
0.843899
0.843899
0.843899
0.839596
0.839596
0.839596
0.833599
0.833599
0.833599
0.834855
0.834855
0.834855
0.829654
0.829654
0.829654
0.826874
0.826874
0.826874
0.826873
0.826873
0.826873
0.826872
0.826872
0.826872
0.826872
0.826872
0.826872
0.845896
0.845896
0.845896
0.834861
0.834861
0.834861
0.833605
0.833605
0.833605
0.823964
0.823964
0.823964
0.823963
0.823963
0.823963
0.825435
0.825435
0.825435
0.825435
0.825435
0.825435
0.823964
0.823964
0.823964
0.825436
0.825436
0.825436
0.825436
0.825436
0.825436
0.822461
0.822461
0.822461
0.822462
0.822462
0.822462
0.820924
0.820924
0.820924
0.820925
0.820925
0.820925
0.822461
0.822461
0.822461
0.823966
0.823966
0.823966
0.823965
0.823965
0.823965
0.828283
0.828283
0.828283
0.828281
0.828281
0.828281
0.829657
0.829657
0.829657
0.831003
0.831003
0.831003
0.844899
0.844899
0.844899
0.845883
0.845883
0.845883
0.845882
0.845882
0.845882
0.844898
0.844898
0.844898
0.84389
0.84389
0.84389
0.8449
0.8449
0.8449
0.842855
0.842855
0.842855
0.844901
0.844901
0.844901
0.844903
0.844903
0.844903
0.842858
0.842858
0.842858
0.839592
0.839592
0.839592
0.845884
0.845884
0.845884
0.845884
0.845884
0.845884
0.846842
0.846842
0.846842
0.834856
0.834856
0.834856
0.854393
0.854393
0.854393
0.85288
0.85288
0.85288
0.853649
0.853649
0.853649
0.854394
0.854394
0.854394
0.854392
0.854392
0.854392
0.854391
0.854391
0.854391
0.852088
0.852088
0.852088
0.852879
0.852879
0.852879
0.853647
0.853647
0.853647
0.853647
0.853647
0.853647
0.852878
0.852878
0.852878
0.852087
0.852087
0.852087
0.852883
0.852883
0.852883
0.852092
0.852092
0.852092
0.849578
0.849578
0.849578
0.85044
0.85044
0.85044
0.851278
0.851278
0.851278
0.849579
0.849579
0.849579
0.851278
0.851278
0.851278
0.850441
0.850441
0.850441
0.848692
0.848692
0.848692
0.846846
0.846846
0.846846
0.848691
0.848691
0.848691
0.849577
0.849577
0.849577
0.850439
0.850439
0.850439
0.849577
0.849577
0.849577
0.850437
0.850437
0.850437
0.851275
0.851275
0.851275
0.852089
0.852089
0.852089
0.850438
0.850438
0.850438
0.839595
0.839595
0.839595
0.839595
0.839595
0.839595
0.83728
0.83728
0.83728
0.83728
0.83728
0.83728
0.83728
0.83728
0.83728
0.826876
0.826876
0.826876
0.828281
0.828281
0.828281
0.823964
0.823964
0.823964
0.836082
0.836082
0.836082
0.833601
0.833601
0.833601