<VTKFile type="UnstructuredGrid" version="1.0">
<UnstructuredGrid>
<Piece NumberOfPoints="11046" NumberOfCells="3682">
<Points>
<DataArray type="Float64" NumberOfComponents="3" format="ascii">
2.48358 1.77342 15.7552
2.46979 1.78721 15.7475
2.49736 1.75964 15.7475
2.17682 2.08018 15.7639
2.16411 2.09289 15.7475
2.1809 2.0761 15.7475
2.17682 2.08018 15.7639
2.16411 2.09289 15.7714
2.16411 2.09289 15.7475
2.49736 1.75964 16.6475
2.46979 1.78721 16.6475
2.48358 1.77342 16.6398
2.66273 1.59427 16.6265
2.66273 1.59427 16.6475
2.64895 1.60805 16.6398
2.4284 1.8286 16.5249
2.4422 1.8148 16.5135
2.4422 1.8148 16.5362
2.64895 1.60805 15.7552
2.66273 1.59427 15.7475
2.66273 1.59427 15.7685
2.46979 1.78721 15.7908
2.48358 1.77342 15.7788
2.48358 1.77342 15.8018
2.48358 1.77342 15.8018
2.48358 1.77342 15.7788
2.49736 1.75964 15.7908
2.49735 1.75965 16.175
2.51114 1.74586 16.1862
2.49735 1.75965 16.1975
2.16411 2.09289 16.22
2.16411 2.09289 16.1975
2.17811 2.07889 16.2088
2.8005 1.4565 16.4229
2.78672 1.47028 16.4342
2.78672 1.47028 16.4116
2.66271 1.59429 16.423
2.67649 1.58051 16.4117
2.67649 1.58051 16.4343
2.67649 1.58051 16.4343
2.67649 1.58051 16.4117
2.69027 1.56673 16.423
2.64895 1.60805 16.6398
2.66273 1.59427 16.6475
2.63517 1.62183 16.6475
2.55249 1.70451 16.6042
2.56627 1.69073 16.6162
2.55249 1.70451 16.6265
2.58005 1.67695 16.6042
2.56627 1.69073 16.6162
2.56627 1.69073 16.5932
2.56627 1.69073 16.5932
2.56627 1.69073 16.6162
2.55249 1.70451 16.6042
2.49735 1.75965 16.2876
2.48357 1.77343 16.2989
2.48357 1.77343 16.2763
2.49735 1.75965 16.1975
2.51114 1.74586 16.1862
2.51114 1.74586 16.2088
2.48357 1.77343 16.3665
2.49736 1.75964 16.3778
2.48357 1.77343 16.3891
2.48358 1.77342 16.6398
2.46979 1.78721 16.6475
2.46979 1.78721 16.6264
2.7867 1.4703 15.8703
2.8005 1.4565 15.8817
2.78671 1.47029 15.893
2.63516 1.62184 16.175
2.64894 1.60806 16.1637
2.64894 1.60806 16.1862
2.456 1.801 15.7552
2.44221 1.81479 15.7475
2.46979 1.78721 15.7475
2.46979 1.78721 15.7908
2.456 1.801 15.7788
2.46979 1.78721 15.7686
2.46979 1.78721 15.7686
2.48358 1.77342 15.7788
2.46979 1.78721 15.7908
2.46979 1.78721 15.7686
2.456 1.801 15.7552
2.46979 1.78721 15.7475
2.456 1.801 15.7788
2.456 1.801 15.7552
2.46979 1.78721 15.7686
2.46979 1.78721 15.7686
2.46979 1.78721 15.7475
2.48358 1.77342 15.7552
2.48358 1.77342 15.7552
2.48358 1.77342 15.7788
2.46979 1.78721 15.7686
2.49736 1.75964 15.7908
2.48358 1.77342 15.7788
2.49736 1.75964 15.7685
2.49736 1.75964 15.7685
2.51114 1.74586 15.7788
2.49736 1.75964 15.7908
2.48358 1.77342 15.7552
2.49736 1.75964 15.7475
2.49736 1.75964 15.7685
2.49736 1.75964 15.7685
2.48358 1.77342 15.7788
2.48358 1.77342 15.7552
2.48358 1.77342 15.8247
2.48358 1.77342 15.8018
2.49736 1.75964 15.8134
2.49736 1.75964 15.8134
2.48358 1.77342 15.8018
2.49736 1.75964 15.7908
2.52492 1.73208 16.0172
2.52492 1.73208 15.9946
2.53871 1.71829 16.0059
2.51114 1.74586 16.0059
2.52492 1.73208 15.9946
2.52492 1.73208 16.0172
2.63517 1.62183 15.7475
2.66273 1.59427 15.7475
2.64895 1.60805 15.7552
2.49736 1.75964 15.7475
2.52493 1.73207 15.7475
2.51114 1.74586 15.7552
2.51114 1.74586 15.7552
2.49736 1.75964 15.7685
2.49736 1.75964 15.7475
2.51114 1.74586 15.7788
2.49736 1.75964 15.7685
2.51114 1.74586 15.7552
2.51114 1.74586 16.1637
2.49735 1.75965 16.175
2.49735 1.75965 16.1525
2.51114 1.74586 16.1862
2.49735 1.75965 16.175
2.51114 1.74586 16.1637
2.51114 1.74586 16.1637
2.52492 1.73208 16.175
2.51114 1.74586 16.1862
2.78672 1.47028 16.1412
2.8005 1.4565 16.1299
2.8005 1.4565 16.1525
2.8005 1.4565 16.0173
2.78672 1.47028 16.006
2.8005 1.4565 15.9947
2.8005 1.4565 16.3101
2.8005 1.4565 16.3326
2.78672 1.47028 16.3214
2.78672 1.47028 16.3439
2.77294 1.48406 16.3552
2.77294 1.48406 16.3327
2.78672 1.47028 16.3439
2.8005 1.4565 16.3326
2.8005 1.4565 16.3552
2.77294 1.48406 16.3327
2.78672 1.47028 16.3214
2.78672 1.47028 16.3439
2.78672 1.47028 16.3439
2.78672 1.47028 16.3214
2.8005 1.4565 16.3326
2.78672 1.47028 16.3665
2.8005 1.4565 16.3552
2.8005 1.4565 16.3778
2.78672 1.47028 16.3665
2.78672 1.47028 16.3439
2.8005 1.4565 16.3552
2.77294 1.48406 16.3552
2.78672 1.47028 16.3439
2.78672 1.47028 16.3665
2.8005 1.4565 16.4229
2.78672 1.47028 16.4116
2.8005 1.4565 16.4003
2.75915 1.49785 16.4342
2.74538 1.51162 16.4229
2.75916 1.49784 16.4116
2.75916 1.49784 16.389
2.75916 1.49784 16.4116
2.74538 1.51162 16.4003
2.74538 1.51162 16.4003
2.74538 1.51162 16.4229
2.7316 1.5254 16.4116
2.74538 1.51162 16.4003
2.75916 1.49784 16.4116
2.74538 1.51162 16.4229
2.8005 1.4565 16.2425
2.78672 1.47028 16.2313
2.8005 1.4565 16.22
2.78672 1.47028 16.2988
2.8005 1.4565 16.2876
2.8005 1.4565 16.3101
2.8005 1.4565 16.3101
2.78672 1.47028 16.3214
2.78672 1.47028 16.2988
2.78672 1.47028 16.2988
2.78672 1.47028 16.2763
2.8005 1.4565 16.2876
2.77294 1.48406 16.2876
2.78672 1.47028 16.2763
2.78672 1.47028 16.2988
2.69027 1.56673 16.5362
2.6765 1.5805 16.5476
2.67649 1.58051 16.5249
2.67651 1.58049 16.5932
2.66273 1.59427 16.6042
2.66273 1.59427 16.5816
2.64895 1.60805 16.6162
2.66273 1.59427 16.6265
2.64895 1.60805 16.6398
2.64895 1.60805 16.6162
2.66273 1.59427 16.6042
2.66273 1.59427 16.6265
2.6903 1.5667 16.6265
2.6903 1.5667 16.6042
2.70409 1.55291 16.6162
2.69027 1.56673 16.423
2.67649 1.58051 16.4117
2.69027 1.56673 16.4004
2.67649 1.58051 16.4117
2.67649 1.58051 16.3891
2.69027 1.56673 16.4004
2.69027 1.56673 16.3778
2.70405 1.55295 16.3891
2.69027 1.56673 16.4004
2.69027 1.56673 16.4004
2.67649 1.58051 16.3891
2.69027 1.56673 16.3778
2.69027 1.56673 16.4456
2.67649 1.58051 16.4343
2.69027 1.56673 16.423
2.69027 1.56673 16.4456
2.70404 1.55296 16.4569
2.69027 1.56673 16.4682
2.8005 1.4565 16.4455
2.78672 1.47028 16.4342
2.8005 1.4565 16.4229
2.49736 1.75964 16.6264
2.49736 1.75964 16.6475
2.48358 1.77342 16.6398
2.52493 1.73207 16.6264
2.52493 1.73207 16.6475
2.51114 1.74586 16.6398
2.51114 1.74586 16.6398
2.51114 1.74586 16.6162
2.52493 1.73207 16.6264
2.51114 1.74586 16.6398
2.52493 1.73207 16.6475
2.49736 1.75964 16.6475
2.49736 1.75964 16.6475
2.49736 1.75964 16.6264
2.51114 1.74586 16.6398
2.51114 1.74586 16.6398
2.49736 1.75964 16.6264
2.51114 1.74586 16.6162
2.51114 1.74586 16.6162
2.49736 1.75964 16.6264
2.49736 1.75964 16.6042
2.56627 1.69073 16.6398
2.58005 1.67695 16.6475
2.55249 1.70451 16.6475
2.55249 1.70451 16.6475
2.55249 1.70451 16.6265
2.56627 1.69073 16.6398
2.56627 1.69073 16.6398
2.55249 1.70451 16.6265
2.56627 1.69073 16.6162
2.53871 1.71829 16.6398
2.52493 1.73207 16.6475
2.52493 1.73207 16.6264
2.55249 1.70451 16.6475
2.52493 1.73207 16.6475
2.53871 1.71829 16.6398
2.53871 1.71829 16.6398
2.55249 1.70451 16.6265
2.55249 1.70451 16.6475
2.55249 1.70451 16.6042
2.55249 1.70451 16.6265
2.53871 1.71829 16.6162
2.53871 1.71829 16.6162
2.53871 1.71829 16.5932
2.55249 1.70451 16.6042
2.53871 1.71829 16.6162
2.53871 1.71829 16.6398
2.52493 1.73207 16.6264
2.55249 1.70451 16.6265
2.53871 1.71829 16.6398
2.53871 1.71829 16.6162
2.55249 1.70451 16.5816
2.56627 1.69073 16.5932
2.55249 1.70451 16.6042
2.55249 1.70451 16.5816
2.53871 1.71829 16.5932
2.53871 1.71829 16.5703
2.55249 1.70451 16.6042
2.53871 1.71829 16.5932
2.55249 1.70451 16.5816
2.46978 1.78722 16.3101
2.48357 1.77343 16.2989
2.48357 1.77343 16.3214
2.48357 1.77343 16.3214
2.46978 1.78722 16.3327
2.46978 1.78722 16.3101
2.49736 1.75964 16.3552
2.49736 1.75964 16.3778
2.48357 1.77343 16.3665
2.46978 1.78722 16.2425
2.48357 1.77343 16.2313
2.48357 1.77343 16.2538
2.48357 1.77343 16.2538
2.48357 1.77343 16.2313
2.49735 1.75965 16.2425
2.46978 1.78722 16.2876
2.48357 1.77343 16.2989
2.46978 1.78722 16.3101
2.46978 1.78722 16.2876
2.48357 1.77343 16.2763
2.48357 1.77343 16.2989
2.51114 1.74586 16.1862
2.52492 1.73208 16.175
2.52492 1.73208 16.1975
2.52492 1.73208 16.1975
2.51114 1.74586 16.2088
2.51114 1.74586 16.1862
2.49735 1.75965 16.2425
2.48357 1.77343 16.2313
2.49735 1.75965 16.22
2.49735 1.75965 16.1975
2.51114 1.74586 16.2088
2.49735 1.75965 16.22
2.49736 1.75964 16.423
2.49736 1.75964 16.4456
2.48357 1.77343 16.4343
2.4284 1.8286 16.5022
2.4422 1.8148 16.5135
2.4284 1.8286 16.5249
2.3455 1.9115 16.6398
2.35934 1.89766 16.6475
2.33165 1.92535 16.6475
2.4146 1.8424 16.5135
2.4284 1.8286 16.5022
2.4284 1.8286 16.5249
2.4146 1.8424 16.4908
2.4284 1.8286 16.5022
2.4146 1.8424 16.5135
2.456 1.801 16.5703
2.46979 1.78721 16.5816
2.456 1.801 16.5932
2.456 1.801 16.5932
2.46979 1.78721 16.5816
2.46979 1.78721 16.6042
2.42841 1.82859 16.5932
2.42841 1.82859 16.5703
2.44221 1.81479 16.5816
2.44221 1.81479 16.5816
2.44221 1.81479 16.6042
2.42841 1.82859 16.5932
2.44221 1.81479 16.5816
2.4422 1.8148 16.5589
2.456 1.801 16.5703
2.42841 1.82859 16.5703
2.4422 1.8148 16.5589
2.44221 1.81479 16.5816
2.456 1.801 16.5703
2.456 1.801 16.5932
2.44221 1.81479 16.5816
2.44221 1.81479 16.5816
2.456 1.801 16.5932
2.44221 1.81479 16.6042
2.46979 1.78721 16.6475
2.44221 1.81479 16.6475
2.456 1.801 16.6398
2.456 1.801 16.6398
2.46979 1.78721 16.6264
2.46979 1.78721 16.6475
2.42841 1.82859 16.5932
2.44221 1.81479 16.6042
2.42841 1.82859 16.6162
2.16411 2.09289 16.6475
2.17682 2.08018 16.6311
2.1809 2.0761 16.6475
2.1809 2.0761 16.6475
2.17682 2.08018 16.6311
2.19211 2.06489 16.6253
2.19211 2.06489 16.6253
2.19593 2.06107 16.6475
2.1809 2.0761 16.6475
2.78688 1.47012 15.7557
2.77324 1.48376 15.7475
2.8005 1.4565 15.7475
2.77293 1.48407 15.791
2.78673 1.47027 15.7793
2.78669 1.47031 15.8022
2.8005 1.4565 15.8591
2.8005 1.4565 15.8817
2.7867 1.4703 15.8703
2.78669 1.47031 15.8022
2.78673 1.47027 15.7793
2.8005 1.4565 15.7914
2.8005 1.4565 15.7914
2.8005 1.4565 15.8139
2.78669 1.47031 15.8022
2.78669 1.47031 15.8022
2.8005 1.4565 15.8139
2.78669 1.47031 15.825
2.8005 1.4565 15.9721
2.78672 1.47028 15.9608
2.8005 1.4565 15.9495
2.78672 1.47028 15.9382
2.8005 1.4565 15.9269
2.8005 1.4565 15.9495
2.8005 1.4565 15.9495
2.78672 1.47028 15.9608
2.78672 1.47028 15.9382
2.8005 1.4565 15.9043
2.78671 1.47029 15.893
2.8005 1.4565 15.8817
2.66273 1.59427 15.7475
2.69029 1.56671 15.7475
2.67651 1.58049 15.7552
[...]
<PointData Scalars="View Factor" >
<DataArray type="Float64" Name="View Factor" NumberOfComponents="1" format="ascii">
0.684572
0.684572
0.684572
0.657458
0.657458
0.657458
0.657484
0.657484
0.657484
0.67731
0.67731
0.67731
0.704733
0.704733
0.704733
0.657997
0.657997
0.657997
0.714768
0.714768
0.714768
0.682597
0.682597
0.682597
0.686068
0.686068
0.686068
0.688167
0.688167
0.688167
0.655229
0.655229
0.655229
0.703589
0.703589
0.703589
0.708343
0.708343
0.708343
0.70838
0.70838
0.70838
0.704409
0.704409
0.704409
0.696574
0.696574
0.696574
0.698866
0.698866
0.698866
0.697485
0.697485
0.697485
0.682721
0.682721
0.682721
0.689487
0.689487
0.689487
0.681905
0.681905
0.681905
0.673929
0.673929
0.673929
0.710571
0.710571
0.710571
0.710675
0.710675
0.710675
0.67278
0.67278
0.67278
0.676887
0.676887
0.676887
0.680807
0.680807
0.680807
0.676995
0.676995
0.676995
0.674863
0.674863
0.674863
0.680918
0.680918
0.680918
0.682712
0.682712
0.682712
0.687757
0.687757
0.687757
0.690822
0.690822
0.690822
0.687871
0.687871
0.687871
0.686186
0.686186
0.686186
0.685947
0.685947
0.685947
0.687637
0.687637
0.687637
0.697151
0.697151
0.697151
0.694818
0.694818
0.694818
0.714462
0.714462
0.714462
0.693793
0.693793
0.693793
0.690939
0.690939
0.690939
0.692323
0.692323
0.692323
0.688345
0.688345
0.688345
0.689668
0.689668
0.689668
0.692312
0.692312
0.692312
0.707373
0.707373
0.707373
0.708966
0.708966
0.708966
0.704866
0.704866
0.704866
0.705888
0.705888
0.705888
0.704517
0.704517
0.704517
0.705735
0.705735
0.705735
0.705052
0.705052
0.705052
0.704159
0.704159
0.704159
0.7047
0.7047
0.7047
0.705387
0.705387
0.705387
0.703413
0.703413
0.703413
0.706107
0.706107
0.706107
0.706466
0.706466
0.706466
0.707014
0.707014
0.707014
0.706544
0.706544
0.706544
0.70618
0.70618
0.70618
0.705208
0.705208
0.705208
0.705395
0.705395
0.705395
0.705729
0.705729
0.705729
0.706403
0.706403
0.706403
0.706627
0.706627
0.706627
0.705637
0.705637
0.705637
0.70483
0.70483
0.70483
0.705128
0.705128
0.705128
0.705088
0.705088
0.705088
0.70853
0.70853
0.70853
0.708702
0.708702
0.708702
0.708775
0.708775
0.708775
0.708851
0.708851
0.708851
0.7082
0.7082
0.7082
0.70777
0.70777
0.70777
0.703026
0.703026
0.703026
0.680585
0.680585
0.680585
0.6886
0.6886
0.6886
0.687555
0.687555
0.687555
0.686074
0.686074
0.686074
0.683503
0.683503
0.683503
0.685005
0.685005
0.685005
0.683794
0.683794
0.683794
0.697592
0.697592
0.697592
0.696246
0.696246
0.696246
0.697149
0.697149
0.697149
0.69081
0.69081
0.69081
0.69271
0.69271
0.69271
0.694619
0.694619
0.694619
0.694942
0.694942
0.694942
0.694214
0.694214
0.694214
0.691983
0.691983
0.691983
0.69389
0.69389
0.69389
0.696897
0.696897
0.696897
0.694527
0.694527
0.694527
0.695259
0.695259
0.695259
0.679126
0.679126
0.679126
0.67722
0.67722
0.67722
0.683601
0.683601
0.683601
0.679689
0.679689
0.679689
0.6831
0.6831
0.6831
0.677413
0.677413
0.677413
0.679318
0.679318
0.679318
0.693455
0.693455
0.693455
0.692127
0.692127
0.692127
0.684794
0.684794
0.684794
0.687985
0.687985
0.687985
0.682934
0.682934
0.682934
0.655541
0.655541
0.655541
0.650822
0.650822
0.650822
0.6501
0.6501
0.6501
0.649872
0.649872
0.649872
0.668801
0.668801
0.668801
0.670687
0.670687
0.670687
0.654855
0.654855
0.654855
0.657294
0.657294
0.657294
0.662366
0.662366
0.662366
0.657535
0.657535
0.657535
0.664517
0.664517
0.664517
0.662119
0.662119
0.662119
0.665972
0.665972
0.665972
0.670156
0.670156
0.670156
0.654613
0.654613
0.654613
0.651777
0.651777
0.651777
0.651775
0.651775
0.651775
0.651681
0.651681
0.651681
0.712051
0.712051
0.712051
0.712011
0.712011
0.712011
0.710355
0.710355
0.710355
0.711405
0.711405
0.711405
0.710983
0.710983
0.710983
0.711204
0.711204
0.711204
0.709449
0.709449
0.709449
0.709684
0.709684
0.709684
0.709896
0.709896
0.709896
0.710137
0.710137
0.710137
0.715258
0.715258
0.715258
0.71503
0.71503
0.71503
0.712945
0.712945
0.712945
0.712099
0.712099
0.712099
0.712627
0.712627
0.712627
0.713325
0.713325
0.713325
0.71036
0.71036
0.71036
0.709497
0.709497
0.709497
0.71453
0.71453
0.71453
0.714611
0.714611
0.714611
0.714368
0.714368
0.714368
0.71218
0.71218
0.71218
0.712402
0.712402
0.712402
0.71035
0.71035
0.71035
0.674752
0.674752
0.674752
0.707384
0.707384
0.707384
0.704591
0.704591
0.704591
0.70917
0.70917
0.70917
0.709599
0.709599
0.709599
0.708748
0.708748
0.708748
0.705407
0.705407
0.705407
0.706662
0.706662
0.706662
0.689479
0.689479
0.689479
0.686439
0.686439
0.686439
0.698157
0.698157
0.698157
0.69699
0.69699
0.69699
0.700017
0.700017
0.700017
0.697994
0.697994
0.697994
0.70087
0.70087
0.70087
0.699845
0.699845
0.699845
0.709132
0.709132
0.709132
0.706238
0.706238
0.706238
0.709317
0.709317
0.709317
0.708652
0.708652
0.708652
0.707365
0.707365
0.707365
0.710394
0.710394
0.710394
0.6922
0.6922
0.6922
0.694894
0.694894
0.694894
0.696089
0.696089
0.696089
0.690701
0.690701
0.690701
0.685328
0.685328
0.685328
0.666308
0.666308
0.666308
0.702435
0.702435
0.702435
0.700696
0.700696
0.700696
0.702067
0.702067
0.702067
0.702773
0.702773
0.702773
0.704053
0.704053
0.704053
0.692841
0.692841
0.692841
0.694168
0.694168
0.694168
0.67507
0.67507
0.67507
0.678953
0.678953
0.678953
0.680701
0.680701
0.680701
0.699123
0.699123
0.699123
0.702579
0.702579
0.702579
0.70015
0.70015
0.70015
0.701877
0.701877
0.701877
0.701683
0.701683
0.701683
0.699959
0.699959
0.699959
0.689846
0.689846
0.689846
0.710679
0.710679
0.710679
0.711866
0.711866
0.711866
0.711807
0.711807
0.711807
0.711945
0.711945
0.711945
0.710411
0.710411
0.710411
0.710737
0.710737
0.710737
0.710257
0.710257
0.710257
0.709989
0.709989
0.709989
0.709891
0.709891
0.709891
0.709617
0.709617
0.709617
0.709107
0.709107
0.709107
0.706792
0.706792
0.706792
0.707653
0.707653
0.707653
0.708505
0.708505
0.708505
0.707855
0.707855
0.707855
0.707573
0.707573
0.707573
0.707085
0.707085
0.707085
0.707284
0.707284
0.707284
0.707938
0.707938
0.707938
0.709803
0.709803
0.709803
0.709174
0.709174
0.709174
0.708196
0.708196
0.708196
0.708664
0.708664
0.708664
0.65615
0.65615
0.65615
0.657347
0.657347
0.657347
0.655252
0.655252
0.655252
0.706273
0.706273
0.706273
0.705537
0.705537
0.705537
0.706156
0.706156
0.706156
0.706181
0.706181
0.706181
0.703199
0.703199
0.703199
0.702629
0.702629
0.702629
0.705917
0.705917
0.705917
0.705804
0.705804
0.705804
0.70429
0.70429
0.70429
0.705551
0.705551
0.705551
0.704811
0.704811
0.704811
0.705439
0.705439
0.705439
0.692463
0.692463
0.692463
0.688717
0.688717
0.688717
0.691341
0.691341
0.691341
0.684416
0.684416
0.684416
0.687413
0.687413
0.687413
0.682913
0.682913
0.682913
0.684607
0.684607
0.684607
0.693266
0.693266
0.693266
0.701484
0.701484
0.701484
0.702381
0.702381
0.702381
0.702993
0.702993
0.702993
0.703774
0.703774
0.703774
0.710024
0.710024
0.710024
0.710468
0.710468
0.710468
0.71081
0.71081
0.71081
0.710409
0.710409
0.710409
0.710746
0.710746
0.710746
0.709469
0.709469
0.709469
0.709367
0.709367
0.709367
0.708629
0.708629
0.708629
0.708481
0.708481
0.708481
0.709164
0.709164
0.709164
0.709016
0.709016
0.709016
0.709323
0.709323
0.709323
0.709275
0.709275
0.709275
0.709999
0.709999
0.709999
0.709403
0.709403
0.709403
0.709094
0.709094
0.709094
0.708871
0.708871
0.708871
0.709187
0.709187
0.709187
0.709007
0.709007
0.709007
0.707781
0.707781
0.707781
0.70808
0.70808
0.70808
0.708451
0.708451
0.708451
0.706501
0.706501
0.706501
0.706619
0.706619
0.706619
0.707161
0.707161
0.707161
0.711618
0.711618
0.711618
0.711446
0.711446
0.711446
0.711301
0.711301
0.711301
0.711699
0.711699
0.711699
0.711837
0.711837
0.711837
0.712109
0.712109
0.712109
0.707509
0.707509
0.707509
0.707039
0.707039
0.707039
0.706374
0.706374
0.706374
0.706886
0.706886
0.706886
0.707201
0.707201
0.707201
0.706727
0.706727
0.706727
0.706789
0.706789
0.706789
0.705515
0.705515
0.705515
0.705227
0.705227
0.705227
0.70586
0.70586
0.70586
0.704806
0.704806
0.704806
0.70484
0.70484
0.70484
0.704735
0.704735
0.704735
0.706412
0.706412
0.706412
0.706247
0.706247
0.706247
0.705201
0.705201
0.705201
0.700926
0.700926
0.700926
0.708663
0.708663
0.708663
0.708329
0.708329
0.708329
0.708293
0.708293
0.708293
0.708456
0.708456
0.708456
0.707872
0.707872
0.707872
0.708114
0.708114
0.708114
0.698017
0.698017
0.698017
0.675832
0.675832
0.675832
0.67916
0.67916
0.67916
0.680871
0.680871
0.680871
0.674203
0.674203
0.674203
0.701166
0.701166
0.701166
0.702103
0.702103
0.702103
0.69781
0.69781
0.69781
0.700477
0.700477
0.700477
0.699331
0.699331
0.699331
0.69899
0.69899
0.69899
0.698523
0.698523
0.698523
0.701015
0.701015
0.701015
0.700131
0.700131
0.700131
0.700811
0.700811
0.700811
0.702347
0.702347
0.702347
0.70309
0.70309
0.70309
0.701989
0.701989
0.701989
0.701741
0.701741
0.701741
0.703223
0.703223
0.703223
0.702725
0.702725
0.702725
0.703221
0.703221
0.703221
0.70424
0.70424
0.70424
0.704581
0.704581
0.704581
0.703844
0.703844
0.703844
0.703781
0.703781
0.703781
0.683814
0.683814
0.683814
0.682324
0.682324
0.682324
0.678928
0.678928
0.678928
0.682118
0.682118
0.682118
0.686582
0.686582
0.686582
0.69203
0.69203
0.69203
0.686798
0.686798
0.686798
0.690699
0.690699
0.690699
0.688087
0.688087
0.688087
0.677601
0.677601
0.677601
0.677784
0.677784
0.677784
0.679506
0.679506
0.679506
0.695761
0.695761
0.695761
0.699763
0.699763
0.699763
0.696931
0.696931
0.696931
0.698932
0.698932
0.698932
0.681465
0.681465
0.681465
0.692607
0.692607
0.692607
0.694831
0.694831
0.694831
0.698126
0.698126
0.698126
0.69557
0.69557
0.69557
0.697213
0.697213
0.697213
0.693196
0.693196
0.693196
0.674994
0.674994
0.674994
0.676649
0.676649
0.676649
0.670945
0.670945
0.670945
0.674737
0.674737
0.674737
0.671441
0.671441
0.671441
0.66284
0.66284
0.66284
0.665237
0.665237
0.665237
0.669537
0.669537
0.669537
0.692297
0.692297
0.692297
0.676905
0.676905
0.676905
0.675244
0.675244
0.675244
0.677155
0.677155
0.677155
0.680511
0.680511
0.680511
0.690242
0.690242
0.690242
0.687867
0.687867
0.687867
0.682211
0.682211
0.682211
0.687169
0.687169
0.687169
0.685901
0.685901
0.685901
0.687408
0.687408
0.687408
0.65509
0.65509
0.65509
0.655319
0.655319
0.655319
0.657769
0.657769
0.657769
0.64943
0.64943
0.64943
0.664263
0.664263
0.664263
0.668272
0.668272
0.668272
0.670422
0.670422
0.670422
0.668541
0.668541
0.668541
0.651514
0.651514
0.651514
0.651524
0.651524
0.651524
0.651627
0.651627
0.651627
0.651575
0.651575
0.651575
0.651638
0.651638
0.651638
0.651643
0.651643
0.651643
0.651548
0.651548
0.651548
0.651726
0.651726
0.651726
0.651628
0.651628
0.651628
0.651676
0.651676
0.651676
0.651573
0.651573
0.651573
0.651899
0.651899
0.651899
0.651956
0.651956
0.651956
0.712389
0.712389
0.712389
0.712567
0.712567
0.712567
0.712201
0.712201
0.712201
0.710779
0.710779
0.710779
0.711182
0.711182
0.711182
0.711374
0.711374
0.711374
0.711601
0.711601
0.711601
0.712197
0.712197
0.712197
0.711812
0.711812
0.711812
0.710927
0.710927
0.710927
0.71141
0.71141
0.71141
0.70966
0.70966
0.70966
0.709209
0.709209
0.709209
0.70942
0.70942
0.70942
0.710351
0.710351
0.710351
0.710126
0.710126
0.710126
0.709912
0.709912
0.709912
0.715056
0.715056
0.715056
0.714888
0.714888
0.714888
0.714872
0.714872
0.714872
0.71532
0.71532
0.71532
0.715144
0.715144
0.715144
0.715136
0.715136
0.715136
0.711884
0.711884
0.711884
0.70721
0.70721
0.70721
0.707876
0.707876
0.707876
0.708929
0.708929
0.708929
0.709315
0.709315
0.709315
0.708747
0.708747
0.708747
0.707697
0.707697
0.707697
0.709674
0.709674
0.709674
0.707555
0.707555
0.707555
0.709107
0.709107
0.709107
0.70805
0.70805
0.70805
0.710715
0.710715
0.710715
0.711191
0.711191
0.711191
0.710539
0.710539
0.710539
0.711917
0.711917
0.711917
0.711706
0.711706
0.711706
0.711015
0.711015
0.711015
0.710837
0.710837
0.710837
0.711523
0.711523
0.711523
0.707885
0.707885
0.707885
0.706922
0.706922
0.706922
0.706768
0.706768
0.706768
0.706149
0.706149
0.706149
0.713387
0.713387
0.713387
0.714493
0.714493
0.714493
0.714035
0.714035
0.714035
0.714545
0.714545
0.714545
0.714719
0.714719
0.714719
0.714705
0.714705
0.714705
0.714537
0.714537
0.714537
0.714281
0.714281
0.714281
0.714446
0.714446
0.714446
0.714202
0.714202
0.714202
0.713965
0.713965
0.713965
0.714131
0.714131
0.714131
0.710524
0.710524
0.710524
0.710126
0.710126
0.710126
0.709878
0.709878
0.709878
0.71034
0.71034
0.71034
0.711926
0.711926
0.711926
0.711961
0.711961
0.711961
0.709857
0.709857
0.709857
0.709949
0.709949
0.709949
0.711897
0.711897
0.711897
0.709461
0.709461
0.709461
0.70898
0.70898
0.70898
0.710907
0.710907
0.710907
0.710582
0.710582
0.710582
0.710807
0.710807
0.710807
0.710308
0.710308
0.710308
0.676775
0.676775
0.676775
0.682479
0.682479
0.682479
0.680693
0.680693
0.680693
0.680576
0.680576
0.680576
0.668155
0.668155
0.668155
0.670447
0.670447
0.670447
0.69527
0.69527
0.69527
0.70312
0.70312
0.70312
0.706118
0.706118
0.706118
0.705947
0.705947
0.705947
0.705344
0.705344
0.705344
0.703847
0.703847
0.703847
0.705172
0.705172
0.705172
0.687264
0.687264
0.687264
0.6857
0.6857
0.6857
0.682359
0.682359
0.682359
0.700891
0.700891
0.700891
0.702811
0.702811
0.702811
0.708507
0.708507
0.708507
0.704323
0.704323
0.704323
0.703897
0.703897
0.703897
0.703748
0.703748
0.703748
0.704639
0.704639
0.704639
0.709795
0.709795
0.709795
0.710078
0.710078
0.710078
0.710752
0.710752
0.710752
0.712141
0.712141
0.712141
0.711778
0.711778
0.711778
0.673509
0.673509
0.673509
0.686584
0.686584
0.686584
0.684892
0.684892
0.684892
0.69746
0.69746
0.69746
0.701528
0.701528
0.701528
0.694972
0.694972
0.694972
0.689626
0.689626
0.689626
0.693647
0.693647
0.693647
0.690978
0.690978
0.690978
0.701369
0.701369
0.701369
0.700505
0.700505
0.700505
0.698474
0.698474
0.698474
0.697307
0.697307
0.697307
0.698318
0.698318
0.698318
0.700346
0.700346
0.700346
0.694661
0.694661
0.694661
0.693493
0.693493
0.693493
0.690826
0.690826
0.690826
0.708564
0.708564
0.708564
0.708943
0.708943
0.708943
0.70733
0.70733
0.70733
0.708373
0.708373
0.708373
0.703506
0.703506
0.703506
0.702612
0.702612
0.702612
0.704815
0.704815
0.704815
0.703329
0.703329
0.703329
0.710127
0.710127
0.710127
0.705352
0.705352
0.705352
0.706736
0.706736
0.706736
0.705215
0.705215
0.705215
0.704459
0.704459
0.704459
0.708797
0.708797
0.708797
0.709462
0.709462
0.709462
0.708934
0.708934
0.708934
0.707505
0.707505
0.707505
0.70764
0.70764
0.70764
0.706875
0.706875
0.706875
0.677963
0.677963
0.677963
0.674101
0.674101
0.674101
0.672134
0.672134
0.672134
0.661386
0.661386
0.661386
0.696827
0.696827
0.696827
0.697827
0.697827
0.697827
0.696659
0.696659
0.696659
0.704831
0.704831
0.704831
0.70425
0.70425
0.70425
0.706275
0.706275
0.706275
0.705027
0.705027
0.705027
0.70463
0.70463
0.70463
0.703852
0.703852
0.703852
0.693996
0.693996
0.693996
0.692669
0.692669
0.692669
0.696487
0.696487
0.696487
0.700519
0.700519
0.700519
0.699671
0.699671
0.699671
0.697655
0.697655
0.697655
0.693011
0.693011
0.693011
0.690352
0.690352
0.690352
0.689014
0.689014
0.689014
0.694337
0.694337
0.694337
0.668702
0.668702
0.668702
0.673082
0.673082
0.673082
0.684133
0.684133
0.684133
0.690187
0.690187
0.690187
0.688852
0.688852
0.688852
0.685826
0.685826
0.685826
0.697118
0.697118
0.697118
0.696133
0.696133
0.696133
0.69382
0.69382
0.69382
0.692493
0.692493
0.692493
0.695949
0.695949
0.695949
0.69364
0.69364
0.69364
0.683805
0.683805
0.683805
0.690018
0.690018
0.690018
0.688687
0.688687
0.688687
0.685664
0.685664
0.685664
0.683971
0.683971
0.683971
0.688518
0.688518
0.688518
0.685497
0.685497
0.685497
0.673645
0.673645
0.673645
0.675646
0.675646
0.675646
0.679541
0.679541
0.679541
0.681444
0.681444
0.681444
0.695122
0.695122
0.695122
0.693945
0.693945
0.693945
0.69127
0.69127
0.69127
0.689771
0.689771
0.689771
0.691125
0.691125
0.691125
0.693797
0.693797
0.693797
0.71133
0.71133
0.71133
0.710997
0.710997
0.710997
0.710938
0.710938
0.710938
0.711599
0.711599
0.711599
0.711581
0.711581
0.711581
0.711254
0.711254
0.711254
0.708948
0.708948
0.708948
0.708223
0.708223
0.708223
0.709387
0.709387
0.709387
0.708974
0.708974
0.708974
0.708391
0.708391
0.708391
0.708673
0.708673
0.708673
0.709253
0.709253
0.709253
0.708715
0.708715
0.708715
0.708922
0.708922
0.708922
0.708458
0.708458
0.708458
0.710435
0.710435
0.710435
0.709303
0.709303
0.709303
0.709557
0.709557
0.709557
0.709732
0.709732
0.709732
0.710295
0.710295
0.710295
0.710683
0.710683
0.710683
0.70998
0.70998
0.70998
0.710542
0.710542
0.710542
0.657176
0.657176
0.657176
0.657157
0.657157
0.657157
0.657101
0.657101
0.657101
0.654053
0.654053
0.654053
0.653768
0.653768
0.653768
0.653982
0.653982
0.653982
0.654368
0.654368
0.654368
0.654119
0.654119
0.654119
0.653917
0.653917
0.653917
0.652948
0.652948
0.652948
0.653777
0.653777
0.653777
0.653491
0.653491
0.653491
0.653268
0.653268
0.653268
0.653633
0.653633
0.653633
0.653532
0.653532
0.653532
0.653186
0.653186
0.653186
0.657296
0.657296
0.657296
0.657387
0.657387
0.657387
0.657385
0.657385
0.657385
0.657292
0.657292
0.657292
0.65721
0.65721
0.65721
0.657304
0.657304
0.657304
0.657225
0.657225
0.657225
0.653949
0.653949
0.653949
0.654551
0.654551
0.654551
0.703904
0.703904
0.703904
0.704433
0.704433
0.704433
0.705067
0.705067
0.705067
0.704394
0.704394
0.704394
0.705178
0.705178
0.705178
0.703792
0.703792
0.703792
0.703969
0.703969
0.703969
0.704665
0.704665
0.704665
0.70434
0.70434
0.70434
0.705029
0.705029
0.705029
0.696134
0.696134
0.696134
0.695168
0.695168
0.695168
0.692671
0.692671
0.692671
0.694963
0.694963
0.694963
0.691133
0.691133
0.691133
0.69225
0.69225
0.69225
0.690919
0.690919
0.690919
0.688302
0.688302
0.688302
0.682525
0.682525
0.682525
0.68422
0.68422
0.68422
0.687214
0.687214
0.687214
0.688512
0.688512
0.688512
0.684019
0.684019
0.684019
0.687008
0.687008
0.687008
0.695568
0.695568
0.695568
0.698736
0.698736
0.698736
0.696738
0.696738
0.696738
0.699563
0.699563
0.699563
0.693073
0.693073
0.693073
0.687799
0.687799
0.687799
0.689301
0.689301
0.689301
0.691938
0.691938
0.691938
0.695371
0.695371
0.695371
0.696542
0.696542
0.696542
0.698536
0.698536
0.698536
0.696339
0.696339
0.696339
0.69812
0.69812
0.69812
0.701538
0.701538
0.701538
0.703215
0.703215
0.703215
0.703996
0.703996
0.703996
0.710021
0.710021
0.710021
0.710211
0.710211
0.710211
0.709474
0.709474
0.709474
0.709655
0.709655
0.709655
0.709569
0.709569
0.709569
0.709623
0.709623
0.709623
0.709767
0.709767
0.709767
0.705225
0.705225
0.705225
0.707261
0.707261
0.707261
0.706915
0.706915
0.706915
0.705897
0.705897
0.705897
0.708088
0.708088
0.708088
0.709694
0.709694
0.709694
0.709364
0.709364
0.709364
0.708886
0.708886
0.708886
0.709619
0.709619
0.709619
0.711072
0.711072
0.711072
0.710823
0.710823
0.710823
0.710539
0.710539
0.710539
0.710551
0.710551
0.710551
0.709711
0.709711
0.709711
0.710139
0.710139
0.710139
0.709335
0.709335
0.709335
0.710195
0.710195
0.710195
0.709429
0.709429
0.709429
0.70986
0.70986
0.70986
0.710804
0.710804
0.710804
0.711039
0.711039
0.711039
0.710475
0.710475
0.710475
0.710338
0.710338
0.710338
0.710564
0.710564
0.710564
0.710614
0.710614
0.710614
0.709494
0.709494
0.709494
0.709704
0.709704
0.709704
0.709794
0.709794
0.709794
0.709624
0.709624
0.709624
0.708775
0.708775
0.708775
0.709051
0.709051
0.709051
0.70932
0.70932
0.70932
0.708772
0.708772
0.708772
0.70909
0.70909
0.70909
0.709362
0.709362
0.709362
0.708071
0.708071
0.708071
0.708449
0.708449
0.708449
0.708546
0.708546
0.708546
0.708359
0.708359
0.708359
0.708213
0.708213
0.708213
0.708022
0.708022
0.708022
0.707403
0.707403
0.707403
0.707785
0.707785
0.707785
0.706958
0.706958
0.706958
0.707821
0.707821
0.707821
0.706072
0.706072
0.706072
0.70729
0.70729
0.70729
0.706559
0.706559
0.706559
0.707167
0.707167
0.707167
0.706228
0.706228
0.706228
0.706838
0.706838
0.706838
0.711072
0.711072
0.711072
0.711558
0.711558
0.711558
0.711088
0.711088
0.711088
0.711332
0.711332
0.711332
0.711345
0.711345
0.711345
0.711588
0.711588
0.711588
0.711846
0.711846
0.711846
0.712053
0.712053
0.712053
0.712188
0.712188
0.712188
0.71208
0.71208
0.71208
0.71229
0.71229
0.71229
0.712136
0.712136
0.712136
0.712003
0.712003
0.712003
0.711915
0.711915
0.711915
0.711955
0.711955
0.711955
0.712181
0.712181
0.712181
0.712146
0.712146
0.712146
0.712237
0.712237
0.712237
0.712371