<VTKFile type="UnstructuredGrid" version="1.0">
<UnstructuredGrid>
<Piece NumberOfPoints="8859" NumberOfCells="2953">
<Points>
<DataArray type="Float64" NumberOfComponents="3" format="ascii">
2.75455 1.50245 0.912625
2.76986 1.48714 0.924584
2.75465 1.50235 0.938328
2.78515 1.47185 0.861673
2.78516 1.47184 0.836515
2.8005 1.4565 0.84898
2.76981 1.48719 0.874362
2.78515 1.47185 0.861673
2.78514 1.47186 0.886856
2.72412 1.53288 0.96488
2.73952 1.51748 0.9725
2.70875 1.54825 0.9725
2.72412 1.53288 0.96488
2.73943 1.51757 0.949569
2.73952 1.51748 0.9725
2.75488 1.50212 0.964788
2.77036 1.48664 0.9725
2.73952 1.51748 0.9725
2.75488 1.50212 0.964788
2.73943 1.51757 0.949569
2.75465 1.50235 0.938328
2.73952 1.51748 0.9725
2.73943 1.51757 0.949569
2.75488 1.50212 0.964788
2.75465 1.50235 0.938328
2.76986 1.48714 0.924584
2.76997 1.48703 0.94927
2.76997 1.48703 0.94927
2.75488 1.50212 0.964788
2.75465 1.50235 0.938328
2.77036 1.48664 0.9725
2.75488 1.50212 0.964788
2.76997 1.48703 0.94927
2.76986 1.48714 0.924584
2.75455 1.50245 0.912625
2.76982 1.48718 0.899521
2.76981 1.48719 0.874362
2.78514 1.47186 0.886856
2.76982 1.48718 0.899521
2.7852 1.4718 0.937625
2.76997 1.48703 0.94927
2.76986 1.48714 0.924584
2.8005 1.4565 0.923949
2.8005 1.4565 0.948552
2.7852 1.4718 0.937625
2.8005 1.4565 0.823871
2.8005 1.4565 0.84898
2.78516 1.47184 0.836515
2.78515 1.47185 0.861673
2.8005 1.4565 0.84898
2.8005 1.4565 0.874055
2.8005 1.4565 0.874055
2.78514 1.47186 0.886856
2.78515 1.47185 0.861673
2.8005 1.4565 0.29652
2.8005 1.4565 0.321651
2.78518 1.47182 0.309069
2.78517 1.47183 0.76107
2.8005 1.4565 0.773613
2.78517 1.47183 0.786215
2.8005 1.4565 0.74848
2.8005 1.4565 0.773613
2.78517 1.47183 0.76107
2.78519 1.47181 0.635442
2.8005 1.4565 0.647992
2.78519 1.47181 0.660554
2.32274 1.93426 0.0805869
2.33845 1.91855 0.0725
2.33845 1.91855 0.095634
2.27541 1.98159 0.9725
2.24359 2.01341 0.9725
2.25954 1.99746 0.964321
2.78515 1.47185 0.912117
2.76982 1.48718 0.899521
2.78514 1.47186 0.886856
2.76986 1.48714 0.924584
2.76982 1.48718 0.899521
2.78515 1.47185 0.912117
2.78515 1.47185 0.912117
2.7852 1.4718 0.937625
2.76986 1.48714 0.924584
2.8005 1.4565 0.923949
2.7852 1.4718 0.937625
2.78515 1.47185 0.912117
2.78544 1.47156 0.963839
2.8005 1.4565 0.948552
2.8005 1.4565 0.9725
2.78544 1.47156 0.963839
2.7852 1.4718 0.937625
2.8005 1.4565 0.948552
2.8005 1.4565 0.9725
2.77036 1.48664 0.9725
2.78544 1.47156 0.963839
2.77036 1.48664 0.9725
2.76997 1.48703 0.94927
2.78544 1.47156 0.963839
2.76997 1.48703 0.94927
2.7852 1.4718 0.937625
2.78544 1.47156 0.963839
2.78517 1.47183 0.786215
2.8005 1.4565 0.773613
2.8005 1.4565 0.798745
2.78514 1.47186 0.886856
2.8005 1.4565 0.874055
2.8005 1.4565 0.899067
2.8005 1.4565 0.923949
2.78515 1.47185 0.912117
2.8005 1.4565 0.899067
2.8005 1.4565 0.899067
2.78515 1.47185 0.912117
2.78514 1.47186 0.886856
2.8005 1.4565 0.622885
2.8005 1.4565 0.647992
2.78519 1.47181 0.635442
2.78518 1.47182 0.309069
2.8005 1.4565 0.321651
2.78518 1.47182 0.334202
2.76985 1.48715 0.748526
2.75454 1.50246 0.735977
2.76986 1.48714 0.723383
2.78516 1.47184 0.811363
2.8005 1.4565 0.823871
2.78516 1.47184 0.836515
2.78516 1.47184 0.811363
2.8005 1.4565 0.798745
2.8005 1.4565 0.823871
2.78516 1.47184 0.811363
2.76984 1.48716 0.798839
2.78517 1.47183 0.786215
2.78517 1.47183 0.786215
2.8005 1.4565 0.798745
2.78516 1.47184 0.811363
2.76982 1.48718 0.849184
2.78515 1.47185 0.861673
2.76981 1.48719 0.874362
2.76982 1.48718 0.849184
2.78516 1.47184 0.836515
2.78515 1.47185 0.861673
2.75451 1.50249 0.81149
2.7392 1.5178 0.824146
2.73921 1.51779 0.798941
2.53996 1.71704 0.938376
2.52458 1.73242 0.924896
2.53996 1.71704 0.91275
2.49374 1.76326 0.773805
2.49375 1.76325 0.799
2.47832 1.77868 0.786392
2.8005 1.4565 0.0725
2.8005 1.4565 0.096448
2.78544 1.47156 0.0811606
2.27543 1.98157 0.949328
2.27541 1.98159 0.9725
2.25954 1.99746 0.964321
2.33845 1.91855 0.874462
2.32276 1.93424 0.88714
2.32275 1.93425 0.861854
2.25954 1.99746 0.964321
2.24359 2.01341 0.9725
2.24374 2.01326 0.949228
2.76987 1.48713 0.396996
2.75455 1.50245 0.384429
2.76987 1.48713 0.371878
2.8005 1.4565 0.547592
2.78519 1.47181 0.535047
2.8005 1.4565 0.5225
2.78519 1.47181 0.585237
2.8005 1.4565 0.572686
2.8005 1.4565 0.597784
2.76988 1.48712 0.497406
2.75456 1.50244 0.509952
2.75456 1.50244 0.484856
2.76988 1.48712 0.5225
2.75456 1.50244 0.509952
2.76988 1.48712 0.497406
2.78519 1.47181 0.535047
2.76988 1.48712 0.547594
2.76988 1.48712 0.5225
2.75455 1.50245 0.660571
2.76987 1.48713 0.673122
2.75455 1.50245 0.685697
2.72393 1.53307 0.635467
2.72392 1.53308 0.660589
2.70861 1.54839 0.648033
2.75456 1.50244 0.635455
2.73924 1.51776 0.622905
2.75456 1.50244 0.610346
2.75456 1.50244 0.610346
2.76987 1.48713 0.622894
2.75456 1.50244 0.635455
2.73924 1.51776 0.622905
2.73925 1.51775 0.597797
2.75456 1.50244 0.610346
2.75456 1.50244 0.610346
2.73925 1.51775 0.597797
2.75456 1.50244 0.585242
2.8005 1.4565 0.597784
2.8005 1.4565 0.622885
2.78519 1.47181 0.610337
2.78519 1.47181 0.610337
2.78519 1.47181 0.585237
2.8005 1.4565 0.597784
2.78519 1.47181 0.610337
2.8005 1.4565 0.622885
2.78519 1.47181 0.635442
2.78519 1.47181 0.635442
2.76987 1.48713 0.622894
2.78519 1.47181 0.610337
2.75454 1.50246 0.710831
2.73923 1.51777 0.698277
2.75455 1.50245 0.685697
2.75454 1.50246 0.710831
2.76986 1.48714 0.723383
2.75454 1.50246 0.735977
2.7086 1.5484 0.698302
2.72392 1.53308 0.68572
2.72392 1.53308 0.710864
2.72392 1.53308 0.710864
2.72392 1.53308 0.68572
2.73923 1.51777 0.698277
2.8005 1.4565 0.673105
2.78519 1.47181 0.660554
2.8005 1.4565 0.647992
2.75455 1.50245 0.685697
2.76987 1.48713 0.673122
2.76986 1.48714 0.698248
2.76986 1.48714 0.698248
2.75454 1.50246 0.710831
2.75455 1.50245 0.685697
2.76986 1.48714 0.723383
2.75454 1.50246 0.710831
2.76986 1.48714 0.698248
2.78517 1.47183 0.786215
2.76984 1.48716 0.798839
2.76985 1.48715 0.773678
2.76985 1.48715 0.773678
2.78517 1.47183 0.76107
2.78517 1.47183 0.786215
2.76985 1.48715 0.748526
2.78517 1.47183 0.76107
2.76985 1.48715 0.773678
2.73921 1.51779 0.798941
2.73921 1.51779 0.773753
2.75452 1.50248 0.786304
2.75452 1.50248 0.786304
2.75451 1.50249 0.81149
2.73921 1.51779 0.798941
2.76984 1.48716 0.798839
2.75451 1.50249 0.81149
2.75452 1.50248 0.786304
2.75452 1.50248 0.786304
2.76985 1.48715 0.773678
2.76984 1.48716 0.798839
2.7239 1.5331 0.786381
2.73921 1.51779 0.773753
2.73921 1.51779 0.798941
2.7239 1.5331 0.786381
2.70859 1.54841 0.799009
2.70859 1.54841 0.773807
2.76981 1.48719 0.874362
2.76982 1.48718 0.899521
2.75451 1.50249 0.887217
2.75451 1.50249 0.887217
2.76982 1.48718 0.899521
2.75455 1.50245 0.912625
2.7392 1.5178 0.824146
2.75451 1.50249 0.81149
2.75451 1.50249 0.836694
2.75451 1.50249 0.836694
2.7392 1.5178 0.849368
2.7392 1.5178 0.824146
2.67798 1.57902 0.673174
2.66266 1.59434 0.685749
2.66266 1.59434 0.660611
2.70859 1.54841 0.773807
2.70859 1.54841 0.748623
2.7239 1.5331 0.761192
2.7239 1.5331 0.761192
2.7239 1.5331 0.786381
2.70859 1.54841 0.773807
2.73921 1.51779 0.773753
2.7239 1.5331 0.786381
2.7239 1.5331 0.761192
2.73922 1.51778 0.748581
2.73921 1.51779 0.773753
2.7239 1.5331 0.761192
2.57068 1.68632 0.912763
2.57068 1.68632 0.93839
2.55533 1.70167 0.924907
2.55533 1.70167 0.924907
2.57068 1.68632 0.93839
2.55533 1.70167 0.949497
2.55533 1.70167 0.924907
2.55533 1.70167 0.949497
2.53996 1.71704 0.938376
2.53996 1.71704 0.938376
2.53996 1.71704 0.91275
2.55533 1.70167 0.924907
2.52458 1.73242 0.899845
2.53996 1.71704 0.91275
2.52458 1.73242 0.924896
2.50912 1.74788 0.53505
2.50912 1.74788 0.56015
2.49371 1.76329 0.547599
2.41633 1.84067 0.660564
2.40077 1.85623 0.647996
2.41632 1.84068 0.635447
2.41635 1.84065 0.710832
2.40081 1.85619 0.723393
2.40079 1.85621 0.698249
2.33845 1.91855 0.874462
2.32275 1.93425 0.861854
2.33843 1.91857 0.849241
2.33845 1.91855 0.899657
2.32276 1.93424 0.88714
2.33845 1.91855 0.874462
2.40087 1.85613 0.824121
2.40088 1.85612 0.849338
2.38531 1.87169 0.836717
2.30693 1.95007 0.773576
2.32265 1.93435 0.761025
2.32267 1.93433 0.786199
2.30684 1.95016 0.67303
2.29108 1.96592 0.685563
2.29106 1.96594 0.660458
2.32274 1.93426 0.964413
2.33845 1.91855 0.9725
2.30701 1.94999 0.9725
2.33845 1.91855 0.949366
2.33845 1.91855 0.9725
2.32274 1.93426 0.964413
2.35411 1.90289 0.964474
2.33845 1.91855 0.9725
2.33845 1.91855 0.949366
2.30704 1.94996 0.89961
2.30703 1.94997 0.924693
2.29128 1.96572 0.912459
2.55533 1.70167 0.9725
2.52458 1.73242 0.9725
2.53996 1.71704 0.964721
2.53996 1.71704 0.938376
2.55533 1.70167 0.949497
2.53996 1.71704 0.964721
2.53996 1.71704 0.964721
2.55533 1.70167 0.949497
2.55533 1.70167 0.9725
2.52458 1.73242 0.949489
2.52458 1.73242 0.924896
2.53996 1.71704 0.938376
2.53996 1.71704 0.938376
2.53996 1.71704 0.964721
2.52458 1.73242 0.949489
2.52458 1.73242 0.949489
2.53996 1.71704 0.964721
2.52458 1.73242 0.9725
2.41642 1.84058 0.836759
2.40088 1.85612 0.849338
2.40087 1.85613 0.824121
2.47831 1.77869 0.761204
2.49374 1.76326 0.748624
2.49374 1.76326 0.773805
2.49374 1.76326 0.773805
2.47832 1.77868 0.786392
2.47831 1.77869 0.761204
2.47833 1.77867 0.811596
2.47832 1.77868 0.786392
2.49375 1.76325 0.799
2.47833 1.77867 0.811596
2.49375 1.76325 0.799
2.49376 1.76324 0.824208
2.49376 1.76324 0.824208
2.47834 1.77866 0.836818
2.47833 1.77867 0.811596
2.47833 1.77867 0.811596
2.47834 1.77866 0.836818
2.46289 1.79411 0.824187
2.49377 1.76323 0.849427
2.47834 1.77866 0.836818
2.49376 1.76324 0.824208
2.49377 1.76323 0.874644
2.47835 1.77865 0.887342
2.47834 1.77866 0.862061
2.47834 1.77866 0.862061
2.49377 1.76323 0.849427
2.49377 1.76323 0.874644
2.47834 1.77866 0.836818
2.49377 1.76323 0.849427
2.47834 1.77866 0.862061
2.7852 1.4718 0.107375
2.78544 1.47156 0.0811606
2.8005 1.4565 0.096448
2.76997 1.48703 0.0957297
2.78544 1.47156 0.0811606
2.7852 1.4718 0.107375
2.64739 1.60961 0.0954754
2.64738 1.60962 0.0725
2.66272 1.59428 0.0802084
2.70875 1.54825 0.0725
2.6934 1.5636 0.0801683
2.67805 1.57895 0.0725
2.67805 1.57895 0.0725
2.66272 1.59428 0.0802084
[...]
<PointData Scalars="View Factor" >
<DataArray type="Float64" Name="View Factor" NumberOfComponents="1" format="ascii">
3.84225e-05
3.84225e-05
3.84225e-05
3.92076e-05
3.92076e-05
3.92076e-05
3.89487e-05
3.89487e-05
3.89487e-05
3.70815e-05
3.70815e-05
3.70815e-05
3.75139e-05
3.75139e-05
3.75139e-05
3.85954e-05
3.85954e-05
3.85954e-05
3.81664e-05
3.81664e-05
3.81664e-05
3.8017e-05
3.8017e-05
3.8017e-05
3.87851e-05
3.87851e-05
3.87851e-05
3.86641e-05
3.86641e-05
3.86641e-05
3.90251e-05
3.90251e-05
3.90251e-05
3.85528e-05
3.85528e-05
3.85528e-05
3.88147e-05
3.88147e-05
3.88147e-05
3.928e-05
3.928e-05
3.928e-05
4.02712e-05
4.02712e-05
4.02712e-05
3.93364e-05
3.93364e-05
3.93364e-05
3.95677e-05
3.95677e-05
3.95677e-05
3.94398e-05
3.94398e-05
3.94398e-05
3.48446e-05
3.48446e-05
3.48446e-05
3.8525e-05
3.8525e-05
3.8525e-05
3.8652e-05
3.8652e-05
3.8652e-05
3.74214e-05
3.74214e-05
3.74214e-05
1.85785e-05
1.85785e-05
1.85785e-05
2.31229e-05
2.31229e-05
2.31229e-05
3.91765e-05
3.91765e-05
3.91765e-05
3.90462e-05
3.90462e-05
3.90462e-05
3.94122e-05
3.94122e-05
3.94122e-05
3.99075e-05
3.99075e-05
3.99075e-05
4.05116e-05
4.05116e-05
4.05116e-05
4.015e-05
4.015e-05
4.015e-05
4.00975e-05
4.00975e-05
4.00975e-05
3.95223e-05
3.95223e-05
3.95223e-05
3.96539e-05
3.96539e-05
3.96539e-05
3.88785e-05
3.88785e-05
3.88785e-05
3.98005e-05
3.98005e-05
3.98005e-05
4.00349e-05
4.00349e-05
4.00349e-05
3.96699e-05
3.96699e-05
3.96699e-05
3.7544e-05
3.7544e-05
3.7544e-05
3.47291e-05
3.47291e-05
3.47291e-05
3.70031e-05
3.70031e-05
3.70031e-05
3.89771e-05
3.89771e-05
3.89771e-05
3.91066e-05
3.91066e-05
3.91066e-05
3.82696e-05
3.82696e-05
3.82696e-05
3.87523e-05
3.87523e-05
3.87523e-05
3.85896e-05
3.85896e-05
3.85896e-05
3.87192e-05
3.87192e-05
3.87192e-05
3.66864e-05
3.66864e-05
3.66864e-05
2.75014e-05
2.75014e-05
2.75014e-05
2.44582e-05
2.44582e-05
2.44582e-05
3.3122e-05
3.3122e-05
3.3122e-05
2.30242e-05
2.30242e-05
2.30242e-05
2.22664e-05
2.22664e-05
2.22664e-05
2.3137e-05
2.3137e-05
2.3137e-05
3.41296e-05
3.41296e-05
3.41296e-05
3.66868e-05
3.66868e-05
3.66868e-05
3.71122e-05
3.71122e-05
3.71122e-05
3.47974e-05
3.47974e-05
3.47974e-05
3.51243e-05
3.51243e-05
3.51243e-05
3.5778e-05
3.5778e-05
3.5778e-05
3.62323e-05
3.62323e-05
3.62323e-05
3.41594e-05
3.41594e-05
3.41594e-05
3.53519e-05
3.53519e-05
3.53519e-05
3.58149e-05
3.58149e-05
3.58149e-05
3.50203e-05
3.50203e-05
3.50203e-05
3.51482e-05
3.51482e-05
3.51482e-05
3.73274e-05
3.73274e-05
3.73274e-05
3.69881e-05
3.69881e-05
3.69881e-05
3.72039e-05
3.72039e-05
3.72039e-05
3.67409e-05
3.67409e-05
3.67409e-05
3.5971e-05
3.5971e-05
3.5971e-05
3.66572e-05
3.66572e-05
3.66572e-05
3.45606e-05
3.45606e-05
3.45606e-05
3.50315e-05
3.50315e-05
3.50315e-05
3.77623e-05
3.77623e-05
3.77623e-05
3.65712e-05
3.65712e-05
3.65712e-05
3.64421e-05
3.64421e-05
3.64421e-05
3.67844e-05
3.67844e-05
3.67844e-05
3.79173e-05
3.79173e-05
3.79173e-05
3.80452e-05
3.80452e-05
3.80452e-05
3.76938e-05
3.76938e-05
3.76938e-05
3.64747e-05
3.64747e-05
3.64747e-05
3.68226e-05
3.68226e-05
3.68226e-05
3.73048e-05
3.73048e-05
3.73048e-05
3.74363e-05
3.74363e-05
3.74363e-05
3.59942e-05
3.59942e-05
3.59942e-05
3.50308e-05
3.50308e-05
3.50308e-05
3.83233e-05
3.83233e-05
3.83233e-05
3.81944e-05
3.81944e-05
3.81944e-05
3.70379e-05
3.70379e-05
3.70379e-05
3.69038e-05
3.69038e-05
3.69038e-05
3.20191e-05
3.20191e-05
3.20191e-05
3.48277e-05
3.48277e-05
3.48277e-05
3.51679e-05
3.51679e-05
3.51679e-05
3.5647e-05
3.5647e-05
3.5647e-05
3.57818e-05
3.57818e-05
3.57818e-05
2.89905e-05
2.89905e-05
2.89905e-05
2.88267e-05
2.88267e-05
2.88267e-05
2.83286e-05
2.83286e-05
2.83286e-05
2.79981e-05
2.79981e-05
2.79981e-05
2.71693e-05
2.71693e-05
2.71693e-05
2.38292e-05
2.38292e-05
2.38292e-05
2.07645e-05
2.07645e-05
2.07645e-05
2.10899e-05
2.10899e-05
2.10899e-05
2.21759e-05
2.21759e-05
2.21759e-05
2.23063e-05
2.23063e-05
2.23063e-05
2.17592e-05
2.17592e-05
2.17592e-05
2.18035e-05
2.18035e-05
2.18035e-05
2.14044e-05
2.14044e-05
2.14044e-05
2.27947e-05
2.27947e-05
2.27947e-05
2.27014e-05
2.27014e-05
2.27014e-05
2.26503e-05
2.26503e-05
2.26503e-05
2.25944e-05
2.25944e-05
2.25944e-05
2.80379e-05
2.80379e-05
2.80379e-05
2.8167e-05
2.8167e-05
2.8167e-05
2.84917e-05
2.84917e-05
2.84917e-05
2.73323e-05
2.73323e-05
2.73323e-05
2.76673e-05
2.76673e-05
2.76673e-05
2.74897e-05
2.74897e-05
2.74897e-05
2.17135e-05
2.17135e-05
2.17135e-05
2.43162e-05
2.43162e-05
2.43162e-05
2.41456e-05
2.41456e-05
2.41456e-05
2.42876e-05
2.42876e-05
2.42876e-05
2.46013e-05
2.46013e-05
2.46013e-05
2.44316e-05
2.44316e-05
2.44316e-05
2.39453e-05
2.39453e-05
2.39453e-05
2.47481e-05
2.47481e-05
2.47481e-05
2.4722e-05
2.4722e-05
2.4722e-05
2.48934e-05
2.48934e-05
2.48934e-05
2.45767e-05
2.45767e-05
2.45767e-05
3.30043e-05
3.30043e-05
3.30043e-05
3.25934e-05
3.25934e-05
3.25934e-05
2.73895e-05
2.73895e-05
2.73895e-05
2.89765e-05
2.89765e-05
2.89765e-05
2.77533e-05
2.77533e-05
2.77533e-05
1.92171e-05
1.92171e-05
1.92171e-05
1.91139e-05
1.91139e-05
1.91139e-05
1.9269e-05
1.9269e-05
1.9269e-05
1.92412e-05
1.92412e-05
1.92412e-05
1.88014e-05
1.88014e-05
1.88014e-05
1.85897e-05
1.85897e-05
1.85897e-05
1.87254e-05
1.87254e-05
1.87254e-05
2.00114e-05
2.00114e-05
2.00114e-05
2.00408e-05
2.00408e-05
2.00408e-05
2.28051e-05
2.28051e-05
2.28051e-05
2.26888e-05
2.26888e-05
2.26888e-05
2.27271e-05
2.27271e-05
2.27271e-05
2.14205e-05
2.14205e-05
2.14205e-05
2.14556e-05
2.14556e-05
2.14556e-05
2.2163e-05
2.2163e-05
2.2163e-05
3.45306e-05
3.45306e-05
3.45306e-05
3.62674e-05
3.62674e-05
3.62674e-05
3.45236e-05
3.45236e-05
3.45236e-05
3.44004e-05
3.44004e-05
3.44004e-05
3.43266e-05
3.43266e-05
3.43266e-05
3.42039e-05
3.42039e-05
3.42039e-05
3.37618e-05
3.37618e-05
3.37618e-05
3.34462e-05
3.34462e-05
3.34462e-05
3.3568e-05
3.3568e-05
3.3568e-05
3.40075e-05
3.40075e-05
3.40075e-05
2.32981e-05
2.32981e-05
2.32981e-05
2.31515e-05
2.31515e-05
2.31515e-05
2.28525e-05
2.28525e-05
2.28525e-05
3.32555e-05
3.32555e-05
3.32555e-05
3.50437e-05
3.50437e-05
3.50437e-05
3.13676e-05
3.13676e-05
3.13676e-05
3.04383e-05
3.04383e-05
3.04383e-05
3.32286e-05
3.32286e-05
3.32286e-05
3.02297e-05
3.02297e-05
3.02297e-05
3.14236e-05
3.14236e-05
3.14236e-05
3.11082e-05
3.11082e-05
3.11082e-05
3.06536e-05
3.06536e-05
3.06536e-05
3.0514e-05
3.0514e-05
3.0514e-05
3.43477e-05
3.43477e-05
3.43477e-05
3.64763e-05
3.64763e-05
3.64763e-05
3.63551e-05
3.63551e-05
3.63551e-05
3.59027e-05
3.59027e-05
3.59027e-05
3.55754e-05
3.55754e-05
3.55754e-05
3.5697e-05
3.5697e-05
3.5697e-05
3.61468e-05
3.61468e-05
3.61468e-05
2.76191e-05
2.76191e-05
2.76191e-05
2.77649e-05
2.77649e-05
2.77649e-05
3.0165e-05
3.0165e-05
3.0165e-05
3.04766e-05
3.04766e-05
3.04766e-05
3.03367e-05
3.03367e-05
3.03367e-05
2.98834e-05
2.98834e-05
2.98834e-05
2.76059e-05
2.76059e-05
2.76059e-05
2.73048e-05
2.73048e-05
2.73048e-05
2.70082e-05
2.70082e-05
2.70082e-05
2.74589e-05
2.74589e-05
2.74589e-05
2.97143e-05
2.97143e-05
2.97143e-05
2.95728e-05
2.95728e-05
2.95728e-05
3.68293e-05
3.68293e-05
3.68293e-05
3.63622e-05
3.63622e-05
3.63622e-05
3.60241e-05
3.60241e-05
3.60241e-05
3.69556e-05
3.69556e-05
3.69556e-05
3.66152e-05
3.66152e-05
3.66152e-05
3.61508e-05
3.61508e-05
3.61508e-05
3.46248e-05
3.46248e-05
3.46248e-05
3.55585e-05
3.55585e-05
3.55585e-05
3.5221e-05
3.5221e-05
3.5221e-05
3.47568e-05
3.47568e-05
3.47568e-05
3.28465e-05
3.28465e-05
3.28465e-05
3.34422e-05
3.34422e-05
3.34422e-05
3.29835e-05
3.29835e-05
3.29835e-05
3.65278e-05
3.65278e-05
3.65278e-05
3.5734e-05
3.5734e-05
3.5734e-05
3.61929e-05
3.61929e-05
3.61929e-05
3.56084e-05
3.56084e-05
3.56084e-05
3.59423e-05
3.59423e-05
3.59423e-05
3.64039e-05
3.64039e-05
3.64039e-05
3.56344e-05
3.56344e-05
3.56344e-05
3.51647e-05
3.51647e-05
3.51647e-05
3.48274e-05
3.48274e-05
3.48274e-05
3.57641e-05
3.57641e-05
3.57641e-05
3.49587e-05
3.49587e-05
3.49587e-05
3.54257e-05
3.54257e-05
3.54257e-05
3.43593e-05
3.43593e-05
3.43593e-05
3.40264e-05
3.40264e-05
3.40264e-05
3.35596e-05
3.35596e-05
3.35596e-05
3.42256e-05
3.42256e-05
3.42256e-05
3.58408e-05
3.58408e-05
3.58408e-05
3.53684e-05
3.53684e-05
3.53684e-05
3.61834e-05
3.61834e-05
3.61834e-05
3.60514e-05
3.60514e-05
3.60514e-05
3.44227e-05
3.44227e-05
3.44227e-05
3.71666e-05
3.71666e-05
3.71666e-05
3.76351e-05
3.76351e-05
3.76351e-05
3.79823e-05
3.79823e-05
3.79823e-05
3.7041e-05
3.7041e-05
3.7041e-05
3.84271e-05
3.84271e-05
3.84271e-05
3.74786e-05
3.74786e-05
3.74786e-05
3.83008e-05
3.83008e-05
3.83008e-05
3.78238e-05
3.78238e-05
3.78238e-05
3.82038e-05
3.82038e-05
3.82038e-05
3.78598e-05
3.78598e-05
3.78598e-05
3.73885e-05
3.73885e-05
3.73885e-05
3.72571e-05
3.72571e-05
3.72571e-05
3.76027e-05
3.76027e-05
3.76027e-05
3.80768e-05
3.80768e-05
3.80768e-05
3.62596e-05
3.62596e-05
3.62596e-05
3.72157e-05
3.72157e-05
3.72157e-05
3.66066e-05
3.66066e-05
3.66066e-05
3.7086e-05
3.7086e-05
3.7086e-05
3.63923e-05
3.63923e-05
3.63923e-05
3.68689e-05
3.68689e-05
3.68689e-05
3.62031e-05
3.62031e-05
3.62031e-05
3.58588e-05
3.58588e-05
3.58588e-05
3.5377e-05
3.5377e-05
3.5377e-05
3.81005e-05
3.81005e-05
3.81005e-05
3.71206e-05
3.71206e-05
3.71206e-05
3.77423e-05
3.77423e-05
3.77423e-05
3.7255e-05
3.7255e-05
3.7255e-05
3.79656e-05
3.79656e-05
3.79656e-05
3.74757e-05
3.74757e-05
3.74757e-05
3.77929e-05
3.77929e-05
3.77929e-05
3.79279e-05
3.79279e-05
3.79279e-05
3.71647e-05
3.71647e-05
3.71647e-05
3.72958e-05
3.72958e-05
3.72958e-05
3.69382e-05
3.69382e-05
3.69382e-05
3.73438e-05
3.73438e-05
3.73438e-05
3.70736e-05
3.70736e-05
3.70736e-05
3.77021e-05
3.77021e-05
3.77021e-05
3.75674e-05
3.75674e-05
3.75674e-05
3.75226e-05
3.75226e-05
3.75226e-05
3.84915e-05
3.84915e-05
3.84915e-05
3.83624e-05
3.83624e-05
3.83624e-05
3.78759e-05
3.78759e-05
3.78759e-05
3.8137e-05
3.8137e-05
3.8137e-05
3.76532e-05
3.76532e-05
3.76532e-05
2.85774e-05
2.85774e-05
2.85774e-05
2.82618e-05
2.82618e-05
2.82618e-05
2.9973e-05
2.9973e-05
2.9973e-05
2.90426e-05
2.90426e-05
2.90426e-05
3.23468e-05
3.23468e-05
3.23468e-05
2.95433e-05
2.95433e-05
2.95433e-05
2.89928e-05
2.89928e-05
2.89928e-05
2.91663e-05
2.91663e-05
2.91663e-05
2.3671e-05
2.3671e-05
2.3671e-05
2.42846e-05
2.42846e-05
2.42846e-05
2.68608e-05
2.68608e-05
2.68608e-05
2.71657e-05
2.71657e-05
2.71657e-05
2.07264e-05
2.07264e-05
2.07264e-05
2.13958e-05
2.13958e-05
2.13958e-05
2.08478e-05
2.08478e-05
2.08478e-05
2.07502e-05
2.07502e-05
2.07502e-05
2.08794e-05
2.08794e-05
2.08794e-05
2.07968e-05
2.07968e-05
2.07968e-05
2.21371e-05
2.21371e-05
2.21371e-05
2.23992e-05
2.23992e-05
2.23992e-05
2.24508e-05
2.24508e-05
2.24508e-05
2.25417e-05
2.25417e-05
2.25417e-05
2.21259e-05
2.21259e-05
2.21259e-05
2.20381e-05
2.20381e-05
2.20381e-05
2.20287e-05
2.20287e-05
2.20287e-05
2.19893e-05
2.19893e-05
2.19893e-05
2.16459e-05
2.16459e-05
2.16459e-05
2.15987e-05
2.15987e-05
2.15987e-05
2.17425e-05
2.17425e-05
2.17425e-05
2.17917e-05
2.17917e-05
2.17917e-05
2.17533e-05
2.17533e-05
2.17533e-05
2.13489e-05
2.13489e-05
2.13489e-05
2.18524e-05
2.18524e-05
2.18524e-05
2.19001e-05
2.19001e-05
2.19001e-05
2.17656e-05
2.17656e-05
2.17656e-05
2.16774e-05
2.16774e-05
2.16774e-05
2.15024e-05
2.15024e-05
2.15024e-05
2.13176e-05
2.13176e-05
2.13176e-05
2.26373e-05
2.26373e-05
2.26373e-05
2.24915e-05
2.24915e-05
2.24915e-05
2.23177e-05
2.23177e-05
2.23177e-05
2.24098e-05
2.24098e-05
2.24098e-05
2.6536e-05
2.6536e-05
2.6536e-05
2.69884e-05
2.69884e-05
2.69884e-05
2.32543e-05
2.32543e-05
2.32543e-05
2.30868e-05
2.30868e-05
2.30868e-05
2.46498e-05
2.46498e-05
2.46498e-05
2.36608e-05
2.36608e-05
2.36608e-05
2.36317e-05
2.36317e-05
2.36317e-05
2.38042e-05
2.38042e-05
2.38042e-05
2.423e-05
2.423e-05
2.423e-05
2.32439e-05
2.32439e-05
2.32439e-05
3.26572e-05
3.26572e-05
3.26572e-05
3.23079e-05
3.23079e-05
3.23079e-05
3.05374e-05
3.05374e-05
3.05374e-05
3.06691e-05
3.06691e-05
3.06691e-05
3.02052e-05
3.02052e-05
3.02052e-05
1.89915e-05
1.89915e-05
1.89915e-05
1.90645e-05
1.90645e-05
1.90645e-05
1.88621e-05
1.88621e-05
1.88621e-05
1.8943e-05
1.8943e-05
1.8943e-05
1.89667e-05
1.89667e-05
1.89667e-05
1.88478e-05
1.88478e-05
1.88478e-05
1.89194e-05
1.89194e-05
1.89194e-05
1.89521e-05
1.89521e-05
1.89521e-05
1.91951e-05
1.91951e-05
1.91951e-05
1.9326e-05
1.9326e-05
1.9326e-05
1.92468e-05
1.92468e-05
1.92468e-05
1.91414e-05
1.91414e-05
1.91414e-05
1.90898e-05
1.90898e-05
1.90898e-05
1.91561e-05
1.91561e-05
1.91561e-05
1.90077e-05
1.90077e-05
1.90077e-05
1.9366e-05
1.9366e-05
1.9366e-05
2.08506e-05
2.08506e-05
2.08506e-05
1.94294e-05
1.94294e-05
1.94294e-05
2.09593e-05
2.09593e-05
2.09593e-05
2.08408e-05
2.08408e-05
2.08408e-05
2.08721e-05
2.08721e-05
2.08721e-05
2.07306e-05
2.07306e-05
2.07306e-05
2.08169e-05
2.08169e-05
2.08169e-05
2.03758e-05
2.03758e-05
2.03758e-05
2.05582e-05
2.05582e-05
2.05582e-05
2.14741e-05
2.14741e-05
2.14741e-05
2.087e-05
2.087e-05
2.087e-05
2.09031e-05
2.09031e-05
2.09031e-05
1.97515e-05
1.97515e-05
1.97515e-05
1.97015e-05
1.97015e-05
1.97015e-05
1.98535e-05
1.98535e-05
1.98535e-05
1.99055e-05
1.99055e-05
1.99055e-05
1.99878e-05
1.99878e-05
1.99878e-05
1.98272e-05
1.98272e-05
1.98272e-05
2.01487e-05
2.01487e-05
2.01487e-05
2.00366e-05
2.00366e-05
2.00366e-05
2.00653e-05
2.00653e-05
2.00653e-05
2.00322e-05
2.00322e-05
2.00322e-05
2.00679e-05
2.00679e-05
2.00679e-05
2.05711e-05
2.05711e-05
2.05711e-05
2.01408e-05
2.01408e-05
2.01408e-05
2.00621e-05
2.00621e-05
2.00621e-05
2.00252e-05
2.00252e-05
2.00252e-05
2.15499e-05
2.15499e-05
2.15499e-05
2.09714e-05
2.09714e-05
2.09714e-05
2.04324e-05
2.04324e-05
2.04324e-05
2.03511e-05
2.03511e-05
2.03511e-05
2.26656e-05
2.26656e-05
2.26656e-05
2.27178e-05
2.27178e-05
2.27178e-05
2.2674e-05
2.2674e-05
2.2674e-05
2.25822e-05
2.25822e-05
2.25822e-05
2.28584e-05
2.28584e-05
2.28584e-05
2.2825e-05
2.2825e-05
2.2825e-05
2.29528e-05
2.29528e-05
2.29528e-05
2.29685e-05
2.29685e-05
2.29685e-05
2.28794e-05
2.28794e-05
2.28794e-05
2.18121e-05
2.18121e-05
2.18121e-05
2.19374e-05
2.19374e-05
2.19374e-05
2.18456e-05
2.18456e-05
2.18456e-05
2.15434e-05
2.15434e-05
2.15434e-05
2.17221e-05
2.17221e-05
2.17221e-05
2.16861e-05
2.16861e-05
2.16861e-05
2.15958e-05
2.15958e-05
2.15958e-05
2.17033e-05
2.17033e-05
2.17033e-05
2.18286e-05
2.18286e-05
2.18286e-05
2.17396e-05
2.17396e-05
2.17396e-05
2.18832e-05
2.18832e-05
2.18832e-05
2.20724e-05
2.20724e-05
2.20724e-05
2.18923e-05
2.18923e-05
2.18923e-05
2.20645e-05
2.20645e-05
2.20645e-05
2.19755e-05
2.19755e-05
2.19755e-05
2.22157e-05
2.22157e-05
2.22157e-05
2.31945e-05
2.31945e-05
2.31945e-05
2.32959e-05
2.32959e-05
2.32959e-05
2.33112e-05
2.33112e-05
2.33112e-05
2.27428e-05
2.27428e-05
2.27428e-05
2.28355e-05
2.28355e-05
2.28355e-05
2.29903e-05
2.29903e-05
2.29903e-05
2.30468e-05
2.30468e-05
2.30468e-05
2.28907e-05
2.28907e-05
2.28907e-05
2.28512e-05
2.28512e-05
2.28512e-05
3.01264e-05
3.01264e-05
3.01264e-05
2.98458e-05
2.98458e-05
2.98458e-05
2.94358e-05
2.94358e-05
2.94358e-05
2.93059e-05
2.93059e-05
2.93059e-05
2.8208e-05
2.8208e-05
2.8208e-05
2.86175e-05
2.86175e-05
2.86175e-05
2.88953e-05
2.88953e-05
2.88953e-05
2.53714e-05
2.53714e-05
2.53714e-05
3.24785e-05
3.24785e-05
3.24785e-05
3.20663e-05
3.20663e-05
3.20663e-05
3.08326e-05
3.08326e-05
3.08326e-05
3.12438e-05
3.12438e-05
3.12438e-05
3.47233e-05
3.47233e-05
3.47233e-05
3.45982e-05
3.45982e-05
3.45982e-05
3.49206e-05
3.49206e-05
3.49206e-05
3.53691e-05
3.53691e-05
3.53691e-05
3.58539e-05
3.58539e-05
3.58539e-05
3.4967e-05
3.4967e-05
3.4967e-05
3.39558e-05
3.39558e-05
3.39558e-05
3.30656e-05
3.30656e-05
3.30656e-05
3.31926e-05
3.31926e-05
3.31926e-05
3.36358e-05
3.36358e-05
3.36358e-05
2.4027e-05
2.4027e-05
2.4027e-05
2.43319e-05
2.43319e-05
2.43319e-05
2.36497e-05
2.36497e-05
2.36497e-05
2.30687e-05
2.30687e-05
2.30687e-05
2.26362e-05
2.26362e-05
2.26362e-05
2.23564e-05
2.23564e-05
2.23564e-05
2.32188e-05
2.32188e-05
2.32188e-05
2.25081e-05
2.25081e-05
2.25081e-05
2.29381e-05
2.29381e-05
2.29381e-05
2.33502e-05
2.33502e-05
2.33502e-05
2.24837e-05
2.24837e-05
2.24837e-05
2.21753e-05
2.21753e-05
2.21753e-05
1.88996e-05
1.88996e-05
1.88996e-05
2.19249e-05
2.19249e-05
2.19249e-05
1.93226e-05
1.93226e-05
1.93226e-05
2.71093e-05
2.71093e-05
2.71093e-05
2.44854e-05
2.44854e-05
2.44854e-05
2.41951e-05
2.41951e-05
2.41951e-05
2.47908e-05
2.47908e-05
2.47908e-05
2.53736e-05
2.53736e-05
2.53736e-05
2.52264e-05
2.52264e-05
2.52264e-05
2.34259e-05
2.34259e-05
2.34259e-05
2.69803e-05
2.69803e-05
2.69803e-05
2.58935e-05
2.58935e-05
2.58935e-05
2.56118e-05
2.56118e-05
2.56118e-05
2.52018e-05
2.52018e-05
2.52018e-05
2.49353e-05
2.49353e-05
2.49353e-05
2.37974e-05
2.37974e-05
2.37974e-05
2.49445e-05
2.49445e-05
2.49445e-05
2.40898e-05
2.40898e-05
2.40898e-05
3.38149e-05
3.38149e-05
3.38149e-05
3.33779e-05
3.33779e-05
3.33779e-05
2.72652e-05
2.72652e-05
2.72652e-05
2.81374e-05
2.81374e-05
2.81374e-05
2.78386e-05
2.78386e-05
2.78386e-05
2.74033e-05
2.74033e-05
2.74033e-05
2.94804e-05
2.94804e-05
2.94804e-05
2.84845e-05
2.84845e-05
2.84845e-05
3.0301e-05
3.0301e-05
3.0301e-05
3.49239e-05
3.49239e-05
3.49239e-05
3.52442e-05
3.52442e-05
3.52442e-05
3.5446e-05
3.5446e-05
3.5446e-05
3.4568e-05
3.4568e-05
3.4568e-05
3.46916e-05
3.46916e-05
3.46916e-05
3.51289e-05
3.51289e-05
3.51289e-05
3.56493e-05
3.56493e-05
3.56493e-05
3.55303e-05
3.55303e-05
3.55303e-05
3.50881e-05
3.50881e-05
3.50881e-05
3.47674e-05
3.47674e-05
3.47674e-05
3.48867e-05
3.48867e-05
3.48867e-05
3.53263e-05
3.53263e-05
3.53263e-05
3.67777e-05
3.67777e-05
3.67777e-05
3.63201e-05
3.63201e-05
3.63201e-05
3.59873e-05
3.59873e-05
3.59873e-05
3.68988e-05
3.68988e-05
3.68988e-05
3.611e-05
3.611e-05
3.611e-05
3.6565e-05
3.6565e-05
3.6565e-05
3.11887e-05
3.11887e-05
3.11887e-05
3.05822e-05
3.05822e-05
3.05822e-05
3.10461e-05
3.10461e-05
3.10461e-05
3.08681e-05
3.08681e-05
3.08681e-05
3.27633e-05
3.27633e-05
3.27633e-05
3.18328e-05
3.18328e-05
3.18328e-05
3.21585e-05
3.21585e-05
3.21585e-05
3.26251e-05
3.26251e-05
3.26251e-05
3.16514e-05
3.16514e-05
3.16514e-05
3.19739e-05
3.19739e-05
3.19739e-05
3.24378e-05
3.24378e-05
3.24378e-05
3.25765e-05
3.25765e-05
3.25765e-05
3.27915e-05
3.27915e-05
3.27915e-05
3.18796e-05
3.18796e-05
3.18796e-05
3.26586e-05
3.26586e-05
3.26586e-05
3.22014e-05
3.22014e-05
3.22014e-05
3.35723e-05
3.35723e-05
3.35723e-05
3.32476e-05
3.32476e-05
3.32476e-05
3.09287e-05
3.09287e-05
3.09287e-05
3.12444e-05
3.12444e-05
3.12444e-05
3.06882e-05
3.06882e-05
3.06882e-05
3.10079e-05
3.10079e-05
3.10079e-05
3.12857e-05
3.12857e-05
3.12857e-05
3.08284e-05
3.08284e-05
3.08284e-05
3.26212e-05
3.26212e-05
3.26212e-05
3.2492e-05
3.2492e-05
3.2492e-05
3.24175e-05
3.24175e-05
3.24175e-05
3.4025e-05
3.4025e-05
3.4025e-05
3.41511e-05
3.41511e-05
3.41511e-05
3.33846e-05
3.33846e-05
3.33846e-05
3.38304e-05
3.38304e-05
3.38304e-05
3.02626e-05
3.02626e-05
3.02626e-05
3.04069e-05
3.04069e-05
3.04069e-05
3.00871e-05
3.00871e-05
3.00871e-05
2.96274e-05
2.96274e-05
2.96274e-05
2.94845e-05
2.94845e-05
2.94845e-05
2.98e-05
2.98e-05
2.98e-05
2.96555e-05
2.96555e-05
2.96555e-05
2.91916e-05
2.91916e-05
2.91916e-05
2.99162e-05
2.99162e-05
2.99162e-05
3.00581e-05
3.00581e-05
3.00581e-05
2.97422e-05
2.97422e-05
2.97422e-05
2.92877e-05
2.92877e-05
2.92877e-05
2.7925e-05
2.7925e-05
2.7925e-05
2.83796e-05
2.83796e-05
2.83796e-05
2.94044e-05
2.94044e-05
2.94044e-05
2.87875e-05
2.87875e-05
2.87875e-05
2.82169e-05
2.82169e-05
2.82169e-05
2.91209e-05
2.91209e-05
2.91209e-05
2.85247e-05
2.85247e-05
2.85247e-05
2.89781e-05
2.89781e-05
2.89781e-05
2.78769e-05
2.78769e-05
2.78769e-05
2.46258e-05
2.46258e-05
2.46258e-05
2.44732e-05
2.44732e-05
2.44732e-05
2.68566e-05
2.68566e-05
2.68566e-05
2.67071e-05
2.67071e-05
2.67071e-05
3.31722e-05
3.31722e-05
3.31722e-05
3.30392e-05
3.30392e-05
3.30392e-05
3.38299e-05
3.38299e-05
3.38299e-05
3.33657e-05
3.33657e-05
3.33657e-05
3.4229e-05
3.4229e-05
3.4229e-05
3.37689e-05
3.37689e-05
3.37689e-05
3.45588e-05
3.45588e-05
3.45588e-05
3.36335e-05
3.36335e-05
3.36335e-05
3.44262e-05
3.44262e-05
3.44262e-05
3.39635e-05
3.39635e-05
3.39635e-05
3.41501e-05
3.41501e-05
3.41501e-05
3.52322e-05
3.52322e-05
3.52322e-05
3.47586e-05
3.47586e-05
3.47586e-05
3.55763e-05
3.55763e-05
3.55763e-05
3.4625e-05
3.4625e-05
3.4625e-05