<VTKFile type="UnstructuredGrid" version="1.0">
<UnstructuredGrid>
<Piece NumberOfPoints="8859" NumberOfCells="2953">
<Points>
<DataArray type="Float64" NumberOfComponents="3" format="ascii">
2.04744 2.20956 5.09263
2.06275 2.19425 5.10458
2.04754 2.20946 5.11833
2.07804 2.17896 5.04167
2.07805 2.17895 5.01651
2.0934 2.1636 5.02898
2.06271 2.19429 5.05436
2.07804 2.17896 5.04167
2.07804 2.17896 5.06686
2.01701 2.23999 5.14488
2.03242 2.22458 5.1525
2.00164 2.25536 5.1525
2.01701 2.23999 5.14488
2.03232 2.22468 5.12957
2.03242 2.22458 5.1525
2.04777 2.20923 5.14479
2.06326 2.19374 5.1525
2.03242 2.22458 5.1525
2.04777 2.20923 5.14479
2.03232 2.22468 5.12957
2.04754 2.20946 5.11833
2.03242 2.22458 5.1525
2.03232 2.22468 5.12957
2.04777 2.20923 5.14479
2.04754 2.20946 5.11833
2.06275 2.19425 5.10458
2.06287 2.19413 5.12927
2.06287 2.19413 5.12927
2.04777 2.20923 5.14479
2.04754 2.20946 5.11833
2.06326 2.19374 5.1525
2.04777 2.20923 5.14479
2.06287 2.19413 5.12927
2.06275 2.19425 5.10458
2.04744 2.20956 5.09263
2.06271 2.19429 5.07952
2.06271 2.19429 5.05436
2.07804 2.17896 5.06686
2.06271 2.19429 5.07952
2.07809 2.17891 5.11762
2.06287 2.19413 5.12927
2.06275 2.19425 5.10458
2.0934 2.1636 5.10395
2.0934 2.1636 5.12855
2.07809 2.17891 5.11762
2.0934 2.1636 5.00387
2.0934 2.1636 5.02898
2.07805 2.17895 5.01651
2.07804 2.17896 5.04167
2.0934 2.1636 5.02898
2.0934 2.1636 5.05406
2.0934 2.1636 5.05406
2.07804 2.17896 5.06686
2.07804 2.17896 5.04167
2.0934 2.1636 4.47652
2.0934 2.1636 4.50165
2.07807 2.17893 4.48907
2.07807 2.17893 4.94107
2.0934 2.1636 4.95361
2.07806 2.17894 4.96621
2.0934 2.1636 4.92848
2.0934 2.1636 4.95361
2.07807 2.17893 4.94107
2.07808 2.17892 4.81544
2.0934 2.1636 4.82799
2.07808 2.17892 4.84055
1.61564 2.64136 4.26059
1.63134 2.62566 4.2525
1.63134 2.62566 4.27563
1.5683 2.6887 5.1525
1.53648 2.72052 5.1525
1.55243 2.70457 5.14432
2.07804 2.17896 5.09212
2.06271 2.19429 5.07952
2.07804 2.17896 5.06686
2.06275 2.19425 5.10458
2.06271 2.19429 5.07952
2.07804 2.17896 5.09212
2.07804 2.17896 5.09212
2.07809 2.17891 5.11762
2.06275 2.19425 5.10458
2.0934 2.1636 5.10395
2.07809 2.17891 5.11762
2.07804 2.17896 5.09212
2.07833 2.17867 5.14384
2.0934 2.1636 5.12855
2.0934 2.1636 5.1525
2.07833 2.17867 5.14384
2.07809 2.17891 5.11762
2.0934 2.1636 5.12855
2.0934 2.1636 5.1525
2.06326 2.19374 5.1525
2.07833 2.17867 5.14384
2.06326 2.19374 5.1525
2.06287 2.19413 5.12927
2.07833 2.17867 5.14384
2.06287 2.19413 5.12927
2.07809 2.17891 5.11762
2.07833 2.17867 5.14384
2.07806 2.17894 4.96621
2.0934 2.1636 4.95361
2.0934 2.1636 4.97874
2.07804 2.17896 5.06686
2.0934 2.1636 5.05406
2.0934 2.1636 5.07907
2.0934 2.1636 5.10395
2.07804 2.17896 5.09212
2.0934 2.1636 5.07907
2.0934 2.1636 5.07907
2.07804 2.17896 5.09212
2.07804 2.17896 5.06686
2.0934 2.1636 4.80289
2.0934 2.1636 4.82799
2.07808 2.17892 4.81544
2.07807 2.17893 4.48907
2.0934 2.1636 4.50165
2.07807 2.17893 4.5142
2.06275 2.19425 4.92853
2.04743 2.20957 4.91598
2.06275 2.19425 4.90338
2.07806 2.17894 4.99136
2.0934 2.1636 5.00387
2.07805 2.17895 5.01651
2.07806 2.17894 4.99136
2.0934 2.1636 4.97874
2.0934 2.1636 5.00387
2.07806 2.17894 4.99136
2.06273 2.19427 4.97884
2.07806 2.17894 4.96621
2.07806 2.17894 4.96621
2.0934 2.1636 4.97874
2.07806 2.17894 4.99136
2.06271 2.19429 5.02918
2.07804 2.17896 5.04167
2.06271 2.19429 5.05436
2.06271 2.19429 5.02918
2.07805 2.17895 5.01651
2.07804 2.17896 5.04167
2.04741 2.20959 4.99149
2.03209 2.22491 5.00415
2.0321 2.2249 4.97894
1.83285 2.42415 5.11838
1.81747 2.43953 5.1049
1.83285 2.42415 5.09275
1.78664 2.47036 4.9538
1.78664 2.47036 4.979
1.77121 2.48579 4.96639
2.0934 2.1636 4.2525
2.0934 2.1636 4.27645
2.07833 2.17867 4.26116
1.56833 2.68867 5.12933
1.5683 2.6887 5.1525
1.55243 2.70457 5.14432
1.63134 2.62566 5.05446
1.61565 2.64135 5.06714
1.61564 2.64136 5.04185
1.55243 2.70457 5.14432
1.53648 2.72052 5.1525
1.53664 2.72036 5.12923
2.06276 2.19424 4.577
2.04745 2.20955 4.56443
2.06276 2.19424 4.55188
2.0934 2.1636 4.72759
2.07808 2.17892 4.71505
2.0934 2.1636 4.7025
2.07808 2.17892 4.76524
2.0934 2.1636 4.75269
2.0934 2.1636 4.77778
2.06277 2.19423 4.67741
2.04745 2.20955 4.68995
2.04745 2.20955 4.66486
2.06277 2.19423 4.7025
2.04745 2.20955 4.68995
2.06277 2.19423 4.67741
2.07808 2.17892 4.71505
2.06277 2.19423 4.72759
2.06277 2.19423 4.7025
2.04745 2.20955 4.84057
2.06276 2.19424 4.85312
2.04744 2.20956 4.8657
2.01682 2.24018 4.81547
2.01682 2.24018 4.84059
2.0015 2.2555 4.82803
2.04745 2.20955 4.81545
2.03214 2.22486 4.8029
2.04745 2.20955 4.79035
2.04745 2.20955 4.79035
2.06277 2.19423 4.80289
2.04745 2.20955 4.81545
2.03214 2.22486 4.8029
2.03214 2.22486 4.7778
2.04745 2.20955 4.79035
2.04745 2.20955 4.79035
2.03214 2.22486 4.7778
2.04745 2.20955 4.76524
2.0934 2.1636 4.77778
2.0934 2.1636 4.80289
2.07808 2.17892 4.79034
2.07808 2.17892 4.79034
2.07808 2.17892 4.76524
2.0934 2.1636 4.77778
2.07808 2.17892 4.79034
2.0934 2.1636 4.80289
2.07808 2.17892 4.81544
2.07808 2.17892 4.81544
2.06277 2.19423 4.80289
2.07808 2.17892 4.79034
2.04744 2.20956 4.89083
2.03213 2.22487 4.87828
2.04744 2.20956 4.8657
2.04744 2.20956 4.89083
2.06275 2.19425 4.90338
2.04743 2.20957 4.91598
2.0015 2.2555 4.8783
2.01681 2.24019 4.86572
2.01681 2.24019 4.89086
2.01681 2.24019 4.89086
2.01681 2.24019 4.86572
2.03213 2.22487 4.87828
2.0934 2.1636 4.8531
2.07808 2.17892 4.84055
2.0934 2.1636 4.82799
2.04744 2.20956 4.8657
2.06276 2.19424 4.85312
2.06276 2.19424 4.87825
2.06276 2.19424 4.87825
2.04744 2.20956 4.89083
2.04744 2.20956 4.8657
2.06275 2.19425 4.90338
2.04744 2.20956 4.89083
2.06276 2.19424 4.87825
2.07806 2.17894 4.96621
2.06273 2.19427 4.97884
2.06274 2.19426 4.95368
2.06274 2.19426 4.95368
2.07807 2.17893 4.94107
2.07806 2.17894 4.96621
2.06275 2.19425 4.92853
2.07807 2.17893 4.94107
2.06274 2.19426 4.95368
2.0321 2.2249 4.97894
2.03211 2.22489 4.95375
2.04742 2.20958 4.9663
2.04742 2.20958 4.9663
2.04741 2.20959 4.99149
2.0321 2.2249 4.97894
2.06273 2.19427 4.97884
2.04741 2.20959 4.99149
2.04742 2.20958 4.9663
2.04742 2.20958 4.9663
2.06274 2.19426 4.95368
2.06273 2.19427 4.97884
2.01679 2.24021 4.96638
2.03211 2.22489 4.95375
2.0321 2.2249 4.97894
2.01679 2.24021 4.96638
2.00148 2.25552 4.97901
2.00148 2.25552 4.95381
2.06271 2.19429 5.05436
2.06271 2.19429 5.07952
2.04741 2.20959 5.06722
2.04741 2.20959 5.06722
2.06271 2.19429 5.07952
2.04744 2.20956 5.09263
2.03209 2.22491 5.00415
2.04741 2.20959 4.99149
2.0474 2.2096 5.01669
2.0474 2.2096 5.01669
2.03209 2.22491 5.02937
2.03209 2.22491 5.00415
1.97087 2.28613 4.85317
1.95555 2.30145 4.86575
1.95555 2.30145 4.84061
2.00148 2.25552 4.95381
2.00149 2.25551 4.92862
2.0168 2.2402 4.94119
2.0168 2.2402 4.94119
2.01679 2.24021 4.96638
2.00148 2.25552 4.95381
2.03211 2.22489 4.95375
2.01679 2.24021 4.96638
2.0168 2.2402 4.94119
2.03211 2.22489 4.92858
2.03211 2.22489 4.95375
2.0168 2.2402 4.94119
1.86358 2.39342 5.09276
1.86358 2.39342 5.11839
1.84822 2.40878 5.10491
1.84822 2.40878 5.10491
1.86358 2.39342 5.11839
1.84822 2.40878 5.1295
1.84822 2.40878 5.10491
1.84822 2.40878 5.1295
1.83285 2.42415 5.11838
1.83285 2.42415 5.11838
1.83285 2.42415 5.09275
1.84822 2.40878 5.10491
1.81747 2.43953 5.07984
1.83285 2.42415 5.09275
1.81747 2.43953 5.1049
1.80202 2.45498 4.71505
1.80202 2.45498 4.74015
1.7866 2.4704 4.7276
1.70922 2.54778 4.84056
1.69367 2.56333 4.828
1.70922 2.54778 4.81545
1.70924 2.54776 4.89083
1.6937 2.5633 4.90339
1.69369 2.56331 4.87825
1.63134 2.62566 5.05446
1.61564 2.64136 5.04185
1.63132 2.62568 5.02924
1.63135 2.62565 5.07966
1.61565 2.64135 5.06714
1.63134 2.62566 5.05446
1.69376 2.56324 5.00412
1.69378 2.56322 5.02934
1.6782 2.5788 5.01672
1.59983 2.65717 4.95358
1.61554 2.64146 4.94103
1.61557 2.64143 4.9662
1.59973 2.65727 4.85303
1.58397 2.67303 4.86556
1.58396 2.67304 4.84046
1.61564 2.64136 5.14441
1.63134 2.62566 5.1525
1.5999 2.6571 5.1525
1.63134 2.62566 5.12937
1.63134 2.62566 5.1525
1.61564 2.64136 5.14441
1.647 2.61 5.14447
1.63134 2.62566 5.1525
1.63134 2.62566 5.12937
1.59993 2.65707 5.07961
1.59992 2.65708 5.10469
1.58418 2.67282 5.09246
1.84822 2.40878 5.1525
1.81747 2.43953 5.1525
1.83285 2.42415 5.14472
1.83285 2.42415 5.11838
1.84822 2.40878 5.1295
1.83285 2.42415 5.14472
1.83285 2.42415 5.14472
1.84822 2.40878 5.1295
1.84822 2.40878 5.1525
1.81747 2.43953 5.12949
1.81747 2.43953 5.1049
1.83285 2.42415 5.11838
1.83285 2.42415 5.11838
1.83285 2.42415 5.14472
1.81747 2.43953 5.12949
1.81747 2.43953 5.12949
1.83285 2.42415 5.14472
1.81747 2.43953 5.1525
1.70931 2.54769 5.01676
1.69378 2.56322 5.02934
1.69376 2.56324 5.00412
1.7712 2.4858 4.9412
1.78663 2.47037 4.92862
1.78664 2.47036 4.9538
1.78664 2.47036 4.9538
1.77121 2.48579 4.96639
1.7712 2.4858 4.9412
1.77122 2.48578 4.9916
1.77121 2.48579 4.96639
1.78664 2.47036 4.979
1.77122 2.48578 4.9916
1.78664 2.47036 4.979
1.78665 2.47035 5.00421
1.78665 2.47035 5.00421
1.77123 2.48577 5.01682
1.77122 2.48578 4.9916
1.77122 2.48578 4.9916
1.77123 2.48577 5.01682
1.75578 2.50122 5.00419
1.78666 2.47034 5.02943
1.77123 2.48577 5.01682
1.78665 2.47035 5.00421
1.78666 2.47034 5.05464
1.77124 2.48576 5.06734
1.77124 2.48576 5.04206
1.77124 2.48576 5.04206
1.78666 2.47034 5.02943
1.78666 2.47034 5.05464
1.77123 2.48577 5.01682
1.78666 2.47034 5.02943
1.77124 2.48576 5.04206
2.07809 2.17891 4.28738
2.07833 2.17867 4.26116
2.0934 2.1636 4.27645
2.06287 2.19413 4.27573
2.07833 2.17867 4.26116
2.07809 2.17891 4.28738
1.94028 2.31672 4.27548
1.94028 2.31672 4.2525
1.95561 2.30139 4.26021
2.00164 2.25536 4.2525
1.98629 2.27071 4.26017
1.97095 2.28605 4.2525
1.97095 2.28605 4.2525
1.95561 2.30139 4.26021
1.94028 2.31672 4.2525
1.48928 2.76772 4.28897
1.48919 2.76781 4.26286
1.50509 2.75191 4.27645
1.50509 2.75191 4.27645
1.5206 2.7364 4.26101
1.52092 2.73608 4.28745
1.47362 2.78338 4.27782
1.48919 2.76781 4.26286
1.48928 2.76772 4.28897
1.47362 2.78338 4.27782
1.47412 2.78288 4.2525
1.48919 2.76781 4.26286
1.56833 2.68867 4.27567
1.5683 2.6887 4.2525
1.58412 2.67288 4.26063
[...]
<PointData Scalars="View Factor" >
<DataArray type="Float64" Name="View Factor" NumberOfComponents="1" format="ascii">
0.000936946
0.000936946
0.000936946
0.000888375
0.000888375
0.000888375
0.000904048
0.000904048
0.000904048
0.000974795
0.000974795
0.000974795
0.000966393
0.000966393
0.000966393
0.000962364
0.000962364
0.000962364
0.000954241
0.000954241
0.000954241
0.000962291
0.000962291
0.000962291
0.000941479
0.000941479
0.000941479
0.000950377
0.000950377
0.000950377
0.000954496
0.000954496
0.000954496
0.000928442
0.000928442
0.000928442
0.00091205
0.00091205
0.00091205
0.000937787
0.000937787
0.000937787
0.000930834
0.000930834
0.000930834
0.000880714
0.000880714
0.000880714
0.000892954
0.000892954
0.000892954
0.000900756
0.000900756
0.000900756
0.000665542
0.000665542
0.000665542
0.000852463
0.000852463
0.000852463
0.000845187
0.000845187
0.000845187
0.000796523
0.000796523
0.000796523
0.00111244
0.00111244
0.00111244
0.00198061
0.00198061
0.00198061
0.000916747
0.000916747
0.000916747
0.000924834
0.000924834
0.000924834
0.000929622
0.000929622
0.000929622
0.000926175
0.000926175
0.000926175
0.00094381
0.00094381
0.00094381
0.000939358
0.000939358
0.000939358
0.000951326
0.000951326
0.000951326
0.0009507
0.0009507
0.0009507
0.000942863
0.000942863
0.000942863
0.000856832
0.000856832
0.000856832
0.00090539
0.00090539
0.00090539
0.000918022
0.000918022
0.000918022
0.000913381
0.000913381
0.000913381
0.00078983
0.00078983
0.00078983
0.000670986
0.000670986
0.000670986
0.000842849
0.000842849
0.000842849
0.000876202
0.000876202
0.000876202
0.000868673
0.000868673
0.000868673
0.000867336
0.000867336
0.000867336
0.000864232
0.000864232
0.000864232
0.000899468
0.000899468
0.000899468
0.000891598
0.000891598
0.000891598
0.000885298
0.000885298
0.000885298
0.0012798
0.0012798
0.0012798
0.00128349
0.00128349
0.00128349
0.000593473
0.000593473
0.000593473
0.00194599
0.00194599
0.00194599
0.00171697
0.00171697
0.00171697
0.00199769
0.00199769
0.00199769
0.000699323
0.000699323
0.000699323
0.000748766
0.000748766
0.000748766
0.000768957
0.000768957
0.000768957
0.00074329
0.00074329
0.00074329
0.000746837
0.000746837
0.000746837
0.000754023
0.000754023
0.000754023
0.000816262
0.000816262
0.000816262
0.000818608
0.000818608
0.000818608
0.000797647
0.000797647
0.000797647
0.000794542
0.000794542
0.000794542
0.000793888
0.000793888
0.000793888
0.000786987
0.000786987
0.000786987
0.000779306
0.000779306
0.000779306
0.000775435
0.000775435
0.000775435
0.00078589
0.00078589
0.00078589
0.000788663
0.000788663
0.000788663
0.000830661
0.000830661
0.000830661
0.000838734
0.000838734
0.000838734
0.00084114
0.00084114
0.00084114
0.00083753
0.00083753
0.00083753
0.00080053
0.00080053
0.00080053
0.000820236
0.000820236
0.000820236
0.000827402
0.000827402
0.000827402
0.000831445
0.000831445
0.000831445
0.000862986
0.000862986
0.000862986
0.000855514
0.000855514
0.000855514
0.000851238
0.000851238
0.000851238
0.000873166
0.000873166
0.000873166
0.000877416
0.000877416
0.000877416
0.00087393
0.00087393
0.00087393
0.000866254
0.000866254
0.000866254
0.000876808
0.000876808
0.000876808
0.000884487
0.000884487
0.000884487
0.00091558
0.00091558
0.00091558
0.000923833
0.000923833
0.000923833
0.000889625
0.000889625
0.000889625
0.000897646
0.000897646
0.000897646
0.000849235
0.000849235
0.000849235
0.000872329
0.000872329
0.000872329
0.000876436
0.000876436
0.000876436
0.000872642
0.000872642
0.000872642
0.000864825
0.000864825
0.000864825
0.00120858
0.00120858
0.00120858
0.00122892
0.00122892
0.00122892
0.00125281
0.00125281
0.00125281
0.00125601
0.00125601
0.00125601
0.00128242
0.00128242
0.00128242
0.00109701
0.00109701
0.00109701
0.00134458
0.00134458
0.00134458
0.00140269
0.00140269
0.00140269
0.00169273
0.00169273
0.00169273
0.00171704
0.00171704
0.00171704
0.00152792
0.00152792
0.00152792
0.00164511
0.00164511
0.00164511
0.00159905
0.00159905
0.00159905
0.00182578
0.00182578
0.00182578
0.00179221
0.00179221
0.00179221
0.0017668
0.0017668
0.0017668
0.00181624
0.00181624
0.00181624
0.00130042
0.00130042
0.00130042
0.00127424
0.00127424
0.00127424
0.00127038
0.00127038
0.00127038
0.0013007
0.0013007
0.0013007
0.0012984
0.0012984
0.0012984
0.001319
0.001319
0.001319
0.00150462
0.00150462
0.00150462
0.00126561
0.00126561
0.00126561
0.00128557
0.00128557
0.00128557
0.00130366
0.00130366
0.00130366
0.00130163
0.00130163
0.00130163
0.00132216
0.00132216
0.00132216
0.00134491
0.00134491
0.00134491
0.00132006
0.00132006
0.00132006
0.00136011
0.00136011
0.00136011
0.00133889
0.00133889
0.00133889
0.00134101
0.00134101
0.00134101
0.000597932
0.000597932
0.000597932
0.00059989
0.00059989
0.00059989
0.000644503
0.000644503
0.000644503
0.000614088
0.000614088
0.000614088
0.000627465
0.000627465
0.000627465
0.00131796
0.00131796
0.00131796
0.00128554
0.00128554
0.00128554
0.00133409
0.00133409
0.00133409
0.00133335
0.00133335
0.00133335
0.00119082
0.00119082
0.00119082
0.00112361
0.00112361
0.00112361
0.00117043
0.00117043
0.00117043
0.00146198
0.00146198
0.00146198
0.00146283
0.00146283
0.00146283
0.00184329
0.00184329
0.00184329
0.00184213
0.00184213
0.00184213
0.00184251
0.00184251
0.00184251
0.00162033
0.00162033
0.00162033
0.00162074
0.00162074
0.00162074
0.00173929
0.00173929
0.00173929
0.000662365
0.000662365
0.000662365
0.000729223
0.000729223
0.000729223
0.000717874
0.000717874
0.000717874
0.000723983
0.000723983
0.000723983
0.000708525
0.000708525
0.000708525
0.000714517
0.000714517
0.000714517
0.00071726
0.00071726
0.00071726
0.000713969
0.000713969
0.000713969
0.000707923
0.000707923
0.000707923
0.000705222
0.000705222
0.000705222
0.000792223
0.000792223
0.000792223
0.000804353
0.000804353
0.000804353
0.000803962
0.000803962
0.000803962
0.000704684
0.000704684
0.000704684
0.000674214
0.000674214
0.000674214
0.000856517
0.000856517
0.000856517
0.000896182
0.000896182
0.000896182
0.000825929
0.000825929
0.000825929
0.000856728
0.000856728
0.000856728
0.000797132
0.000797132
0.000797132
0.000793691
0.000793691
0.000793691
0.000811427
0.000811427
0.000811427
0.000826326
0.000826326
0.000826326
0.000746163
0.000746163
0.000746163
0.000738915
0.000738915
0.000738915
0.000745086
0.000745086
0.000745086
0.000747695
0.000747695
0.000747695
0.000744094
0.000744094
0.000744094
0.000737867
0.000737867
0.000737867
0.000735297
0.000735297
0.000735297
0.000927732
0.000927732
0.000927732
0.000912182
0.000912182
0.000912182
0.000804465
0.000804465
0.000804465
0.000800635
0.000800635
0.000800635
0.000815327
0.000815327
0.000815327
0.000833966
0.000833966
0.000833966
0.000900028
0.000900028
0.000900028
0.000903175
0.000903175
0.000903175
0.000934032
0.000934032
0.000934032
0.000915404
0.000915404
0.000915404
0.000822849
0.000822849
0.000822849
0.000837655
0.000837655
0.000837655
0.000806205
0.000806205
0.000806205
0.000809215
0.000809215
0.000809215
0.00080531
0.00080531
0.00080531
0.000799338
0.000799338
0.000799338
0.000795417
0.000795417
0.000795417
0.00079838
0.00079838
0.00079838
0.000815115
0.000815115
0.000815115
0.000808466
0.000808466
0.000808466
0.000804641
0.000804641
0.000804641
0.000807939
0.000807939
0.000807939
0.00080394
0.00080394
0.00080394
0.000793198
0.000793198
0.000793198
0.000796708
0.000796708
0.000796708
0.000778165
0.000778165
0.000778165
0.000777251
0.000777251
0.000777251
0.000774377
0.000774377
0.000774377
0.000783932
0.000783932
0.000783932
0.000787726
0.000787726
0.000787726
0.000784809
0.000784809
0.000784809
0.000826701
0.000826701
0.000826701
0.000830107
0.000830107
0.000830107
0.000826226
0.000826226
0.000826226
0.000819469
0.000819469
0.000819469
0.000818928
0.000818928
0.000818928
0.000815577
0.000815577
0.000815577
0.00082978
0.00082978
0.00082978
0.000825996
0.000825996
0.000825996
0.000829684
0.000829684
0.000829684
0.000837245
0.000837245
0.000837245
0.000838017
0.000838017
0.000838017
0.00084148
0.00084148
0.00084148
0.000842047
0.000842047
0.000842047
0.00084953
0.00084953
0.00084953
0.000848759
0.000848759
0.000848759
0.000810217
0.000810217
0.000810217
0.000807359
0.000807359
0.000807359
0.000811415
0.000811415
0.000811415
0.000817176
0.000817176
0.000817176
0.000833738
0.000833738
0.000833738
0.00083969
0.00083969
0.00083969
0.000840892
0.000840892
0.000840892
0.000843893
0.000843893
0.000843893
0.000822481
0.000822481
0.000822481
0.00081831
0.00081831
0.00081831
0.000821213
0.000821213
0.000821213
0.000828338
0.000828338
0.000828338
0.000832468
0.000832468
0.000832468
0.000829516
0.000829516
0.000829516
0.000861245
0.000861245
0.000861245
0.000854451
0.000854451
0.000854451
0.00086542
0.00086542
0.00086542
0.000861994
0.000861994
0.000861994
0.000853632
0.000853632
0.000853632
0.000850264
0.000850264
0.000850264
0.000889003
0.000889003
0.000889003
0.000884762
0.000884762
0.000884762
0.000888625
0.000888625
0.000888625
0.000902923
0.000902923
0.000902923
0.000910241
0.000910241
0.000910241
0.000898441
0.000898441
0.000898441
0.000902053
0.000902053
0.000902053
0.000911056
0.000911056
0.000911056
0.000914735
0.000914735
0.000914735
0.000949156
0.000949156
0.000949156
0.000940759
0.000940759
0.000940759
0.000962357
0.000962357
0.000962357
0.000953187
0.000953187
0.000953187
0.000948758
0.000948758
0.000948758
0.000922977
0.000922977
0.000922977
0.000939968
0.000939968
0.000939968
0.000927577
0.000927577
0.000927577
0.000936001
0.000936001
0.000936001
0.000886077
0.000886077
0.000886077
0.000879363
0.000879363
0.000879363
0.000887098
0.000887098
0.000887098
0.000890486
0.000890486
0.000890486
0.000874938
0.000874938
0.000874938
0.000878265
0.000878265
0.000878265
0.000976072
0.000976072
0.000976072
0.000979378
0.000979378
0.000979378
0.000916084
0.000916084
0.000916084
0.000956033
0.000956033
0.000956033
0.000852964
0.000852964
0.000852964
0.00122734
0.00122734
0.00122734
0.00124616
0.00124616
0.00124616
0.00122614
0.00122614
0.00122614
0.00111424
0.00111424
0.00111424
0.00107768
0.00107768
0.00107768
0.00094969
0.00094969
0.00094969
0.000946619
0.000946619
0.000946619
0.00134567
0.00134567
0.00134567
0.00151065
0.00151065
0.00151065
0.00136441
0.00136441
0.00136441
0.00141023
0.00141023
0.00141023
0.00145102
0.00145102
0.00145102
0.00143078
0.00143078
0.00143078
0.00169261
0.00169261
0.00169261
0.00174174
0.00174174
0.00174174
0.0017663
0.0017663
0.0017663
0.00179143
0.00179143
0.00179143
0.00166879
0.00166879
0.00166879
0.00164502
0.00164502
0.00164502
0.00162101
0.00162101
0.00162101
0.00162131
0.00162131
0.00162131
0.0015536
0.0015536
0.0015536
0.00153082
0.00153082
0.00153082
0.00159934
0.00159934
0.00159934
0.00162227
0.00162227
0.00162227
0.00162228
0.00162228
0.00162228
0.00148851
0.00148851
0.00148851
0.00157469
0.00157469
0.00157469
0.00159815
0.00159815
0.00159815
0.00164497
0.00164497
0.00164497
0.00162219
0.00162219
0.00162219
0.00157748
0.00157748
0.00157748
0.00157728
0.00157728
0.00157728
0.00174923
0.00174923
0.00174923
0.00167308
0.00167308
0.00167308
0.00174117
0.00174117
0.00174117
0.00176584
0.00176584
0.00176584
0.0013738
0.0013738
0.0013738
0.00134339
0.00134339
0.00134339
0.00125418
0.00125418
0.00125418
0.00127362
0.00127362
0.00127362
0.00122658
0.00122658
0.00122658
0.0014936
0.0014936
0.0014936
0.00134674
0.00134674
0.00134674
0.00132608
0.00132608
0.00132608
0.00138352
0.00138352
0.00138352
0.0014305
0.0014305
0.0014305
0.000593052
0.000593052
0.000593052
0.000597409
0.000597409
0.000597409
0.000610953
0.000610953
0.000610953
0.000606242
0.000606242
0.000606242
0.000606329
0.000606329
0.000606329
0.00125422
0.00125422
0.00125422
0.00126956
0.00126956
0.00126956
0.0012177
0.0012177
0.0012177
0.00123827
0.00123827
0.00123827
0.00123754
0.00123754
0.00123754
0.00120662
0.00120662
0.00120662
0.00122163
0.00122163
0.00122163
0.00122199
0.00122199
0.00122199
0.0013023
0.0013023
0.0013023
0.00133538
0.00133538
0.00133538
0.00131864
0.00131864
0.00131864
0.00130214
0.00130214
0.00130214
0.00128605
0.00128605
0.00128605
0.00131222
0.00131222
0.00131222
0.00126522
0.00126522
0.00126522
0.00127077
0.00127077
0.00127077
0.00155195
0.00155195
0.00155195
0.00127052
0.00127052
0.00127052
0.00164502
0.00164502
0.00164502
0.00162297
0.00162297
0.00162297
0.00162436
0.00162436
0.00162436
0.00158481
0.00158481
0.00158481
0.00160516
0.00160516
0.00160516
0.00153839
0.00153839
0.00153839
0.00154484
0.00154484
0.00154484
0.00173866
0.00173866
0.00173866
0.00157111
0.00157111
0.00157111
0.00157188
0.00157188
0.00157188
0.00137433
0.00137433
0.00137433
0.00135691
0.00135691
0.00135691
0.00140928
0.00140928
0.00140928
0.0014268
0.0014268
0.0014268
0.00144514
0.00144514
0.00144514
0.00135788
0.00135788
0.00135788
0.00149824
0.00149824
0.00149824
0.0014787
0.0014787
0.0014787
0.0014796
0.0014796
0.0014796
0.00126027
0.00126027
0.00126027
0.0012592
0.0012592
0.0012592
0.00141264
0.00141264
0.00141264
0.00125697
0.00125697
0.00125697
0.00123888
0.00123888
0.00123888
0.00124008
0.00124008
0.00124008
0.00119429
0.00119429
0.00119429
0.00119755
0.00119755
0.00119755
0.00141363
0.00141363
0.00141363
0.00139444
0.00139444
0.00139444
0.00179314
0.00179314
0.00179314
0.00181848
0.00181848
0.00181848
0.0018173
0.0018173
0.0018173
0.00179214
0.00179214
0.00179214
0.00186888
0.00186888
0.00186888
0.00186929
0.00186929
0.00186929
0.00190298
0.00190298
0.00190298
0.00192021
0.00192021
0.00192021
0.00189479
0.00189479
0.00189479
0.00181018
0.00181018
0.00181018
0.00183541
0.00183541
0.00183541
0.00181201
0.00181201
0.00181201
0.00164294
0.00164294
0.00164294
0.00168823
0.00168823
0.00168823
0.00168751
0.00168751
0.00168751
0.00166483
0.00166483
0.00166483
0.00170871
0.00170871
0.00170871
0.00173271
0.00173271
0.00173271
0.0017096
0.0017096
0.0017096
0.00175499
0.00175499
0.00175499
0.0017153
0.0017153
0.0017153
0.00166824
0.00166824
0.00166824
0.00175983
0.00175983
0.00175983
0.00173611
0.00173611
0.00173611
0.00176289
0.00176289
0.00176289
0.0020235
0.0020235
0.0020235
0.00205877
0.00205877
0.00205877
0.00207494
0.00207494
0.00207494
0.00186721
0.00186721
0.00186721
0.00189308
0.00189308
0.00189308
0.00194599
0.00194599
0.00194599
0.00197158
0.00197158
0.00197158
0.0019184
0.0019184
0.0019184
0.00191741
0.00191741
0.00191741
0.000613437
0.000613437
0.000613437
0.000611206
0.000611206
0.000611206
0.000613791
0.000613791
0.000613791
0.000618636
0.000618636
0.000618636
0.000621991
0.000621991
0.000621991
0.00061919
0.00061919
0.00061919
0.000621346
0.000621346
0.000621346
0.00083175
0.00083175
0.00083175
0.000604919
0.000604919
0.000604919
0.000607007
0.000607007
0.000607007
0.000613852
0.000613852
0.000613852
0.000611484
0.000611484
0.000611484
0.000727376
0.000727376
0.000727376
0.00073356
0.00073356
0.00073356
0.000737029
0.000737029
0.000737029
0.000734326
0.000734326
0.000734326
0.000710301
0.000710301
0.000710301
0.000715254
0.000715254
0.000715254
0.000726767
0.000726767
0.000726767
0.000732607
0.000732607
0.000732607
0.000726309
0.000726309
0.000726309
0.000723402
0.000723402
0.000723402
0.00101887
0.00101887
0.00101887
0.000987248
0.000987248
0.000987248
0.00092394
0.00092394
0.00092394
0.000955598
0.000955598
0.000955598
0.000972679
0.000972679
0.000972679
0.000974776
0.000974776
0.000974776
0.000940848
0.000940848
0.000940848
0.000959918
0.000959918
0.000959918
0.00094307
0.00094307
0.00094307
0.000953345
0.000953345
0.000953345
0.000987724
0.000987724
0.000987724
0.00101839
0.00101839
0.00101839
0.00103847
0.00103847
0.00103847
0.000991791
0.000991791
0.000991791
0.00102214
0.00102214
0.00102214
0.000814134
0.000814134
0.000814134
0.000971742
0.000971742
0.000971742
0.000974184
0.000974184
0.000974184
0.000914034
0.000914034
0.000914034
0.000882282
0.000882282
0.000882282
0.000896772
0.000896772
0.000896772
0.000802208
0.000802208
0.000802208
0.000659154
0.000659154
0.000659154
0.000712088
0.000712088
0.000712088
0.000714743
0.000714743
0.000714743
0.000729605
0.000729605
0.000729605
0.000732786
0.000732786
0.000732786
0.000909481
0.000909481
0.000909481
0.000848164
0.000848164
0.000848164
0.000881105
0.000881105
0.000881105
0.000696072
0.000696072
0.000696072
0.000698732
0.000698732
0.000698732
0.000824934
0.000824934
0.000824934
0.000790623
0.000790623
0.000790623
0.000793933
0.000793933
0.000793933
0.000810976
0.000810976
0.000810976
0.000762849
0.000762849
0.000762849
0.000837108
0.000837108
0.000837108
0.000790025
0.000790025
0.000790025
0.000679764
0.000679764
0.000679764
0.000683025
0.000683025
0.000683025
0.000691973
0.000691973
0.000691973
0.000696781
0.000696781
0.000696781
0.000691005
0.000691005
0.000691005
0.00068862
0.00068862
0.00068862
0.000701064
0.000701064
0.000701064
0.000706858
0.000706858
0.000706858
0.000709316
0.000709316
0.000709316
0.000705944
0.000705944
0.000705944
0.000700099
0.000700099
0.000700099
0.000697677
0.000697677
0.000697677
0.000765151
0.000765151
0.000765151
0.00076784
0.00076784
0.00076784
0.000764116
0.000764116
0.000764116
0.000758778
0.000758778
0.000758778
0.000757685
0.000757685
0.000757685
0.000755037
0.000755037
0.000755037
0.000844951
0.000844951
0.000844951
0.000880237
0.000880237
0.000880237
0.000860536
0.000860536
0.000860536
0.000848932
0.000848932
0.000848932
0.000829757
0.000829757
0.000829757
0.00083776
0.00083776
0.00083776
0.000841423
0.000841423
0.000841423
0.000837395
0.000837395
0.000837395
0.000826454
0.000826454
0.000826454
0.000830054
0.000830054
0.000830054
0.000826092
0.000826092
0.000826092
0.000818584
0.000818584
0.000818584
0.000786142
0.000786142
0.000786142
0.000793363
0.000793363
0.000793363
0.000793173
0.000793173
0.000793173
0.000796824
0.000796824
0.000796824
0.000786218
0.000786218
0.000786218
0.000782686
0.000782686
0.000782686
0.000783148
0.000783148
0.000783148
0.000786521
0.000786521
0.000786521
0.000837567
0.000837567
0.000837567
0.000833581
0.000833581
0.000833581
0.000804447
0.000804447
0.000804447
0.000822431
0.000822431
0.000822431
0.000735681
0.000735681
0.000735681
0.00074216
0.00074216
0.00074216
0.000765418
0.000765418
0.000765418
0.000742748
0.000742748
0.000742748
0.000736384
0.000736384
0.000736384
0.00073594
0.00073594
0.00073594
0.000732985
0.000732985
0.000732985
0.000884077
0.000884077
0.000884077
0.000868359
0.000868359
0.000868359
0.000872186
0.000872186
0.000872186
0.000891542
0.000891542
0.000891542
0.000907365
0.000907365
0.000907365
0.000903703
0.000903703
0.000903703
0.000919767
0.000919767
0.000919767
0.000939603
0.000939603
0.000939603
0.000860476
0.000860476
0.000860476
0.000845223
0.000845223
0.000845223
0.000848969
0.000848969
0.000848969
0.000867799
0.000867799
0.000867799
0.000924531
0.000924531
0.000924531
0.00090558
0.00090558
0.00090558
0.000826524
0.000826524
0.000826524
0.000833642
0.000833642
0.000833642
0.000893488
0.000893488
0.000893488
0.000856225
0.000856225
0.000856225
0.000890113
0.000890113
0.000890113
0.000871353
0.000871353
0.000871353
0.000843794
0.000843794
0.000843794
0.000984748
0.000984748
0.000984748
0.00100051
0.00100051
0.00100051
0.000921547
0.000921547
0.000921547
0.00093703
0.00093703
0.00093703
0.000807526
0.000807526
0.000807526
0.00081482
0.00081482
0.00081482
0.000814868
0.000814868
0.000814868
0.000818499
0.000818499
0.000818499
0.000793449
0.000793449
0.000793449
0.000796831
0.000796831
0.000796831
0.000797134
0.000797134
0.000797134
0.000803952
0.000803952
0.000803952
0.00080419
0.00080419
0.00080419
0.000807627
0.000807627
0.000807627
0.000864355
0.000864355
0.000864355
0.000849056
0.000849056
0.000849056
0.000852723
0.000852723
0.000852723
0.000853054
0.000853054
0.000853054
0.000860474
0.000860474
0.000860474
0.000860711
0.000860711
0.000860711
0.000864443
0.000864443
0.000864443
0.000974969
0.000974969
0.000974969
0.00096662
0.00096662
0.00096662
0.000935472
0.000935472
0.000935472
0.000926878
0.000926878
0.000926878
0.00115131
0.00115131
0.00115131
0.00102051
0.00102051
0.00102051
0.0010032
0.0010032
0.0010032
0.000908484
0.000908484
0.000908484
0.000868261
0.000868261
0.000868261
0.000872328
0.000872328
0.000872328
0.000892308
0.000892308
0.000892308
0.000933773
0.000933773
0.000933773
0.000848868
0.000848868
0.000848868
0.000840996
0.000840996
0.000840996
0.000841124