<VTKFile type="UnstructuredGrid" version="1.0">
<UnstructuredGrid>
<Piece NumberOfPoints="8859" NumberOfCells="2953">
<Points>
<DataArray type="Float64" NumberOfComponents="3" format="ascii">
2.75455 1.50245 8.22762
2.76986 1.48714 8.23958
2.75465 1.50235 8.25333
2.78515 1.47185 8.17667
2.78516 1.47184 8.15152
2.8005 1.4565 8.16398
2.76981 1.48719 8.18936
2.78515 1.47185 8.17667
2.78514 1.47186 8.20186
2.72412 1.53288 8.27988
2.73952 1.51748 8.2875
2.70875 1.54825 8.2875
2.72412 1.53288 8.27988
2.73943 1.51757 8.26457
2.73952 1.51748 8.2875
2.75488 1.50212 8.27979
2.77036 1.48664 8.2875
2.73952 1.51748 8.2875
2.75488 1.50212 8.27979
2.73943 1.51757 8.26457
2.75465 1.50235 8.25333
2.73952 1.51748 8.2875
2.73943 1.51757 8.26457
2.75488 1.50212 8.27979
2.75465 1.50235 8.25333
2.76986 1.48714 8.23958
2.76997 1.48703 8.26427
2.76997 1.48703 8.26427
2.75488 1.50212 8.27979
2.75465 1.50235 8.25333
2.77036 1.48664 8.2875
2.75488 1.50212 8.27979
2.76997 1.48703 8.26427
2.76986 1.48714 8.23958
2.75455 1.50245 8.22762
2.76982 1.48718 8.21452
2.76981 1.48719 8.18936
2.78514 1.47186 8.20186
2.76982 1.48718 8.21452
2.7852 1.4718 8.25262
2.76997 1.48703 8.26427
2.76986 1.48714 8.23958
2.8005 1.4565 8.23895
2.8005 1.4565 8.26355
2.7852 1.4718 8.25262
2.8005 1.4565 8.13887
2.8005 1.4565 8.16398
2.78516 1.47184 8.15152
2.78515 1.47185 8.17667
2.8005 1.4565 8.16398
2.8005 1.4565 8.18906
2.8005 1.4565 8.18906
2.78514 1.47186 8.20186
2.78515 1.47185 8.17667
2.8005 1.4565 7.61152
2.8005 1.4565 7.63665
2.78518 1.47182 7.62407
2.78517 1.47183 8.07607
2.8005 1.4565 8.08861
2.78517 1.47183 8.10121
2.8005 1.4565 8.06348
2.8005 1.4565 8.08861
2.78517 1.47183 8.07607
2.78519 1.47181 7.95044
2.8005 1.4565 7.96299
2.78519 1.47181 7.97555
2.32274 1.93426 7.39559
2.33845 1.91855 7.3875
2.33845 1.91855 7.41063
2.27541 1.98159 8.2875
2.24359 2.01341 8.2875
2.25954 1.99746 8.27932
2.78515 1.47185 8.22712
2.76982 1.48718 8.21452
2.78514 1.47186 8.20186
2.76986 1.48714 8.23958
2.76982 1.48718 8.21452
2.78515 1.47185 8.22712
2.78515 1.47185 8.22712
2.7852 1.4718 8.25262
2.76986 1.48714 8.23958
2.8005 1.4565 8.23895
2.7852 1.4718 8.25262
2.78515 1.47185 8.22712
2.78544 1.47156 8.27884
2.8005 1.4565 8.26355
2.8005 1.4565 8.2875
2.78544 1.47156 8.27884
2.7852 1.4718 8.25262
2.8005 1.4565 8.26355
2.8005 1.4565 8.2875
2.77036 1.48664 8.2875
2.78544 1.47156 8.27884
2.77036 1.48664 8.2875
2.76997 1.48703 8.26427
2.78544 1.47156 8.27884
2.76997 1.48703 8.26427
2.7852 1.4718 8.25262
2.78544 1.47156 8.27884
2.78517 1.47183 8.10121
2.8005 1.4565 8.08861
2.8005 1.4565 8.11374
2.78514 1.47186 8.20186
2.8005 1.4565 8.18906
2.8005 1.4565 8.21407
2.8005 1.4565 8.23895
2.78515 1.47185 8.22712
2.8005 1.4565 8.21407
2.8005 1.4565 8.21407
2.78515 1.47185 8.22712
2.78514 1.47186 8.20186
2.8005 1.4565 7.93788
2.8005 1.4565 7.96299
2.78519 1.47181 7.95044
2.78518 1.47182 7.62407
2.8005 1.4565 7.63665
2.78518 1.47182 7.6492
2.76985 1.48715 8.06353
2.75454 1.50246 8.05098
2.76986 1.48714 8.03838
2.78516 1.47184 8.12636
2.8005 1.4565 8.13887
2.78516 1.47184 8.15152
2.78516 1.47184 8.12636
2.8005 1.4565 8.11374
2.8005 1.4565 8.13887
2.78516 1.47184 8.12636
2.76984 1.48716 8.11384
2.78517 1.47183 8.10121
2.78517 1.47183 8.10121
2.8005 1.4565 8.11374
2.78516 1.47184 8.12636
2.76982 1.48718 8.16418
2.78515 1.47185 8.17667
2.76981 1.48719 8.18936
2.76982 1.48718 8.16418
2.78516 1.47184 8.15152
2.78515 1.47185 8.17667
2.75451 1.50249 8.12649
2.7392 1.5178 8.13915
2.73921 1.51779 8.11394
2.53996 1.71704 8.25338
2.52458 1.73242 8.2399
2.53996 1.71704 8.22775
2.49374 1.76326 8.0888
2.49375 1.76325 8.114
2.47832 1.77868 8.10139
2.8005 1.4565 7.3875
2.8005 1.4565 7.41145
2.78544 1.47156 7.39616
2.27543 1.98157 8.26433
2.27541 1.98159 8.2875
2.25954 1.99746 8.27932
2.33845 1.91855 8.18946
2.32276 1.93424 8.20214
2.32275 1.93425 8.17685
2.25954 1.99746 8.27932
2.24359 2.01341 8.2875
2.24374 2.01326 8.26423
2.76987 1.48713 7.712
2.75455 1.50245 7.69943
2.76987 1.48713 7.68688
2.8005 1.4565 7.86259
2.78519 1.47181 7.85005
2.8005 1.4565 7.8375
2.78519 1.47181 7.90024
2.8005 1.4565 7.88769
2.8005 1.4565 7.91278
2.76988 1.48712 7.81241
2.75456 1.50244 7.82495
2.75456 1.50244 7.79986
2.76988 1.48712 7.8375
2.75456 1.50244 7.82495
2.76988 1.48712 7.81241
2.78519 1.47181 7.85005
2.76988 1.48712 7.86259
2.76988 1.48712 7.8375
2.75455 1.50245 7.97557
2.76987 1.48713 7.98812
2.75455 1.50245 8.0007
2.72393 1.53307 7.95047
2.72392 1.53308 7.97559
2.70861 1.54839 7.96303
2.75456 1.50244 7.95045
2.73924 1.51776 7.9379
2.75456 1.50244 7.92535
2.75456 1.50244 7.92535
2.76987 1.48713 7.93789
2.75456 1.50244 7.95045
2.73924 1.51776 7.9379
2.73925 1.51775 7.9128
2.75456 1.50244 7.92535
2.75456 1.50244 7.92535
2.73925 1.51775 7.9128
2.75456 1.50244 7.90024
2.8005 1.4565 7.91278
2.8005 1.4565 7.93788
2.78519 1.47181 7.92534
2.78519 1.47181 7.92534
2.78519 1.47181 7.90024
2.8005 1.4565 7.91278
2.78519 1.47181 7.92534
2.8005 1.4565 7.93788
2.78519 1.47181 7.95044
2.78519 1.47181 7.95044
2.76987 1.48713 7.93789
2.78519 1.47181 7.92534
2.75454 1.50246 8.02583
2.73923 1.51777 8.01328
2.75455 1.50245 8.0007
2.75454 1.50246 8.02583
2.76986 1.48714 8.03838
2.75454 1.50246 8.05098
2.7086 1.5484 8.0133
2.72392 1.53308 8.00072
2.72392 1.53308 8.02586
2.72392 1.53308 8.02586
2.72392 1.53308 8.00072
2.73923 1.51777 8.01328
2.8005 1.4565 7.9881
2.78519 1.47181 7.97555
2.8005 1.4565 7.96299
2.75455 1.50245 8.0007
2.76987 1.48713 7.98812
2.76986 1.48714 8.01325
2.76986 1.48714 8.01325
2.75454 1.50246 8.02583
2.75455 1.50245 8.0007
2.76986 1.48714 8.03838
2.75454 1.50246 8.02583
2.76986 1.48714 8.01325
2.78517 1.47183 8.10121
2.76984 1.48716 8.11384
2.76985 1.48715 8.08868
2.76985 1.48715 8.08868
2.78517 1.47183 8.07607
2.78517 1.47183 8.10121
2.76985 1.48715 8.06353
2.78517 1.47183 8.07607
2.76985 1.48715 8.08868
2.73921 1.51779 8.11394
2.73921 1.51779 8.08875
2.75452 1.50248 8.1013
2.75452 1.50248 8.1013
2.75451 1.50249 8.12649
2.73921 1.51779 8.11394
2.76984 1.48716 8.11384
2.75451 1.50249 8.12649
2.75452 1.50248 8.1013
2.75452 1.50248 8.1013
2.76985 1.48715 8.08868
2.76984 1.48716 8.11384
2.7239 1.5331 8.10138
2.73921 1.51779 8.08875
2.73921 1.51779 8.11394
2.7239 1.5331 8.10138
2.70859 1.54841 8.11401
2.70859 1.54841 8.08881
2.76981 1.48719 8.18936
2.76982 1.48718 8.21452
2.75451 1.50249 8.20222
2.75451 1.50249 8.20222
2.76982 1.48718 8.21452
2.75455 1.50245 8.22762
2.7392 1.5178 8.13915
2.75451 1.50249 8.12649
2.75451 1.50249 8.15169
2.75451 1.50249 8.15169
2.7392 1.5178 8.16437
2.7392 1.5178 8.13915
2.67798 1.57902 7.98817
2.66266 1.59434 8.00075
2.66266 1.59434 7.97561
2.70859 1.54841 8.08881
2.70859 1.54841 8.06362
2.7239 1.5331 8.07619
2.7239 1.5331 8.07619
2.7239 1.5331 8.10138
2.70859 1.54841 8.08881
2.73921 1.51779 8.08875
2.7239 1.5331 8.10138
2.7239 1.5331 8.07619
2.73922 1.51778 8.06358
2.73921 1.51779 8.08875
2.7239 1.5331 8.07619
2.57068 1.68632 8.22776
2.57068 1.68632 8.25339
2.55533 1.70167 8.23991
2.55533 1.70167 8.23991
2.57068 1.68632 8.25339
2.55533 1.70167 8.2645
2.55533 1.70167 8.23991
2.55533 1.70167 8.2645
2.53996 1.71704 8.25338
2.53996 1.71704 8.25338
2.53996 1.71704 8.22775
2.55533 1.70167 8.23991
2.52458 1.73242 8.21484
2.53996 1.71704 8.22775
2.52458 1.73242 8.2399
2.50912 1.74788 7.85005
2.50912 1.74788 7.87515
2.49371 1.76329 7.8626
2.41633 1.84067 7.97556
2.40077 1.85623 7.963
2.41632 1.84068 7.95045
2.41635 1.84065 8.02583
2.40081 1.85619 8.03839
2.40079 1.85621 8.01325
2.33845 1.91855 8.18946
2.32275 1.93425 8.17685
2.33843 1.91857 8.16424
2.33845 1.91855 8.21466
2.32276 1.93424 8.20214
2.33845 1.91855 8.18946
2.40087 1.85613 8.13912
2.40088 1.85612 8.16434
2.38531 1.87169 8.15172
2.30693 1.95007 8.08858
2.32265 1.93435 8.07603
2.32267 1.93433 8.1012
2.30684 1.95016 7.98803
2.29108 1.96592 8.00056
2.29106 1.96594 7.97546
2.32274 1.93426 8.27941
2.33845 1.91855 8.2875
2.30701 1.94999 8.2875
2.33845 1.91855 8.26437
2.33845 1.91855 8.2875
2.32274 1.93426 8.27941
2.35411 1.90289 8.27947
2.33845 1.91855 8.2875
2.33845 1.91855 8.26437
2.30704 1.94996 8.21461
2.30703 1.94997 8.23969
2.29128 1.96572 8.22746
2.55533 1.70167 8.2875
2.52458 1.73242 8.2875
2.53996 1.71704 8.27972
2.53996 1.71704 8.25338
2.55533 1.70167 8.2645
2.53996 1.71704 8.27972
2.53996 1.71704 8.27972
2.55533 1.70167 8.2645
2.55533 1.70167 8.2875
2.52458 1.73242 8.26449
2.52458 1.73242 8.2399
2.53996 1.71704 8.25338
2.53996 1.71704 8.25338
2.53996 1.71704 8.27972
2.52458 1.73242 8.26449
2.52458 1.73242 8.26449
2.53996 1.71704 8.27972
2.52458 1.73242 8.2875
2.41642 1.84058 8.15176
2.40088 1.85612 8.16434
2.40087 1.85613 8.13912
2.47831 1.77869 8.0762
2.49374 1.76326 8.06362
2.49374 1.76326 8.0888
2.49374 1.76326 8.0888
2.47832 1.77868 8.10139
2.47831 1.77869 8.0762
2.47833 1.77867 8.1266
2.47832 1.77868 8.10139
2.49375 1.76325 8.114
2.47833 1.77867 8.1266
2.49375 1.76325 8.114
2.49376 1.76324 8.13921
2.49376 1.76324 8.13921
2.47834 1.77866 8.15182
2.47833 1.77867 8.1266
2.47833 1.77867 8.1266
2.47834 1.77866 8.15182
2.46289 1.79411 8.13919
2.49377 1.76323 8.16443
2.47834 1.77866 8.15182
2.49376 1.76324 8.13921
2.49377 1.76323 8.18964
2.47835 1.77865 8.20234
2.47834 1.77866 8.17706
2.47834 1.77866 8.17706
2.49377 1.76323 8.16443
2.49377 1.76323 8.18964
2.47834 1.77866 8.15182
2.49377 1.76323 8.16443
2.47834 1.77866 8.17706
2.7852 1.4718 7.42238
2.78544 1.47156 7.39616
2.8005 1.4565 7.41145
2.76997 1.48703 7.41073
2.78544 1.47156 7.39616
2.7852 1.4718 7.42238
2.64739 1.60961 7.41048
2.64738 1.60962 7.3875
2.66272 1.59428 7.39521
2.70875 1.54825 7.3875
2.6934 1.5636 7.39517
2.67805 1.57895 7.3875
2.67805 1.57895 7.3875
2.66272 1.59428 7.39521
2.64738 1.60962 7.3875
2.19638 2.06062 7.42397
2.1963 2.0607 7.39786
2.2122 2.0448 7.41145
2.2122 2.0448 7.41145
2.22771 2.02929 7.39601
2.22802 2.02898 7.42245
2.18073 2.07627 7.41282
2.1963 2.0607 7.39786
2.19638 2.06062 7.42397
2.18073 2.07627 7.41282
2.18123 2.07577 7.3875
2.1963 2.0607 7.39786
2.27543 1.98157 7.41067
2.27541 1.98159 7.3875
2.29123 1.96577 7.39563
2.30701 1.94999 7.3875
[...]
<PointData Scalars="View Factor" >
<DataArray type="Float64" Name="View Factor" NumberOfComponents="1" format="ascii">
0.0036509
0.0036509
0.0036509
0.00401446
0.00401446
0.00401446
0.00388989
0.00388989
0.00388989
0.00336582
0.00336582
0.00336582
0.00343373
0.00343373
0.00343373
0.00351546
0.00351546
0.00351546
0.00353633
0.00353633
0.00353633
0.00348388
0.00348388
0.00348388
0.00364539
0.00364539
0.00364539
0.00358678
0.00358678
0.00358678
0.00358403
0.00358403
0.00358403
0.00370975
0.00370975
0.00370975
0.00382908
0.00382908
0.00382908
0.00369671
0.00369671
0.00369671
0.00379953
0.00379953
0.00379953
0.00407802
0.00407802
0.00407802
0.00400593
0.00400593
0.00400593
0.00394353
0.00394353
0.00394353
0.00603874
0.00603874
0.00603874
0.00423678
0.00423678
0.00423678
0.00430428
0.00430428
0.00430428
0.00464168
0.00464168
0.00464168
0.00359071
0.00359071
0.00359071
0.0018895
0.0018895
0.0018895
0.00382146
0.00382146
0.00382146
0.00376193
0.00376193
0.00376193
0.00375433
0.00375433
0.00375433
0.00380626
0.00380626
0.00380626
0.00373435
0.00373435
0.00373435
0.00373961
0.00373961
0.00373961
0.00366459
0.00366459
0.00366459
0.00363466
0.00363466
0.00363466
0.00368874
0.00368874
0.00368874
0.00422717
0.00422717
0.00422717
0.00393547
0.00393547
0.00393547
0.00386665
0.00386665
0.00386665
0.00387425
0.00387425
0.00387425
0.00471657
0.00471657
0.00471657
0.00593933
0.00593933
0.00593933
0.00420594
0.00420594
0.00420594
0.00408698
0.00408698
0.00408698
0.00415176
0.00415176
0.00415176
0.00410455
0.00410455
0.00410455
0.00416098
0.00416098
0.00416098
0.00389772
0.00389772
0.00389772
0.00395993
0.00395993
0.00395993
0.00387242
0.00387242
0.00387242
0.00253461
0.00253461
0.00253461
0.00254534
0.00254534
0.00254534
0.00722751
0.00722751
0.00722751
0.00189905
0.00189905
0.00189905
0.00202208
0.00202208
0.00202208
0.00189986
0.00189986
0.00189986
0.00546505
0.00546505
0.00546505
0.00508149
0.00508149
0.00508149
0.00489487
0.00489487
0.00489487
0.00497993
0.00497993
0.00497993
0.0049681
0.0049681
0.0049681
0.00494425
0.00494425
0.00494425
0.00437167
0.00437167
0.00437167
0.00420135
0.00420135
0.00420135
0.0044716
0.0044716
0.0044716
0.00453573
0.00453573
0.00453573
0.00448076
0.00448076
0.00448076
0.00455521
0.00455521
0.00455521
0.00480472
0.00480472
0.00480472
0.00481687
0.00481687
0.00481687
0.00472829
0.00472829
0.00472829
0.00466409
0.00466409
0.00466409
0.00423176
0.00423176
0.00423176
0.00421467
0.00421467
0.00421467
0.00405009
0.00405009
0.00405009
0.00411057
0.00411057
0.00411057
0.00463039
0.00463039
0.00463039
0.00436243
0.00436243
0.00436243
0.00429237
0.00429237
0.00429237
0.00428339
0.00428339
0.00428339
0.00411325
0.00411325
0.00411325
0.00417933
0.00417933
0.00417933
0.00418838
0.00418838
0.00418838
0.0039427
0.0039427
0.0039427
0.00393546
0.00393546
0.00393546
0.00399177
0.00399177
0.00399177
0.00405636
0.00405636
0.00405636
0.00388596
0.00388596
0.00388596
0.00377273
0.00377273
0.00377273
0.00377603
0.00377603
0.00377603
0.00371616
0.00371616
0.00371616
0.00386538
0.00386538
0.00386538
0.00380352
0.00380352
0.00380352
0.0038176
0.0038176
0.0038176
0.00384142
0.00384142
0.00384142
0.00383548
0.00383548
0.00383548
0.00389266
0.00389266
0.00389266
0.0039569
0.0039569
0.0039569
0.00268486
0.00268486
0.00268486
0.00263727
0.00263727
0.00263727
0.00258759
0.00258759
0.00258759
0.00258459
0.00258459
0.00258459
0.00253208
0.00253208
0.00253208
0.00312013
0.00312013
0.00312013
0.0024151
0.0024151
0.0024151
0.00230563
0.00230563
0.00230563
0.00204102
0.00204102
0.00204102
0.0020064
0.0020064
0.0020064
0.00210492
0.00210492
0.00210492
0.00216312
0.00216312
0.00216312
0.00231371
0.00231371
0.00231371
0.00189528
0.00189528
0.00189528
0.00190762
0.00190762
0.00190762
0.00191058
0.00191058
0.00191058
0.0019657
0.0019657
0.0019657
0.00248228
0.00248228
0.00248228
0.00253943
0.00253943
0.00253943
0.00254403
0.00254403
0.00254403
0.00248849
0.00248849
0.00248849
0.00249035
0.00249035
0.00249035
0.00244666
0.00244666
0.00244666
0.00211135
0.00211135
0.00211135
0.00259093
0.00259093
0.00259093
0.00254041
0.00254041
0.00254041
0.00249578
0.00249578
0.00249578
0.0025007
0.0025007
0.0025007
0.00245205
0.00245205
0.00245205
0.00239884
0.00239884
0.00239884
0.00245693
0.00245693
0.00245693
0.00236733
0.00236733
0.00236733
0.00241415
0.00241415
0.00241415
0.00240924
0.00240924
0.00240924
0.00711081
0.00711081
0.00711081
0.00701489
0.00701489
0.00701489
0.0058544
0.0058544
0.0058544
0.00628571
0.00628571
0.00628571
0.00598909
0.00598909
0.00598909
0.00351998
0.00351998
0.00351998
0.00351699
0.00351699
0.00351699
0.00352338
0.00352338
0.00352338
0.00355876
0.00355876
0.00355876
0.00355591
0.00355591
0.00355591
0.00360309
0.00360309
0.00360309
0.00358184
0.00358184
0.00358184
0.0031208
0.0031208
0.0031208
0.00308982
0.00308982
0.00308982
0.00190299
0.00190299
0.00190299
0.00194816
0.00194816
0.00194816
0.00193292
0.00193292
0.00193292
0.00233141
0.00233141
0.00233141
0.00231188
0.00231188
0.00231188
0.00208561
0.00208561
0.00208561
0.00605683
0.00605683
0.00605683
0.00527694
0.00527694
0.00527694
0.00525917
0.00525917
0.00525917
0.00517252
0.00517252
0.00517252
0.00536086
0.00536086
0.00536086
0.00527227
0.00527227
0.00527227
0.0051974
0.0051974
0.0051974
0.00520959
0.00520959
0.00520959
0.00529813
0.00529813
0.00529813
0.00537448
0.00537448
0.00537448
0.00488441
0.00488441
0.00488441
0.0047926
0.0047926
0.0047926
0.00481778
0.00481778
0.00481778
0.00531073
0.00531073
0.00531073
0.0059219
0.0059219
0.0059219
0.00382575
0.00382575
0.00382575
0.00370108
0.00370108
0.00370108
0.0040759
0.0040759
0.0040759
0.003908
0.003908
0.003908
0.00418126
0.00418126
0.00418126
0.00418657
0.00418657
0.00418657
0.00411917
0.00411917
0.00411917
0.00404767
0.00404767
0.00404767
0.00490934
0.00490934
0.00490934
0.00517808
0.00517808
0.00517808
0.00509484
0.00509484
0.00509484
0.00502553
0.00502553
0.00502553
0.00503805
0.00503805
0.00503805
0.00512121
0.00512121
0.00512121
0.00519188
0.00519188
0.00519188
0.00371759
0.00371759
0.00371759
0.00378643
0.00378643
0.00378643
0.00420163
0.00420163
0.00420163
0.00419684
0.00419684
0.00419684
0.00412385
0.00412385
0.00412385
0.00405592
0.00405592
0.00405592
0.00385782
0.00385782
0.00385782
0.00385903
0.00385903
0.00385903
0.00371894
0.00371894
0.00371894
0.00378759
0.00378759
0.00378759
0.00413237
0.00413237
0.00413237
0.00405966
0.00405966
0.00405966
0.00450552
0.00450552
0.00450552
0.00444313
0.00444313
0.00444313
0.00445274
0.00445274
0.00445274
0.00457869
0.00457869
0.00457869
0.00458937
0.00458937
0.00458937
0.0045258
0.0045258
0.0045258
0.00426415
0.00426415
0.00426415
0.00438981
0.00438981
0.00438981
0.00439879
0.00439879
0.00439879
0.00433532
0.00433532
0.00433532
0.00422908
0.00422908
0.00422908
0.00436702
0.00436702
0.00436702
0.00430124
0.00430124
0.00430124
0.00475144
0.00475144
0.00475144
0.00469677
0.00469677
0.00469677
0.00476281
0.00476281
0.00476281
0.00462057
0.00462057
0.00462057
0.0046103
0.0046103
0.0046103
0.00467509
0.00467509
0.00467509
0.00423998
0.00423998
0.00423998
0.00417885
0.00417885
0.00417885
0.00418651
0.00418651
0.00418651
0.00430992
0.00430992
0.00430992
0.00425626
0.00425626
0.00425626
0.00431856
0.00431856
0.00431856
0.00412489
0.00412489
0.00412489
0.0041318
0.0041318
0.0041318
0.00406966
0.00406966
0.00406966
0.00405675
0.00405675
0.00405675
0.00416325
0.00416325
0.00416325
0.00410326
0.00410326
0.00410326
0.00415518
0.00415518
0.00415518
0.0040881
0.0040881
0.0040881
0.00398348
0.00398348
0.00398348
0.00449536
0.00449536
0.00449536
0.0045572
0.0045572
0.0045572
0.00454613
0.00454613
0.00454613
0.00442365
0.00442365
0.00442365
0.00438311
0.00438311
0.00438311
0.00426495
0.00426495
0.00426495
0.00431422
0.00431422
0.00431422
0.00425572
0.00425572
0.00425572
0.00446371
0.00446371
0.00446371
0.00447424
0.00447424
0.00447424
0.00441355
0.00441355
0.00441355
0.0043435
0.0043435
0.0043435
0.00433386
0.00433386
0.00433386
0.00439343
0.00439343
0.00439343
0.0040147
0.0040147
0.0040147
0.00413045
0.00413045
0.00413045
0.00400716
0.00400716
0.00400716
0.00406451
0.00406451
0.00406451
0.00408043
0.00408043
0.00408043
0.00413884
0.00413884
0.00413884
0.0038167
0.0038167
0.0038167
0.00382301
0.00382301
0.00382301
0.00376689
0.00376689
0.00376689
0.00384375
0.00384375
0.00384375
0.00373618
0.00373618
0.00373618
0.0038511
0.0038511
0.0038511
0.00379678
0.00379678
0.00379678
0.00378296
0.00378296
0.00378296
0.0037296
0.0037296
0.0037296
0.0035435
0.0035435
0.0035435
0.00359948
0.00359948
0.00359948
0.00343546
0.00343546
0.00343546
0.00349267
0.00349267
0.00349267
0.00349688
0.00349688
0.00349688
0.00367021
0.00367021
0.00367021
0.00355416
0.00355416
0.00355416
0.00366377
0.00366377
0.00366377
0.0036059
0.0036059
0.0036059
0.00392068
0.00392068
0.00392068
0.00403152
0.00403152
0.00403152
0.00396804
0.00396804
0.00396804
0.00391312
0.00391312
0.00391312
0.00403992
0.00403992
0.00403992
0.00398403
0.00398403
0.00398403
0.00345285
0.00345285
0.00345285
0.00345336
0.00345336
0.00345336
0.00363888
0.00363888
0.00363888
0.00351476
0.00351476
0.00351476
0.00381328
0.00381328
0.00381328
0.00262792
0.00262792
0.00262792
0.00259285
0.00259285
0.00259285
0.00263785
0.00263785
0.00263785
0.00305894
0.00305894
0.00305894
0.00318592
0.00318592
0.00318592
0.00365044
0.00365044
0.00365044
0.00365025
0.00365025
0.00365025
0.00243256
0.00243256
0.00243256
0.00223912
0.00223912
0.00223912
0.00238928
0.00238928
0.00238928
0.00246504
0.00246504
0.00246504
0.00243466
0.00243466
0.00243466
0.00245913
0.00245913
0.00245913
0.00205701
0.00205701
0.00205701
0.00198776
0.00198776
0.00198776
0.00198522
0.00198522
0.00198522
0.0019675
0.0019675
0.0019675
0.00204444
0.00204444
0.00204444
0.00206395
0.00206395
0.00206395
0.0020527
0.0020527
0.0020527
0.00206816
0.00206816
0.00206816
0.00216222
0.00216222
0.00216222
0.00216757
0.00216757
0.00216757
0.00215306
0.00215306
0.00215306
0.00214925
0.00214925
0.00214925
0.0021662
0.0021662
0.0021662
0.00224482
0.00224482
0.00224482
0.00209346
0.00209346
0.00209346
0.00208845
0.00208845
0.00208845
0.00218055
0.00218055
0.00218055
0.00220092
0.00220092
0.00220092
0.00224283
0.00224283
0.00224283
0.0023352
0.0023352
0.0023352
0.00190421
0.00190421
0.00190421
0.00191687
0.00191687
0.00191687
0.00201944
0.00201944
0.00201944
0.00200118
0.00200118
0.00200118
0.00233723
0.00233723
0.00233723
0.0023981
0.0023981
0.0023981
0.00262182
0.00262182
0.00262182
0.0025695
0.0025695
0.0025695
0.0026945
0.0026945
0.0026945
0.00210086
0.00210086
0.00210086
0.0023933
0.0023933
0.0023933
0.00244158
0.00244158
0.00244158
0.00231604
0.00231604
0.00231604
0.00221381
0.00221381
0.00221381
0.00717714
0.00717714
0.00717714
0.00703374
0.00703374
0.00703374
0.00653149
0.00653149
0.00653149
0.00664127
0.00664127
0.00664127
0.0065835
0.0065835
0.0065835
0.0035474
0.0035474
0.0035474
0.00351624
0.00351624
0.00351624
0.00357071
0.00357071
0.00357071
0.00354803
0.00354803
0.00354803
0.00351756
0.00351756
0.00351756
0.00355218
0.00355218
0.00355218
0.00351961
0.00351961
0.00351961
0.00348553
0.00348553
0.00348553
0.00348226
0.00348226
0.00348226
0.00345257
0.00345257
0.00345257
0.00348392
0.00348392
0.00348392
0.00355085
0.00355085
0.00355085
0.00354952
0.00354952
0.00354952
0.0035766
0.0035766
0.0035766
0.00356932
0.00356932
0.00356932
0.00320361
0.00320361
0.00320361
0.00258985
0.00258985
0.00258985
0.00314782
0.00314782
0.00314782
0.0027312
0.0027312
0.0027312
0.00278062
0.00278062
0.00278062
0.00275289
0.00275289
0.00275289
0.00277016
0.00277016
0.00277016
0.00274769
0.00274769
0.00274769
0.0029895
0.0029895
0.0029895
0.00281653
0.00281653
0.00281653
0.00251906
0.00251906
0.00251906
0.00261426
0.00261426
0.00261426
0.0025905
0.0025905
0.0025905
0.00310722
0.00310722
0.00310722
0.00310722
0.00310722
0.00310722
0.00310991
0.00310991
0.00310991
0.00311262
0.00311262
0.00311262
0.0030857
0.0030857
0.0030857
0.00299621
0.00299621
0.00299621
0.00310089
0.00310089
0.00310089
0.00315833
0.00315833
0.00315833
0.00312634
0.00312634
0.00312634
0.00272319
0.00272319
0.00272319
0.002703
0.002703
0.002703
0.00256347
0.00256347
0.00256347
0.0026635
0.0026635
0.0026635
0.00269318
0.00269318
0.00269318
0.00271292
0.00271292
0.00271292
0.00279303
0.00279303
0.00279303
0.00277863
0.00277863
0.00277863
0.00264809
0.00264809
0.00264809
0.00267427
0.00267427
0.00267427
0.00192098
0.00192098
0.00192098
0.00191862
0.00191862
0.00191862
0.00193465
0.00193465
0.00193465
0.00195171
0.00195171
0.00195171
0.00190134
0.00190134
0.00190134
0.00191523
0.00191523
0.00191523
0.00189044
0.00189044
0.00189044
0.00189934
0.00189934
0.00189934
0.00191422
0.00191422
0.00191422
0.00241393
0.00241393
0.00241393
0.00237242
0.00237242
0.00237242
0.0023905
0.0023905
0.0023905
0.00229115
0.00229115
0.00229115
0.00225082
0.00225082
0.00225082
0.0022702
0.0022702
0.0022702
0.00229025
0.00229025
0.00229025
0.00229023
0.00229023
0.00229023
0.00225096
0.00225096
0.00225096
0.00227023
0.00227023
0.00227023
0.00225189
0.00225189
0.00225189
0.00210444
0.00210444
0.00210444
0.0021432
0.0021432
0.0021432
0.00215578
0.00215578
0.00215578
0.00217445
0.00217445
0.00217445
0.0020843
0.0020843
0.0020843
0.00190106
0.00190106
0.00190106
0.00189289
0.00189289
0.00189289
0.00190485
0.00190485
0.00190485
0.0019471
0.0019471
0.0019471
0.00193084
0.00193084
0.00193084
0.0019136
0.0019136
0.0019136
0.001914
0.001914
0.001914
0.00193052
0.00193052
0.00193052
0.00194647
0.00194647
0.00194647
0.00643384
0.00643384
0.00643384
0.00644398
0.00644398
0.00644398
0.00634534
0.00634534
0.00634534
0.00623857
0.00623857
0.00623857
0.0060503
0.0060503
0.0060503
0.00614853
0.00614853
0.00614853
0.00614112
0.00614112
0.00614112
0.00441692
0.00441692
0.00441692
0.00689194
0.00689194
0.00689194
0.00679692
0.00679692
0.00679692
0.00650943
0.00650943
0.00650943
0.00660549
0.00660549
0.00660549
0.00515983
0.00515983
0.00515983
0.0050751
0.0050751
0.0050751
0.00506295
0.00506295
0.00506295
0.00513427
0.00513427
0.00513427
0.00548176
0.00548176
0.00548176
0.00533335
0.00533335
0.00533335
0.00509911
0.00509911
0.00509911
0.00495246
0.00495246
0.00495246
0.00503689
0.00503689
0.00503689
0.00511096
0.00511096
0.00511096
0.00343527
0.00343527
0.00343527
0.00357251
0.00357251
0.00357251
0.00393013
0.00393013
0.00393013
0.00377437
0.00377437
0.00377437
0.00369589
0.00369589
0.00369589
0.00369208
0.00369208
0.00369208
0.00385062
0.00385062
0.00385062
0.00376786
0.00376786
0.00376786
0.00384793
0.00384793
0.00384793
0.0037772
0.0037772
0.0037772
0.00362177
0.00362177
0.00362177
0.0034772
0.0034772
0.0034772
0.0033958
0.0033958
0.0033958
0.00361307
0.00361307
0.00361307
0.00348024
0.00348024
0.00348024
0.00440159
0.00440159
0.00440159
0.00364271
0.00364271
0.00364271
0.00364057
0.00364057
0.00364057
0.00393516
0.00393516
0.00393516
0.00408946
0.00408946
0.00408946
0.004012
0.004012
0.004012
0.00478912
0.00478912
0.00478912
0.00575663
0.00575663
0.00575663
0.00535736
0.00535736
0.00535736
0.00536661
0.00536661
0.00536661
0.0052705
0.0052705
0.0052705
0.00527031
0.00527031
0.00527031
0.00400855
0.00400855
0.00400855
0.00433424
0.00433424
0.00433424
0.0041694
0.0041694
0.0041694
0.00547906
0.00547906
0.00547906
0.00540119
0.00540119
0.00540119
0.00431769
0.00431769
0.00431769
0.00447144
0.00447144
0.00447144
0.00447584
0.00447584
0.00447584
0.00439821
0.00439821
0.00439821
0.00453197
0.00453197
0.00453197
0.00414714
0.00414714
0.00414714
0.00427634
0.00427634
0.00427634
0.00582488
0.00582488
0.00582488
0.00580787
0.00580787
0.00580787
0.00569654
0.00569654
0.00569654
0.00554222
0.00554222
0.00554222
0.0056348
0.0056348
0.0056348
0.00571277
0.00571277
0.00571277
0.00558787
0.00558787
0.00558787
0.00549702
0.00549702
0.00549702
0.00542209
0.00542209
0.00542209
0.00543651
0.00543651
0.00543651
0.00552729
0.00552729
0.00552729
0.00560371
0.00560371
0.00560371
0.00490733
0.00490733
0.00490733
0.00484063
0.00484063
0.00484063
0.00485239
0.00485239
0.00485239
0.00498711
0.00498711
0.00498711
0.00493205
0.00493205
0.00493205
0.00500003
0.00500003
0.00500003
0.00389659
0.00389659
0.00389659
0.00376658
0.00376658
0.00376658
0.00382949
0.00382949
0.00382949
0.00390056
0.00390056
0.00390056
0.00401326
0.00401326
0.00401326
0.00388819
0.00388819
0.00388819
0.00388367
0.00388367
0.00388367
0.00394561
0.00394561
0.00394561
0.00396023
0.00396023
0.00396023
0.00395555
0.00395555
0.00395555
0.00401868
0.00401868
0.00401868
0.0040877
0.0040877
0.0040877
0.00438208
0.00438208
0.00438208
0.00424814
0.00424814
0.00424814
0.00430824
0.00430824
0.00430824
0.00424191
0.00424191
0.00424191
0.00444113
0.00444113
0.00444113
0.00444915
0.00444915
0.00444915
0.00426557
0.00426557
0.00426557
0.00425993
0.00425993
0.00425993
0.00397336
0.00397336
0.00397336
0.00396916
0.00396916
0.00396916
0.00410949
0.00410949
0.00410949
0.00404337
0.00404337
0.00404337
0.00487919
0.00487919
0.00487919
0.00479679
0.00479679
0.00479679
0.00454918
0.00454918
0.00454918
0.00492032
0.00492032
0.00492032
0.00500311
0.00500311
0.00500311
0.00494186
0.00494186
0.00494186
0.0050145
0.0050145
0.0050145
0.00376961
0.00376961
0.00376961
0.00383644
0.00383644
0.00383644
0.00383972
0.00383972
0.00383972
0.00377511
0.00377511
0.00377511
0.00370844
0.00370844
0.00370844
0.00370621
0.00370621
0.00370621
0.00364096
0.00364096
0.00364096
0.0035783
0.0035783
0.0035783
0.00391131
0.00391131
0.00391131
0.00398104
0.00398104
0.00398104
0.0039847
0.0039847
0.0039847
0.00391755
0.00391755
0.00391755
0.00371665
0.00371665
0.00371665
0.00378351
0.00378351
0.00378351
0.00413637
0.00413637
0.00413637
0.00414385
0.00414385
0.00414385
0.00385459
0.00385459
0.00385459
0.00399121
0.00399121
0.00399121
0.00385263
0.00385263
0.00385263
0.00392029
0.00392029
0.00392029
0.00415332
0.00415332
0.00415332
0.00357467
0.00357467
0.00357467
0.00350589
0.00350589
0.00350589
0.00378902
0.00378902
0.00378902
0.00371918
0.00371918
0.00371918
0.00422239
0.00422239
0.00422239
0.00415154
0.00415154
0.00415154
0.00420848
0.00420848
0.00420848
0.00414515
0.00414515
0.00414515
0.00442454
0.00442454
0.00442454
0.0043593
0.0043593
0.0043593
0.00441607
0.00441607
0.00441607
0.00428693
0.00428693
0.00428693
0.00434345
0.00434345
0.00434345
0.00427945
0.00427945
0.00427945
0.00385293
0.00385293
0.00385293
0.00403645
0.00403645
0.00403645
0.00397709
0.00397709
0.00397709
0.00402922
0.00402922
0.00402922
0.00391165
0.00391165
0.00391165
0.00396363
0.00396363
0.00396363
0.00390537
0.00390537
0.00390537
0.0033337
0.0033337
0.0033337
0.00338515
0.00338515
0.00338515
0.00355936
0.00355936
0.00355936
0.00361749
0.00361749
0.00361749
0.00291154
0.00291154
0.00291154
0.00326994
0.00326994
0.00326994
0.00332948
0.00332948
0.00332948
0.00363406
0.00363406
0.00363406
0.00375634
0.00375634
0.00375634
0.00375994
0.00375994
0.00375994
0.00369822
0.00369822
0.00369822
0.00350431
0.00350431
0.00350431
0.00387406
0.00387406
0.00387406
0.00399579
0.00399579
0.00399579
0.00394033
0.00394033
0.00394033
0.00400179
0.00400179
0.00400179
0.00380411
0.00380411
0.00380411
0.00379927
0.00379927
0.00379927
0.00385845
0.00385845
0.00385845
0.00392364
0.00392364
0.00392364
0.00392934
0.00392934
0.00392934
0.00386902
0.00386902
0.00386902
0.00374446
0.00374446
0.00374446
0.00368113
0.00368113
0.00368113
0.00362214
0.00362214
0.00362214
0.0037486
0.0037486
0.0037486
0.00378378
0.00378378
0.00378378
0.00378906
0.00378906
0.00378906
0.00355715
0.00355715
0.00355715
0.0035019
0.0035019
0.0035019
0.00356022
0.00356022
0.00356022
0.00344159
0.00344159
0.00344159
0.00349655
0.00349655
0.00349655
0.00343932
0.00343932
0.00343932
0.00237224
0.00237224
0.00237224
0.00242321
0.00242321
0.00242321
0.00233127
0.00233127
0.00233127
0.00232628
0.00232628
0.00232628
0.00248176
0.00248176
0.00248176
0.00247796
0.00247796
0.00247796
0.00238132
0.00238132
0.00238132
0.00242731
0.00242731
0.00242731
0.00238085
0.00238085
0.00238085
0.00233023
0.00233023
0.00233023
0.00237216
0.00237216
0.00237216
0.00234702
0.00234702
0.00234702
0.0028184
0.0028184
0.0028184
0.00332934
0.00332934
0.00332934
0.00339097
0.00339097
0.00339097
0.00364619
0.00364619
0.00364619
0.00358186