<VTKFile type="UnstructuredGrid" version="1.0">
<UnstructuredGrid>
<Piece NumberOfPoints="8859" NumberOfCells="2953">
<Points>
<DataArray type="Float64" NumberOfComponents="3" format="ascii">
2.04744 2.20956 6.13763
2.06275 2.19425 6.14958
2.04754 2.20946 6.16333
2.07804 2.17896 6.08667
2.07805 2.17895 6.06151
2.0934 2.1636 6.07398
2.06271 2.19429 6.09936
2.07804 2.17896 6.08667
2.07804 2.17896 6.11186
2.01701 2.23999 6.18988
2.03242 2.22458 6.1975
2.00164 2.25536 6.1975
2.01701 2.23999 6.18988
2.03232 2.22468 6.17457
2.03242 2.22458 6.1975
2.04777 2.20923 6.18979
2.06326 2.19374 6.1975
2.03242 2.22458 6.1975
2.04777 2.20923 6.18979
2.03232 2.22468 6.17457
2.04754 2.20946 6.16333
2.03242 2.22458 6.1975
2.03232 2.22468 6.17457
2.04777 2.20923 6.18979
2.04754 2.20946 6.16333
2.06275 2.19425 6.14958
2.06287 2.19413 6.17427
2.06287 2.19413 6.17427
2.04777 2.20923 6.18979
2.04754 2.20946 6.16333
2.06326 2.19374 6.1975
2.04777 2.20923 6.18979
2.06287 2.19413 6.17427
2.06275 2.19425 6.14958
2.04744 2.20956 6.13763
2.06271 2.19429 6.12452
2.06271 2.19429 6.09936
2.07804 2.17896 6.11186
2.06271 2.19429 6.12452
2.07809 2.17891 6.16262
2.06287 2.19413 6.17427
2.06275 2.19425 6.14958
2.0934 2.1636 6.14895
2.0934 2.1636 6.17355
2.07809 2.17891 6.16262
2.0934 2.1636 6.04887
2.0934 2.1636 6.07398
2.07805 2.17895 6.06151
2.07804 2.17896 6.08667
2.0934 2.1636 6.07398
2.0934 2.1636 6.09906
2.0934 2.1636 6.09906
2.07804 2.17896 6.11186
2.07804 2.17896 6.08667
2.0934 2.1636 5.52152
2.0934 2.1636 5.54665
2.07807 2.17893 5.53407
2.07807 2.17893 5.98607
2.0934 2.1636 5.99861
2.07806 2.17894 6.01121
2.0934 2.1636 5.97348
2.0934 2.1636 5.99861
2.07807 2.17893 5.98607
2.07808 2.17892 5.86044
2.0934 2.1636 5.87299
2.07808 2.17892 5.88555
1.61564 2.64136 5.30559
1.63134 2.62566 5.2975
1.63134 2.62566 5.32063
1.5683 2.6887 6.1975
1.53648 2.72052 6.1975
1.55243 2.70457 6.18932
2.07804 2.17896 6.13712
2.06271 2.19429 6.12452
2.07804 2.17896 6.11186
2.06275 2.19425 6.14958
2.06271 2.19429 6.12452
2.07804 2.17896 6.13712
2.07804 2.17896 6.13712
2.07809 2.17891 6.16262
2.06275 2.19425 6.14958
2.0934 2.1636 6.14895
2.07809 2.17891 6.16262
2.07804 2.17896 6.13712
2.07833 2.17867 6.18884
2.0934 2.1636 6.17355
2.0934 2.1636 6.1975
2.07833 2.17867 6.18884
2.07809 2.17891 6.16262
2.0934 2.1636 6.17355
2.0934 2.1636 6.1975
2.06326 2.19374 6.1975
2.07833 2.17867 6.18884
2.06326 2.19374 6.1975
2.06287 2.19413 6.17427
2.07833 2.17867 6.18884
2.06287 2.19413 6.17427
2.07809 2.17891 6.16262
2.07833 2.17867 6.18884
2.07806 2.17894 6.01121
2.0934 2.1636 5.99861
2.0934 2.1636 6.02375
2.07804 2.17896 6.11186
2.0934 2.1636 6.09906
2.0934 2.1636 6.12407
2.0934 2.1636 6.14895
2.07804 2.17896 6.13712
2.0934 2.1636 6.12407
2.0934 2.1636 6.12407
2.07804 2.17896 6.13712
2.07804 2.17896 6.11186
2.0934 2.1636 5.84789
2.0934 2.1636 5.87299
2.07808 2.17892 5.86044
2.07807 2.17893 5.53407
2.0934 2.1636 5.54665
2.07807 2.17893 5.5592
2.06275 2.19425 5.97353
2.04743 2.20957 5.96098
2.06275 2.19425 5.94838
2.07806 2.17894 6.03636
2.0934 2.1636 6.04887
2.07805 2.17895 6.06151
2.07806 2.17894 6.03636
2.0934 2.1636 6.02375
2.0934 2.1636 6.04887
2.07806 2.17894 6.03636
2.06273 2.19427 6.02384
2.07806 2.17894 6.01121
2.07806 2.17894 6.01121
2.0934 2.1636 6.02375
2.07806 2.17894 6.03636
2.06271 2.19429 6.07418
2.07804 2.17896 6.08667
2.06271 2.19429 6.09936
2.06271 2.19429 6.07418
2.07805 2.17895 6.06151
2.07804 2.17896 6.08667
2.04741 2.20959 6.03649
2.03209 2.22491 6.04915
2.0321 2.2249 6.02394
1.83285 2.42415 6.16338
1.81747 2.43953 6.1499
1.83285 2.42415 6.13775
1.78664 2.47036 5.9988
1.78664 2.47036 6.024
1.77121 2.48579 6.01139
2.0934 2.1636 5.2975
2.0934 2.1636 5.32145
2.07833 2.17867 5.30616
1.56833 2.68867 6.17433
1.5683 2.6887 6.1975
1.55243 2.70457 6.18932
1.63134 2.62566 6.09946
1.61565 2.64135 6.11214
1.61564 2.64136 6.08685
1.55243 2.70457 6.18932
1.53648 2.72052 6.1975
1.53664 2.72036 6.17423
2.06276 2.19424 5.622
2.04745 2.20955 5.60943
2.06276 2.19424 5.59688
2.0934 2.1636 5.77259
2.07808 2.17892 5.76005
2.0934 2.1636 5.7475
2.07808 2.17892 5.81024
2.0934 2.1636 5.79769
2.0934 2.1636 5.82278
2.06277 2.19423 5.72241
2.04745 2.20955 5.73495
2.04745 2.20955 5.70986
2.06277 2.19423 5.7475
2.04745 2.20955 5.73495
2.06277 2.19423 5.72241
2.07808 2.17892 5.76005
2.06277 2.19423 5.77259
2.06277 2.19423 5.7475
2.04745 2.20955 5.88557
2.06276 2.19424 5.89812
2.04744 2.20956 5.9107
2.01682 2.24018 5.86047
2.01682 2.24018 5.88559
2.0015 2.2555 5.87303
2.04745 2.20955 5.86045
2.03214 2.22486 5.8479
2.04745 2.20955 5.83535
2.04745 2.20955 5.83535
2.06277 2.19423 5.84789
2.04745 2.20955 5.86045
2.03214 2.22486 5.8479
2.03214 2.22486 5.8228
2.04745 2.20955 5.83535
2.04745 2.20955 5.83535
2.03214 2.22486 5.8228
2.04745 2.20955 5.81024
2.0934 2.1636 5.82278
2.0934 2.1636 5.84789
2.07808 2.17892 5.83534
2.07808 2.17892 5.83534
2.07808 2.17892 5.81024
2.0934 2.1636 5.82278
2.07808 2.17892 5.83534
2.0934 2.1636 5.84789
2.07808 2.17892 5.86044
2.07808 2.17892 5.86044
2.06277 2.19423 5.84789
2.07808 2.17892 5.83534
2.04744 2.20956 5.93583
2.03213 2.22487 5.92328
2.04744 2.20956 5.9107
2.04744 2.20956 5.93583
2.06275 2.19425 5.94838
2.04743 2.20957 5.96098
2.0015 2.2555 5.9233
2.01681 2.24019 5.91072
2.01681 2.24019 5.93586
2.01681 2.24019 5.93586
2.01681 2.24019 5.91072
2.03213 2.22487 5.92328
2.0934 2.1636 5.8981
2.07808 2.17892 5.88555
2.0934 2.1636 5.87299
2.04744 2.20956 5.9107
2.06276 2.19424 5.89812
2.06276 2.19424 5.92325
2.06276 2.19424 5.92325
2.04744 2.20956 5.93583
2.04744 2.20956 5.9107
2.06275 2.19425 5.94838
2.04744 2.20956 5.93583
2.06276 2.19424 5.92325
2.07806 2.17894 6.01121
2.06273 2.19427 6.02384
2.06274 2.19426 5.99868
2.06274 2.19426 5.99868
2.07807 2.17893 5.98607
2.07806 2.17894 6.01121
2.06275 2.19425 5.97353
2.07807 2.17893 5.98607
2.06274 2.19426 5.99868
2.0321 2.2249 6.02394
2.03211 2.22489 5.99875
2.04742 2.20958 6.0113
2.04742 2.20958 6.0113
2.04741 2.20959 6.03649
2.0321 2.2249 6.02394
2.06273 2.19427 6.02384
2.04741 2.20959 6.03649
2.04742 2.20958 6.0113
2.04742 2.20958 6.0113
2.06274 2.19426 5.99868
2.06273 2.19427 6.02384
2.01679 2.24021 6.01138
2.03211 2.22489 5.99875
2.0321 2.2249 6.02394
2.01679 2.24021 6.01138
2.00148 2.25552 6.02401
2.00148 2.25552 5.99881
2.06271 2.19429 6.09936
2.06271 2.19429 6.12452
2.04741 2.20959 6.11222
2.04741 2.20959 6.11222
2.06271 2.19429 6.12452
2.04744 2.20956 6.13763
2.03209 2.22491 6.04915
2.04741 2.20959 6.03649
2.0474 2.2096 6.06169
2.0474 2.2096 6.06169
2.03209 2.22491 6.07437
2.03209 2.22491 6.04915
1.97087 2.28613 5.89817
1.95555 2.30145 5.91075
1.95555 2.30145 5.88561
2.00148 2.25552 5.99881
2.00149 2.25551 5.97362
2.0168 2.2402 5.98619
2.0168 2.2402 5.98619
2.01679 2.24021 6.01138
2.00148 2.25552 5.99881
2.03211 2.22489 5.99875
2.01679 2.24021 6.01138
2.0168 2.2402 5.98619
2.03211 2.22489 5.97358
2.03211 2.22489 5.99875
2.0168 2.2402 5.98619
1.86358 2.39342 6.13776
1.86358 2.39342 6.16339
1.84822 2.40878 6.14991
1.84822 2.40878 6.14991
1.86358 2.39342 6.16339
1.84822 2.40878 6.1745
1.84822 2.40878 6.14991
1.84822 2.40878 6.1745
1.83285 2.42415 6.16338
1.83285 2.42415 6.16338
1.83285 2.42415 6.13775
1.84822 2.40878 6.14991
1.81747 2.43953 6.12485
1.83285 2.42415 6.13775
1.81747 2.43953 6.1499
1.80202 2.45498 5.76005
1.80202 2.45498 5.78515
1.7866 2.4704 5.7726
1.70922 2.54778 5.88556
1.69367 2.56333 5.873
1.70922 2.54778 5.86045
1.70924 2.54776 5.93583
1.6937 2.5633 5.94839
1.69369 2.56331 5.92325
1.63134 2.62566 6.09946
1.61564 2.64136 6.08685
1.63132 2.62568 6.07424
1.63135 2.62565 6.12466
1.61565 2.64135 6.11214
1.63134 2.62566 6.09946
1.69376 2.56324 6.04912
1.69378 2.56322 6.07434
1.6782 2.5788 6.06172
1.59983 2.65717 5.99858
1.61554 2.64146 5.98603
1.61557 2.64143 6.0112
1.59973 2.65727 5.89803
1.58397 2.67303 5.91056
1.58396 2.67304 5.88546
1.61564 2.64136 6.18941
1.63134 2.62566 6.1975
1.5999 2.6571 6.1975
1.63134 2.62566 6.17437
1.63134 2.62566 6.1975
1.61564 2.64136 6.18941
1.647 2.61 6.18947
1.63134 2.62566 6.1975
1.63134 2.62566 6.17437
1.59993 2.65707 6.12461
1.59992 2.65708 6.14969
1.58418 2.67282 6.13746
1.84822 2.40878 6.1975
1.81747 2.43953 6.1975
1.83285 2.42415 6.18972
1.83285 2.42415 6.16338
1.84822 2.40878 6.1745
1.83285 2.42415 6.18972
1.83285 2.42415 6.18972
1.84822 2.40878 6.1745
1.84822 2.40878 6.1975
1.81747 2.43953 6.17449
1.81747 2.43953 6.1499
1.83285 2.42415 6.16338
1.83285 2.42415 6.16338
1.83285 2.42415 6.18972
1.81747 2.43953 6.17449
1.81747 2.43953 6.17449
1.83285 2.42415 6.18972
1.81747 2.43953 6.1975
1.70931 2.54769 6.06176
1.69378 2.56322 6.07434
1.69376 2.56324 6.04912
1.7712 2.4858 5.9862
1.78663 2.47037 5.97362
1.78664 2.47036 5.9988
1.78664 2.47036 5.9988
1.77121 2.48579 6.01139
1.7712 2.4858 5.9862
1.77122 2.48578 6.0366
1.77121 2.48579 6.01139
1.78664 2.47036 6.024
1.77122 2.48578 6.0366
1.78664 2.47036 6.024
1.78665 2.47035 6.04921
1.78665 2.47035 6.04921
1.77123 2.48577 6.06182
1.77122 2.48578 6.0366
1.77122 2.48578 6.0366
1.77123 2.48577 6.06182
1.75578 2.50122 6.04919
1.78666 2.47034 6.07443
1.77123 2.48577 6.06182
1.78665 2.47035 6.04921
1.78666 2.47034 6.09964
1.77124 2.48576 6.11234
1.77124 2.48576 6.08706
1.77124 2.48576 6.08706
1.78666 2.47034 6.07443
1.78666 2.47034 6.09964
1.77123 2.48577 6.06182
1.78666 2.47034 6.07443
1.77124 2.48576 6.08706
2.07809 2.17891 5.33238
2.07833 2.17867 5.30616
2.0934 2.1636 5.32145
2.06287 2.19413 5.32073
2.07833 2.17867 5.30616
2.07809 2.17891 5.33238
1.94028 2.31672 5.32048
1.94028 2.31672 5.2975
1.95561 2.30139 5.30521
2.00164 2.25536 5.2975
1.98629 2.27071 5.30517
1.97095 2.28605 5.2975
1.97095 2.28605 5.2975
1.95561 2.30139 5.30521
1.94028 2.31672 5.2975
1.48928 2.76772 5.33397
1.48919 2.76781 5.30786
1.50509 2.75191 5.32145
1.50509 2.75191 5.32145
1.5206 2.7364 5.30601
1.52092 2.73608 5.33245
1.47362 2.78338 5.32282
1.48919 2.76781 5.30786
1.48928 2.76772 5.33397
1.47362 2.78338 5.32282
1.47412 2.78288 5.2975
1.48919 2.76781 5.30786
1.56833 2.68867 5.32067
1.5683 2.6887 5.2975
1.58412 2.67288 5.30563
[...]
<PointData Scalars="View Factor" >
<DataArray type="Float64" Name="View Factor" NumberOfComponents="1" format="ascii">
5.76601e-05
5.76601e-05
5.76601e-05
5.84367e-05
5.84367e-05
5.84367e-05
5.81771e-05
5.81771e-05
5.81771e-05
5.75076e-05
5.75076e-05
5.75076e-05
5.74629e-05
5.74629e-05
5.74629e-05
5.70061e-05
5.70061e-05
5.70061e-05
5.73971e-05
5.73971e-05
5.73971e-05
5.72924e-05
5.72924e-05
5.72924e-05
5.7374e-05
5.7374e-05
5.7374e-05
5.72317e-05
5.72317e-05
5.72317e-05
5.6963e-05
5.6963e-05
5.6963e-05
5.77921e-05
5.77921e-05
5.77921e-05
5.80486e-05
5.80486e-05
5.80486e-05
5.72134e-05
5.72134e-05
5.72134e-05
5.68982e-05
5.68982e-05
5.68982e-05
5.85676e-05
5.85676e-05
5.85676e-05
5.81438e-05
5.81438e-05
5.81438e-05
5.80139e-05
5.80139e-05
5.80139e-05
6.84222e-05
6.84222e-05
6.84222e-05
5.97285e-05
5.97285e-05
5.97285e-05
5.9863e-05
5.9863e-05
5.9863e-05
6.19602e-05
6.19602e-05
6.19602e-05
0.000132802
0.000132802
0.000132802
0.000111561
0.000111561
0.000111561
5.77526e-05
5.77526e-05
5.77526e-05
5.76288e-05
5.76288e-05
5.76288e-05
5.73394e-05
5.73394e-05
5.73394e-05
5.71808e-05
5.71808e-05
5.71808e-05
5.64913e-05
5.64913e-05
5.64913e-05
5.67596e-05
5.67596e-05
5.67596e-05
5.65183e-05
5.65183e-05
5.65183e-05
5.68049e-05
5.68049e-05
5.68049e-05
5.6916e-05
5.6916e-05
5.6916e-05
5.94272e-05
5.94272e-05
5.94272e-05
5.77243e-05
5.77243e-05
5.77243e-05
5.73092e-05
5.73092e-05
5.73092e-05
5.75916e-05
5.75916e-05
5.75916e-05
6.21013e-05
6.21013e-05
6.21013e-05
6.82611e-05
6.82611e-05
6.82611e-05
6.08209e-05
6.08209e-05
6.08209e-05
5.88634e-05
5.88634e-05
5.88634e-05
5.89954e-05
5.89954e-05
5.89954e-05
5.9462e-05
5.9462e-05
5.9462e-05
5.9294e-05
5.9294e-05
5.9294e-05
5.8472e-05
5.8472e-05
5.8472e-05
5.86017e-05
5.86017e-05
5.86017e-05
5.98493e-05
5.98493e-05
5.98493e-05
7.66048e-05
7.66048e-05
7.66048e-05
8.6098e-05
8.6098e-05
8.6098e-05
7.32635e-05
7.32635e-05
7.32635e-05
0.000110408
0.000110408
0.000110408
0.000105462
0.000105462
0.000105462
0.000113183
0.000113183
0.000113183
6.74729e-05
6.74729e-05
6.74729e-05
6.39654e-05
6.39654e-05
6.39654e-05
6.3025e-05
6.3025e-05
6.3025e-05
6.53396e-05
6.53396e-05
6.53396e-05
6.49984e-05
6.49984e-05
6.49984e-05
6.43306e-05
6.43306e-05
6.43306e-05
6.20382e-05
6.20382e-05
6.20382e-05
6.32479e-05
6.32479e-05
6.32479e-05
6.31447e-05
6.31447e-05
6.31447e-05
6.29593e-05
6.29593e-05
6.29593e-05
6.34724e-05
6.34724e-05
6.34724e-05
6.36162e-05
6.36162e-05
6.36162e-05
6.25611e-05
6.25611e-05
6.25611e-05
6.28811e-05
6.28811e-05
6.28811e-05
6.24186e-05
6.24186e-05
6.24186e-05
6.25962e-05
6.25962e-05
6.25962e-05
6.17647e-05
6.17647e-05
6.17647e-05
6.11332e-05
6.11332e-05
6.11332e-05
6.23228e-05
6.23228e-05
6.23228e-05
6.21343e-05
6.21343e-05
6.21343e-05
6.16457e-05
6.16457e-05
6.16457e-05
6.17205e-05
6.17205e-05
6.17205e-05
6.15837e-05
6.15837e-05
6.15837e-05
6.12688e-05
6.12688e-05
6.12688e-05
5.97647e-05
5.97647e-05
5.97647e-05
5.98979e-05
5.98979e-05
5.98979e-05
6.02033e-05
6.02033e-05
6.02033e-05
6.02886e-05
6.02886e-05
6.02886e-05
5.998e-05
5.998e-05
5.998e-05
5.9805e-05
5.9805e-05
5.9805e-05
5.9937e-05
5.9937e-05
5.9937e-05
6.0468e-05
6.0468e-05
6.0468e-05
6.08311e-05
6.08311e-05
6.08311e-05
5.82142e-05
5.82142e-05
5.82142e-05
5.80875e-05
5.80875e-05
5.80875e-05
5.95433e-05
5.95433e-05
5.95433e-05
5.94135e-05
5.94135e-05
5.94135e-05
6.37718e-05
6.37718e-05
6.37718e-05
6.12853e-05
6.12853e-05
6.12853e-05
6.09648e-05
6.09648e-05
6.09648e-05
6.07809e-05
6.07809e-05
6.07809e-05
6.09127e-05
6.09127e-05
6.09127e-05
7.25659e-05
7.25659e-05
7.25659e-05
7.29757e-05
7.29757e-05
7.29757e-05
7.43165e-05
7.43165e-05
7.43165e-05
7.52576e-05
7.52576e-05
7.52576e-05
7.75626e-05
7.75626e-05
7.75626e-05
9.01107e-05
9.01107e-05
9.01107e-05
0.000100764
0.000100764
0.000100764
9.96463e-05
9.96463e-05
9.96463e-05
0.000105146
0.000105146
0.000105146
0.000104383
0.000104383
0.000104383
9.74352e-05
9.74352e-05
9.74352e-05
0.000110084
0.000110084
0.000110084
0.000116404
0.000116404
0.000116404
0.000103279
0.000103279
0.000103279
0.000102135
0.000102135
0.000102135
0.000100764
0.000100764
0.000100764
0.000107795
0.000107795
0.000107795
7.49506e-05
7.49506e-05
7.49506e-05
7.47082e-05
7.47082e-05
7.47082e-05
7.37934e-05
7.37934e-05
7.37934e-05
7.70059e-05
7.70059e-05
7.70059e-05
7.6046e-05
7.6046e-05
7.6046e-05
7.64622e-05
7.64622e-05
7.64622e-05
9.60274e-05
9.60274e-05
9.60274e-05
8.67424e-05
8.67424e-05
8.67424e-05
8.7125e-05
8.7125e-05
8.7125e-05
8.64912e-05
8.64912e-05
8.64912e-05
8.54652e-05
8.54652e-05
8.54652e-05
8.58514e-05
8.58514e-05
8.58514e-05
8.72495e-05
8.72495e-05
8.72495e-05
8.48428e-05
8.48428e-05
8.48428e-05
8.46004e-05
8.46004e-05
8.46004e-05
8.42196e-05
8.42196e-05
8.42196e-05
8.52177e-05
8.52177e-05
8.52177e-05
7.31075e-05
7.31075e-05
7.31075e-05
7.33219e-05
7.33219e-05
7.33219e-05
7.85977e-05
7.85977e-05
7.85977e-05
7.56899e-05
7.56899e-05
7.56899e-05
7.70572e-05
7.70572e-05
7.70572e-05
0.000154692
0.000154692
0.000154692
0.000151161
0.000151161
0.000151161
0.000156459
0.000156459
0.000156459
0.000157904
0.000157904
0.000157904
0.000141781
0.000141781
0.000141781
0.000134912
0.000134912
0.000134912
0.000140318
0.000140318
0.000140318
0.00014974
0.00014974
0.00014974
0.000148313
0.000148313
0.000148313
0.000104875
0.000104875
0.000104875
0.000108095
0.000108095
0.000108095
0.00010702
0.00010702
0.00010702
0.000119101
0.000119101
0.000119101
0.000117907
0.000117907
0.000117907
0.000111336
0.000111336
0.000111336
6.87787e-05
6.87787e-05
6.87787e-05
6.49234e-05
6.49234e-05
6.49234e-05
6.64689e-05
6.64689e-05
6.64689e-05
6.63146e-05
6.63146e-05
6.63146e-05
6.69685e-05
6.69685e-05
6.69685e-05
6.68159e-05
6.68159e-05
6.68159e-05
6.70136e-05
6.70136e-05
6.70136e-05
6.73655e-05
6.73655e-05
6.73655e-05
6.7518e-05
6.7518e-05
6.7518e-05
6.73187e-05
6.73187e-05
6.73187e-05
9.58728e-05
9.58728e-05
9.58728e-05
9.63987e-05
9.63987e-05
9.63987e-05
9.78517e-05
9.78517e-05
9.78517e-05
6.78732e-05
6.78732e-05
6.78732e-05
6.79079e-05
6.79079e-05
6.79079e-05
6.56095e-05
6.56095e-05
6.56095e-05
6.85087e-05
6.85087e-05
6.85087e-05
6.36388e-05
6.36388e-05
6.36388e-05
6.90471e-05
6.90471e-05
6.90471e-05
6.58251e-05
6.58251e-05
6.58251e-05
6.61797e-05
6.61797e-05
6.61797e-05
6.75877e-05
6.75877e-05
6.75877e-05
6.808e-05
6.808e-05
6.808e-05
6.55326e-05
6.55326e-05
6.55326e-05
6.44422e-05
6.44422e-05
6.44422e-05
6.42939e-05
6.42939e-05
6.42939e-05
6.44772e-05
6.44772e-05
6.44772e-05
6.48102e-05
6.48102e-05
6.48102e-05
6.49583e-05
6.49583e-05
6.49583e-05
6.47736e-05
6.47736e-05
6.47736e-05
7.76005e-05
7.76005e-05
7.76005e-05
7.71311e-05
7.71311e-05
7.71311e-05
6.91013e-05
6.91013e-05
6.91013e-05
6.80907e-05
6.80907e-05
6.80907e-05
6.85846e-05
6.85846e-05
6.85846e-05
7.00833e-05
7.00833e-05
7.00833e-05
7.7709e-05
7.7709e-05
7.7709e-05
7.87684e-05
7.87684e-05
7.87684e-05
7.96915e-05
7.96915e-05
7.96915e-05
7.81737e-05
7.81737e-05
7.81737e-05
7.06114e-05
7.06114e-05
7.06114e-05
7.10993e-05
7.10993e-05
7.10993e-05
6.19969e-05
6.19969e-05
6.19969e-05
6.21763e-05
6.21763e-05
6.21763e-05
6.24967e-05
6.24967e-05
6.24967e-05
6.21365e-05
6.21365e-05
6.21365e-05
6.24553e-05
6.24553e-05
6.24553e-05
6.26361e-05
6.26361e-05
6.26361e-05
6.30562e-05
6.30562e-05
6.30562e-05
6.26807e-05
6.26807e-05
6.26807e-05
6.30055e-05
6.30055e-05
6.30055e-05
6.3194e-05
6.3194e-05
6.3194e-05
6.45834e-05
6.45834e-05
6.45834e-05
6.45297e-05
6.45297e-05
6.45297e-05
6.47289e-05
6.47289e-05
6.47289e-05
6.30601e-05
6.30601e-05
6.30601e-05
6.35684e-05
6.35684e-05
6.35684e-05
6.33845e-05
6.33845e-05
6.33845e-05
6.34295e-05
6.34295e-05
6.34295e-05
6.31001e-05
6.31001e-05
6.31001e-05
6.29178e-05
6.29178e-05
6.29178e-05
6.2084e-05
6.2084e-05
6.2084e-05
6.22696e-05
6.22696e-05
6.22696e-05
6.25932e-05
6.25932e-05
6.25932e-05
6.22207e-05
6.22207e-05
6.22207e-05
6.27298e-05
6.27298e-05
6.27298e-05
6.25427e-05
6.25427e-05
6.25427e-05
6.27836e-05
6.27836e-05
6.27836e-05
6.31083e-05
6.31083e-05
6.31083e-05
6.33027e-05
6.33027e-05
6.33027e-05
6.26516e-05
6.26516e-05
6.26516e-05
6.16293e-05
6.16293e-05
6.16293e-05
6.18133e-05
6.18133e-05
6.18133e-05
6.13128e-05
6.13128e-05
6.13128e-05
6.11786e-05
6.11786e-05
6.11786e-05
6.21888e-05
6.21888e-05
6.21888e-05
6.16775e-05
6.16775e-05
6.16775e-05
6.15027e-05
6.15027e-05
6.15027e-05
6.11942e-05
6.11942e-05
6.11942e-05
6.15424e-05
6.15424e-05
6.15424e-05
6.03028e-05
6.03028e-05
6.03028e-05
6.06458e-05
6.06458e-05
6.06458e-05
6.01669e-05
6.01669e-05
6.01669e-05
6.03377e-05
6.03377e-05
6.03377e-05
6.07464e-05
6.07464e-05
6.07464e-05
6.1059e-05
6.1059e-05
6.1059e-05
6.12324e-05
6.12324e-05
6.12324e-05
6.10922e-05
6.10922e-05
6.10922e-05
6.07815e-05
6.07815e-05
6.07815e-05
6.06093e-05
6.06093e-05
6.06093e-05
6.07317e-05
6.07317e-05
6.07317e-05
6.0377e-05
6.0377e-05
6.0377e-05
6.04205e-05
6.04205e-05
6.04205e-05
6.02439e-05
6.02439e-05
6.02439e-05
6.08647e-05
6.08647e-05
6.08647e-05
6.06866e-05
6.06866e-05
6.06866e-05
6.00271e-05
6.00271e-05
6.00271e-05
6.03374e-05
6.03374e-05
6.03374e-05
6.05199e-05
6.05199e-05
6.05199e-05
5.86394e-05
5.86394e-05
5.86394e-05
5.89782e-05
5.89782e-05
5.89782e-05
5.89382e-05
5.89382e-05
5.89382e-05
5.911e-05
5.911e-05
5.911e-05
5.85069e-05
5.85069e-05
5.85069e-05
5.8677e-05
5.8677e-05
5.8677e-05
5.77061e-05
5.77061e-05
5.77061e-05
5.78267e-05
5.78267e-05
5.78267e-05
5.7741e-05
5.7741e-05
5.7741e-05
5.78766e-05
5.78766e-05
5.78766e-05
5.81687e-05
5.81687e-05
5.81687e-05
5.85555e-05
5.85555e-05
5.85555e-05
5.82985e-05
5.82985e-05
5.82985e-05
5.82556e-05
5.82556e-05
5.82556e-05
5.8127e-05
5.8127e-05
5.8127e-05
5.93698e-05
5.93698e-05
5.93698e-05
5.903e-05
5.903e-05
5.903e-05
5.88991e-05
5.88991e-05
5.88991e-05
5.90683e-05
5.90683e-05
5.90683e-05
5.933e-05
5.933e-05
5.933e-05
5.95008e-05
5.95008e-05
5.95008e-05
7.43177e-05
7.43177e-05
7.43177e-05
7.53279e-05
7.53279e-05
7.53279e-05
6.99589e-05
6.99589e-05
6.99589e-05
7.28636e-05
7.28636e-05
7.28636e-05
6.34357e-05
6.34357e-05
6.34357e-05
7.09729e-05
7.09729e-05
7.09729e-05
7.24626e-05
7.24626e-05
7.24626e-05
7.20334e-05
7.20334e-05
7.20334e-05
9.05271e-05
9.05271e-05
9.05271e-05
8.85982e-05
8.85982e-05
8.85982e-05
8.01551e-05
8.01551e-05
8.01551e-05
7.91072e-05
7.91072e-05
7.91072e-05
0.000101897
0.000101897
0.000101897
0.000104727
0.000104727
0.000104727
0.000101131
0.000101131
0.000101131
0.000109863
0.000109863
0.000109863
0.000111728
0.000111728
0.000111728
0.000111386
0.000111386
0.000111386
0.000106246
0.000106246
0.000106246
0.000104697
0.000104697
0.000104697
0.000106095
0.000106095
0.000106095
0.000106399
0.000106399
0.000106399
0.000103736
0.000103736
0.000103736
0.00010342
0.00010342
0.00010342
0.000100924
0.000100924
0.000100924
0.000102007
0.000102007
0.000102007
0.000103186
0.000103186
0.000103186
0.000101751
0.000101751
0.000101751
0.000106062
0.000106062
0.000106062
0.000107505
0.000107505
0.000107505
0.000108632
0.000108632
0.000108632
0.00010327
0.00010327
0.00010327
0.000100254
0.000100254
0.000100254
0.000101669
0.000101669
0.000101669
0.00011122
0.00011122
0.00011122
0.000110904
0.000110904
0.000110904
0.000110257
0.000110257
0.000110257
0.000116081
0.000116081
0.000116081
9.91695e-05
9.91695e-05
9.91695e-05
9.5094e-05
9.5094e-05
9.5094e-05
0.00010687
0.00010687
0.00010687
0.000107184
0.000107184
0.000107184
7.89637e-05
7.89637e-05
7.89637e-05
7.77973e-05
7.77973e-05
7.77973e-05
9.05324e-05
9.05324e-05
9.05324e-05
9.09168e-05
9.09168e-05
9.09168e-05
8.59489e-05
8.59489e-05
8.59489e-05
8.67985e-05
8.67985e-05
8.67985e-05
8.82786e-05
8.82786e-05
8.82786e-05
8.78998e-05
8.78998e-05
8.78998e-05
8.59773e-05
8.59773e-05
8.59773e-05
8.87392e-05
8.87392e-05
8.87392e-05
7.36485e-05
7.36485e-05
7.36485e-05
7.36859e-05
7.36859e-05
7.36859e-05
7.44359e-05
7.44359e-05
7.44359e-05
7.45832e-05
7.45832e-05
7.45832e-05
7.49896e-05
7.49896e-05
7.49896e-05
0.000149024
0.000149024
0.000149024
0.000149377
0.000149377
0.000149377
0.000145739
0.000145739
0.000145739
0.000147213
0.000147213
0.000147213
0.000145786
0.000145786
0.000145786
0.000143588
0.000143588
0.000143588
0.000143986
0.000143986
0.000143986
0.000142486
0.000142486
0.000142486
0.000151409
0.000151409
0.000151409
0.00015347
0.00015347
0.00015347
0.000153177
0.000153177
0.000153177
0.000154396
0.000154396
0.000154396
0.000152633
0.000152633
0.000152633
0.000156543
0.000156543
0.000156543
0.000151207
0.000151207
0.000151207
0.000135018
0.000135018
0.000135018
0.000129306
0.000129306
0.000129306
0.000132289
0.000132289
0.000132289
0.000143917
0.000143917
0.000143917
0.000145007
0.000145007
0.000145007
0.000143642
0.000143642
0.000143642
0.000141735
0.000141735
0.000141735
0.000142013
0.000142013
0.000142013
0.000149463
0.000149463
0.000149463
0.000141158
0.000141158
0.000141158
0.000138354
0.000138354
0.000138354
0.000132185
0.000132185
0.000132185
0.000130893
0.000130893
0.000130893
0.000141165
0.000141165
0.000141165
0.000139455
0.000139455
0.000139455
0.000144589
0.000144589
0.000144589
0.000146304
0.000146304
0.000146304
0.000146602
0.000146602
0.000146602
0.000133982
0.000133982
0.000133982
0.000151748
0.000151748
0.000151748
0.000152903
0.000152903
0.000152903
0.000151462
0.000151462
0.000151462
0.000109315
0.000109315
0.000109315
0.000108128
0.000108128
0.000108128
0.000115813
0.000115813
0.000115813
0.000105765
0.000105765
0.000105765
0.000105387
0.000105387
0.000105387
0.000106564
0.000106564
0.000106564
9.77081e-05
9.77081e-05
9.77081e-05
9.99748e-05
9.99748e-05
9.99748e-05
0.000120731
0.000120731
0.000120731
0.00012039
0.00012039
0.00012039
0.000103159
0.000103159
0.000103159
0.000104537
0.000104537
0.000104537
0.000105633
0.000105633
0.000105633
0.000105306
0.000105306
0.000105306
0.000106253
0.000106253
0.000106253
0.000107303
0.000107303
0.000107303
0.000107397
0.000107397
0.000107397
0.000109021
0.000109021
0.000109021
0.000108689
0.000108689
0.000108689
0.000136568
0.000136568
0.000136568
0.000135557
0.000135557
0.000135557
0.000135294
0.000135294
0.000135294
0.000118221
0.000118221
0.000118221
0.000118826
0.000118826
0.000118826
0.000120023
0.000120023
0.000120023
0.000119722
0.000119722
0.000119722
0.000122729
0.000122729
0.000122729
0.000121814
0.000121814
0.000121814
0.000121521
0.000121521
0.000121521
0.000123309
0.000123309
0.000123309
0.000111029
0.000111029
0.000111029
0.0001104
0.0001104
0.0001104
0.000117376
0.000117376
0.000117376
0.000117075
0.000117075
0.000117075
0.000112772
0.000112772
0.000112772
0.000114579
0.000114579
0.000114579
0.000115733
0.000115733
0.000115733
0.000117368
0.000117368
0.000117368
0.000109489
0.000109489
0.000109489
0.0001098
0.0001098
0.0001098
0.000111459
0.000111459
0.000111459
0.000112851
0.000112851
0.000112851
0.000111193
0.000111193
0.000111193
0.000112287
0.000112287
0.000112287
7.46658e-05
7.46658e-05
7.46658e-05
7.50415e-05
7.50415e-05
7.50415e-05
7.52771e-05
7.52771e-05
7.52771e-05
7.51351e-05
7.51351e-05
7.51351e-05
7.59994e-05
7.59994e-05
7.59994e-05
7.5754e-05
7.5754e-05
7.5754e-05
7.53748e-05
7.53748e-05
7.53748e-05
8.64351e-05
8.64351e-05
8.64351e-05
7.31372e-05
7.31372e-05
7.31372e-05
7.33557e-05
7.33557e-05
7.33557e-05
7.40215e-05
7.40215e-05
7.40215e-05
7.37969e-05
7.37969e-05
7.37969e-05
6.59743e-05
6.59743e-05
6.59743e-05
6.58249e-05
6.58249e-05
6.58249e-05
6.54841e-05
6.54841e-05
6.54841e-05
6.52943e-05
6.52943e-05
6.52943e-05
6.58993e-05
6.58993e-05
6.58993e-05
6.62762e-05
6.62762e-05
6.62762e-05
6.65105e-05
6.65105e-05
6.65105e-05
6.69147e-05
6.69147e-05
6.69147e-05
6.70639e-05
6.70639e-05
6.70639e-05
6.68628e-05
6.68628e-05
6.68628e-05
9.01781e-05
9.01781e-05
9.01781e-05
8.92933e-05
8.92933e-05
8.92933e-05
9.27332e-05
9.27332e-05
9.27332e-05
9.48071e-05
9.48071e-05
9.48071e-05
9.64268e-05
9.64268e-05
9.64268e-05
9.76074e-05
9.76074e-05
9.76074e-05
9.43559e-05
9.43559e-05
9.43559e-05
9.71651e-05
9.71651e-05
9.71651e-05
9.55331e-05
9.55331e-05
9.55331e-05
9.36421e-05
9.36421e-05
9.36421e-05
9.68713e-05
9.68713e-05
9.68713e-05
9.77415e-05
9.77415e-05
9.77415e-05
0.000112437
0.000112437
0.000112437
9.92357e-05
9.92357e-05
9.92357e-05
0.000110744
0.000110744
0.000110744
7.9704e-05
7.9704e-05
7.9704e-05
8.8842e-05
8.8842e-05
8.8842e-05
8.99683e-05
8.99683e-05
8.99683e-05
8.81433e-05
8.81433e-05
8.81433e-05
8.60841e-05
8.60841e-05
8.60841e-05
8.65506e-05
8.65506e-05
8.65506e-05
9.51555e-05
9.51555e-05
9.51555e-05
8.03186e-05
8.03186e-05
8.03186e-05
8.48493e-05
8.48493e-05
8.48493e-05
8.60509e-05
8.60509e-05
8.60509e-05
8.77716e-05
8.77716e-05
8.77716e-05
8.89468e-05
8.89468e-05
8.89468e-05
9.22749e-05
9.22749e-05
9.22749e-05
8.8069e-05
8.8069e-05
8.8069e-05
9.13391e-05
9.13391e-05
9.13391e-05
6.78263e-05
6.78263e-05
6.78263e-05
6.80273e-05
6.80273e-05
6.80273e-05
7.91037e-05
7.91037e-05
7.91037e-05
7.5946e-05
7.5946e-05
7.5946e-05
7.70269e-05
7.70269e-05
7.70269e-05
7.86106e-05
7.86106e-05
7.86106e-05
7.12013e-05
7.12013e-05
7.12013e-05
7.47405e-05
7.47405e-05
7.47405e-05
6.85989e-05
6.85989e-05
6.85989e-05
6.7745e-05
6.7745e-05
6.7745e-05
6.73987e-05
6.73987e-05
6.73987e-05
6.6894e-05
6.6894e-05
6.6894e-05
6.7277e-05
6.7277e-05
6.7277e-05
6.74364e-05
6.74364e-05
6.74364e-05
6.72443e-05
6.72443e-05
6.72443e-05
6.63943e-05
6.63943e-05
6.63943e-05
6.62398e-05
6.62398e-05
6.62398e-05
6.6429e-05
6.6429e-05
6.6429e-05
6.67742e-05
6.67742e-05
6.67742e-05
6.69286e-05
6.69286e-05
6.69286e-05
6.67378e-05
6.67378e-05
6.67378e-05
6.33477e-05
6.33477e-05
6.33477e-05
6.35282e-05
6.35282e-05
6.35282e-05
6.38554e-05
6.38554e-05
6.38554e-05
6.34931e-05
6.34931e-05
6.34931e-05
6.40005e-05
6.40005e-05
6.40005e-05
6.38186e-05
6.38186e-05
6.38186e-05
6.60984e-05
6.60984e-05
6.60984e-05
6.80351e-05
6.80351e-05
6.80351e-05
6.65809e-05
6.65809e-05
6.65809e-05
6.70774e-05
6.70774e-05
6.70774e-05
6.38382e-05
6.38382e-05
6.38382e-05
6.42429e-05
6.42429e-05
6.42429e-05
6.39039e-05
6.39039e-05
6.39039e-05
6.37016e-05
6.37016e-05
6.37016e-05
6.47214e-05
6.47214e-05
6.47214e-05
6.43794e-05
6.43794e-05
6.43794e-05
6.41754e-05
6.41754e-05
6.41754e-05
6.43133e-05
6.43133e-05
6.43133e-05
6.52039e-05
6.52039e-05
6.52039e-05
6.56161e-05
6.56161e-05
6.56161e-05
6.50686e-05
6.50686e-05
6.50686e-05
6.52734e-05
6.52734e-05
6.52734e-05
6.46668e-05
6.46668e-05
6.46668e-05
6.50031e-05
6.50031e-05
6.50031e-05
6.66726e-05
6.66726e-05
6.66726e-05
6.63166e-05
6.63166e-05
6.63166e-05
6.7571e-05
6.7571e-05
6.7571e-05
6.65916e-05
6.65916e-05
6.65916e-05
6.56862e-05
6.56862e-05
6.56862e-05
6.70836e-05
6.70836e-05
6.70836e-05
6.71192e-05
6.71192e-05
6.71192e-05
6.69683e-05
6.69683e-05
6.69683e-05
6.61843e-05
6.61843e-05
6.61843e-05
6.58679e-05
6.58679e-05
6.58679e-05
6.6019e-05
6.6019e-05
6.6019e-05
6.65643e-05
6.65643e-05
6.65643e-05
6.63645e-05
6.63645e-05
6.63645e-05
6.90176e-05
6.90176e-05
6.90176e-05
6.85424e-05
6.85424e-05
6.85424e-05
6.95289e-05
6.95289e-05
6.95289e-05
7.10011e-05
7.10011e-05
7.10011e-05
7.14722e-05
7.14722e-05
7.14722e-05
7.04786e-05
7.04786e-05
7.04786e-05
7.09466e-05
7.09466e-05
7.09466e-05
7.24045e-05
7.24045e-05
7.24045e-05
7.0049e-05
7.0049e-05
7.0049e-05
6.95674e-05
6.95674e-05
6.95674e-05
7.05716e-05
7.05716e-05
7.05716e-05
7.20664e-05
7.20664e-05
7.20664e-05
7.65579e-05
7.65579e-05
7.65579e-05
7.50596e-05
7.50596e-05
7.50596e-05
7.16317e-05
7.16317e-05
7.16317e-05
7.36982e-05
7.36982e-05
7.36982e-05
7.56211e-05
7.56211e-05
7.56211e-05
7.26053e-05
7.26053e-05
7.26053e-05
7.45881e-05
7.45881e-05
7.45881e-05
7.30859e-05
7.30859e-05
7.30859e-05
7.68559e-05
7.68559e-05
7.68559e-05
8.81832e-05
8.81832e-05
8.81832e-05
8.86274e-05
8.86274e-05
8.86274e-05
8.0298e-05
8.0298e-05
8.0298e-05
8.07565e-05
8.07565e-05
8.07565e-05
6.42484e-05
6.42484e-05
6.42484e-05
6.41125e-05
6.41125e-05
6.41125e-05
6.35789e-05
6.35789e-05
6.35789e-05
6.37751e-05
6.37751e-05
6.37751e-05
6.39947e-05
6.39947e-05
6.39947e-05
6.41894e-05
6.41894e-05
6.41894e-05
6.36625e-05
6.36625e-05
6.36625e-05
6.40504e-05
6.40504e-05
6.40504e-05
6.35234e-05
6.35234e-05
6.35234e-05
6.37166e-05
6.37166e-05
6.37166e-05
6.19201e-05
6.19201e-05
6.19201e-05
6.16761e-05
6.16761e-05
6.16761e-05
6.18629e-05
6.18629e-05
6.18629e-05
6.13613e-05
6.13613e-05
6.13613e-05
6.17301e-05
6.17301e-05
6.17301e-05