<VTKFile type="UnstructuredGrid" version="1.0">
<UnstructuredGrid>
<Piece NumberOfPoints="8859" NumberOfCells="2953">
<Points>
<DataArray type="Float64" NumberOfComponents="3" format="ascii">
2.75455 1.50245 4.04763
2.76986 1.48714 4.05958
2.75465 1.50235 4.07333
2.78515 1.47185 3.99667
2.78516 1.47184 3.97151
2.8005 1.4565 3.98398
2.76981 1.48719 4.00936
2.78515 1.47185 3.99667
2.78514 1.47186 4.02186
2.72412 1.53288 4.09988
2.73952 1.51748 4.1075
2.70875 1.54825 4.1075
2.72412 1.53288 4.09988
2.73943 1.51757 4.08457
2.73952 1.51748 4.1075
2.75488 1.50212 4.09979
2.77036 1.48664 4.1075
2.73952 1.51748 4.1075
2.75488 1.50212 4.09979
2.73943 1.51757 4.08457
2.75465 1.50235 4.07333
2.73952 1.51748 4.1075
2.73943 1.51757 4.08457
2.75488 1.50212 4.09979
2.75465 1.50235 4.07333
2.76986 1.48714 4.05958
2.76997 1.48703 4.08427
2.76997 1.48703 4.08427
2.75488 1.50212 4.09979
2.75465 1.50235 4.07333
2.77036 1.48664 4.1075
2.75488 1.50212 4.09979
2.76997 1.48703 4.08427
2.76986 1.48714 4.05958
2.75455 1.50245 4.04763
2.76982 1.48718 4.03452
2.76981 1.48719 4.00936
2.78514 1.47186 4.02186
2.76982 1.48718 4.03452
2.7852 1.4718 4.07262
2.76997 1.48703 4.08427
2.76986 1.48714 4.05958
2.8005 1.4565 4.05895
2.8005 1.4565 4.08355
2.7852 1.4718 4.07262
2.8005 1.4565 3.95887
2.8005 1.4565 3.98398
2.78516 1.47184 3.97151
2.78515 1.47185 3.99667
2.8005 1.4565 3.98398
2.8005 1.4565 4.00906
2.8005 1.4565 4.00906
2.78514 1.47186 4.02186
2.78515 1.47185 3.99667
2.8005 1.4565 3.43152
2.8005 1.4565 3.45665
2.78518 1.47182 3.44407
2.78517 1.47183 3.89607
2.8005 1.4565 3.90861
2.78517 1.47183 3.92121
2.8005 1.4565 3.88348
2.8005 1.4565 3.90861
2.78517 1.47183 3.89607
2.78519 1.47181 3.77044
2.8005 1.4565 3.78299
2.78519 1.47181 3.79555
2.32274 1.93426 3.21559
2.33845 1.91855 3.2075
2.33845 1.91855 3.23063
2.27541 1.98159 4.1075
2.24359 2.01341 4.1075
2.25954 1.99746 4.09932
2.78515 1.47185 4.04712
2.76982 1.48718 4.03452
2.78514 1.47186 4.02186
2.76986 1.48714 4.05958
2.76982 1.48718 4.03452
2.78515 1.47185 4.04712
2.78515 1.47185 4.04712
2.7852 1.4718 4.07262
2.76986 1.48714 4.05958
2.8005 1.4565 4.05895
2.7852 1.4718 4.07262
2.78515 1.47185 4.04712
2.78544 1.47156 4.09884
2.8005 1.4565 4.08355
2.8005 1.4565 4.1075
2.78544 1.47156 4.09884
2.7852 1.4718 4.07262
2.8005 1.4565 4.08355
2.8005 1.4565 4.1075
2.77036 1.48664 4.1075
2.78544 1.47156 4.09884
2.77036 1.48664 4.1075
2.76997 1.48703 4.08427
2.78544 1.47156 4.09884
2.76997 1.48703 4.08427
2.7852 1.4718 4.07262
2.78544 1.47156 4.09884
2.78517 1.47183 3.92121
2.8005 1.4565 3.90861
2.8005 1.4565 3.93375
2.78514 1.47186 4.02186
2.8005 1.4565 4.00906
2.8005 1.4565 4.03407
2.8005 1.4565 4.05895
2.78515 1.47185 4.04712
2.8005 1.4565 4.03407
2.8005 1.4565 4.03407
2.78515 1.47185 4.04712
2.78514 1.47186 4.02186
2.8005 1.4565 3.75788
2.8005 1.4565 3.78299
2.78519 1.47181 3.77044
2.78518 1.47182 3.44407
2.8005 1.4565 3.45665
2.78518 1.47182 3.4692
2.76985 1.48715 3.88353
2.75454 1.50246 3.87098
2.76986 1.48714 3.85838
2.78516 1.47184 3.94636
2.8005 1.4565 3.95887
2.78516 1.47184 3.97151
2.78516 1.47184 3.94636
2.8005 1.4565 3.93375
2.8005 1.4565 3.95887
2.78516 1.47184 3.94636
2.76984 1.48716 3.93384
2.78517 1.47183 3.92121
2.78517 1.47183 3.92121
2.8005 1.4565 3.93375
2.78516 1.47184 3.94636
2.76982 1.48718 3.98418
2.78515 1.47185 3.99667
2.76981 1.48719 4.00936
2.76982 1.48718 3.98418
2.78516 1.47184 3.97151
2.78515 1.47185 3.99667
2.75451 1.50249 3.94649
2.7392 1.5178 3.95915
2.73921 1.51779 3.93394
2.53996 1.71704 4.07338
2.52458 1.73242 4.0599
2.53996 1.71704 4.04775
2.49374 1.76326 3.9088
2.49375 1.76325 3.934
2.47832 1.77868 3.92139
2.8005 1.4565 3.2075
2.8005 1.4565 3.23145
2.78544 1.47156 3.21616
2.27543 1.98157 4.08433
2.27541 1.98159 4.1075
2.25954 1.99746 4.09932
2.33845 1.91855 4.00946
2.32276 1.93424 4.02214
2.32275 1.93425 3.99685
2.25954 1.99746 4.09932
2.24359 2.01341 4.1075
2.24374 2.01326 4.08423
2.76987 1.48713 3.532
2.75455 1.50245 3.51943
2.76987 1.48713 3.50688
2.8005 1.4565 3.68259
2.78519 1.47181 3.67005
2.8005 1.4565 3.6575
2.78519 1.47181 3.72024
2.8005 1.4565 3.70769
2.8005 1.4565 3.73278
2.76988 1.48712 3.63241
2.75456 1.50244 3.64495
2.75456 1.50244 3.61986
2.76988 1.48712 3.6575
2.75456 1.50244 3.64495
2.76988 1.48712 3.63241
2.78519 1.47181 3.67005
2.76988 1.48712 3.68259
2.76988 1.48712 3.6575
2.75455 1.50245 3.79557
2.76987 1.48713 3.80812
2.75455 1.50245 3.8207
2.72393 1.53307 3.77047
2.72392 1.53308 3.79559
2.70861 1.54839 3.78303
2.75456 1.50244 3.77045
2.73924 1.51776 3.7579
2.75456 1.50244 3.74535
2.75456 1.50244 3.74535
2.76987 1.48713 3.75789
2.75456 1.50244 3.77045
2.73924 1.51776 3.7579
2.73925 1.51775 3.7328
2.75456 1.50244 3.74535
2.75456 1.50244 3.74535
2.73925 1.51775 3.7328
2.75456 1.50244 3.72024
2.8005 1.4565 3.73278
2.8005 1.4565 3.75788
2.78519 1.47181 3.74534
2.78519 1.47181 3.74534
2.78519 1.47181 3.72024
2.8005 1.4565 3.73278
2.78519 1.47181 3.74534
2.8005 1.4565 3.75788
2.78519 1.47181 3.77044
2.78519 1.47181 3.77044
2.76987 1.48713 3.75789
2.78519 1.47181 3.74534
2.75454 1.50246 3.84583
2.73923 1.51777 3.83328
2.75455 1.50245 3.8207
2.75454 1.50246 3.84583
2.76986 1.48714 3.85838
2.75454 1.50246 3.87098
2.7086 1.5484 3.8333
2.72392 1.53308 3.82072
2.72392 1.53308 3.84586
2.72392 1.53308 3.84586
2.72392 1.53308 3.82072
2.73923 1.51777 3.83328
2.8005 1.4565 3.8081
2.78519 1.47181 3.79555
2.8005 1.4565 3.78299
2.75455 1.50245 3.8207
2.76987 1.48713 3.80812
2.76986 1.48714 3.83325
2.76986 1.48714 3.83325
2.75454 1.50246 3.84583
2.75455 1.50245 3.8207
2.76986 1.48714 3.85838
2.75454 1.50246 3.84583
2.76986 1.48714 3.83325
2.78517 1.47183 3.92121
2.76984 1.48716 3.93384
2.76985 1.48715 3.90868
2.76985 1.48715 3.90868
2.78517 1.47183 3.89607
2.78517 1.47183 3.92121
2.76985 1.48715 3.88353
2.78517 1.47183 3.89607
2.76985 1.48715 3.90868
2.73921 1.51779 3.93394
2.73921 1.51779 3.90875
2.75452 1.50248 3.9213
2.75452 1.50248 3.9213
2.75451 1.50249 3.94649
2.73921 1.51779 3.93394
2.76984 1.48716 3.93384
2.75451 1.50249 3.94649
2.75452 1.50248 3.9213
2.75452 1.50248 3.9213
2.76985 1.48715 3.90868
2.76984 1.48716 3.93384
2.7239 1.5331 3.92138
2.73921 1.51779 3.90875
2.73921 1.51779 3.93394
2.7239 1.5331 3.92138
2.70859 1.54841 3.93401
2.70859 1.54841 3.90881
2.76981 1.48719 4.00936
2.76982 1.48718 4.03452
2.75451 1.50249 4.02222
2.75451 1.50249 4.02222
2.76982 1.48718 4.03452
2.75455 1.50245 4.04763
2.7392 1.5178 3.95915
2.75451 1.50249 3.94649
2.75451 1.50249 3.97169
2.75451 1.50249 3.97169
2.7392 1.5178 3.98437
2.7392 1.5178 3.95915
2.67798 1.57902 3.80817
2.66266 1.59434 3.82075
2.66266 1.59434 3.79561
2.70859 1.54841 3.90881
2.70859 1.54841 3.88362
2.7239 1.5331 3.89619
2.7239 1.5331 3.89619
2.7239 1.5331 3.92138
2.70859 1.54841 3.90881
2.73921 1.51779 3.90875
2.7239 1.5331 3.92138
2.7239 1.5331 3.89619
2.73922 1.51778 3.88358
2.73921 1.51779 3.90875
2.7239 1.5331 3.89619
2.57068 1.68632 4.04776
2.57068 1.68632 4.07339
2.55533 1.70167 4.05991
2.55533 1.70167 4.05991
2.57068 1.68632 4.07339
2.55533 1.70167 4.0845
2.55533 1.70167 4.05991
2.55533 1.70167 4.0845
2.53996 1.71704 4.07338
2.53996 1.71704 4.07338
2.53996 1.71704 4.04775
2.55533 1.70167 4.05991
2.52458 1.73242 4.03484
2.53996 1.71704 4.04775
2.52458 1.73242 4.0599
2.50912 1.74788 3.67005
2.50912 1.74788 3.69515
2.49371 1.76329 3.6826
2.41633 1.84067 3.79556
2.40077 1.85623 3.783
2.41632 1.84068 3.77045
2.41635 1.84065 3.84583
2.40081 1.85619 3.85839
2.40079 1.85621 3.83325
2.33845 1.91855 4.00946
2.32275 1.93425 3.99685
2.33843 1.91857 3.98424
2.33845 1.91855 4.03466
2.32276 1.93424 4.02214
2.33845 1.91855 4.00946
2.40087 1.85613 3.95912
2.40088 1.85612 3.98434
2.38531 1.87169 3.97172
2.30693 1.95007 3.90858
2.32265 1.93435 3.89603
2.32267 1.93433 3.9212
2.30684 1.95016 3.80803
2.29108 1.96592 3.82056
2.29106 1.96594 3.79546
2.32274 1.93426 4.09941
2.33845 1.91855 4.1075
2.30701 1.94999 4.1075
2.33845 1.91855 4.08437
2.33845 1.91855 4.1075
2.32274 1.93426 4.09941
2.35411 1.90289 4.09947
2.33845 1.91855 4.1075
2.33845 1.91855 4.08437
2.30704 1.94996 4.03461
2.30703 1.94997 4.05969
2.29128 1.96572 4.04746
2.55533 1.70167 4.1075
2.52458 1.73242 4.1075
2.53996 1.71704 4.09972
2.53996 1.71704 4.07338
2.55533 1.70167 4.0845
2.53996 1.71704 4.09972
2.53996 1.71704 4.09972
2.55533 1.70167 4.0845
2.55533 1.70167 4.1075
2.52458 1.73242 4.08449
2.52458 1.73242 4.0599
2.53996 1.71704 4.07338
2.53996 1.71704 4.07338
2.53996 1.71704 4.09972
2.52458 1.73242 4.08449
2.52458 1.73242 4.08449
2.53996 1.71704 4.09972
2.52458 1.73242 4.1075
2.41642 1.84058 3.97176
2.40088 1.85612 3.98434
2.40087 1.85613 3.95912
2.47831 1.77869 3.8962
2.49374 1.76326 3.88362
2.49374 1.76326 3.9088
2.49374 1.76326 3.9088
2.47832 1.77868 3.92139
2.47831 1.77869 3.8962
2.47833 1.77867 3.9466
2.47832 1.77868 3.92139
2.49375 1.76325 3.934
2.47833 1.77867 3.9466
2.49375 1.76325 3.934
2.49376 1.76324 3.95921
2.49376 1.76324 3.95921
2.47834 1.77866 3.97182
2.47833 1.77867 3.9466
2.47833 1.77867 3.9466
2.47834 1.77866 3.97182
2.46289 1.79411 3.95919
2.49377 1.76323 3.98443
2.47834 1.77866 3.97182
2.49376 1.76324 3.95921
2.49377 1.76323 4.00964
2.47835 1.77865 4.02234
2.47834 1.77866 3.99706
2.47834 1.77866 3.99706
2.49377 1.76323 3.98443
2.49377 1.76323 4.00964
2.47834 1.77866 3.97182
2.49377 1.76323 3.98443
2.47834 1.77866 3.99706
2.7852 1.4718 3.24238
2.78544 1.47156 3.21616
2.8005 1.4565 3.23145
2.76997 1.48703 3.23073
2.78544 1.47156 3.21616
2.7852 1.4718 3.24238
2.64739 1.60961 3.23048
2.64738 1.60962 3.2075
2.66272 1.59428 3.21521
2.70875 1.54825 3.2075
2.6934 1.5636 3.21517
2.67805 1.57895 3.2075
2.67805 1.57895 3.2075
2.66272 1.59428 3.21521
2.64738 1.60962 3.2075
2.19638 2.06062 3.24397
2.1963 2.0607 3.21786
2.2122 2.0448 3.23145
2.2122 2.0448 3.23145
2.22771 2.02929 3.21601
2.22802 2.02898 3.24245
2.18073 2.07627 3.23282
2.1963 2.0607 3.21786
2.19638 2.06062 3.24397
2.18073 2.07627 3.23282
2.18123 2.07577 3.2075
2.1963 2.0607 3.21786
2.27543 1.98157 3.23067
2.27541 1.98159 3.2075
2.29123 1.96577 3.21563
2.30701 1.94999 3.2075
[...]
<PointData Scalars="View Factor" >
<DataArray type="Float64" Name="View Factor" NumberOfComponents="1" format="ascii">
8.64795e-05
8.64795e-05
8.64795e-05
8.79201e-05
8.79201e-05
8.79201e-05
8.74459e-05
8.74459e-05
8.74459e-05
8.36308e-05
8.36308e-05
8.36308e-05
8.45809e-05
8.45809e-05
8.45809e-05
8.70671e-05
8.70671e-05
8.70671e-05
8.60097e-05
8.60097e-05
8.60097e-05
8.57221e-05
8.57221e-05
8.57221e-05
8.73538e-05
8.73538e-05
8.73538e-05
8.71381e-05
8.71381e-05
8.71381e-05
8.80073e-05
8.80073e-05
8.80073e-05
8.67174e-05
8.67174e-05
8.67174e-05
8.71995e-05
8.71995e-05
8.71995e-05
8.84744e-05
8.84744e-05
8.84744e-05
9.07187e-05
9.07187e-05
9.07187e-05
8.81553e-05
8.81553e-05
8.81553e-05
8.87882e-05
8.87882e-05
8.87882e-05
8.85548e-05
8.85548e-05
8.85548e-05
7.60697e-05
7.60697e-05
7.60697e-05
8.60569e-05
8.60569e-05
8.60569e-05
8.62883e-05
8.62883e-05
8.62883e-05
8.30621e-05
8.30621e-05
8.30621e-05
3.99046e-05
3.99046e-05
3.99046e-05
5.17632e-05
5.17632e-05
5.17632e-05
8.80731e-05
8.80731e-05
8.80731e-05
8.78334e-05
8.78334e-05
8.78334e-05
8.87185e-05
8.87185e-05
8.87185e-05
8.98392e-05
8.98392e-05
8.98392e-05
9.13788e-05
9.13788e-05
9.13788e-05
9.05053e-05
9.05053e-05
9.05053e-05
9.04738e-05
9.04738e-05
9.04738e-05
8.91342e-05
8.91342e-05
8.91342e-05
8.93814e-05
8.93814e-05
8.93814e-05
8.69052e-05
8.69052e-05
8.69052e-05
8.94261e-05
8.94261e-05
8.94261e-05
9.00695e-05
9.00695e-05
9.00695e-05
8.91884e-05
8.91884e-05
8.91884e-05
8.32855e-05
8.32855e-05
8.32855e-05
7.58601e-05
7.58601e-05
7.58601e-05
8.24828e-05
8.24828e-05
8.24828e-05
8.72911e-05
8.72911e-05
8.72911e-05
8.75275e-05
8.75275e-05
8.75275e-05
8.55891e-05
8.55891e-05
8.55891e-05
8.6675e-05
8.6675e-05
8.6675e-05
8.65803e-05
8.65803e-05
8.65803e-05
8.68187e-05
8.68187e-05
8.68187e-05
8.20804e-05
8.20804e-05
8.20804e-05
6.17686e-05
6.17686e-05
6.17686e-05
5.4518e-05
5.4518e-05
5.4518e-05
7.1539e-05
7.1539e-05
7.1539e-05
5.15306e-05
5.15306e-05
5.15306e-05
4.96728e-05
4.96728e-05
4.96728e-05
5.17672e-05
5.17672e-05
5.17672e-05
7.47651e-05
7.47651e-05
7.47651e-05
8.09785e-05
8.09785e-05
8.09785e-05
8.21217e-05
8.21217e-05
8.21217e-05
7.66464e-05
7.66464e-05
7.66464e-05
7.74166e-05
7.74166e-05
7.74166e-05
7.89619e-05
7.89619e-05
7.89619e-05
8.0507e-05
8.0507e-05
8.0507e-05
7.57822e-05
7.57822e-05
7.57822e-05
7.83474e-05
7.83474e-05
7.83474e-05
7.93795e-05
7.93795e-05
7.93795e-05
7.75605e-05
7.75605e-05
7.75605e-05
7.77985e-05
7.77985e-05
7.77985e-05
8.27011e-05
8.27011e-05
8.27011e-05
8.18957e-05
8.18957e-05
8.18957e-05
8.24763e-05
8.24763e-05
8.24763e-05
8.1444e-05
8.1444e-05
8.1444e-05
8.00219e-05
8.00219e-05
8.00219e-05
8.16572e-05
8.16572e-05
8.16572e-05
7.68649e-05
7.68649e-05
7.68649e-05
7.79185e-05
7.79185e-05
7.79185e-05
8.38752e-05
8.38752e-05
8.38752e-05
8.1315e-05
8.1315e-05
8.1315e-05
8.1076e-05
8.1076e-05
8.1076e-05
8.18927e-05
8.18927e-05
8.18927e-05
8.47436e-05
8.47436e-05
8.47436e-05
8.49788e-05
8.49788e-05
8.49788e-05
8.41375e-05
8.41375e-05
8.41375e-05
8.15009e-05
8.15009e-05
8.15009e-05
8.23343e-05
8.23343e-05
8.23343e-05
8.34189e-05
8.34189e-05
8.34189e-05
8.36624e-05
8.36624e-05
8.36624e-05
8.04207e-05
8.04207e-05
8.04207e-05
7.82565e-05
7.82565e-05
7.82565e-05
8.60894e-05
8.60894e-05
8.60894e-05
8.58519e-05
8.58519e-05
8.58519e-05
8.29228e-05
8.29228e-05
8.29228e-05
8.26728e-05
8.26728e-05
8.26728e-05
7.10926e-05
7.10926e-05
7.10926e-05
7.77029e-05
7.77029e-05
7.77029e-05
7.85158e-05
7.85158e-05
7.85158e-05
7.95918e-05
7.95918e-05
7.95918e-05
7.98451e-05
7.98451e-05
7.98451e-05
6.51349e-05
6.51349e-05
6.51349e-05
6.48036e-05
6.48036e-05
6.48036e-05
6.36768e-05
6.36768e-05
6.36768e-05
6.28911e-05
6.28911e-05
6.28911e-05
6.09797e-05
6.09797e-05
6.09797e-05
5.24978e-05
5.24978e-05
5.24978e-05
4.59122e-05
4.59122e-05
4.59122e-05
4.67687e-05
4.67687e-05
4.67687e-05
4.94456e-05
4.94456e-05
4.94456e-05
4.97996e-05
4.97996e-05
4.97996e-05
4.85417e-05
4.85417e-05
4.85417e-05
4.83833e-05
4.83833e-05
4.83833e-05
4.72427e-05
4.72427e-05
4.72427e-05
5.10902e-05
5.10902e-05
5.10902e-05
5.0874e-05
5.0874e-05
5.0874e-05
5.07732e-05
5.07732e-05
5.07732e-05
5.0471e-05
5.0471e-05
5.0471e-05
6.31233e-05
6.31233e-05
6.31233e-05
6.33533e-05
6.33533e-05
6.33533e-05
6.41254e-05
6.41254e-05
6.41254e-05
6.14235e-05
6.14235e-05
6.14235e-05
6.22225e-05
6.22225e-05
6.22225e-05
6.18564e-05
6.18564e-05
6.18564e-05
4.84569e-05
4.84569e-05
4.84569e-05
5.41324e-05
5.41324e-05
5.41324e-05
5.37843e-05
5.37843e-05
5.37843e-05
5.41695e-05
5.41695e-05
5.41695e-05
5.49073e-05
5.49073e-05
5.49073e-05
5.45597e-05
5.45597e-05
5.45597e-05
5.34676e-05
5.34676e-05
5.34676e-05
5.53049e-05
5.53049e-05
5.53049e-05
5.53498e-05
5.53498e-05
5.53498e-05
5.57013e-05
5.57013e-05
5.57013e-05
5.49538e-05
5.49538e-05
5.49538e-05
7.13209e-05
7.13209e-05
7.13209e-05
7.04276e-05
7.04276e-05
7.04276e-05
5.9095e-05
5.9095e-05
5.9095e-05
6.2517e-05
6.2517e-05
6.2517e-05
5.98627e-05
5.98627e-05
5.98627e-05
4.12276e-05
4.12276e-05
4.12276e-05
4.10102e-05
4.10102e-05
4.10102e-05
4.13374e-05
4.13374e-05
4.13374e-05
4.1254e-05
4.1254e-05
4.1254e-05
4.03451e-05
4.03451e-05
4.03451e-05
3.99062e-05
3.99062e-05
3.99062e-05
4.01737e-05
4.01737e-05
4.01737e-05
4.32522e-05
4.32522e-05
4.32522e-05
4.33418e-05
4.33418e-05
4.33418e-05
5.10816e-05
5.10816e-05
5.10816e-05
5.07093e-05
5.07093e-05
5.07093e-05
5.08318e-05
5.08318e-05
5.08318e-05
4.72357e-05
4.72357e-05
4.72357e-05
4.73467e-05
4.73467e-05
4.73467e-05
4.92829e-05
4.92829e-05
4.92829e-05
7.5336e-05
7.5336e-05
7.5336e-05
7.9855e-05
7.9855e-05
7.9855e-05
7.58129e-05
7.58129e-05
7.58129e-05
7.55857e-05
7.55857e-05
7.55857e-05
7.5288e-05
7.5288e-05
7.5288e-05
7.50621e-05
7.50621e-05
7.50621e-05
7.40864e-05
7.40864e-05
7.40864e-05
7.33458e-05
7.33458e-05
7.33458e-05
7.35718e-05
7.35718e-05
7.35718e-05
7.45404e-05
7.45404e-05
7.45404e-05
5.02241e-05
5.02241e-05
5.02241e-05
4.99323e-05
4.99323e-05
4.99323e-05
4.92402e-05
4.92402e-05
4.92402e-05
7.28388e-05
7.28388e-05
7.28388e-05
7.65969e-05
7.65969e-05
7.65969e-05
6.95529e-05
6.95529e-05
6.95529e-05
6.74797e-05
6.74797e-05
6.74797e-05
7.37051e-05
7.37051e-05
7.37051e-05
6.68118e-05
6.68118e-05
6.68118e-05
6.93827e-05
6.93827e-05
6.93827e-05
6.864e-05
6.864e-05
6.864e-05
6.7631e-05
6.7631e-05
6.7631e-05
6.73618e-05
6.73618e-05
6.73618e-05
7.56502e-05
7.56502e-05
7.56502e-05
8.04143e-05
8.04143e-05
8.04143e-05
8.0194e-05
8.0194e-05
8.0194e-05
7.91903e-05
7.91903e-05
7.91903e-05
7.84165e-05
7.84165e-05
7.84165e-05
7.86392e-05
7.86392e-05
7.86392e-05
7.96357e-05
7.96357e-05
7.96357e-05
6.08619e-05
6.08619e-05
6.08619e-05
6.11488e-05
6.11488e-05
6.11488e-05
6.64268e-05
6.64268e-05
6.64268e-05
6.71579e-05
6.71579e-05
6.71579e-05
6.68883e-05
6.68883e-05
6.68883e-05
6.58831e-05
6.58831e-05
6.58831e-05
6.07239e-05
6.07239e-05
6.07239e-05
6.00212e-05
6.00212e-05
6.00212e-05
5.94375e-05
5.94375e-05
5.94375e-05
6.04352e-05
6.04352e-05
6.04352e-05
6.54286e-05
6.54286e-05
6.54286e-05
6.51546e-05
6.51546e-05
6.51546e-05
8.17906e-05
8.17906e-05
8.17906e-05
8.07471e-05
8.07471e-05
8.07471e-05
7.9943e-05
7.9943e-05
7.9943e-05
8.20224e-05
8.20224e-05
8.20224e-05
8.12133e-05
8.12133e-05
8.12133e-05
8.01774e-05
8.01774e-05
8.01774e-05
7.68209e-05
7.68209e-05
7.68209e-05
7.89037e-05
7.89037e-05
7.89037e-05
7.81037e-05
7.81037e-05
7.81037e-05
7.70683e-05
7.70683e-05
7.70683e-05
7.26754e-05
7.26754e-05
7.26754e-05
7.39554e-05
7.39554e-05
7.39554e-05
7.2935e-05
7.2935e-05
7.2935e-05
8.08708e-05
8.08708e-05
8.08708e-05
7.90553e-05
7.90553e-05
7.90553e-05
8.00765e-05
8.00765e-05
8.00765e-05
7.88232e-05
7.88232e-05
7.88232e-05
7.9615e-05
7.9615e-05
7.9615e-05
8.06435e-05
8.06435e-05
8.06435e-05
7.92188e-05
7.92188e-05
7.92188e-05
7.81684e-05
7.81684e-05
7.81684e-05
7.73672e-05
7.73672e-05
7.73672e-05
7.94604e-05
7.94604e-05
7.94604e-05
7.76136e-05
7.76136e-05
7.76136e-05
7.86566e-05
7.86566e-05
7.86566e-05
7.63211e-05
7.63211e-05
7.63211e-05
7.55309e-05
7.55309e-05
7.55309e-05
7.44887e-05
7.44887e-05
7.44887e-05
7.60685e-05
7.60685e-05
7.60685e-05
7.97791e-05
7.97791e-05
7.97791e-05
7.87213e-05
7.87213e-05
7.87213e-05
8.05956e-05
8.05956e-05
8.05956e-05
8.03493e-05
8.03493e-05
8.03493e-05
7.66046e-05
7.66046e-05
7.66046e-05
8.25963e-05
8.25963e-05
8.25963e-05
8.36436e-05
8.36436e-05
8.36436e-05
8.44705e-05
8.44705e-05
8.44705e-05
8.23657e-05
8.23657e-05
8.23657e-05
8.56769e-05
8.56769e-05
8.56769e-05
8.35489e-05
8.35489e-05
8.35489e-05
8.54466e-05
8.54466e-05
8.54466e-05
8.43763e-05
8.43763e-05
8.43763e-05
8.50709e-05
8.50709e-05
8.50709e-05
8.42473e-05
8.42473e-05
8.42473e-05
8.31924e-05
8.31924e-05
8.31924e-05
8.29512e-05
8.29512e-05
8.29512e-05
8.3777e-05
8.3777e-05
8.3777e-05
8.48393e-05
8.48393e-05
8.48393e-05
8.09177e-05
8.09177e-05
8.09177e-05
8.3064e-05
8.3064e-05
8.3064e-05
8.1747e-05
8.1747e-05
8.1747e-05
8.28239e-05
8.28239e-05
8.28239e-05
8.1165e-05
8.1165e-05
8.1165e-05
8.22344e-05
8.22344e-05
8.22344e-05
8.09926e-05
8.09926e-05
8.09926e-05
8.01665e-05
8.01665e-05
8.01665e-05
7.9083e-05
7.9083e-05
7.9083e-05
8.54768e-05
8.54768e-05
8.54768e-05
8.32668e-05
8.32668e-05
8.32668e-05
8.46162e-05
8.46162e-05
8.46162e-05
8.35173e-05
8.35173e-05
8.35173e-05
8.52274e-05
8.52274e-05
8.52274e-05
8.41213e-05
8.41213e-05
8.41213e-05
8.51063e-05
8.51063e-05
8.51063e-05
8.53598e-05
8.53598e-05
8.53598e-05
8.37394e-05
8.37394e-05
8.37394e-05
8.39802e-05
8.39802e-05
8.39802e-05
8.31187e-05
8.31187e-05
8.31187e-05
8.38753e-05
8.38753e-05
8.38753e-05
8.33706e-05
8.33706e-05
8.33706e-05
8.4739e-05
8.4739e-05
8.4739e-05
8.44877e-05
8.44877e-05
8.44877e-05
8.40145e-05
8.40145e-05
8.40145e-05
8.61974e-05
8.61974e-05
8.61974e-05
8.596e-05
8.596e-05
8.596e-05
8.48635e-05
8.48635e-05
8.48635e-05
8.53455e-05
8.53455e-05
8.53455e-05
8.42565e-05
8.42565e-05
8.42565e-05
6.33301e-05
6.33301e-05
6.33301e-05
6.25889e-05
6.25889e-05
6.25889e-05
6.64419e-05
6.64419e-05
6.64419e-05
6.43672e-05
6.43672e-05
6.43672e-05
7.18688e-05
7.18688e-05
7.18688e-05
6.65345e-05
6.65345e-05
6.65345e-05
6.52603e-05
6.52603e-05
6.52603e-05
6.56154e-05
6.56154e-05
6.56154e-05
5.21779e-05
5.21779e-05
5.21779e-05
5.35069e-05
5.35069e-05
5.35069e-05
5.91461e-05
5.91461e-05
5.91461e-05
5.9857e-05
5.9857e-05
5.9857e-05
4.57916e-05
4.57916e-05
4.57916e-05
4.74454e-05
4.74454e-05
4.74454e-05
4.61165e-05
4.61165e-05
4.61165e-05
4.56953e-05
4.56953e-05
4.56953e-05
4.59898e-05
4.59898e-05
4.59898e-05
4.57854e-05
4.57854e-05
4.57854e-05
4.93214e-05
4.93214e-05
4.93214e-05
5.00322e-05
5.00322e-05
5.00322e-05
5.01351e-05
5.01351e-05
5.01351e-05
5.03644e-05
5.03644e-05
5.03644e-05
4.93472e-05
4.93472e-05
4.93472e-05
4.91262e-05
4.91262e-05
4.91262e-05
4.91582e-05
4.91582e-05
4.91582e-05
4.90314e-05
4.90314e-05
4.90314e-05
4.81207e-05
4.81207e-05
4.81207e-05
4.80304e-05
4.80304e-05
4.80304e-05
4.83082e-05
4.83082e-05
4.83082e-05
4.84049e-05
4.84049e-05
4.84049e-05
4.82833e-05
4.82833e-05
4.82833e-05
4.73558e-05
4.73558e-05
4.73558e-05
4.87177e-05
4.87177e-05
4.87177e-05
4.88092e-05
4.88092e-05
4.88092e-05
4.82635e-05
4.82635e-05
4.82635e-05
4.80433e-05
4.80433e-05
4.80433e-05
4.76076e-05
4.76076e-05
4.76076e-05
4.70268e-05
4.70268e-05
4.70268e-05
5.07797e-05
5.07797e-05
5.07797e-05
5.04998e-05
5.04998e-05
5.04998e-05
4.97751e-05
4.97751e-05
4.97751e-05
5.00061e-05
5.00061e-05
5.00061e-05
5.97197e-05
5.97197e-05
5.97197e-05
6.07213e-05
6.07213e-05
6.07213e-05
5.15971e-05
5.15971e-05
5.15971e-05
5.12539e-05
5.12539e-05
5.12539e-05
5.48121e-05
5.48121e-05
5.48121e-05
5.31626e-05
5.31626e-05
5.31626e-05
5.27309e-05
5.27309e-05
5.27309e-05
5.3085e-05
5.3085e-05
5.3085e-05
5.42419e-05
5.42419e-05
5.42419e-05
5.20224e-05
5.20224e-05
5.20224e-05
7.05057e-05
7.05057e-05
7.05057e-05
6.97715e-05
6.97715e-05
6.97715e-05
6.59602e-05
6.59602e-05
6.59602e-05
6.62111e-05
6.62111e-05
6.62111e-05
6.51826e-05
6.51826e-05
6.51826e-05
4.07315e-05
4.07315e-05
4.07315e-05
4.09076e-05
4.09076e-05
4.09076e-05
4.04496e-05
4.04496e-05
4.04496e-05
4.06318e-05
4.06318e-05
4.06318e-05
4.07068e-05
4.07068e-05
4.07068e-05
4.04385e-05
4.04385e-05
4.04385e-05
4.06105e-05
4.06105e-05
4.06105e-05
4.07081e-05
4.07081e-05
4.07081e-05
4.1208e-05
4.1208e-05
4.1208e-05
4.15095e-05
4.15095e-05
4.15095e-05
4.13168e-05
4.13168e-05
4.13168e-05
4.10437e-05
4.10437e-05
4.10437e-05
4.09351e-05
4.09351e-05
4.09351e-05
4.10579e-05
4.10579e-05
4.10579e-05
4.07478e-05
4.07478e-05
4.07478e-05
4.1825e-05
4.1825e-05
4.1825e-05
4.56246e-05
4.56246e-05
4.56246e-05
4.20182e-05
4.20182e-05
4.20182e-05
4.5699e-05
4.5699e-05
4.5699e-05
4.53869e-05
4.53869e-05
4.53869e-05
4.54827e-05
4.54827e-05
4.54827e-05
4.51505e-05
4.51505e-05
4.51505e-05
4.53641e-05
4.53641e-05
4.53641e-05
4.41658e-05
4.41658e-05
4.41658e-05
4.47252e-05
4.47252e-05
4.47252e-05
4.7075e-05
4.7075e-05
4.7075e-05
4.56315e-05
4.56315e-05
4.56315e-05
4.57337e-05
4.57337e-05
4.57337e-05
4.2706e-05
4.2706e-05
4.2706e-05
4.26027e-05
4.26027e-05
4.26027e-05
4.29185e-05
4.29185e-05
4.29185e-05
4.30278e-05
4.30278e-05
4.30278e-05
4.32295e-05
4.32295e-05
4.32295e-05
4.29864e-05
4.29864e-05
4.29864e-05
4.3572e-05
4.3572e-05
4.3572e-05
4.32797e-05
4.32797e-05
4.32797e-05
4.33672e-05
4.33672e-05
4.33672e-05
4.38854e-05
4.38854e-05
4.38854e-05
4.39972e-05
4.39972e-05
4.39972e-05
4.51338e-05
4.51338e-05
4.51338e-05
4.4225e-05
4.4225e-05
4.4225e-05
4.40327e-05
4.40327e-05
4.40327e-05
4.39179e-05
4.39179e-05
4.39179e-05
4.7449e-05
4.7449e-05
4.7449e-05
4.61136e-05
4.61136e-05
4.61136e-05
4.47012e-05
4.47012e-05
4.47012e-05
4.4501e-05
4.4501e-05
4.4501e-05
5.07581e-05
5.07581e-05
5.07581e-05
5.08624e-05
5.08624e-05
5.08624e-05
5.07244e-05
5.07244e-05
5.07244e-05
5.04939e-05
5.04939e-05
5.04939e-05
5.11897e-05
5.11897e-05
5.11897e-05
5.10793e-05
5.10793e-05
5.10793e-05
5.1411e-05
5.1411e-05
5.1411e-05
5.14152e-05
5.14152e-05
5.14152e-05
5.11909e-05
5.11909e-05
5.11909e-05
4.79601e-05
4.79601e-05
4.79601e-05
4.82942e-05
4.82942e-05
4.82942e-05
4.80636e-05
4.80636e-05
4.80636e-05
4.75654e-05
4.75654e-05
4.75654e-05
4.80104e-05
4.80104e-05
4.80104e-05
4.78973e-05
4.78973e-05
4.78973e-05
4.76729e-05
4.76729e-05
4.76729e-05
4.78957e-05
4.78957e-05
4.78957e-05
4.82316e-05
4.82316e-05
4.82316e-05
4.80084e-05
4.80084e-05
4.80084e-05
4.8346e-05
4.8346e-05
4.8346e-05
4.90558e-05
4.90558e-05
4.90558e-05
4.86053e-05
4.86053e-05
4.86053e-05
4.89149e-05
4.89149e-05
4.89149e-05
4.86904e-05
4.86904e-05
4.86904e-05
4.93904e-05
4.93904e-05
4.93904e-05
5.18887e-05
5.18887e-05
5.18887e-05
5.21297e-05
5.21297e-05
5.21297e-05
5.21376e-05
5.21376e-05
5.21376e-05
5.08199e-05
5.08199e-05
5.08199e-05
5.10539e-05
5.10539e-05
5.10539e-05
5.14207e-05
5.14207e-05
5.14207e-05
5.15389e-05
5.15389e-05
5.15389e-05
5.11682e-05
5.11682e-05
5.11682e-05
5.10445e-05
5.10445e-05
5.10445e-05
6.50678e-05
6.50678e-05
6.50678e-05
6.44252e-05
6.44252e-05
6.44252e-05
6.35354e-05
6.35354e-05
6.35354e-05
6.32858e-05
6.32858e-05
6.32858e-05
6.08708e-05
6.08708e-05
6.08708e-05
6.17593e-05
6.17593e-05
6.17593e-05
6.23943e-05
6.23943e-05
6.23943e-05
5.51923e-05
5.51923e-05
5.51923e-05
7.02205e-05
7.02205e-05
7.02205e-05
6.93239e-05
6.93239e-05
6.93239e-05
6.66417e-05
6.66417e-05
6.66417e-05
6.75356e-05
6.75356e-05
6.75356e-05
7.63445e-05
7.63445e-05
7.63445e-05
7.61139e-05
7.61139e-05
7.61139e-05
7.68737e-05
7.68737e-05
7.68737e-05
7.78666e-05
7.78666e-05
7.78666e-05
7.87507e-05
7.87507e-05
7.87507e-05
7.67921e-05
7.67921e-05
7.67921e-05
7.46034e-05
7.46034e-05
7.46034e-05
7.26369e-05
7.26369e-05
7.26369e-05
7.28741e-05
7.28741e-05
7.28741e-05
7.38528e-05
7.38528e-05
7.38528e-05
5.27149e-05
5.27149e-05
5.27149e-05
5.33251e-05
5.33251e-05
5.33251e-05
5.15175e-05
5.15175e-05
5.15175e-05
5.02743e-05
5.02743e-05
5.02743e-05
4.93267e-05
4.93267e-05
4.93267e-05
4.86853e-05
4.86853e-05
4.86853e-05
5.05737e-05
5.05737e-05
5.05737e-05
4.89888e-05
4.89888e-05
4.89888e-05
4.99298e-05
4.99298e-05
4.99298e-05
5.09214e-05
5.09214e-05
5.09214e-05
4.90212e-05
4.90212e-05
4.90212e-05
4.8402e-05
4.8402e-05
4.8402e-05
4.09311e-05
4.09311e-05
4.09311e-05
4.77407e-05
4.77407e-05
4.77407e-05
4.18518e-05
4.18518e-05
4.18518e-05
5.92029e-05
5.92029e-05
5.92029e-05
5.36308e-05
5.36308e-05
5.36308e-05
5.29602e-05
5.29602e-05
5.29602e-05
5.41446e-05
5.41446e-05
5.41446e-05
5.53913e-05
5.53913e-05
5.53913e-05
5.51012e-05
5.51012e-05
5.51012e-05
5.05578e-05
5.05578e-05
5.05578e-05
5.82075e-05
5.82075e-05
5.82075e-05
5.59137e-05
5.59137e-05
5.59137e-05
5.52687e-05
5.52687e-05
5.52687e-05
5.43791e-05
5.43791e-05
5.43791e-05
5.37726e-05
5.37726e-05
5.37726e-05
5.18108e-05
5.18108e-05
5.18108e-05
5.42586e-05
5.42586e-05
5.42586e-05
5.23896e-05
5.23896e-05
5.23896e-05
7.40276e-05
7.40276e-05
7.40276e-05
7.30656e-05
7.30656e-05
7.30656e-05
5.96151e-05
5.96151e-05
5.96151e-05
6.15338e-05
6.15338e-05
6.15338e-05
6.08411e-05
6.08411e-05
6.08411e-05
5.98843e-05
5.98843e-05
5.98843e-05
6.46024e-05
6.46024e-05
6.46024e-05
6.25555e-05
6.25555e-05
6.25555e-05
6.66892e-05
6.66892e-05
6.66892e-05
7.63797e-05
7.63797e-05
7.63797e-05
7.71288e-05
7.71288e-05
7.71288e-05
7.76648e-05
7.76648e-05
7.76648e-05
7.57309e-05
7.57309e-05
7.57309e-05
7.59568e-05
7.59568e-05
7.59568e-05
7.69194e-05
7.69194e-05
7.69194e-05
7.82055e-05
7.82055e-05
7.82055e-05
7.79895e-05
7.79895e-05
7.79895e-05
7.70136e-05
7.70136e-05
7.70136e-05
7.62604e-05
7.62604e-05
7.62604e-05
7.64785e-05
7.64785e-05
7.64785e-05
7.74476e-05
7.74476e-05
7.74476e-05
8.13274e-05
8.13274e-05
8.13274e-05
8.03096e-05
8.03096e-05
8.03096e-05
7.95214e-05
7.95214e-05
7.95214e-05
8.15476e-05
8.15476e-05
8.15476e-05
7.97464e-05
7.97464e-05
7.97464e-05
8.0757e-05
8.0757e-05
8.0757e-05
6.90689e-05
6.90689e-05
6.90689e-05
6.77594e-05
6.77594e-05
6.77594e-05
6.87933e-05
6.87933e-05
6.87933e-05
6.83131e-05
6.83131e-05
6.83131e-05
7.26668e-05
7.26668e-05
7.26668e-05
7.05908e-05
7.05908e-05
7.05908e-05
7.13609e-05
7.13609e-05
7.13609e-05
7.24026e-05
7.24026e-05
7.24026e-05
7.00996e-05
7.00996e-05
7.00996e-05
7.08617e-05
7.08617e-05
7.08617e-05
7.18962e-05
7.18962e-05
7.18962e-05
7.21611e-05
7.21611e-05
7.21611e-05
7.24213e-05
7.24213e-05
7.24213e-05
7.03956e-05
7.03956e-05
7.03956e-05
7.21692e-05
7.21692e-05
7.21692e-05
7.11529e-05
7.11529e-05
7.11529e-05
7.42008e-05
7.42008e-05
7.42008e-05
7.34346e-05
7.34346e-05
7.34346e-05
6.816e-05
6.816e-05
6.816e-05
6.89013e-05
6.89013e-05
6.89013e-05
6.78313e-05
6.78313e-05
6.78313e-05
6.85833e-05
6.85833e-05
6.85833e-05
6.91181e-05
6.91181e-05
6.91181e-05
6.8102e-05
6.8102e-05
6.8102e-05
7.16551e-05
7.16551e-05
7.16551e-05
7.14122e-05
7.14122e-05
7.14122e-05
7.14179e-05
7.14179e-05
7.14179e-05
7.48905e-05
7.48905e-05
7.48905e-05
7.51246e-05
7.51246e-05
7.51246e-05
7.3385e-05
7.3385e-05
7.3385e-05
7.43706e-05
7.43706e-05
7.43706e-05
6.70063e-05
6.70063e-05
6.70063e-05
6.72864e-05
6.72864e-05
6.72864e-05
6.65351e-05
6.65351e-05
6.65351e-05
6.55124e-05
6.55124e-05
6.55124e-05
6.52332e-05
6.52332e-05
6.52332e-05
6.5976e-05
6.5976e-05
6.5976e-05
6.56934e-05
6.56934e-05
6.56934e-05
6.46597e-05
6.46597e-05
6.46597e-05
6.60742e-05
6.60742e-05
6.60742e-05
6.63494e-05
6.63494e-05
6.63494e-05
6.56094e-05
6.56094e-05
6.56094e-05
6.46009e-05
6.46009e-05
6.46009e-05
6.15772e-05
6.15772e-05
6.15772e-05
6.25857e-05
6.25857e-05
6.25857e-05
6.47036e-05
6.47036e-05
6.47036e-05
6.32634e-05
6.32634e-05
6.32634e-05
6.21502e-05
6.21502e-05
6.21502e-05
6.41531e-05
6.41531e-05
6.41531e-05
6.28699e-05
6.28699e-05
6.28699e-05
6.3875e-05
6.3875e-05
6.3875e-05
6.11417e-05
6.11417e-05
6.11417e-05
5.40039e-05
5.40039e-05
5.40039e-05
5.36994e-05
5.36994e-05
5.36994e-05
5.90302e-05
5.90302e-05
5.90302e-05
5.87355e-05
5.87355e-05
5.87355e-05
7.34448e-05
7.34448e-05
7.34448e-05
7.31921e-05
7.31921e-05
7.31921e-05
7.50004e-05
7.50004e-05
7.50004e-05
7.39654e-05
7.39654e-05
7.39654e-05
7.57518e-05
7.57518e-05
7.57518e-05
7.47275e-05
7.47275e-05
7.47275e-05
7.65324e-05
7.65324e-05
7.65324e-05
7.44724e-05
7.44724e-05
7.44724e-05
7.6284e-05
7.6284e-05
7.6284e-05
7.52526e-05
7.52526e-05
7.52526e-05
7.60876e-05
7.60876e-05
7.60876e-05
7.84658e-05
7.84658e-05
7.84658e-05
7.74048e-05
7.74048e-05
7.74048e-05
7.92842e-05
7.92842e-05
7.92842e-05
7.7152e-05