<VTKFile type="UnstructuredGrid" version="1.0">
<UnstructuredGrid>
<Piece NumberOfPoints="8859" NumberOfCells="2953">
<Points>
<DataArray type="Float64" NumberOfComponents="3" format="ascii">
0.5 3.01 13.49
0.512524 3.01 13.5125
0.487476 3.01 13.5125
0.17352 3.01 12.6125
0.160827 3.01 12.6342
0.148445 3.01 12.6125
0.122979 3.01 12.6559
0.110383 3.01 12.6342
0.135644 3.01 12.6342
0.135644 3.01 12.6342
0.110383 3.01 12.6342
0.123433 3.01 12.6125
0.123433 3.01 12.6125
0.148445 3.01 12.6125
0.135644 3.01 12.6342
0.135644 3.01 12.6342
0.148445 3.01 12.6125
0.160827 3.01 12.6342
0.17352 3.01 12.6125
0.198629 3.01 12.6125
0.185985 3.01 12.6342
0.185985 3.01 12.6342
0.160827 3.01 12.6342
0.17352 3.01 12.6125
0.0732297 3.01 12.6557
0.0586606 3.01 12.6338
0.0848754 3.01 12.6341
0.05 3.01 13.4453
0.05 3.01 13.4001
0.058509 3.01 13.4226
0.324276 3.01 12.6125
0.349395 3.01 12.6125
0.336827 3.01 12.6342
0.148138 3.01 12.6559
0.135644 3.01 12.6342
0.160827 3.01 12.6342
0.122979 3.01 12.6559
0.135644 3.01 12.6342
0.148138 3.01 12.6559
0.160827 3.01 12.6342
0.185985 3.01 12.6342
0.173316 3.01 12.6559
0.185806 3.01 12.6775
0.160572 3.01 12.6776
0.173316 3.01 12.6559
0.173316 3.01 12.6559
0.148138 3.01 12.6559
0.160827 3.01 12.6342
0.160572 3.01 12.6776
0.148138 3.01 12.6559
0.173316 3.01 12.6559
0.211137 3.01 12.6342
0.185985 3.01 12.6342
0.198629 3.01 12.6125
0.0979162 3.01 12.6558
0.110383 3.01 12.6342
0.122979 3.01 12.6559
0.122979 3.01 12.6559
0.109875 3.01 12.6775
0.0979162 3.01 12.6558
0.0732297 3.01 12.6557
0.0848754 3.01 12.6341
0.0979162 3.01 12.6558
0.0979162 3.01 12.6558
0.0848754 3.01 12.6341
0.110383 3.01 12.6342
0.0975729 3.01 12.699
0.109875 3.01 12.6775
0.122678 3.01 12.6991
0.0841718 3.01 12.6773
0.0577122 3.01 12.677
0.0732297 3.01 12.6557
0.0729308 3.01 12.6989
0.0577122 3.01 12.677
0.0841718 3.01 12.6773
0.0732297 3.01 12.6557
0.0979162 3.01 12.6558
0.0841718 3.01 12.6773
0.0841718 3.01 12.6773
0.0979162 3.01 12.6558
0.109875 3.01 12.6775
0.0975729 3.01 12.699
0.0729308 3.01 12.6989
0.0841718 3.01 12.6773
0.0841718 3.01 12.6773
0.109875 3.01 12.6775
0.0975729 3.01 12.699
0.073948 3.01 12.6125
0.0586606 3.01 12.6338
0.05 3.01 12.6125
0.073948 3.01 12.6125
0.0848754 3.01 12.6341
0.0586606 3.01 12.6338
0.05 3.01 13.4883
0.05 3.01 13.4453
0.0603641 3.01 13.467
0.0603641 3.01 13.467
0.0753197 3.01 13.489
0.05 3.01 13.4883
0.0709395 3.01 13.5125
0.05 3.01 13.5125
0.05 3.01 13.4883
0.05 3.01 13.4883
0.0753197 3.01 13.489
0.0709395 3.01 13.5125
0.0579641 3.01 13.1996
0.05 3.01 13.2217
0.05 3.01 13.1776
0.0841948 3.01 13.1118
0.097638 3.01 13.0899
0.109814 3.01 13.1118
0.0841948 3.01 13.1118
0.0730539 3.01 13.1337
0.0578646 3.01 13.1118
0.0580261 3.01 13.2438
0.05 3.01 13.2659
0.05 3.01 13.2217
0.942292 3.01 12.8074
0.95 3.01 12.7857
0.95 3.01 12.829
0.95 3.01 12.7423
0.95 3.01 12.7857
0.942332 3.01 12.764
0.73872 3.01 13.0245
0.726137 3.01 13.0028
0.75132 3.01 13.0028
0.751305 3.01 13.0463
0.726124 3.01 13.0463
0.73872 3.01 13.0245
0.713546 3.01 13.0245
0.726137 3.01 13.0028
0.73872 3.01 13.0245
0.73872 3.01 13.0245
0.726124 3.01 13.0463
0.713546 3.01 13.0245
0.814318 3.01 13.0681
0.789096 3.01 13.0681
0.801709 3.01 13.0463
0.7765 3.01 13.0463
0.789115 3.01 13.0245
0.801709 3.01 13.0463
0.801709 3.01 13.0463
0.789096 3.01 13.0681
0.7765 3.01 13.0463
0.7765 3.01 13.0463
0.789096 3.01 13.0681
0.763892 3.01 13.0681
0.763892 3.01 13.0681
0.751305 3.01 13.0463
0.7765 3.01 13.0463
0.95 3.01 13.5125
0.929061 3.01 13.5125
0.95 3.01 13.4883
0.95 3.01 13.3104
0.926844 3.01 13.3104
0.941913 3.01 13.2882
0.941913 3.01 13.2882
0.95 3.01 13.2659
0.95 3.01 13.3104
0.926866 3.01 13.2659
0.95 3.01 13.2659
0.941913 3.01 13.2882
0.941974 3.01 13.2438
0.95 3.01 13.2659
0.926866 3.01 13.2659
0.95 3.01 13.2217
0.95 3.01 13.2659
0.941974 3.01 13.2438
0.941974 3.01 13.2438
0.926895 3.01 13.2217
0.95 3.01 13.2217
0.6127 3.01 13.5125
0.625238 3.01 13.49
0.637734 3.01 13.5125
0.662757 3.01 13.5125
0.637734 3.01 13.5125
0.650275 3.01 13.49
0.650275 3.01 13.49
0.637734 3.01 13.5125
0.625238 3.01 13.49
0.600415 3.01 13.0464
0.587856 3.01 13.0682
0.575304 3.01 13.0464
0.575304 3.01 13.0464
0.587856 3.01 13.0682
0.562749 3.01 13.0682
0.336827 3.01 12.6342
0.349395 3.01 12.6125
0.361946 3.01 12.6342
0.223755 3.01 12.6125
0.211137 3.01 12.6342
0.198629 3.01 12.6125
0.185985 3.01 12.6342
0.211137 3.01 12.6342
0.198492 3.01 12.6559
0.185806 3.01 12.6775
0.173316 3.01 12.6559
0.198492 3.01 12.6559
0.198492 3.01 12.6559
0.173316 3.01 12.6559
0.185985 3.01 12.6342
0.0576202 3.01 12.7205
0.05 3.01 12.7423
0.05 3.01 12.6987
0.05 3.01 12.6987
0.0729308 3.01 12.6989
0.0576202 3.01 12.7205
0.05 3.01 12.6987
0.0577122 3.01 12.677
0.0729308 3.01 12.6989
0.135283 3.01 12.6775
0.109875 3.01 12.6775
0.122979 3.01 12.6559
0.135283 3.01 12.6775
0.122678 3.01 12.6991
0.109875 3.01 12.6775
0.122979 3.01 12.6559
0.148138 3.01 12.6559
0.135283 3.01 12.6775
0.135283 3.01 12.6775
0.148138 3.01 12.6559
0.160572 3.01 12.6776
0.123433 3.01 12.6125
0.110383 3.01 12.6342
0.0985513 3.01 12.6125
0.110383 3.01 12.6342
0.0848754 3.01 12.6341
0.0985513 3.01 12.6125
0.0848754 3.01 12.6341
0.073948 3.01 12.6125
0.0985513 3.01 12.6125
0.0603641 3.01 13.467
0.05 3.01 13.4453
0.0739464 3.01 13.4445
0.0739464 3.01 13.4445
0.05 3.01 13.4453
0.058509 3.01 13.4226
0.058509 3.01 13.4226
0.0849548 3.01 13.4221
0.0739464 3.01 13.4445
0.058509 3.01 13.4226
0.05 3.01 13.4001
0.0732725 3.01 13.3999
0.0732725 3.01 13.3999
0.0849548 3.01 13.4221
0.058509 3.01 13.4226
0.5 3.01 13.49
0.487476 3.01 13.5125
0.47495 3.01 13.49
0.097663 3.01 13.1337
0.0841948 3.01 13.1118
0.109814 3.01 13.1118
0.0730539 3.01 13.1337
0.0841948 3.01 13.1118
0.097663 3.01 13.1337
0.0578646 3.01 13.1118
0.0730539 3.01 13.1337
0.05 3.01 13.1337
0.05 3.01 13.1337
0.05 3.01 13.0899
0.0578646 3.01 13.1118
0.05 3.01 13.3104
0.05 3.01 13.2659
0.0580869 3.01 13.2882
0.05 3.01 13.2659
0.0580261 3.01 13.2438
0.073134 3.01 13.2659
0.073134 3.01 13.2659
0.0580869 3.01 13.2882
0.05 3.01 13.2659
0.942268 3.01 12.8507
0.95 3.01 12.829
0.95 3.01 12.8724
0.942292 3.01 12.8074
0.95 3.01 12.829
0.927025 3.01 12.829
0.927025 3.01 12.829
0.942268 3.01 12.8507
0.915919 3.01 12.8507
0.95 3.01 12.829
0.942268 3.01 12.8507
0.927025 3.01 12.829
0.927013 3.01 12.8724
0.942268 3.01 12.8507
0.95 3.01 12.8724
0.915919 3.01 12.8507
0.942268 3.01 12.8507
0.927013 3.01 12.8724
0.801738 3.01 12.9593
0.814364 3.01 12.9375
0.826957 3.01 12.9592
0.852174 3.01 12.9592
0.826957 3.01 12.9592
0.839609 3.01 12.9375
0.839609 3.01 12.9375
0.826957 3.01 12.9592
0.814364 3.01 12.9375
0.776516 3.01 13.0027
0.75132 3.01 13.0028
0.763923 3.01 12.981
0.776516 3.01 13.0027
0.801725 3.01 13.0027
0.789115 3.01 13.0245
0.738704 3.01 13.0681
0.751305 3.01 13.0463
0.763892 3.01 13.0681
0.726124 3.01 13.0463
0.751305 3.01 13.0463
0.738704 3.01 13.0681
0.915617 3.01 13.2881
0.902228 3.01 13.2659
0.926866 3.01 13.2659
0.926866 3.01 13.2659
0.941913 3.01 13.2882
0.915617 3.01 13.2881
0.915617 3.01 13.2881
0.941913 3.01 13.2882
0.926844 3.01 13.3104
0.915617 3.01 13.2881
0.926844 3.01 13.3104
0.902193 3.01 13.3104
0.926866 3.01 13.2659
0.902228 3.01 13.2659
0.915668 3.01 13.2438
0.902267 3.01 13.2217
0.926895 3.01 13.2217
0.915668 3.01 13.2438
0.915668 3.01 13.2438
0.941974 3.01 13.2438
0.926866 3.01 13.2659
0.926895 3.01 13.2217
0.941974 3.01 13.2438
0.915668 3.01 13.2438
0.902267 3.01 13.2217
0.915668 3.01 13.2438
0.890059 3.01 13.2438
0.890059 3.01 13.2438
0.915668 3.01 13.2438
0.902228 3.01 13.2659
0.826927 3.01 13.0463
0.814318 3.01 13.0681
0.801709 3.01 13.0463
0.864816 3.01 13.1118
0.877308 3.01 13.0899
0.890186 3.01 13.1118
0.877308 3.01 13.0899
0.864816 3.01 13.1118
0.852122 3.01 13.0899
0.890186 3.01 13.1118
0.877308 3.01 13.0899
0.902362 3.01 13.0899
0.902362 3.01 13.0899
0.915805 3.01 13.1118
0.890186 3.01 13.1118
0.902362 3.01 13.0899
0.926964 3.01 13.0899
0.915805 3.01 13.1118
0.915835 3.01 13.0681
0.926964 3.01 13.0899
0.902362 3.01 13.0899
0.942171 3.01 13.0681
0.926964 3.01 13.0899
0.915835 3.01 13.0681
0.915835 3.01 13.0681
0.926978 3.01 13.0463
0.942171 3.01 13.0681
0.942171 3.01 13.0681
0.926978 3.01 13.0463
0.95 3.01 13.0463
0.87737 3.01 12.9158
0.890277 3.01 12.8941
0.902417 3.01 12.9158
0.852144 3.01 13.0463
0.877329 3.01 13.0463
0.864842 3.01 13.0681
0.877308 3.01 13.0899
0.852122 3.01 13.0899
0.864842 3.01 13.0681
0.902396 3.01 13.0027
0.915858 3.01 13.0245
0.890234 3.01 13.0245
0.926997 3.01 12.9592
0.942237 3.01 12.9375
0.95 3.01 12.9592
0.91589 3.01 12.9375
0.942237 3.01 12.9375
0.926997 3.01 12.9592
0.942199 3.01 13.0245
0.95 3.01 13.0027
0.95 3.01 13.0463
0.95 3.01 13.0463
0.926978 3.01 13.0463
0.942199 3.01 13.0245
0.942199 3.01 13.0245
0.926978 3.01 13.0463
0.915858 3.01 13.0245
0.95 3.01 12.9592
0.95 3.01 13.0027
0.942221 3.01 12.981
0.942221 3.01 12.981
0.926997 3.01 12.9592
0.95 3.01 12.9592
0.915876 3.01 12.981
0.926997 3.01 12.9592
0.942221 3.01 12.981
0.926989 3.01 13.0027
0.915858 3.01 13.0245
0.902396 3.01 13.0027
0.902396 3.01 13.0027
0.915876 3.01 12.981
0.926989 3.01 13.0027
0.926989 3.01 13.0027
0.942199 3.01 13.0245
0.915858 3.01 13.0245
0.95 3.01 13.0027
0.942199 3.01 13.0245
0.926989 3.01 13.0027
0.915876 3.01 12.981
0.942221 3.01 12.981
0.926989 3.01 13.0027
0.926989 3.01 13.0027
0.942221 3.01 12.981
0.95 3.01 13.0027
0.91353 3.01 13.4669
0.926054 3.01 13.4445
0.939636 3.01 13.467
0.926728 3.01 13.3999
0.95 3.01 13.4001
0.941491 3.01 13.4226
0.926728 3.01 13.3999
0.941822 3.01 13.3775
0.95 3.01 13.4001
0.95 3.01 13.4453
0.95 3.01 13.4883
0.939636 3.01 13.467
0.95 3.01 13.4453
0.926054 3.01 13.4445
0.941491 3.01 13.4226
0.939636 3.01 13.467
0.926054 3.01 13.4445
0.95 3.01 13.4453
0.941491 3.01 13.4226
0.95 3.01 13.4001
0.95 3.01 13.4453
0.941869 3.01 13.3327
0.926844 3.01 13.3104
0.95 3.01 13.3104
0.762942 3.01 13.4673
0.75028 3.01 13.4899
0.737933 3.01 13.4673
0.71291 3.01 13.4674
0.725533 3.01 13.4449
0.737933 3.01 13.4673
0.71291 3.01 13.4674
0.737933 3.01 13.4673
0.725313 3.01 13.4899
0.725313 3.01 13.4899
0.737933 3.01 13.4673
[...]
<PointData Scalars="View Factor" >
<DataArray type="Float64" Name="View Factor" NumberOfComponents="1" format="ascii">
0.0950493
0.0950493
0.0950493
0.0325378
0.0325378
0.0325378
0.033384
0.033384
0.033384
0.0328398
0.0328398
0.0328398
0.0325612
0.0325612
0.0325612
0.0328182
0.0328182
0.0328182
0.0325104
0.0325104
0.0325104
0.0327924
0.0327924
0.0327924
0.0334069
0.0334069
0.0334069
0.0874145
0.0874145
0.0874145
0.0322633
0.0322633
0.0322633
0.0333621
0.0333621
0.0333621
0.0336493
0.0336493
0.0336493
0.0333356
0.0333356
0.0333356
0.0344531
0.0344531
0.0344531
0.0336249
0.0336249
0.0336249
0.0341839
0.0341839
0.0341839
0.0327626
0.0327626
0.0327626
0.0336685
0.0336685
0.0336685
0.0342275
0.0342275
0.0342275
0.0336807
0.0336807
0.0336807
0.0334002
0.0334002
0.0334002
0.0353773
0.0353773
0.0353773
0.0345237
0.0345237
0.0345237
0.0350985
0.0350985
0.0350985
0.034239
0.034239
0.034239
0.0345175
0.0345175
0.0345175
0.0353887
0.0353887
0.0353887
0.0350923
0.0350923
0.0350923
0.0326023
0.0326023
0.0326023
0.032865
0.032865
0.032865
0.0926589
0.0926589
0.0926589
0.0944533
0.0944533
0.0944533
0.0973844
0.0973844
0.0973844
0.0963674
0.0963674
0.0963674
0.0655062
0.0655062
0.0655062
0.0580648
0.0580648
0.0580648
0.0591602
0.0591602
0.0591602
0.0693033
0.0693033
0.0693033
0.0369644
0.0369644
0.0369644
0.0351528
0.0351528
0.0351528
0.0488692
0.0488692
0.0488692
0.0506405
0.0506405
0.0506405
0.0494019
0.0494019
0.0494019
0.0502895
0.0502895
0.0502895
0.0514784
0.0514784
0.0514784
0.0502236
0.0502236
0.0502236
0.0511298
0.0511298
0.0511298
0.0517005
0.0517005
0.0517005
0.0513461
0.0513461
0.0513461
0.0885018
0.0885018
0.0885018
0.0680283
0.0680283
0.0680283
0.0666322
0.0666322
0.0666322
0.0654856
0.0654856
0.0654856
0.0642576
0.0642576
0.0642576
0.0629544
0.0629544
0.0629544
0.0618852
0.0618852
0.0618852
0.0936472
0.0936472
0.0936472
0.093327
0.093327
0.093327
0.0925602
0.0925602
0.0925602
0.0526602
0.0526602
0.0526602
0.0532172
0.0532172
0.0532172
0.0325009
0.0325009
0.0325009
0.032479
0.032479
0.032479
0.0333051
0.0333051
0.0333051
0.0341546
0.0341546
0.0341546
0.0335961
0.0335961
0.0335961
0.036598
0.036598
0.036598
0.0359886
0.0359886
0.0359886
0.0353925
0.0353925
0.0353925
0.0345021
0.0345021
0.0345021
0.0350771
0.0350771
0.0350771
0.0342084
0.0342084
0.0342084
0.0344802
0.0344802
0.0344802
0.0325805
0.0325805
0.0325805
0.0328564
0.0328564
0.0328564
0.032595
0.032595
0.032595
0.0908812
0.0908812
0.0908812
0.0891252
0.0891252
0.0891252
0.08821
0.08821
0.08821
0.0856868
0.0856868
0.0856868
0.0865026
0.0865026
0.0865026
0.0942276
0.0942276
0.0942276
0.0591346
0.0591346
0.0591346
0.0596917
0.0596917
0.0596917
0.0597132
0.0597132
0.0597132
0.0586366
0.0586366
0.0586366
0.0733685
0.0733685
0.0733685
0.0706202
0.0706202
0.0706202
0.0719748
0.0719748
0.0719748
0.0388873
0.0388873
0.0388873
0.03765
0.03765
0.03765
0.038705
0.038705
0.038705
0.0382921
0.0382921
0.0382921
0.0396156
0.0396156
0.0396156
0.0393686
0.0393686
0.0393686
0.0449807
0.0449807
0.0449807
0.0447804
0.0447804
0.0447804
0.0444916
0.0444916
0.0444916
0.0478184
0.0478184
0.0478184
0.0484685
0.0484685
0.0484685
0.0519153
0.0519153
0.0519153
0.0515552
0.0515552
0.0515552
0.0658272
0.0658272
0.0658272
0.0662717
0.0662717
0.0662717
0.0675464
0.0675464
0.0675464
0.0683842
0.0683842
0.0683842
0.0645923
0.0645923
0.0645923
0.0622063
0.0622063
0.0622063
0.063809
0.063809
0.063809
0.0626197
0.0626197
0.0626197
0.0629508
0.0629508
0.0629508
0.064147
0.064147
0.064147
0.0509065
0.0509065
0.0509065
0.0535892
0.0535892
0.0535892
0.0532358
0.0532358
0.0532358
0.0529768
0.0529768
0.0529768
0.0533225
0.0533225
0.0533225
0.052712
0.052712
0.052712
0.0517697
0.0517697
0.0517697
0.0511677
0.0511677
0.0511677
0.0502587
0.0502587
0.0502587
0.0496946
0.0496946
0.0496946
0.0421144
0.0421144
0.0421144
0.050439
0.050439
0.050439
0.0522831
0.0522831
0.0522831
0.0478911
0.0478911
0.0478911
0.0439277
0.0439277
0.0439277
0.0436479
0.0436479
0.0436479
0.047882
0.047882
0.047882
0.048817
0.048817
0.048817
0.0484987
0.0484987
0.0484987
0.0454172
0.0454172
0.0454172
0.0447002
0.0447002
0.0447002
0.045197
0.045197
0.045197
0.0473541
0.0473541
0.0473541
0.0465264
0.0465264
0.0465264
0.0476467
0.0476467
0.0476467
0.0471175
0.0471175
0.0471175
0.0459963
0.0459963
0.0459963
0.0462945
0.0462945
0.0462945
0.0836816
0.0836816
0.0836816
0.0779338
0.0779338
0.0779338
0.0764153
0.0764153
0.0764153
0.084135
0.084135
0.084135
0.0810637
0.0810637
0.0810637
0.0826727
0.0826727
0.0826727
0.0793622
0.0793622
0.0793622
0.0693451
0.0693451
0.0693451
0.0883047
0.0883047
0.0883047
0.0869216
0.0869216
0.0869216
0.088669
0.088669
0.088669
0.0893762
0.0893762
0.0893762
0.0922855
0.0922855
0.0922855
0.0911817
0.0911817
0.0911817
0.0919115
0.0919115
0.0919115
0.0818953
0.0818953
0.0818953
0.0835446
0.0835446
0.0835446
0.0862353
0.0862353
0.0862353
0.0845439
0.0845439
0.0845439
0.0868912
0.0868912
0.0868912
0.0851881
0.0851881
0.0851881
0.0910389
0.0910389
0.0910389
0.0928711
0.0928711
0.0928711
0.0939542
0.0939542
0.0939542
0.052029
0.052029
0.052029
0.0530529
0.0530529
0.0530529
0.0563552
0.0563552
0.0563552
0.0572233
0.0572233
0.0572233
0.0561886
0.0561886
0.0561886
0.0557631
0.0557631
0.0557631
0.0541861
0.0541861
0.0541861
0.0547603
0.0547603
0.0547603
0.0573932
0.0573932
0.0573932
0.0578361
0.0578361
0.0578361
0.0641316
0.0641316
0.0641316
0.0554454
0.0554454
0.0554454
0.0550425
0.0550425
0.0550425
0.0524123
0.0524123
0.0524123
0.0543426
0.0543426
0.0543426
0.0323613
0.0323613
0.0323613
0.0324045
0.0324045
0.0324045
0.0326494
0.0326494
0.0326494
0.0331893
0.0331893
0.0331893
0.0313445
0.0313445
0.0313445
0.0459724
0.0459724
0.0459724
0.0476188
0.0476188
0.0476188
0.0464752
0.0464752
0.0464752
0.0473003
0.0473003
0.0473003
0.0474948
0.0474948
0.0474948
0.0480116
0.0480116
0.0480116
0.0334402
0.0334402
0.0334402
0.0322085
0.0322085
0.0322085
0.0313504
0.0313504
0.0313504
0.0418489
0.0418489
0.0418489
0.0415252
0.0415252
0.0415252
0.0348077
0.0348077
0.0348077
0.0331349
0.0331349
0.0331349
0.033679
0.033679
0.033679
0.0342374
0.0342374
0.0342374
0.0890405
0.0890405
0.0890405
0.0952903
0.0952903
0.0952903
0.0667366
0.0667366
0.0667366
0.0680019
0.0680019
0.0680019
0.0607976
0.0607976
0.0607976
0.0370779
0.0370779
0.0370779
0.0666793
0.0666793
0.0666793
0.0679434
0.0679434
0.0679434
0.0575233
0.0575233
0.0575233
0.0580326
0.0580326
0.0580326
0.0565159
0.0565159
0.0565159
0.0575514
0.0575514
0.0575514
0.0575721
0.0575721
0.0575721
0.0580899
0.0580899
0.0580899
0.0555278
0.0555278
0.0555278
0.0565362
0.0565362
0.0565362
0.0560182
0.0560182
0.0560182
0.0550156
0.0550156
0.0550156
0.0545306
0.0545306
0.0545306
0.0495465
0.0495465
0.0495465
0.0489891
0.0489891
0.0489891
0.0398091
0.0398091
0.0398091
0.0457743
0.0457743
0.0457743
0.0462782
0.0462782
0.0462782
0.0470993
0.0470993
0.0470993
0.0442902
0.0442902
0.0442902
0.0445743
0.0445743
0.0445743
0.0418518
0.0418518
0.0418518
0.0374174
0.0374174
0.0374174
0.0410528
0.0410528
0.0410528
0.0486722
0.0486722
0.0486722
0.0504355
0.0504355
0.0504355
0.0498835
0.0498835
0.0498835
0.0490039
0.0490039
0.0490039
0.0492063
0.0492063
0.0492063
0.0500899
0.0500899
0.0500899
0.0528582
0.0528582
0.0528582
0.0534453
0.0534453
0.0534453
0.052123
0.052123
0.052123
0.0530701
0.0530701
0.0530701
0.0562562
0.0562562
0.0562562
0.0566639
0.0566639
0.0566639
0.0540537
0.0540537
0.0540537
0.054299
0.054299
0.054299
0.0625244
0.0625244
0.0625244
0.0616702
0.0616702
0.0616702
0.0613653
0.0613653
0.0613653
0.0609465
0.0609465
0.0609465
0.0855238
0.0855238
0.0855238
0.0865628
0.0865628
0.0865628
0.0858866
0.0858866
0.0858866
0.0842013
0.0842013
0.0842013
0.0769195
0.0769195
0.0769195
0.0804767
0.0804767
0.0804767
0.0820788
0.0820788
0.0820788
0.0735388
0.0735388
0.0735388
0.075333
0.075333
0.075333
0.0726559
0.0726559
0.0726559
0.0474126
0.0474126
0.0474126
0.0512492
0.0512492
0.0512492
0.0506762
0.0506762
0.0506762
0.0510129
0.0510129
0.0510129
0.0519374
0.0519374
0.0519374
0.0548353
0.0548353
0.0548353
0.053848
0.053848
0.053848
0.049946
0.049946
0.049946
0.0493076
0.0493076
0.0493076
0.0490633
0.0490633
0.0490633
0.048748
0.048748
0.048748
0.0515079
0.0515079
0.0515079
0.0505106
0.0505106
0.0505106
0.046231
0.046231
0.046231
0.0453598
0.0453598
0.0453598
0.0456496
0.0456496
0.0456496
0.043114
0.043114
0.043114
0.0440828
0.0440828
0.0440828
0.0428482
0.0428482
0.0428482
0.0433236
0.0433236
0.0433236
0.0416504
0.0416504
0.0416504
0.0409409
0.0409409
0.0409409
0.0404952
0.0404952
0.0404952
0.0867042
0.0867042
0.0867042
0.0854013
0.0854013
0.0854013
0.0859329
0.0859329
0.0859329
0.0853481
0.0853481
0.0853481
0.0877475
0.0877475
0.0877475
0.0830804
0.0830804
0.0830804
0.078319
0.078319
0.078319
0.0814536
0.0814536
0.0814536
0.0804464
0.0804464
0.0804464
0.0788857
0.0788857
0.0788857
0.0773838
0.0773838
0.0773838
0.0749778
0.0749778
0.0749778
0.0758904
0.0758904
0.0758904
0.0755265
0.0755265
0.0755265
0.0697078
0.0697078
0.0697078
0.0701866
0.0701866
0.0701866
0.0758509
0.0758509
0.0758509
0.0768024
0.0768024
0.0768024
0.087597
0.087597
0.087597
0.0872662
0.0872662
0.0872662
0.0865701
0.0865701
0.0865701
0.0926461
0.0926461
0.0926461
0.0915467
0.0915467
0.0915467
0.0897361
0.0897361
0.0897361
0.0890193
0.0890193
0.0890193
0.089586
0.089586
0.089586
0.0871257
0.0871257
0.0871257
0.0877939
0.0877939
0.0877939
0.0907122
0.0907122
0.0907122
0.0890021
0.0890021
0.0890021
0.0908031
0.0908031
0.0908031
0.0819134
0.0819134
0.0819134
0.081275
0.081275
0.081275
0.0712204
0.0712204
0.0712204
0.0704067
0.0704067
0.0704067
0.0739905
0.0739905
0.0739905
0.0796959
0.0796959
0.0796959
0.0787615
0.0787615
0.0787615
0.0803042
0.0803042
0.0803042
0.0748665
0.0748665
0.0748665
0.0763342
0.0763342
0.0763342
0.077239
0.077239
0.077239
0.0766444
0.0766444
0.0766444
0.0838771
0.0838771
0.0838771
0.0825528
0.0825528
0.0825528
0.0841963
0.0841963
0.0841963
0.0848727
0.0848727
0.0848727
0.0815916
0.0815916
0.0815916
0.0822397
0.0822397
0.0822397
0.0879143
0.0879143
0.0879143
0.0896786
0.0896786
0.0896786
0.0907334
0.0907334
0.0907334
0.0899881
0.0899881
0.0899881
0.0845022
0.0845022
0.0845022
0.082853
0.082853
0.082853
0.0821863
0.0821863
0.0821863
0.0695036
0.0695036
0.0695036
0.0681948
0.0681948
0.0681948
0.0504428
0.0504428
0.0504428
0.0541806
0.0541806
0.0541806
0.0500297
0.0500297
0.0500297
0.050506
0.050506
0.050506
0.0546338
0.0546338
0.0546338
0.0525569
0.0525569
0.0525569
0.052146
0.052146
0.052146
0.057074
0.057074
0.057074
0.0564939
0.0564939
0.0564939
0.0553486
0.0553486
0.0553486
0.0581259
0.0581259
0.0581259
0.0587239
0.0587239
0.0587239
0.0598125
0.0598125
0.0598125
0.0603008
0.0603008
0.0603008
0.0524939
0.0524939
0.0524939
0.0540185
0.0540185
0.0540185
0.0545948
0.0545948
0.0545948
0.0555944
0.0555944
0.0555944
0.0560143
0.0560143
0.0560143
0.0620637
0.0620637
0.0620637
0.0614252
0.0614252
0.0614252
0.0580037
0.0580037
0.0580037
0.0589076
0.0589076
0.0589076
0.0569454
0.0569454
0.0569454
0.0563627
0.0563627
0.0563627
0.0616312
0.0616312
0.0616312
0.0609844
0.0609844
0.0609844
0.0566667
0.0566667
0.0566667
0.0556428
0.0556428
0.0556428
0.0553401
0.0553401
0.0553401
0.0644607
0.0644607
0.0644607
0.0324437
0.0324437
0.0324437
0.0326911
0.0326911
0.0326911
0.0327288
0.0327288
0.0327288
0.0346246
0.0346246
0.0346246
0.0334437
0.0334437
0.0334437
0.0340541
0.0340541
0.0340541
0.031556
0.031556
0.031556
0.0306881
0.0306881
0.0306881
0.031036
0.031036
0.031036
0.0461643
0.0461643
0.0461643
0.0466659
0.0466659
0.0466659
0.04635
0.04635
0.04635
0.0455451
0.0455451
0.0455451
0.0476827
0.0476827
0.0476827
0.0468502
0.0468502
0.0468502
0.0326039
0.0326039
0.0326039
0.0331428
0.0331428
0.0331428
0.0323143
0.0323143
0.0323143
0.0325544
0.0325544
0.0325544
0.0330378
0.0330378
0.0330378
0.0332811
0.0332811
0.0332811
0.0338333
0.0338333
0.0338333
0.033771
0.033771
0.033771
0.0340825
0.0340825
0.0340825
0.0349706
0.0349706
0.0349706
0.0346505
0.0346505
0.0346505
0.0320207
0.0320207
0.0320207
0.031656
0.031656
0.031656
0.0425735
0.0425735
0.0425735
0.0440678
0.0440678
0.0440678
0.0328548
0.0328548
0.0328548
0.0334852
0.0334852
0.0334852
0.0340415
0.0340415
0.0340415
0.0332319
0.0332319
0.0332319
0.0781072
0.0781072
0.0781072
0.081004
0.081004
0.081004
0.086186
0.086186
0.086186
0.0862585
0.0862585
0.0862585
0.0853818
0.0853818
0.0853818
0.0813486
0.0813486
0.0813486
0.083727
0.083727
0.083727
0.0829483
0.0829483
0.0829483
0.0853045
0.0853045
0.0853045
0.0881461
0.0881461
0.0881461
0.0840177
0.0840177
0.0840177
0.0824002
0.0824002
0.0824002
0.0944599
0.0944599
0.0944599
0.0899878
0.0899878
0.0899878
0.091791
0.091791
0.091791
0.0925985
0.0925985
0.0925985
0.086499
0.086499
0.086499
0.090381
0.090381
0.090381
0.0921921
0.0921921
0.0921921
0.0660756
0.0660756
0.0660756
0.0667122
0.0667122
0.0667122
0.0661045
0.0661045
0.0661045
0.0699436
0.0699436
0.0699436
0.0686348
0.0686348
0.0686348
0.0705941
0.0705941
0.0705941
0.0699127
0.0699127
0.0699127
0.0679769
0.0679769
0.0679769
0.0686046
0.0686046
0.0686046
0.0613461
0.0613461
0.0613461
0.0624545
0.0624545
0.0624545
0.0619569
0.0619569
0.0619569
0.0608197
0.0608197
0.0608197
0.0613728
0.0613728
0.0613728
0.0372154
0.0372154
0.0372154
0.0421945
0.0421945
0.0421945
0.040776
0.040776
0.040776
0.0442005
0.0442005
0.0442005
0.0449734
0.0449734
0.0449734
0.0449048
0.0449048
0.0449048
0.0473156
0.0473156
0.0473156
0.0481487
0.0481487
0.0481487
0.0426378
0.0426378
0.0426378
0.0418936
0.0418936
0.0418936
0.0411829
0.0411829
0.0411829
0.0419086
0.0419086
0.0419086
0.0422631
0.0422631
0.0422631
0.0418488
0.0418488
0.0418488
0.0411392
0.0411392
0.0411392
0.0401347
0.0401347
0.0401347
0.0408241
0.0408241
0.0408241
0.0411635
0.0411635
0.0411635
0.0408025
0.0408025
0.0408025
0.0377049
0.0377049
0.0377049
0.070559
0.070559
0.070559
0.0719121
0.0719121
0.0719121
0.0596625
0.0596625
0.0596625
0.0591018
0.0591018
0.0591018
0.0607679
0.0607679
0.0607679
0.0613121
0.0613121
0.0613121
0.057488
0.057488
0.057488
0.0498814
0.0498814
0.0498814
0.0494306
0.0494306
0.0494306
0.0490038
0.0490038
0.0490038
0.0489863
0.0489863
0.0489863
0.0494094
0.0494094
0.0494094
0.054511
0.054511
0.054511
0.0535405
0.0535405
0.0535405
0.0502293
0.0502293
0.0502293
0.0564883
0.0564883
0.0564883
0.0544844
0.0544844
0.0544844
0.055994
0.055994
0.055994
0.0549919
0.0549919
0.0549919
0.0400904
0.0400904
0.0400904
0.040781
0.040781
0.040781
0.0437244
0.0437244
0.0437244
0.0406912
0.0406912
0.0406912
0.0411383
0.0411383
0.0411383
0.0430517
0.0430517
0.0430517
0.0423139
0.0423139
0.0423139
0.043527
0.043527
0.043527
0.0432499
0.0432499
0.0432499
0.0434424
0.0434424
0.0434424
0.042697
0.042697
0.042697
0.0384779
0.0384779
0.0384779
0.0378322
0.0378322
0.0378322
0.0532276
0.0532276
0.0532276
0.0526389
0.0526389
0.0526389
0.0530024
0.0530024
0.0530024
0.0539698
0.0539698
0.0539698
0.0545786
0.0545786
0.0545786
0.0541996
0.0541996
0.0541996
0.0536556
0.0536556
0.0536556
0.0546364
0.0546364
0.0546364
0.0548432
0.0548432
0.0548432
0.0552403
0.0552403
0.0552403
0.0517573
0.0517573
0.0517573
0.0504821
0.0504821
0.0504821
0.0508386
0.0508386
0.0508386
0.0564654
0.0564654
0.0564654
0.0568792
0.0568792
0.0568792
0.0570866
0.0570866
0.0570866
0.0628054
0.0628054
0.0628054
0.0639944
0.0639944
0.0639944
0.0568768
0.0568768
0.0568768
0.0546597
0.0546597
0.0546597
0.0545712
0.0545712
0.0545712
0.0549356
0.0549356
0.0549356
0.0552053
0.0552053
0.0552053
0.0562232
0.0562232
0.0562232
0.0595219
0.0595219
0.0595219
0.0610536
0.0610536
0.0610536
0.0606389
0.0606389
0.0606389
0.0649236
0.0649236
0.0649236
0.0679052
0.0679052
0.0679052
0.0666235
0.0666235
0.0666235
0.0661651
0.0661651
0.0661651
0.0669635
0.0669635
0.0669635
0.0712692
0.0712692
0.0712692
0.0834746
0.0834746
0.0834746
0.0847559
0.0847559
0.0847559
0.0830909
0.0830909
0.0830909
0.0824649
0.0824649
0.0824649
0.0828384
0.0828384
0.0828384
0.0831983
0.0831983
0.0831983
0.0838449
0.0838449
0.0838449
0.0812208
0.0812208
0.0812208
0.0826947
0.0826947
0.0826947
0.0849869
0.0849869
0.0849869
0.0843518
0.0843518
0.0843518
0.0816811
0.0816811
0.0816811
0.078328
0.078328
0.078328
0.0798784
0.0798784
0.0798784
0.0808548
0.0808548
0.0808548
0.0802466
0.0802466
0.0802466
0.0705591
0.0705591
0.0705591
0.0719323
0.0719323
0.0719323
0.0731825
0.0731825
0.0731825
0.0746138
0.0746138
0.0746138
0.0728189
0.0728189
0.0728189
0.0722986
0.0722986
0.0722986
0.0482582
0.0482582
0.0482582
0.0500047
0.0500047
0.0500047
0.0496702
0.0496702
0.0496702
0.0487949
0.0487949
0.0487949
0.0497789
0.0497789
0.0497789
0.0480414
0.0480414
0.0480414
0.04945
0.04945
0.04945
0.0485791
0.0485791
0.0485791
0.049223
0.049223
0.049223
0.0483566
0.0483566
0.0483566
0.046075
0.046075
0.046075
0.046892
0.046892
0.046892
0.0472001
0.0472001
0.0472001
0.04557
0.04557
0.04557
0.0458654
0.0458654
0.0458654
0.0466783
0.0466783
0.0466783
0.0534878
0.0534878
0.0534878
0.0527698
0.0527698
0.0527698
0.0537325
0.0537325
0.0537325
0.0540991
0.0540991
0.0540991
0.0521785
0.0521785
0.0521785
0.05253
0.05253
0.05253
0.0520293
0.0520293
0.0520293
0.0516888
0.0516888
0.0516888
0.0514327
0.0514327
0.0514327
0.0505183
0.0505183
0.0505183
0.0507694
0.0507694
0.0507694
0.0501953
0.0501953
0.0501953
0.0530466
0.0530466
0.0530466
0.0524448
0.0524448
0.0524448
0.0533165
0.0533165
0.0533165
0.0543814
0.0543814
0.0543814
0.0540175
0.0540175
0.0540175
0.0478181
0.0478181
0.0478181
0.0469812
0.0469812
0.0469812
0.0475887
0.0475887
0.0475887
0.0481274
0.0481274
0.0481274
0.0467564
0.0467564
0.0467564
0.0464581
0.0464581
0.0464581
0.044146
0.044146
0.044146
0.043869
0.043869
0.043869
0.0449228
0.0449228
0.0449228
0.0454271
0.0454271
0.0454271
0.0451437
0.0451437
0.0451437
0.0443625
0.0443625
0.0443625
0.0402979
0.0402979
0.0402979
0.0407368
0.0407368
0.0407368
0.0431039
0.0431039
0.0431039
0.0409306
0.0409306
0.0409306
0.0889656
0.0889656
0.0889656
0.0839362
0.0839362
0.0839362
0.0822879
0.0822879
0.0822879
0.079286
0.079286
0.079286
0.0808596
0.0808596
0.0808596
0.0796899
0.0796899
0.0796899
0.0787148
0.0787148
0.0787148
0.081274
0.081274
0.081274
0.0818728
0.0818728
0.0818728
0.0779568
0.0779568
0.0779568
0.0791102
0.0791102
0.0791102
0.0775766
0.0775766
0.0775766
0.0770118
0.0770118
0.0770118
0.0800878
0.0800878
0.0800878
0.079499
0.079499
0.079499
0.0762446
0.0762446
0.0762446
0.0747751
0.0747751
0.0747751
0.07719
0.07719
0.07719
0.0766314
0.0766314
0.0766314
0.074243
0.074243
0.074243
0.0751542
0.0751542
0.0751542
0.0715537
0.0715537
0.0715537
0.0743858
0.0743858
0.0743858
0.0724487
0.0724487
0.0724487
0.0738672
0.0738672
0.0738672
0.0918981
0.0918981
0.0918981
0.0922359
0.0922359
0.0922359
0.0929932
0.0929932
0.0929932
0.0904146
0.0904146
0.0904146
0.0893557
0.0893557
0.0893557
0.0900822
0.0900822
0.0900822
0.0915244
0.0915244
0.0915244
0.0879261
0.0879261
0.0879261
0.0861899
0.0861899
0.0861899
0.0858026
0.0858026
0.0858026
0.0851469
0.0851469
0.0851469
0.0900052
0.0900052
0.0900052
0.0886139
0.0886139
0.0886139
0.0911245
0.0911245
0.0911245
0.0904109
0.0904109
0.0904109
0.0882111
0.0882111
0.0882111
0.087533
0.087533
0.087533
0.0793727
0.0793727
0.0793727
0.0790368
0.0790368
0.0790368
0.0784353
0.0784353
0.0784353
0.0806024
0.0806024
0.0806024
0.0809453
0.0809453
0.0809453
0.0815738
0.0815738
0.0815738
0.0709457
0.0709457
0.0709457
0.074297
0.074297
0.074297
0.0751703
0.0751703
0.0751703
0.0728758
0.0728758
0.0728758
0.0723217
0.0723217
0.0723217
0.0677284
0.0677284
0.0677284
0.0664552
0.0664552
0.0664552
0.0656881
0.0656881
0.0656881
0.0738865
0.0738865
0.0738865
0.0730046
0.0730046
0.0730046
0.074551
0.074551
0.074551
0.076012
0.076012
0.076012
0.0754079
0.0754079
0.0754079
0.0760119
0.0760119
0.0760119
0.0772287
0.0772287
0.0772287
0.0800063
0.0800063
0.0800063
0.0793762
0.0793762
0.0793762
0.0790751
0.0790751
0.0790751
0.0778414
0.0778414
0.0778414
0.0775463
0.0775463
0.0775463
0.0769426
0.0769426
0.0769426
0.0777658
0.0777658
0.0777658
0.0765159
0.0765159
0.0765159
0.0762695
0.0762695
0.0762695
0.0756575
0.0756575
0.0756575
0.0808628
0.0808628
0.0808628
0.0783957
0.0783957
0.0783957
0.0775031
0.0775031
0.0775031
0.0781245
0.0781245
0.0781245
0.0796649
0.0796649