<VTKFile type="UnstructuredGrid" version="1.0">
<UnstructuredGrid>
<Piece NumberOfPoints="8859" NumberOfCells="2953">
<Points>
<DataArray type="Float64" NumberOfComponents="3" format="ascii">
3.01 0.5 17.67
3.01 0.487476 17.6925
3.01 0.512524 17.6925
3.01 0.17352 16.7925
3.01 0.148445 16.7925
3.01 0.160827 16.8142
3.01 0.122979 16.8359
3.01 0.135644 16.8142
3.01 0.110383 16.8142
3.01 0.135644 16.8142
3.01 0.123433 16.7925
3.01 0.110383 16.8142
3.01 0.123433 16.7925
3.01 0.135644 16.8142
3.01 0.148445 16.7925
3.01 0.135644 16.8142
3.01 0.160827 16.8142
3.01 0.148445 16.7925
3.01 0.17352 16.7925
3.01 0.185985 16.8142
3.01 0.198629 16.7925
3.01 0.185985 16.8142
3.01 0.17352 16.7925
3.01 0.160827 16.8142
3.01 0.0732297 16.8357
3.01 0.0848754 16.8141
3.01 0.0586606 16.8138
3.01 0.05 17.6253
3.01 0.058509 17.6026
3.01 0.05 17.5801
3.01 0.324276 16.7925
3.01 0.336827 16.8142
3.01 0.349395 16.7925
3.01 0.148138 16.8359
3.01 0.160827 16.8142
3.01 0.135644 16.8142
3.01 0.122979 16.8359
3.01 0.148138 16.8359
3.01 0.135644 16.8142
3.01 0.160827 16.8142
3.01 0.173316 16.8359
3.01 0.185985 16.8142
3.01 0.185806 16.8575
3.01 0.173316 16.8359
3.01 0.160572 16.8576
3.01 0.173316 16.8359
3.01 0.160827 16.8142
3.01 0.148138 16.8359
3.01 0.160572 16.8576
3.01 0.173316 16.8359
3.01 0.148138 16.8359
3.01 0.211137 16.8142
3.01 0.198629 16.7925
3.01 0.185985 16.8142
3.01 0.0979162 16.8358
3.01 0.122979 16.8359
3.01 0.110383 16.8142
3.01 0.122979 16.8359
3.01 0.0979162 16.8358
3.01 0.109875 16.8575
3.01 0.0732297 16.8357
3.01 0.0979162 16.8358
3.01 0.0848754 16.8141
3.01 0.0979162 16.8358
3.01 0.110383 16.8142
3.01 0.0848754 16.8141
3.01 0.0975729 16.879
3.01 0.122678 16.8791
3.01 0.109875 16.8575
3.01 0.0841718 16.8573
3.01 0.0732297 16.8357
3.01 0.0577122 16.857
3.01 0.0729308 16.8789
3.01 0.0841718 16.8573
3.01 0.0577122 16.857
3.01 0.0732297 16.8357
3.01 0.0841718 16.8573
3.01 0.0979162 16.8358
3.01 0.0841718 16.8573
3.01 0.109875 16.8575
3.01 0.0979162 16.8358
3.01 0.0975729 16.879
3.01 0.0841718 16.8573
3.01 0.0729308 16.8789
3.01 0.0841718 16.8573
3.01 0.0975729 16.879
3.01 0.109875 16.8575
3.01 0.073948 16.7925
3.01 0.05 16.7925
3.01 0.0586606 16.8138
3.01 0.073948 16.7925
3.01 0.0586606 16.8138
3.01 0.0848754 16.8141
3.01 0.05 17.6683
3.01 0.0603641 17.647
3.01 0.05 17.6253
3.01 0.0603641 17.647
3.01 0.05 17.6683
3.01 0.0753197 17.669
3.01 0.0709395 17.6925
3.01 0.05 17.6683
3.01 0.05 17.6925
3.01 0.05 17.6683
3.01 0.0709395 17.6925
3.01 0.0753197 17.669
3.01 0.0579641 17.3796
3.01 0.05 17.3576
3.01 0.05 17.4017
3.01 0.0841948 17.2918
3.01 0.109814 17.2918
3.01 0.097638 17.2699
3.01 0.0841948 17.2918
3.01 0.0578646 17.2918
3.01 0.0730539 17.3137
3.01 0.0580261 17.4238
3.01 0.05 17.4017
3.01 0.05 17.4459
3.01 0.942292 16.9874
3.01 0.95 17.009
3.01 0.95 16.9657
3.01 0.95 16.9223
3.01 0.942332 16.944
3.01 0.95 16.9657
3.01 0.73872 17.2045
3.01 0.75132 17.1828
3.01 0.726137 17.1828
3.01 0.751305 17.2263
3.01 0.73872 17.2045
3.01 0.726124 17.2263
3.01 0.713546 17.2045
3.01 0.73872 17.2045
3.01 0.726137 17.1828
3.01 0.73872 17.2045
3.01 0.713546 17.2045
3.01 0.726124 17.2263
3.01 0.814318 17.2481
3.01 0.801709 17.2263
3.01 0.789096 17.2481
3.01 0.7765 17.2263
3.01 0.801709 17.2263
3.01 0.789115 17.2045
3.01 0.801709 17.2263
3.01 0.7765 17.2263
3.01 0.789096 17.2481
3.01 0.7765 17.2263
3.01 0.763892 17.2481
3.01 0.789096 17.2481
3.01 0.763892 17.2481
3.01 0.7765 17.2263
3.01 0.751305 17.2263
3.01 0.95 17.6925
3.01 0.95 17.6683
3.01 0.929061 17.6925
3.01 0.95 17.4904
3.01 0.941913 17.4682
3.01 0.926844 17.4904
3.01 0.941913 17.4682
3.01 0.95 17.4904
3.01 0.95 17.4459
3.01 0.926866 17.4459
3.01 0.941913 17.4682
3.01 0.95 17.4459
3.01 0.941974 17.4238
3.01 0.926866 17.4459
3.01 0.95 17.4459
3.01 0.95 17.4017
3.01 0.941974 17.4238
3.01 0.95 17.4459
3.01 0.941974 17.4238
3.01 0.95 17.4017
3.01 0.926895 17.4017
3.01 0.6127 17.6925
3.01 0.637734 17.6925
3.01 0.625238 17.67
3.01 0.662757 17.6925
3.01 0.650275 17.67
3.01 0.637734 17.6925
3.01 0.650275 17.67
3.01 0.625238 17.67
3.01 0.637734 17.6925
3.01 0.600415 17.2264
3.01 0.575304 17.2264
3.01 0.587856 17.2482
3.01 0.575304 17.2264
3.01 0.562749 17.2482
3.01 0.587856 17.2482
3.01 0.336827 16.8142
3.01 0.361946 16.8142
3.01 0.349395 16.7925
3.01 0.223755 16.7925
3.01 0.198629 16.7925
3.01 0.211137 16.8142
3.01 0.185985 16.8142
3.01 0.198492 16.8359
3.01 0.211137 16.8142
3.01 0.185806 16.8575
3.01 0.198492 16.8359
3.01 0.173316 16.8359
3.01 0.198492 16.8359
3.01 0.185985 16.8142
3.01 0.173316 16.8359
3.01 0.0576202 16.9005
3.01 0.05 16.8787
3.01 0.05 16.9223
3.01 0.05 16.8787
3.01 0.0576202 16.9005
3.01 0.0729308 16.8789
3.01 0.05 16.8787
3.01 0.0729308 16.8789
3.01 0.0577122 16.857
3.01 0.135283 16.8575
3.01 0.122979 16.8359
3.01 0.109875 16.8575
3.01 0.135283 16.8575
3.01 0.109875 16.8575
3.01 0.122678 16.8791
3.01 0.122979 16.8359
3.01 0.135283 16.8575
3.01 0.148138 16.8359
3.01 0.135283 16.8575
3.01 0.160572 16.8576
3.01 0.148138 16.8359
3.01 0.123433 16.7925
3.01 0.0985513 16.7925
3.01 0.110383 16.8142
3.01 0.110383 16.8142
3.01 0.0985513 16.7925
3.01 0.0848754 16.8141
3.01 0.0848754 16.8141
3.01 0.0985513 16.7925
3.01 0.073948 16.7925
3.01 0.0603641 17.647
3.01 0.0739464 17.6245
3.01 0.05 17.6253
3.01 0.0739464 17.6245
3.01 0.058509 17.6026
3.01 0.05 17.6253
3.01 0.058509 17.6026
3.01 0.0739464 17.6245
3.01 0.0849548 17.6021
3.01 0.058509 17.6026
3.01 0.0732725 17.5799
3.01 0.05 17.5801
3.01 0.0732725 17.5799
3.01 0.058509 17.6026
3.01 0.0849548 17.6021
3.01 0.5 17.67
3.01 0.47495 17.67
3.01 0.487476 17.6925
3.01 0.097663 17.3137
3.01 0.109814 17.2918
3.01 0.0841948 17.2918
3.01 0.0730539 17.3137
3.01 0.097663 17.3137
3.01 0.0841948 17.2918
3.01 0.0578646 17.2918
3.01 0.05 17.3137
3.01 0.0730539 17.3137
3.01 0.05 17.3137
3.01 0.0578646 17.2918
3.01 0.05 17.2699
3.01 0.05 17.4904
3.01 0.0580869 17.4682
3.01 0.05 17.4459
3.01 0.05 17.4459
3.01 0.073134 17.4459
3.01 0.0580261 17.4238
3.01 0.073134 17.4459
3.01 0.05 17.4459
3.01 0.0580869 17.4682
3.01 0.942268 17.0307
3.01 0.95 17.0524
3.01 0.95 17.009
3.01 0.942292 16.9874
3.01 0.927025 17.009
3.01 0.95 17.009
3.01 0.927025 17.009
3.01 0.915919 17.0307
3.01 0.942268 17.0307
3.01 0.95 17.009
3.01 0.927025 17.009
3.01 0.942268 17.0307
3.01 0.927013 17.0524
3.01 0.95 17.0524
3.01 0.942268 17.0307
3.01 0.915919 17.0307
3.01 0.927013 17.0524
3.01 0.942268 17.0307
3.01 0.801738 17.1393
3.01 0.826957 17.1392
3.01 0.814364 17.1175
3.01 0.852174 17.1392
3.01 0.839609 17.1175
3.01 0.826957 17.1392
3.01 0.839609 17.1175
3.01 0.814364 17.1175
3.01 0.826957 17.1392
3.01 0.776516 17.1827
3.01 0.763923 17.161
3.01 0.75132 17.1828
3.01 0.776516 17.1827
3.01 0.789115 17.2045
3.01 0.801725 17.1827
3.01 0.738704 17.2481
3.01 0.763892 17.2481
3.01 0.751305 17.2263
3.01 0.726124 17.2263
3.01 0.738704 17.2481
3.01 0.751305 17.2263
3.01 0.915617 17.4681
3.01 0.926866 17.4459
3.01 0.902228 17.4459
3.01 0.926866 17.4459
3.01 0.915617 17.4681
3.01 0.941913 17.4682
3.01 0.915617 17.4681
3.01 0.926844 17.4904
3.01 0.941913 17.4682
3.01 0.915617 17.4681
3.01 0.902193 17.4904
3.01 0.926844 17.4904
3.01 0.926866 17.4459
3.01 0.915668 17.4238
3.01 0.902228 17.4459
3.01 0.902267 17.4017
3.01 0.915668 17.4238
3.01 0.926895 17.4017
3.01 0.915668 17.4238
3.01 0.926866 17.4459
3.01 0.941974 17.4238
3.01 0.926895 17.4017
3.01 0.915668 17.4238
3.01 0.941974 17.4238
3.01 0.902267 17.4017
3.01 0.890059 17.4238
3.01 0.915668 17.4238
3.01 0.890059 17.4238
3.01 0.902228 17.4459
3.01 0.915668 17.4238
3.01 0.826927 17.2263
3.01 0.801709 17.2263
3.01 0.814318 17.2481
3.01 0.864816 17.2918
3.01 0.890186 17.2918
3.01 0.877308 17.2699
3.01 0.877308 17.2699
3.01 0.852122 17.2699
3.01 0.864816 17.2918
3.01 0.890186 17.2918
3.01 0.902362 17.2699
3.01 0.877308 17.2699
3.01 0.902362 17.2699
3.01 0.890186 17.2918
3.01 0.915805 17.2918
3.01 0.902362 17.2699
3.01 0.915805 17.2918
3.01 0.926964 17.2699
3.01 0.915835 17.2481
3.01 0.902362 17.2699
3.01 0.926964 17.2699
3.01 0.942171 17.2481
3.01 0.915835 17.2481
3.01 0.926964 17.2699
3.01 0.915835 17.2481
3.01 0.942171 17.2481
3.01 0.926978 17.2263
3.01 0.942171 17.2481
3.01 0.95 17.2263
3.01 0.926978 17.2263
3.01 0.87737 17.0958
3.01 0.902417 17.0958
3.01 0.890277 17.0741
3.01 0.852144 17.2263
3.01 0.864842 17.2481
3.01 0.877329 17.2263
3.01 0.877308 17.2699
3.01 0.864842 17.2481
3.01 0.852122 17.2699
3.01 0.902396 17.1827
3.01 0.890234 17.2045
3.01 0.915858 17.2045
3.01 0.926997 17.1392
3.01 0.95 17.1392
3.01 0.942237 17.1175
3.01 0.91589 17.1175
3.01 0.926997 17.1392
3.01 0.942237 17.1175
3.01 0.942199 17.2045
3.01 0.95 17.2263
3.01 0.95 17.1827
3.01 0.95 17.2263
3.01 0.942199 17.2045
3.01 0.926978 17.2263
3.01 0.942199 17.2045
3.01 0.915858 17.2045
3.01 0.926978 17.2263
3.01 0.95 17.1392
3.01 0.942221 17.161
3.01 0.95 17.1827
3.01 0.942221 17.161
3.01 0.95 17.1392
3.01 0.926997 17.1392
3.01 0.915876 17.161
3.01 0.942221 17.161
3.01 0.926997 17.1392
3.01 0.926989 17.1827
3.01 0.902396 17.1827
3.01 0.915858 17.2045
3.01 0.902396 17.1827
3.01 0.926989 17.1827
3.01 0.915876 17.161
3.01 0.926989 17.1827
3.01 0.915858 17.2045
3.01 0.942199 17.2045
3.01 0.95 17.1827
3.01 0.926989 17.1827
3.01 0.942199 17.2045
3.01 0.915876 17.161
3.01 0.926989 17.1827
3.01 0.942221 17.161
3.01 0.926989 17.1827
3.01 0.95 17.1827
3.01 0.942221 17.161
3.01 0.91353 17.6469
3.01 0.939636 17.647
3.01 0.926054 17.6245
3.01 0.926728 17.5799
3.01 0.941491 17.6026
3.01 0.95 17.5801
3.01 0.926728 17.5799
3.01 0.95 17.5801
3.01 0.941822 17.5575
3.01 0.95 17.6253
3.01 0.939636 17.647
3.01 0.95 17.6683
3.01 0.95 17.6253
3.01 0.941491 17.6026
3.01 0.926054 17.6245
3.01 0.939636 17.647
3.01 0.95 17.6253
3.01 0.926054 17.6245
3.01 0.941491 17.6026
3.01 0.95 17.6253
3.01 0.95 17.5801
3.01 0.941869 17.5127
3.01 0.95 17.4904
3.01 0.926844 17.4904
3.01 0.762942 17.6473
3.01 0.737933 17.6473
3.01 0.75028 17.6699
3.01 0.71291 17.6474
3.01 0.737933 17.6473
3.01 0.725533 17.6249
3.01 0.71291 17.6474
3.01 0.725313 17.6699
3.01 0.737933 17.6473
3.01 0.725313 17.6699
3.01 0.75028 17.6699
[...]
<PointData Scalars="View Factor" >
<DataArray type="Float64" Name="View Factor" NumberOfComponents="1" format="ascii">
2.17778e-05
2.17778e-05
2.17778e-05
2.6458e-05
2.6458e-05
2.6458e-05
2.63316e-05
2.63316e-05
2.63316e-05
2.64169e-05
2.64169e-05
2.64169e-05
2.64592e-05
2.64592e-05
2.64592e-05
2.64158e-05
2.64158e-05
2.64158e-05
2.64566e-05
2.64566e-05
2.64566e-05
2.64145e-05
2.64145e-05
2.64145e-05
2.63346e-05
2.63346e-05
2.63346e-05
2.21954e-05
2.21954e-05
2.21954e-05
2.64438e-05
2.64438e-05
2.64438e-05
2.63305e-05
2.63305e-05
2.63305e-05
2.62886e-05
2.62886e-05
2.62886e-05
2.63292e-05
2.63292e-05
2.63292e-05
2.61598e-05
2.61598e-05
2.61598e-05
2.62874e-05
2.62874e-05
2.62874e-05
2.62027e-05
2.62027e-05
2.62027e-05
2.6413e-05
2.6413e-05
2.6413e-05
2.62897e-05
2.62897e-05
2.62897e-05
2.62051e-05
2.62051e-05
2.62051e-05
2.62911e-05
2.62911e-05
2.62911e-05
2.63328e-05
2.63328e-05
2.63328e-05
2.60372e-05
2.60372e-05
2.60372e-05
2.61657e-05
2.61657e-05
2.61657e-05
2.60817e-05
2.60817e-05
2.60817e-05
2.62066e-05
2.62066e-05
2.62066e-05
2.61638e-05
2.61638e-05
2.61638e-05
2.60387e-05
2.60387e-05
2.60387e-05
2.60798e-05
2.60798e-05
2.60798e-05
2.64624e-05
2.64624e-05
2.64624e-05
2.64195e-05
2.64195e-05
2.64195e-05
2.19865e-05
2.19865e-05
2.19865e-05
2.1918e-05
2.1918e-05
2.1918e-05
2.18107e-05
2.18107e-05
2.18107e-05
2.1847e-05
2.1847e-05
2.1847e-05
2.32882e-05
2.32882e-05
2.32882e-05
2.37739e-05
2.37739e-05
2.37739e-05
2.36991e-05
2.36991e-05
2.36991e-05
2.30665e-05
2.30665e-05
2.30665e-05
2.5242e-05
2.5242e-05
2.5242e-05
2.54855e-05
2.54855e-05
2.54855e-05
2.4193e-05
2.4193e-05
2.4193e-05
2.40399e-05
2.40399e-05
2.40399e-05
2.41572e-05
2.41572e-05
2.41572e-05
2.40807e-05
2.40807e-05
2.40807e-05
2.39122e-05
2.39122e-05
2.39122e-05
2.40291e-05
2.40291e-05
2.40291e-05
2.3953e-05
2.3953e-05
2.3953e-05
2.39177e-05
2.39177e-05
2.39177e-05
2.39584e-05
2.39584e-05
2.39584e-05
2.17025e-05
2.17025e-05
2.17025e-05
2.2659e-05
2.2659e-05
2.2659e-05
2.27295e-05
2.27295e-05
2.27295e-05
2.2804e-05
2.2804e-05
2.2804e-05
2.28768e-05
2.28768e-05
2.28768e-05
2.29478e-05
2.29478e-05
2.29478e-05
2.30229e-05
2.30229e-05
2.30229e-05
2.17606e-05
2.17606e-05
2.17606e-05
2.17567e-05
2.17567e-05
2.17567e-05
2.17935e-05
2.17935e-05
2.17935e-05
2.39917e-05
2.39917e-05
2.39917e-05
2.39557e-05
2.39557e-05
2.39557e-05
2.63997e-05
2.63997e-05
2.63997e-05
2.6455e-05
2.6455e-05
2.6455e-05
2.63278e-05
2.63278e-05
2.63278e-05
2.62013e-05
2.62013e-05
2.62013e-05
2.6286e-05
2.6286e-05
2.6286e-05
2.58732e-05
2.58732e-05
2.58732e-05
2.59565e-05
2.59565e-05
2.59565e-05
2.60405e-05
2.60405e-05
2.60405e-05
2.61624e-05
2.61624e-05
2.61624e-05
2.60784e-05
2.60784e-05
2.60784e-05
2.62039e-05
2.62039e-05
2.62039e-05
2.61611e-05
2.61611e-05
2.61611e-05
2.64602e-05
2.64602e-05
2.64602e-05
2.6418e-05
2.6418e-05
2.6418e-05
2.64612e-05
2.64612e-05
2.64612e-05
2.20551e-05
2.20551e-05
2.20551e-05
2.21251e-05
2.21251e-05
2.21251e-05
2.21615e-05
2.21615e-05
2.21615e-05
2.22674e-05
2.22674e-05
2.22674e-05
2.22322e-05
2.22322e-05
2.22322e-05
2.18142e-05
2.18142e-05
2.18142e-05
2.36985e-05
2.36985e-05
2.36985e-05
2.36612e-05
2.36612e-05
2.36612e-05
2.36617e-05
2.36617e-05
2.36617e-05
2.37371e-05
2.37371e-05
2.37371e-05
2.28465e-05
2.28465e-05
2.28465e-05
2.2993e-05
2.2993e-05
2.2993e-05
2.29196e-05
2.29196e-05
2.29196e-05
2.50016e-05
2.50016e-05
2.50016e-05
2.51637e-05
2.51637e-05
2.51637e-05
2.50469e-05
2.50469e-05
2.50469e-05
2.50836e-05
2.50836e-05
2.50836e-05
2.49242e-05
2.49242e-05
2.49242e-05
2.49672e-05
2.49672e-05
2.49672e-05
2.44853e-05
2.44853e-05
2.44853e-05
2.44792e-05
2.44792e-05
2.44792e-05
2.45212e-05
2.45212e-05
2.45212e-05
2.42645e-05
2.42645e-05
2.42645e-05
2.41821e-05
2.41821e-05
2.41821e-05
2.39231e-05
2.39231e-05
2.39231e-05
2.39637e-05
2.39637e-05
2.39637e-05
2.28101e-05
2.28101e-05
2.28101e-05
2.27705e-05
2.27705e-05
2.27705e-05
2.2698e-05
2.2698e-05
2.2698e-05
2.2665e-05
2.2665e-05
2.2665e-05
2.28828e-05
2.28828e-05
2.28828e-05
2.3029e-05
2.3029e-05
2.3029e-05
2.29161e-05
2.29161e-05
2.29161e-05
2.29891e-05
2.29891e-05
2.29891e-05
2.29953e-05
2.29953e-05
2.29953e-05
2.29223e-05
2.29223e-05
2.29223e-05
2.39473e-05
2.39473e-05
2.39473e-05
2.36683e-05
2.36683e-05
2.36683e-05
2.37089e-05
2.37089e-05
2.37089e-05
2.37028e-05
2.37028e-05
2.37028e-05
2.3662e-05
2.3662e-05
2.3662e-05
2.36965e-05
2.36965e-05
2.36965e-05
2.37717e-05
2.37717e-05
2.37717e-05
2.3806e-05
2.3806e-05
2.3806e-05
2.38816e-05
2.38816e-05
2.38816e-05
2.39165e-05
2.39165e-05
2.39165e-05
2.47009e-05
2.47009e-05
2.47009e-05
2.39355e-05
2.39355e-05
2.39355e-05
2.37842e-05
2.37842e-05
2.37842e-05
2.41164e-05
2.41164e-05
2.41164e-05
2.44533e-05
2.44533e-05
2.44533e-05
2.44953e-05
2.44953e-05
2.44953e-05
2.40665e-05
2.40665e-05
2.40665e-05
2.39924e-05
2.39924e-05
2.39924e-05
2.40335e-05
2.40335e-05
2.40335e-05
2.42965e-05
2.42965e-05
2.42965e-05
2.43758e-05
2.43758e-05
2.43758e-05
2.43403e-05
2.43403e-05
2.43403e-05
2.41515e-05
2.41515e-05
2.41515e-05
2.42282e-05
2.42282e-05
2.42282e-05
2.41098e-05
2.41098e-05
2.41098e-05
2.4145e-05
2.4145e-05
2.4145e-05
2.42632e-05
2.42632e-05
2.42632e-05
2.42217e-05
2.42217e-05
2.42217e-05
2.19153e-05
2.19153e-05
2.19153e-05
2.21567e-05
2.21567e-05
2.21567e-05
2.22279e-05
2.22279e-05
2.22279e-05
2.18761e-05
2.18761e-05
2.18761e-05
2.20155e-05
2.20155e-05
2.20155e-05
2.19462e-05
2.19462e-05
2.19462e-05
2.20833e-05
2.20833e-05
2.20833e-05
2.25868e-05
2.25868e-05
2.25868e-05
2.18798e-05
2.18798e-05
2.18798e-05
2.19544e-05
2.19544e-05
2.19544e-05
2.18841e-05
2.18841e-05
2.18841e-05
2.18469e-05
2.18469e-05
2.18469e-05
2.17442e-05
2.17442e-05
2.17442e-05
2.17769e-05
2.17769e-05
2.17769e-05
2.17398e-05
2.17398e-05
2.17398e-05
2.22123e-05
2.22123e-05
2.22123e-05
2.20955e-05
2.20955e-05
2.20955e-05
2.19917e-05
2.19917e-05
2.19917e-05
2.20623e-05
2.20623e-05
2.20623e-05
2.19999e-05
2.19999e-05
2.19999e-05
2.20705e-05
2.20705e-05
2.20705e-05
2.18672e-05
2.18672e-05
2.18672e-05
2.17973e-05
2.17973e-05
2.17973e-05
2.17643e-05
2.17643e-05
2.17643e-05
2.41267e-05
2.41267e-05
2.41267e-05
2.39516e-05
2.39516e-05
2.39516e-05
2.37324e-05
2.37324e-05
2.37324e-05
2.36532e-05
2.36532e-05
2.36532e-05
2.37285e-05
2.37285e-05
2.37285e-05
2.37682e-05
2.37682e-05
2.37682e-05
2.38797e-05
2.38797e-05
2.38797e-05
2.38438e-05
2.38438e-05
2.38438e-05
2.3657e-05
2.3657e-05
2.3657e-05
2.36176e-05
2.36176e-05
2.36176e-05
2.32096e-05
2.32096e-05
2.32096e-05
2.37112e-05
2.37112e-05
2.37112e-05
2.37512e-05
2.37512e-05
2.37512e-05
2.38365e-05
2.38365e-05
2.38365e-05
2.36857e-05
2.36857e-05
2.36857e-05
2.64489e-05
2.64489e-05
2.64489e-05
2.64511e-05
2.64511e-05
2.64511e-05
2.64073e-05
2.64073e-05
2.64073e-05
2.63221e-05
2.63221e-05
2.63221e-05
2.63396e-05
2.63396e-05
2.63396e-05
2.44134e-05
2.44134e-05
2.44134e-05
2.42589e-05
2.42589e-05
2.42589e-05
2.43775e-05
2.43775e-05
2.43775e-05
2.43003e-05
2.43003e-05
2.43003e-05
2.43058e-05
2.43058e-05
2.43058e-05
2.42699e-05
2.42699e-05
2.42699e-05
2.62786e-05
2.62786e-05
2.62786e-05
2.64409e-05
2.64409e-05
2.64409e-05
2.63959e-05
2.63959e-05
2.63959e-05
2.51609e-05
2.51609e-05
2.51609e-05
2.52024e-05
2.52024e-05
2.52024e-05
2.61255e-05
2.61255e-05
2.61255e-05
2.63786e-05
2.63786e-05
2.63786e-05
2.62937e-05
2.62937e-05
2.62937e-05
2.62092e-05
2.62092e-05
2.62092e-05
2.21267e-05
2.21267e-05
2.21267e-05
2.17808e-05
2.17808e-05
2.17808e-05
2.32141e-05
2.32141e-05
2.32141e-05
2.31402e-05
2.31402e-05
2.31402e-05
2.3586e-05
2.3586e-05
2.3586e-05
2.57818e-05
2.57818e-05
2.57818e-05
2.32129e-05
2.32129e-05
2.32129e-05
2.31391e-05
2.31391e-05
2.31391e-05
2.38114e-05
2.38114e-05
2.38114e-05
2.37731e-05
2.37731e-05
2.37731e-05
2.38879e-05
2.38879e-05
2.38879e-05
2.38121e-05
2.38121e-05
2.38121e-05
2.38126e-05
2.38126e-05
2.38126e-05
2.37745e-05
2.37745e-05
2.37745e-05
2.39645e-05
2.39645e-05
2.39645e-05
2.38884e-05
2.38884e-05
2.38884e-05
2.39261e-05
2.39261e-05
2.39261e-05
2.40023e-05
2.40023e-05
2.40023e-05
2.40407e-05
2.40407e-05
2.40407e-05
2.40115e-05
2.40115e-05
2.40115e-05
2.40465e-05
2.40465e-05
2.40465e-05
2.49311e-05
2.49311e-05
2.49311e-05
2.44076e-05
2.44076e-05
2.44076e-05
2.43718e-05
2.43718e-05
2.43718e-05
2.42946e-05
2.42946e-05
2.42946e-05
2.4515e-05
2.4515e-05
2.4515e-05
2.4473e-05
2.4473e-05
2.4473e-05
2.47435e-05
2.47435e-05
2.47435e-05
2.52072e-05
2.52072e-05
2.52072e-05
2.49745e-05
2.49745e-05
2.49745e-05
2.41876e-05
2.41876e-05
2.41876e-05
2.40346e-05
2.40346e-05
2.40346e-05
2.407e-05
2.407e-05
2.407e-05
2.41465e-05
2.41465e-05
2.41465e-05
2.4152e-05
2.4152e-05
2.4152e-05
2.40754e-05
2.40754e-05
2.40754e-05
2.38473e-05
2.38473e-05
2.38473e-05
2.38121e-05
2.38121e-05
2.38121e-05
2.39283e-05
2.39283e-05
2.39283e-05
2.38525e-05
2.38525e-05
2.38525e-05
2.36312e-05
2.36312e-05
2.36312e-05
2.35913e-05
2.35913e-05
2.35913e-05
2.38267e-05
2.38267e-05
2.38267e-05
2.35871e-05
2.35871e-05
2.35871e-05
2.3035e-05
2.3035e-05
2.3035e-05
2.31143e-05
2.31143e-05
2.31143e-05
2.31084e-05
2.31084e-05
2.31084e-05
2.31481e-05
2.31481e-05
2.31481e-05
2.19831e-05
2.19831e-05
2.19831e-05
2.195e-05
2.195e-05
2.195e-05
2.19874e-05
2.19874e-05
2.19874e-05
2.2058e-05
2.2058e-05
2.2058e-05
2.23758e-05
2.23758e-05
2.23758e-05
2.21482e-05
2.21482e-05
2.21482e-05
2.20775e-05
2.20775e-05
2.20775e-05
2.24662e-05
2.24662e-05
2.24662e-05
2.23997e-05
2.23997e-05
2.23997e-05
2.24994e-05
2.24994e-05
2.24994e-05
2.42531e-05
2.42531e-05
2.42531e-05
2.39065e-05
2.39065e-05
2.39065e-05
2.39415e-05
2.39415e-05
2.39415e-05
2.39006e-05
2.39006e-05
2.39006e-05
2.38249e-05
2.38249e-05
2.38249e-05
2.35993e-05
2.35993e-05
2.35993e-05
2.36743e-05
2.36743e-05
2.36743e-05
2.39229e-05
2.39229e-05
2.39229e-05
2.40053e-05
2.40053e-05
2.40053e-05
2.39989e-05
2.39989e-05
2.39989e-05
2.40401e-05
2.40401e-05
2.40401e-05
2.37654e-05
2.37654e-05
2.37654e-05
2.38387e-05
2.38387e-05
2.38387e-05
2.42699e-05
2.42699e-05
2.42699e-05
2.43954e-05
2.43954e-05
2.43954e-05
2.43535e-05
2.43535e-05
2.43535e-05
2.458e-05
2.458e-05
2.458e-05
2.45087e-05
2.45087e-05
2.45087e-05
2.46225e-05
2.46225e-05
2.46225e-05
2.45866e-05
2.45866e-05
2.45866e-05
2.47368e-05
2.47368e-05
2.47368e-05
2.48156e-05
2.48156e-05
2.48156e-05
2.48518e-05
2.48518e-05
2.48518e-05
2.18616e-05
2.18616e-05
2.18616e-05
2.19366e-05
2.19366e-05
2.19366e-05
2.18102e-05
2.18102e-05
2.18102e-05
2.18462e-05
2.18462e-05
2.18462e-05
2.17406e-05
2.17406e-05
2.17406e-05
2.19534e-05
2.19534e-05
2.19534e-05
2.21639e-05
2.21639e-05
2.21639e-05
2.20234e-05
2.20234e-05
2.20234e-05
2.20545e-05
2.20545e-05
2.20545e-05
2.21247e-05
2.21247e-05
2.21247e-05
2.22902e-05
2.22902e-05
2.22902e-05
2.23946e-05
2.23946e-05
2.23946e-05
2.23615e-05
2.23615e-05
2.23615e-05
2.23562e-05
2.23562e-05
2.23562e-05
2.25928e-05
2.25928e-05
2.25928e-05
2.25535e-05
2.25535e-05
2.25535e-05
2.22667e-05
2.22667e-05
2.22667e-05
2.22346e-05
2.22346e-05
2.22346e-05
2.19627e-05
2.19627e-05
2.19627e-05
2.19586e-05
2.19586e-05
2.19586e-05
2.19959e-05
2.19959e-05
2.19959e-05
2.17485e-05
2.17485e-05
2.17485e-05
2.17813e-05
2.17813e-05
2.17813e-05
2.18512e-05
2.18512e-05
2.18512e-05
2.18883e-05
2.18883e-05
2.18883e-05
2.17585e-05
2.17585e-05
2.17585e-05
2.18663e-05
2.18663e-05
2.18663e-05
2.18288e-05
2.18288e-05
2.18288e-05
2.17258e-05
2.17258e-05
2.17258e-05
2.18425e-05
2.18425e-05
2.18425e-05
2.17725e-05
2.17725e-05
2.17725e-05
2.21664e-05
2.21664e-05
2.21664e-05
2.2204e-05
2.2204e-05
2.2204e-05
2.27112e-05
2.27112e-05
2.27112e-05
2.27453e-05
2.27453e-05
2.27453e-05
2.25193e-05
2.25193e-05
2.25193e-05
2.22752e-05
2.22752e-05
2.22752e-05
2.23087e-05
2.23087e-05
2.23087e-05
2.22836e-05
2.22836e-05
2.22836e-05
2.24856e-05
2.24856e-05
2.24856e-05
2.24138e-05
2.24138e-05
2.24138e-05
2.23802e-05
2.23802e-05
2.23802e-05
2.24183e-05
2.24183e-05
2.24183e-05
2.20997e-05
2.20997e-05
2.20997e-05
2.21748e-05
2.21748e-05
2.21748e-05
2.21039e-05
2.21039e-05
2.21039e-05
2.20664e-05
2.20664e-05
2.20664e-05
2.22082e-05
2.22082e-05
2.22082e-05
2.21706e-05
2.21706e-05
2.21706e-05
2.19667e-05
2.19667e-05
2.19667e-05
2.18965e-05
2.18965e-05
2.18965e-05
2.18634e-05
2.18634e-05
2.18634e-05
2.19003e-05
2.19003e-05
2.19003e-05
2.21079e-05
2.21079e-05
2.21079e-05
2.21788e-05
2.21788e-05
2.21788e-05
2.22163e-05
2.22163e-05
2.22163e-05
2.28732e-05
2.28732e-05
2.28732e-05
2.29463e-05
2.29463e-05
2.29463e-05
2.43387e-05
2.43387e-05
2.43387e-05
2.40312e-05
2.40312e-05
2.40312e-05
2.43784e-05
2.43784e-05
2.43784e-05
2.43405e-05
2.43405e-05
2.43405e-05
2.39921e-05
2.39921e-05
2.39921e-05
2.409e-05
2.409e-05
2.409e-05
2.41298e-05
2.41298e-05
2.41298e-05
2.37494e-05
2.37494e-05
2.37494e-05
2.37857e-05
2.37857e-05
2.37857e-05
2.38582e-05
2.38582e-05
2.38582e-05
2.3674e-05
2.3674e-05
2.3674e-05
2.36379e-05
2.36379e-05
2.36379e-05
2.35628e-05
2.35628e-05
2.35628e-05
2.35239e-05
2.35239e-05
2.35239e-05
2.39875e-05
2.39875e-05
2.39875e-05
2.38756e-05
2.38756e-05
2.38756e-05
2.38398e-05
2.38398e-05
2.38398e-05
2.37642e-05
2.37642e-05
2.37642e-05
2.37244e-05
2.37244e-05
2.37244e-05
2.34133e-05
2.34133e-05
2.34133e-05
2.34491e-05
2.34491e-05
2.34491e-05
2.36213e-05
2.36213e-05
2.36213e-05
2.35426e-05
2.35426e-05
2.35426e-05
2.37463e-05
2.37463e-05
2.37463e-05
2.37825e-05
2.37825e-05
2.37825e-05
2.3404e-05
2.3404e-05
2.3404e-05
2.34396e-05
2.34396e-05
2.34396e-05
2.36405e-05
2.36405e-05
2.36405e-05
2.37157e-05
2.37157e-05
2.37157e-05
2.36107e-05
2.36107e-05
2.36107e-05
2.3023e-05
2.3023e-05
2.3023e-05
2.64532e-05
2.64532e-05
2.64532e-05
2.64094e-05
2.64094e-05
2.64094e-05
2.64113e-05
2.64113e-05
2.64113e-05
2.55695e-05
2.55695e-05
2.55695e-05
2.57322e-05
2.57322e-05
2.57322e-05
2.56518e-05
2.56518e-05
2.56518e-05
2.63507e-05
2.63507e-05
2.63507e-05
2.63608e-05
2.63608e-05
2.63608e-05
2.63793e-05
2.63793e-05
2.63793e-05
2.44191e-05
2.44191e-05
2.44191e-05
2.43831e-05
2.43831e-05
2.43831e-05
2.44245e-05
2.44245e-05
2.44245e-05
2.45023e-05
2.45023e-05
2.45023e-05
2.43111e-05
2.43111e-05
2.43111e-05
2.43884e-05
2.43884e-05
2.43884e-05
2.6405e-05
2.6405e-05
2.6405e-05
2.63198e-05
2.63198e-05
2.63198e-05
2.64464e-05
2.64464e-05
2.64464e-05
2.64024e-05
2.64024e-05
2.64024e-05
2.63146e-05
2.63146e-05
2.63146e-05
2.62707e-05
2.62707e-05
2.62707e-05
2.61862e-05
2.61862e-05
2.61862e-05
2.61831e-05
2.61831e-05
2.61831e-05
2.61425e-05
2.61425e-05
2.61425e-05
2.6018e-05
2.6018e-05
2.6018e-05
2.60585e-05
2.60585e-05
2.60585e-05
2.64311e-05
2.64311e-05
2.64311e-05
2.63559e-05
2.63559e-05
2.63559e-05
2.50807e-05
2.50807e-05
2.50807e-05
2.49212e-05
2.49212e-05
2.49212e-05
2.62495e-05
2.62495e-05
2.62495e-05
2.62807e-05
2.62807e-05
2.62807e-05
2.61961e-05
2.61961e-05
2.61961e-05
2.63242e-05
2.63242e-05
2.63242e-05
2.25858e-05
2.25858e-05
2.25858e-05
2.24379e-05
2.24379e-05
2.24379e-05
2.22287e-05
2.22287e-05
2.22287e-05
2.22302e-05
2.22302e-05
2.22302e-05
2.22651e-05
2.22651e-05
2.22651e-05
2.24448e-05
2.24448e-05
2.24448e-05
2.23366e-05
2.23366e-05
2.23366e-05
2.23731e-05
2.23731e-05
2.23731e-05
2.22635e-05
2.22635e-05
2.22635e-05
2.2162e-05
2.2162e-05
2.2162e-05
2.23392e-05
2.23392e-05
2.23392e-05
2.2411e-05
2.2411e-05
2.2411e-05
2.18171e-05
2.18171e-05
2.18171e-05
2.19938e-05
2.19938e-05
2.19938e-05
2.19235e-05
2.19235e-05
2.19235e-05
2.1887e-05
2.1887e-05
2.1887e-05
2.21352e-05
2.21352e-05
2.21352e-05
2.19992e-05
2.19992e-05
2.19992e-05
2.19288e-05
2.19288e-05
2.19288e-05
2.32503e-05
2.32503e-05
2.32503e-05
2.32136e-05
2.32136e-05
2.32136e-05
2.32509e-05
2.32509e-05
2.32509e-05
2.30295e-05
2.30295e-05
2.30295e-05
2.31031e-05
2.31031e-05
2.31031e-05
2.29925e-05
2.29925e-05
2.29925e-05
2.3029e-05
2.3029e-05
2.3029e-05
2.31397e-05
2.31397e-05
2.31397e-05
2.31025e-05
2.31025e-05
2.31025e-05
2.35483e-05
2.35483e-05
2.35483e-05
2.34727e-05
2.34727e-05
2.34727e-05
2.35117e-05
2.35117e-05
2.35117e-05
2.35865e-05
2.35865e-05
2.35865e-05
2.35488e-05
2.35488e-05
2.35488e-05
2.57897e-05
2.57897e-05
2.57897e-05
2.51738e-05
2.51738e-05
2.51738e-05
2.53353e-05
2.53353e-05
2.53353e-05
2.49258e-05
2.49258e-05
2.49258e-05
2.48464e-05
2.48464e-05
2.48464e-05
2.48971e-05
2.48971e-05
2.48971e-05
2.46602e-05
2.46602e-05
2.46602e-05
2.45817e-05
2.45817e-05
2.45817e-05
2.51366e-05
2.51366e-05
2.51366e-05
2.52164e-05
2.52164e-05
2.52164e-05
2.52972e-05
2.52972e-05
2.52972e-05
2.5217e-05
2.5217e-05
2.5217e-05
2.51765e-05
2.51765e-05
2.51765e-05
2.52146e-05
2.52146e-05
2.52146e-05
2.52954e-05
2.52954e-05
2.52954e-05
2.54186e-05
2.54186e-05
2.54186e-05
2.53374e-05
2.53374e-05
2.53374e-05
2.52964e-05
2.52964e-05
2.52964e-05
2.53364e-05
2.53364e-05
2.53364e-05
2.56992e-05
2.56992e-05
2.56992e-05
2.29919e-05
2.29919e-05
2.29919e-05
2.29186e-05
2.29186e-05
2.29186e-05
2.36605e-05
2.36605e-05
2.36605e-05
2.36977e-05
2.36977e-05
2.36977e-05
2.35854e-05
2.35854e-05
2.35854e-05
2.35475e-05
2.35475e-05
2.35475e-05
2.38105e-05
2.38105e-05
2.38105e-05
2.44259e-05
2.44259e-05
2.44259e-05
2.44645e-05
2.44645e-05
2.44645e-05
2.45036e-05
2.45036e-05
2.45036e-05
2.45031e-05
2.45031e-05
2.45031e-05
2.44638e-05
2.44638e-05
2.44638e-05
2.40402e-05
2.40402e-05
2.40402e-05
2.41167e-05
2.41167e-05
2.41167e-05
2.43843e-05
2.43843e-05
2.43843e-05
2.38872e-05
2.38872e-05
2.38872e-05
2.40395e-05
2.40395e-05
2.40395e-05
2.39255e-05
2.39255e-05
2.39255e-05
2.40017e-05
2.40017e-05
2.40017e-05
2.5097e-05
2.5097e-05
2.5097e-05
2.50171e-05
2.50171e-05
2.50171e-05
2.45992e-05
2.45992e-05
2.45992e-05
2.48586e-05
2.48586e-05
2.48586e-05
2.48223e-05
2.48223e-05
2.48223e-05
2.4629e-05
2.4629e-05
2.4629e-05
2.47074e-05
2.47074e-05
2.47074e-05
2.4593e-05
2.4593e-05
2.4593e-05
2.46353e-05
2.46353e-05
2.46353e-05
2.46414e-05
2.46414e-05
2.46414e-05
2.47198e-05
2.47198e-05
2.47198e-05
2.50905e-05
2.50905e-05
2.50905e-05
2.51707e-05
2.51707e-05
2.51707e-05
2.38069e-05
2.38069e-05
2.38069e-05
2.3842e-05
2.3842e-05
2.3842e-05
2.38015e-05
2.38015e-05
2.38015e-05
2.37261e-05
2.37261e-05
2.37261e-05
2.36911e-05
2.36911e-05
2.36911e-05
2.37314e-05
2.37314e-05
2.37314e-05
2.38171e-05
2.38171e-05
2.38171e-05
2.37416e-05
2.37416e-05
2.37416e-05
2.37465e-05
2.37465e-05
2.37465e-05
2.37064e-05
2.37064e-05
2.37064e-05
2.39688e-05
2.39688e-05
2.39688e-05
2.40857e-05
2.40857e-05
2.40857e-05
2.4045e-05
2.4045e-05
2.4045e-05
2.36359e-05
2.36359e-05
2.36359e-05
2.35961e-05
2.35961e-05
2.35961e-05
2.36007e-05
2.36007e-05
2.36007e-05
2.31358e-05
2.31358e-05
2.31358e-05
2.30622e-05
2.30622e-05
2.30622e-05
2.345e-05
2.345e-05
2.345e-05
2.35467e-05
2.35467e-05
2.35467e-05
2.35933e-05
2.35933e-05
2.35933e-05
2.35529e-05
2.35529e-05
2.35529e-05
2.35589e-05
2.35589e-05
2.35589e-05
2.34843e-05
2.34843e-05
2.34843e-05
2.32157e-05
2.32157e-05
2.32157e-05
2.31023e-05
2.31023e-05
2.31023e-05
2.31421e-05
2.31421e-05
2.31421e-05
2.28888e-05
2.28888e-05
2.28888e-05
2.27041e-05
2.27041e-05
2.27041e-05
2.27767e-05
2.27767e-05
2.27767e-05
2.2816e-05
2.2816e-05
2.2816e-05
2.27826e-05
2.27826e-05
2.27826e-05
2.25713e-05
2.25713e-05
2.25713e-05
2.20492e-05
2.20492e-05
2.20492e-05
2.19741e-05
2.19741e-05
2.19741e-05
2.20446e-05
2.20446e-05
2.20446e-05
2.20822e-05
2.20822e-05
2.20822e-05
2.20867e-05
2.20867e-05
2.20867e-05
2.20912e-05
2.20912e-05
2.20912e-05
2.20536e-05
2.20536e-05
2.20536e-05
2.21576e-05
2.21576e-05
2.21576e-05
2.20398e-05
2.20398e-05
2.20398e-05
2.19318e-05
2.19318e-05
2.19318e-05
2.19694e-05
2.19694e-05
2.19694e-05
2.20726e-05
2.20726e-05
2.20726e-05
2.22571e-05
2.22571e-05
2.22571e-05
2.2186e-05
2.2186e-05
2.2186e-05
2.2153e-05
2.2153e-05
2.2153e-05
2.21907e-05
2.21907e-05
2.21907e-05
2.25597e-05
2.25597e-05
2.25597e-05
2.24877e-05
2.24877e-05
2.24877e-05
2.24607e-05
2.24607e-05
2.24607e-05
2.23892e-05
2.23892e-05
2.23892e-05
2.24549e-05
2.24549e-05
2.24549e-05
2.24937e-05
2.24937e-05
2.24937e-05
2.41763e-05
2.41763e-05
2.41763e-05
2.40234e-05
2.40234e-05
2.40234e-05
2.40644e-05
2.40644e-05
2.40644e-05
2.41409e-05
2.41409e-05
2.41409e-05
2.40175e-05
2.40175e-05
2.40175e-05
2.41704e-05
2.41704e-05
2.41704e-05
2.40586e-05
2.40586e-05
2.40586e-05
2.41351e-05
2.41351e-05
2.41351e-05
2.40526e-05
2.40526e-05
2.40526e-05
2.41291e-05
2.41291e-05
2.41291e-05
2.43659e-05
2.43659e-05
2.43659e-05
2.42887e-05
2.42887e-05
2.42887e-05
2.42472e-05
2.42472e-05