<VTKFile type="UnstructuredGrid" version="1.0">
<UnstructuredGrid>
<Piece NumberOfPoints="8859" NumberOfCells="2953">
<Points>
<DataArray type="Float64" NumberOfComponents="3" format="ascii">
3.01 0.5 5.13
3.01 0.487476 5.1525
3.01 0.512524 5.1525
3.01 0.17352 4.2525
3.01 0.148445 4.2525
3.01 0.160827 4.27422
3.01 0.122979 4.29589
3.01 0.135644 4.27422
3.01 0.110383 4.27421
3.01 0.135644 4.27422
3.01 0.123433 4.2525
3.01 0.110383 4.27421
3.01 0.123433 4.2525
3.01 0.135644 4.27422
3.01 0.148445 4.2525
3.01 0.135644 4.27422
3.01 0.160827 4.27422
3.01 0.148445 4.2525
3.01 0.17352 4.2525
3.01 0.185985 4.2742
3.01 0.198629 4.2525
3.01 0.185985 4.2742
3.01 0.17352 4.2525
3.01 0.160827 4.27422
3.01 0.0732297 4.29567
3.01 0.0848754 4.27414
3.01 0.0586606 4.27381
3.01 0.05 5.08527
3.01 0.058509 5.06256
3.01 0.05 5.0401
3.01 0.324276 4.2525
3.01 0.336827 4.27416
3.01 0.349395 4.2525
3.01 0.148138 4.2959
3.01 0.160827 4.27422
3.01 0.135644 4.27422
3.01 0.122979 4.29589
3.01 0.148138 4.2959
3.01 0.135644 4.27422
3.01 0.160827 4.27422
3.01 0.173316 4.29589
3.01 0.185985 4.2742
3.01 0.185806 4.31755
3.01 0.173316 4.29589
3.01 0.160572 4.31755
3.01 0.173316 4.29589
3.01 0.160827 4.27422
3.01 0.148138 4.2959
3.01 0.160572 4.31755
3.01 0.173316 4.29589
3.01 0.148138 4.2959
3.01 0.211137 4.27419
3.01 0.198629 4.2525
3.01 0.185985 4.2742
3.01 0.0979162 4.29584
3.01 0.122979 4.29589
3.01 0.110383 4.27421
3.01 0.122979 4.29589
3.01 0.0979162 4.29584
3.01 0.109875 4.31749
3.01 0.0732297 4.29567
3.01 0.0979162 4.29584
3.01 0.0848754 4.27414
3.01 0.0979162 4.29584
3.01 0.110383 4.27421
3.01 0.0848754 4.27414
3.01 0.0975729 4.33904
3.01 0.122678 4.33914
3.01 0.109875 4.31749
3.01 0.0841718 4.31735
3.01 0.0732297 4.29567
3.01 0.0577122 4.31702
3.01 0.0729308 4.33888
3.01 0.0841718 4.31735
3.01 0.0577122 4.31702
3.01 0.0732297 4.29567
3.01 0.0841718 4.31735
3.01 0.0979162 4.29584
3.01 0.0841718 4.31735
3.01 0.109875 4.31749
3.01 0.0979162 4.29584
3.01 0.0975729 4.33904
3.01 0.0841718 4.31735
3.01 0.0729308 4.33888
3.01 0.0841718 4.31735
3.01 0.0975729 4.33904
3.01 0.109875 4.31749
3.01 0.073948 4.2525
3.01 0.05 4.2525
3.01 0.0586606 4.27381
3.01 0.073948 4.2525
3.01 0.0586606 4.27381
3.01 0.0848754 4.27414
3.01 0.05 5.12829
3.01 0.0603641 5.10697
3.01 0.05 5.08527
3.01 0.0603641 5.10697
3.01 0.05 5.12829
3.01 0.0753197 5.12899
3.01 0.0709395 5.1525
3.01 0.05 5.12829
3.01 0.05 5.1525
3.01 0.05 5.12829
3.01 0.0709395 5.1525
3.01 0.0753197 5.12899
3.01 0.0579641 4.83963
3.01 0.05 4.81761
3.01 0.05 4.86169
3.01 0.0841948 4.7518
3.01 0.109814 4.7518
3.01 0.097638 4.72993
3.01 0.0841948 4.7518
3.01 0.0578646 4.7518
3.01 0.0730539 4.7737
3.01 0.0580261 4.8838
3.01 0.05 4.86169
3.01 0.05 4.90595
3.01 0.942292 4.44736
3.01 0.95 4.46904
3.01 0.95 4.42567
3.01 0.95 4.38226
3.01 0.942332 4.40397
3.01 0.95 4.42567
3.01 0.73872 4.66453
3.01 0.75132 4.64276
3.01 0.726137 4.64276
3.01 0.751305 4.68632
3.01 0.73872 4.66453
3.01 0.726124 4.68633
3.01 0.713546 4.66454
3.01 0.73872 4.66453
3.01 0.726137 4.64276
3.01 0.73872 4.66453
3.01 0.713546 4.66454
3.01 0.726124 4.68633
3.01 0.814318 4.70811
3.01 0.801709 4.6863
3.01 0.789096 4.70812
3.01 0.7765 4.68631
3.01 0.801709 4.6863
3.01 0.789115 4.66451
3.01 0.801709 4.6863
3.01 0.7765 4.68631
3.01 0.789096 4.70812
3.01 0.7765 4.68631
3.01 0.763892 4.70814
3.01 0.789096 4.70812
3.01 0.763892 4.70814
3.01 0.7765 4.68631
3.01 0.751305 4.68632
3.01 0.95 5.1525
3.01 0.95 5.12829
3.01 0.929061 5.1525
3.01 0.95 4.9504
3.01 0.941913 4.92815
3.01 0.926844 4.9504
3.01 0.941913 4.92815
3.01 0.95 4.9504
3.01 0.95 4.90595
3.01 0.926866 4.90594
3.01 0.941913 4.92815
3.01 0.95 4.90595
3.01 0.941974 4.8838
3.01 0.926866 4.90594
3.01 0.95 4.90595
3.01 0.95 4.86169
3.01 0.941974 4.8838
3.01 0.95 4.90595
3.01 0.941974 4.8838
3.01 0.95 4.86169
3.01 0.926895 4.86169
3.01 0.6127 5.1525
3.01 0.637734 5.1525
3.01 0.625238 5.12998
3.01 0.662757 5.1525
3.01 0.650275 5.12997
3.01 0.637734 5.1525
3.01 0.650275 5.12997
3.01 0.625238 5.12998
3.01 0.637734 5.1525
3.01 0.600415 4.68637
3.01 0.575304 4.68637
3.01 0.587856 4.7082
3.01 0.575304 4.68637
3.01 0.562749 4.7082
3.01 0.587856 4.7082
3.01 0.336827 4.27416
3.01 0.361946 4.27416
3.01 0.349395 4.2525
3.01 0.223755 4.2525
3.01 0.198629 4.2525
3.01 0.211137 4.27419
3.01 0.185985 4.2742
3.01 0.198492 4.29588
3.01 0.211137 4.27419
3.01 0.185806 4.31755
3.01 0.198492 4.29588
3.01 0.173316 4.29589
3.01 0.198492 4.29588
3.01 0.185985 4.2742
3.01 0.173316 4.29589
3.01 0.0576202 4.36053
3.01 0.05 4.33874
3.01 0.05 4.38226
3.01 0.05 4.33874
3.01 0.0576202 4.36053
3.01 0.0729308 4.33888
3.01 0.05 4.33874
3.01 0.0729308 4.33888
3.01 0.0577122 4.31702
3.01 0.135283 4.31754
3.01 0.122979 4.29589
3.01 0.109875 4.31749
3.01 0.135283 4.31754
3.01 0.109875 4.31749
3.01 0.122678 4.33914
3.01 0.122979 4.29589
3.01 0.135283 4.31754
3.01 0.148138 4.2959
3.01 0.135283 4.31754
3.01 0.160572 4.31755
3.01 0.148138 4.2959
3.01 0.123433 4.2525
3.01 0.0985513 4.2525
3.01 0.110383 4.27421
3.01 0.110383 4.27421
3.01 0.0985513 4.2525
3.01 0.0848754 4.27414
3.01 0.0848754 4.27414
3.01 0.0985513 4.2525
3.01 0.073948 4.2525
3.01 0.0603641 5.10697
3.01 0.0739464 5.08449
3.01 0.05 5.08527
3.01 0.0739464 5.08449
3.01 0.058509 5.06256
3.01 0.05 5.08527
3.01 0.058509 5.06256
3.01 0.0739464 5.08449
3.01 0.0849548 5.06211
3.01 0.058509 5.06256
3.01 0.0732725 5.03988
3.01 0.05 5.0401
3.01 0.0732725 5.03988
3.01 0.058509 5.06256
3.01 0.0849548 5.06211
3.01 0.5 5.13
3.01 0.47495 5.13
3.01 0.487476 5.1525
3.01 0.097663 4.7737
3.01 0.109814 4.7518
3.01 0.0841948 4.7518
3.01 0.0730539 4.7737
3.01 0.097663 4.7737
3.01 0.0841948 4.7518
3.01 0.0578646 4.7518
3.01 0.05 4.7737
3.01 0.0730539 4.7737
3.01 0.05 4.7737
3.01 0.0578646 4.7518
3.01 0.05 4.72992
3.01 0.05 4.9504
3.01 0.0580869 4.92815
3.01 0.05 4.90595
3.01 0.05 4.90595
3.01 0.073134 4.90594
3.01 0.0580261 4.8838
3.01 0.073134 4.90594
3.01 0.05 4.90595
3.01 0.0580869 4.92815
3.01 0.942268 4.49073
3.01 0.95 4.51241
3.01 0.95 4.46904
3.01 0.942292 4.44736
3.01 0.927025 4.46904
3.01 0.95 4.46904
3.01 0.927025 4.46904
3.01 0.915919 4.49072
3.01 0.942268 4.49073
3.01 0.95 4.46904
3.01 0.927025 4.46904
3.01 0.942268 4.49073
3.01 0.927013 4.51241
3.01 0.95 4.51241
3.01 0.942268 4.49073
3.01 0.915919 4.49072
3.01 0.927013 4.51241
3.01 0.942268 4.49073
3.01 0.801738 4.59925
3.01 0.826957 4.59925
3.01 0.814364 4.57753
3.01 0.852174 4.59924
3.01 0.839609 4.57752
3.01 0.826957 4.59925
3.01 0.839609 4.57752
3.01 0.814364 4.57753
3.01 0.826957 4.59925
3.01 0.776516 4.64275
3.01 0.763923 4.621
3.01 0.75132 4.64276
3.01 0.776516 4.64275
3.01 0.789115 4.66451
3.01 0.801725 4.64274
3.01 0.738704 4.70815
3.01 0.763892 4.70814
3.01 0.751305 4.68632
3.01 0.726124 4.68633
3.01 0.738704 4.70815
3.01 0.751305 4.68632
3.01 0.915617 4.92814
3.01 0.926866 4.90594
3.01 0.902228 4.90594
3.01 0.926866 4.90594
3.01 0.915617 4.92814
3.01 0.941913 4.92815
3.01 0.915617 4.92814
3.01 0.926844 4.9504
3.01 0.941913 4.92815
3.01 0.915617 4.92814
3.01 0.902193 4.95038
3.01 0.926844 4.9504
3.01 0.926866 4.90594
3.01 0.915668 4.88379
3.01 0.902228 4.90594
3.01 0.902267 4.86168
3.01 0.915668 4.88379
3.01 0.926895 4.86169
3.01 0.915668 4.88379
3.01 0.926866 4.90594
3.01 0.941974 4.8838
3.01 0.926895 4.86169
3.01 0.915668 4.88379
3.01 0.941974 4.8838
3.01 0.902267 4.86168
3.01 0.890059 4.88379
3.01 0.915668 4.88379
3.01 0.890059 4.88379
3.01 0.902228 4.90594
3.01 0.915668 4.88379
3.01 0.826927 4.68629
3.01 0.801709 4.6863
3.01 0.814318 4.70811
3.01 0.864816 4.7518
3.01 0.890186 4.7518
3.01 0.877308 4.72993
3.01 0.877308 4.72993
3.01 0.852122 4.72994
3.01 0.864816 4.7518
3.01 0.890186 4.7518
3.01 0.902362 4.72993
3.01 0.877308 4.72993
3.01 0.902362 4.72993
3.01 0.890186 4.7518
3.01 0.915805 4.7518
3.01 0.902362 4.72993
3.01 0.915805 4.7518
3.01 0.926964 4.72992
3.01 0.915835 4.70809
3.01 0.902362 4.72993
3.01 0.926964 4.72992
3.01 0.942171 4.70809
3.01 0.915835 4.70809
3.01 0.926964 4.72992
3.01 0.915835 4.70809
3.01 0.942171 4.70809
3.01 0.926978 4.68627
3.01 0.942171 4.70809
3.01 0.95 4.68627
3.01 0.926978 4.68627
3.01 0.87737 4.55581
3.01 0.902417 4.5558
3.01 0.890277 4.53411
3.01 0.852144 4.68628
3.01 0.864842 4.70809
3.01 0.877329 4.68628
3.01 0.877308 4.72993
3.01 0.864842 4.70809
3.01 0.852122 4.72994
3.01 0.902396 4.64272
3.01 0.890234 4.66449
3.01 0.915858 4.66448
3.01 0.926997 4.59923
3.01 0.95 4.59923
3.01 0.942237 4.57751
3.01 0.91589 4.57751
3.01 0.926997 4.59923
3.01 0.942237 4.57751
3.01 0.942199 4.66448
3.01 0.95 4.68627
3.01 0.95 4.64271
3.01 0.95 4.68627
3.01 0.942199 4.66448
3.01 0.926978 4.68627
3.01 0.942199 4.66448
3.01 0.915858 4.66448
3.01 0.926978 4.68627
3.01 0.95 4.59923
3.01 0.942221 4.62097
3.01 0.95 4.64271
3.01 0.942221 4.62097
3.01 0.95 4.59923
3.01 0.926997 4.59923
3.01 0.915876 4.62097
3.01 0.942221 4.62097
3.01 0.926997 4.59923
3.01 0.926989 4.64271
3.01 0.902396 4.64272
3.01 0.915858 4.66448
3.01 0.902396 4.64272
3.01 0.926989 4.64271
3.01 0.915876 4.62097
3.01 0.926989 4.64271
3.01 0.915858 4.66448
3.01 0.942199 4.66448
3.01 0.95 4.64271
3.01 0.926989 4.64271
3.01 0.942199 4.66448
3.01 0.915876 4.62097
3.01 0.926989 4.64271
3.01 0.942221 4.62097
3.01 0.926989 4.64271
3.01 0.95 4.64271
3.01 0.942221 4.62097
3.01 0.91353 5.10685
3.01 0.939636 5.10697
3.01 0.926054 5.08449
3.01 0.926728 5.03988
3.01 0.941491 5.06256
3.01 0.95 5.0401
3.01 0.926728 5.03988
3.01 0.95 5.0401
3.01 0.941822 5.01754
3.01 0.95 5.08527
3.01 0.939636 5.10697
3.01 0.95 5.12829
3.01 0.95 5.08527
3.01 0.941491 5.06256
3.01 0.926054 5.08449
3.01 0.939636 5.10697
3.01 0.95 5.08527
3.01 0.926054 5.08449
3.01 0.941491 5.06256
3.01 0.95 5.08527
3.01 0.95 5.0401
3.01 0.941869 4.97272
3.01 0.95 4.9504
3.01 0.926844 4.9504
3.01 0.762942 5.10729
3.01 0.737933 5.10734
3.01 0.75028 5.12989
3.01 0.71291 5.10739
3.01 0.737933 5.10734
3.01 0.725533 5.08485
3.01 0.71291 5.10739
3.01 0.725313 5.12992
3.01 0.737933 5.10734
3.01 0.725313 5.12992
3.01 0.75028 5.12989
3.01 0.737933 5.10734
3.01 0.737693 5.1525
3.01 0.725313 5.12992
[...]
<PointData Scalars="View Factor" >
<DataArray type="Float64" Name="View Factor" NumberOfComponents="1" format="ascii">
0.000560962
0.000560962
0.000560962
0.000883549
0.000883549
0.000883549
0.000873664
0.000873664
0.000873664
0.000880443
0.000880443
0.000880443
0.000883765
0.000883765
0.000883765
0.000880245
0.000880245
0.000880245
0.000883296
0.000883296
0.000883296
0.000880013
0.000880013
0.000880013
0.00087406
0.00087406
0.00087406
0.000587568
0.000587568
0.000587568
0.000881003
0.000881003
0.000881003
0.000873466
0.000873466
0.000873466
0.000870207
0.000870207
0.000870207
0.000873238
0.000873238
0.000873238
0.000859898
0.000859898
0.000859898
0.000869995
0.000869995
0.000869995
0.000863324
0.000863324
0.000863324
0.000879745
0.000879745
0.000879745
0.000870395
0.000870395
0.000870395
0.00086373
0.00086373
0.00086373
0.00087058
0.00087058
0.00087058
0.000873846
0.000873846
0.000873846
0.000850604
0.000850604
0.000850604
0.000860742
0.000860742
0.000860742
0.000854179
0.000854179
0.000854179
0.000863924
0.000863924
0.000863924
0.000860524
0.000860524
0.000860524
0.0008508
0.0008508
0.0008508
0.000853963
0.000853963
0.000853963
0.000884262
0.000884262
0.000884262
0.000880809
0.000880809
0.000880809
0.000575158
0.000575158
0.000575158
0.000571123
0.000571123
0.000571123
0.000564857
0.000564857
0.000564857
0.000566968
0.000566968
0.000566968
0.000655524
0.000655524
0.000655524
0.000687352
0.000687352
0.000687352
0.000682413
0.000682413
0.000682413
0.000641316
0.000641316
0.000641316
0.000778444
0.000778444
0.000778444
0.000796119
0.000796119
0.000796119
0.000709501
0.000709501
0.000709501
0.000699177
0.000699177
0.000699177
0.000707292
0.000707292
0.000707292
0.000702126
0.000702126
0.000702126
0.000689573
0.000689573
0.000689573
0.000697584
0.000697584
0.000697584
0.000692505
0.000692505
0.000692505
0.000690382
0.000690382
0.000690382
0.000693305
0.000693305
0.000693305
0.000551584
0.000551584
0.000551584
0.00060768
0.00060768
0.00060768
0.000611823
0.000611823
0.000611823
0.000616506
0.000616506
0.000616506
0.000620968
0.000620968
0.000620968
0.000625203
0.000625203
0.000625203
0.000629994
0.000629994
0.000629994
0.000558844
0.000558844
0.000558844
0.000558366
0.000558366
0.000558366
0.000560612
0.000560612
0.000560612
0.000698203
0.000698203
0.000698203
0.000695948
0.000695948
0.000695948
0.00087736
0.00087736
0.00087736
0.000883006
0.000883006
0.000883006
0.000872975
0.000872975
0.000872975
0.000863082
0.000863082
0.000863082
0.000869751
0.000869751
0.000869751
0.000838065
0.000838065
0.000838065
0.000844477
0.000844477
0.000844477
0.000850993
0.000850993
0.000850993
0.000860329
0.000860329
0.000860329
0.000853765
0.000853765
0.000853765
0.000863537
0.000863537
0.000863537
0.000860126
0.000860126
0.000860126
0.000883947
0.000883947
0.000883947
0.000880618
0.000880618
0.000880618
0.000884102
0.000884102
0.000884102
0.000579205
0.000579205
0.000579205
0.000583363
0.000583363
0.000583363
0.00058552
0.00058552
0.00058552
0.000591878
0.000591878
0.000591878
0.000589752
0.000589752
0.000589752
0.000563166
0.000563166
0.000563166
0.000682327
0.000682327
0.000682327
0.000679875
0.000679875
0.000679875
0.000679946
0.000679946
0.000679946
0.000684967
0.000684967
0.000684967
0.000627432
0.000627432
0.000627432
0.000636641
0.000636641
0.000636641
0.000632013
0.000632013
0.000632013
0.000761262
0.000761262
0.000761262
0.000773013
0.000773013
0.000773013
0.000764941
0.000764941
0.000764941
0.000767282
0.000767282
0.000767282
0.000755978
0.000755978
0.000755978
0.000759284
0.000759284
0.000759284
0.000728093
0.000728093
0.000728093
0.000727174
0.000727174
0.000727174
0.00073032
0.00073032
0.00073032
0.000713919
0.000713919
0.000713919
0.000707872
0.000707872
0.000707872
0.000691165
0.000691165
0.000691165
0.00069408
0.00069408
0.00069408
0.000617302
0.000617302
0.000617302
0.000614657
0.000614657
0.000614657
0.000610241
0.000610241
0.000610241
0.000608462
0.000608462
0.000608462
0.000621772
0.000621772
0.000621772
0.000630815
0.000630815
0.000630815
0.000623589
0.000623589
0.000623589
0.000628105
0.000628105
0.000628105
0.000628939
0.000628939
0.000628939
0.000624414
0.000624414
0.000624414
0.000691679
0.000691679
0.000691679
0.000672164
0.000672164
0.000672164
0.000675046
0.000675046
0.000675046
0.000674175
0.000674175
0.000674175
0.000671279
0.000671279
0.000671279
0.000673282
0.000673282
0.000673282
0.000678191
0.000678191
0.000678191
0.000680171
0.000680171
0.000680171
0.000685135
0.000685135
0.000685135
0.000687201
0.000687201
0.000687201
0.000741462
0.000741462
0.000741462
0.000689952
0.000689952
0.000689952
0.000679974
0.000679974
0.000679974
0.000701254
0.000701254
0.000701254
0.000723265
0.000723265
0.000723265
0.000726392
0.000726392
0.000726392
0.000696985
0.000696985
0.000696985
0.000692223
0.000692223
0.000692223
0.000695188
0.000695188
0.000695188
0.000712428
0.000712428
0.000712428
0.000717979
0.000717979
0.000717979
0.000715811
0.000715811
0.000715811
0.000703353
0.000703353
0.000703353
0.000708514
0.000708514
0.000708514
0.000700278
0.000700278
0.000700278
0.000702394
0.000702394
0.000702394
0.000710589
0.000710589
0.000710589
0.000707544
0.000707544
0.000707544
0.000563983
0.000563983
0.000563983
0.000577786
0.000577786
0.000577786
0.000581961
0.000581961
0.000581961
0.000561425
0.000561425
0.000561425
0.000569571
0.000569571
0.000569571
0.000565576
0.000565576
0.000565576
0.000573383
0.000573383
0.000573383
0.000603316
0.000603316
0.000603316
0.000564328
0.000564328
0.000564328
0.000568951
0.000568951
0.000568951
0.000564878
0.000564878
0.000564878
0.000562581
0.000562581
0.000562581
0.000556828
0.000556828
0.000556828
0.000558557
0.000558557
0.000558557
0.000556282
0.000556282
0.000556282
0.000584826
0.000584826
0.000584826
0.000577194
0.000577194
0.000577194
0.000571272
0.000571272
0.000571272
0.000575396
0.000575396
0.000575396
0.000572322
0.000572322
0.000572322
0.000576456
0.000576456
0.000576456
0.000565122
0.000565122
0.000565122
0.000561083
0.000561083
0.000561083
0.000559304
0.000559304
0.000559304
0.000708964
0.000708964
0.000708964
0.00069534
0.00069534
0.00069534
0.000681389
0.000681389
0.000681389
0.000675865
0.000675865
0.000675865
0.000680825
0.000680825
0.000680825
0.000683606
0.000683606
0.000683606
0.000690866
0.000690866
0.000690866
0.00068863
0.00068863
0.00068863
0.000676423
0.000676423
0.000676423
0.000673681
0.000673681
0.000673681
0.000647445
0.000647445
0.000647445
0.000678325
0.000678325
0.000678325
0.000681142
0.000681142
0.000681142
0.000684561
0.000684561
0.000684561
0.000674659
0.000674659
0.000674659
0.000881914
0.000881914
0.000881914
0.000882315
0.000882315
0.000882315
0.000878718
0.000878718
0.000878718
0.000871965
0.000871965
0.000871965
0.000866768
0.000866768
0.000866768
0.000723637
0.000723637
0.000723637
0.000713082
0.000713082
0.000713082
0.00072141
0.00072141
0.00072141
0.000716128
0.000716128
0.000716128
0.000716956
0.000716956
0.000716956
0.000714729
0.000714729
0.000714729
0.000868413
0.000868413
0.000868413
0.000880493
0.000880493
0.000880493
0.000872514
0.000872514
0.000872514
0.00078318
0.00078318
0.00078318
0.000786323
0.000786323
0.000786323
0.000857634
0.000857634
0.000857634
0.000877591
0.000877591
0.000877591
0.000870846
0.000870846
0.000870846
0.000864185
0.000864185
0.000864185
0.000583429
0.000583429
0.000583429
0.000561331
0.000561331
0.000561331
0.000650738
0.000650738
0.000650738
0.000646003
0.000646003
0.000646003
0.00067491
0.00067491
0.00067491
0.000830442
0.000830442
0.000830442
0.00065058
0.00065058
0.00065058
0.000645847
0.000645847
0.000645847
0.000689824
0.000689824
0.000689824
0.000687237
0.000687237
0.000687237
0.000695013
0.000695013
0.000695013
0.000689925
0.000689925
0.000689925
0.000689998
0.000689998
0.000689998
0.000687439
0.000687439
0.000687439
0.000700233
0.000700233
0.000700233
0.000695087
0.000695087
0.000695087
0.000697615
0.000697615
0.000697615
0.000702767
0.000702767
0.000702767
0.000705391
0.000705391
0.000705391
0.000695003
0.000695003
0.000695003
0.000697087
0.000697087
0.000697087
0.000757047
0.000757047
0.000757047
0.000722756
0.000722756
0.000722756
0.000720546
0.000720546
0.000720546
0.000715273
0.000715273
0.000715273
0.000729383
0.000729383
0.000729383
0.000726229
0.000726229
0.000726229
0.000744708
0.000744708
0.000744708
0.000776413
0.000776413
0.000776413
0.00076389
0.00076389
0.00076389
0.0007087
0.0007087
0.0007087
0.000698393
0.000698393
0.000698393
0.00070055
0.00070055
0.00070055
0.000705699
0.000705699
0.000705699
0.000706508
0.000706508
0.000706508
0.000701351
0.000701351
0.000701351
0.000686135
0.000686135
0.000686135
0.000684012
0.000684012
0.000684012
0.000691923
0.000691923
0.000691923
0.000686885
0.000686885
0.000686885
0.000672716
0.000672716
0.000672716
0.000669923
0.000669923
0.000669923
0.000686138
0.000686138
0.000686138
0.000666425
0.000666425
0.000666425
0.000631627
0.000631627
0.000631627
0.000637009
0.000637009
0.000637009
0.000636209
0.000636209
0.000636209
0.000638915
0.000638915
0.000638915
0.00057016
0.00057016
0.00057016
0.000568397
0.000568397
0.000568397
0.000570723
0.000570723
0.000570723
0.000574842
0.000574842
0.000574842
0.000593484
0.000593484
0.000593484
0.000578974
0.000578974
0.000578974
0.000574835
0.000574835
0.000574835
0.000597662
0.000597662
0.000597662
0.00059405
0.00059405
0.00059405
0.000599465
0.000599465
0.000599465
0.000712219
0.000712219
0.000712219
0.000688739
0.000688739
0.000688739
0.000690828
0.000690828
0.000690828
0.00068788
0.00068788
0.00068788
0.000682886
0.000682886
0.000682886
0.000668148
0.000668148
0.000668148
0.000673021
0.000673021
0.000673021
0.00068813
0.00068813
0.00068813
0.000694093
0.000694093
0.000694093
0.000693162
0.000693162
0.000693162
0.000696154
0.000696154
0.000696154
0.000677281
0.000677281
0.000677281
0.000681928
0.000681928
0.000681928
0.000711586
0.000711586
0.000711586
0.000720912
0.000720912
0.000720912
0.000717793
0.000717793
0.000717793
0.000732793
0.000732793
0.000732793
0.000728417
0.000728417
0.000728417
0.000736013
0.000736013
0.000736013
0.0007338
0.0007338
0.0007338
0.00074368
0.00074368
0.00074368
0.000749197
0.000749197
0.000749197
0.00075146
0.00075146
0.00075146
0.000561988
0.000561988
0.000561988
0.000566648
0.000566648
0.000566648
0.000557783
0.000557783
0.000557783
0.000560023
0.000560023
0.000560023
0.000553873
0.000553873
0.000553873
0.000566374
0.000566374
0.000566374
0.000578595
0.000578595
0.000578595
0.000570411
0.000570411
0.000570411
0.000572017
0.000572017
0.000572017
0.000576099
0.000576099
0.000576099
0.000587348
0.000587348
0.000587348
0.000593378
0.000593378
0.000593378
0.000591586
0.000591586
0.000591586
0.000590904
0.000590904
0.000590904
0.000604091
0.000604091
0.000604091
0.000601506
0.000601506
0.000601506
0.000584427
0.000584427
0.000584427
0.000582748
0.000582748
0.000582748
0.000570013
0.000570013
0.000570013
0.000569489
0.000569489
0.000569489
0.000571805
0.000571805
0.000571805
0.000557357
0.000557357
0.000557357
0.000559095
0.000559095
0.000559095
0.000563121
0.000563121
0.000563121
0.000565412
0.000565412
0.000565412
0.00055626
0.00055626
0.00055626
0.000562595
0.000562595
0.000562595
0.000560279
0.000560279
0.000560279
0.000554555
0.000554555
0.000554555
0.000562025
0.000562025
0.000562025
0.000558003
0.000558003
0.000558003
0.000581365
0.000581365
0.000581365
0.000583744
0.000583744
0.000583744
0.000614618
0.000614618
0.000614618
0.000616551
0.000616551
0.000616551
0.000602111
0.000602111
0.000602111
0.000587967
0.000587967
0.000587967
0.000589806
0.000589806
0.000589806
0.000589062
0.000589062
0.000589062
0.000600246
0.000600246
0.000600246
0.000595928
0.000595928
0.000595928
0.000594076
0.000594076
0.000594076
0.000596516
0.000596516
0.000596516
0.000577743
0.000577743
0.000577743
0.000582458
0.000582458
0.000582458
0.000578276
0.000578276
0.000578276
0.000575934
0.000575934
0.000575934
0.000584293
0.000584293
0.000584293
0.00058192
0.00058192
0.00058192
0.000570519
0.000570519
0.000570519
0.000566434
0.000566434
0.000566434
0.000564648
0.000564648
0.000564648
0.000566919
0.000566919
0.000566919
0.000578792
0.000578792
0.000578792
0.00058298
0.00058298
0.00058298
0.000585342
0.000585342
0.000585342
0.000625832
0.000625832
0.000625832
0.000630396
0.000630396
0.000630396
0.000725094
0.000725094
0.000725094
0.00070401
0.00070401
0.00070401
0.000727924
0.000727924
0.000727924
0.000725372
0.000725372
0.000725372
0.000701282
0.000701282
0.000701282
0.000706596
0.000706596
0.000706596
0.000709431
0.000709431
0.000709431
0.000683848
0.000683848
0.000683848
0.00068614
0.00068614
0.00068614
0.000690728
0.000690728
0.000690728
0.000678856
0.000678856
0.000678856
0.000676585
0.000676585
0.000676585
0.000671651
0.000671651
0.000671651
0.000668992
0.000668992
0.000668992
0.000697578
0.000697578
0.000697578
0.000690264
0.000690264
0.000690264
0.000688044
0.000688044
0.000688044
0.000683027
0.000683027
0.000683027
0.000680236
0.000680236
0.000680236
0.0006619
0.0006619
0.0006619
0.000664119
0.000664119
0.000664119
0.000674224
0.000674224
0.000674224
0.000668777
0.000668777
0.000668777
0.000683405
0.000683405
0.000683405
0.000685682
0.000685682
0.000685682
0.000660597
0.000660597
0.000660597
0.000662775
0.000662775
0.000662775
0.000674047
0.000674047
0.000674047
0.000678986
0.000678986
0.000678986
0.000669768
0.000669768
0.000669768
0.00063271
0.00063271
0.00063271
0.000882679
0.000882679
0.000882679
0.000879097
0.000879097
0.000879097
0.000879439
0.000879439
0.000879439
0.00080249
0.00080249
0.00080249
0.000814324
0.000814324
0.000814324
0.000808559
0.000808559
0.000808559
0.000868705
0.000868705
0.000868705
0.000866361
0.000866361
0.000866361
0.000869594
0.000869594
0.000869594
0.000724492
0.000724492
0.000724492
0.000722247
0.000722247
0.000722247
0.000725321
0.000725321
0.000725321
0.000730686
0.000730686
0.000730686
0.000717757
0.000717757
0.000717757
0.000723057
0.000723057
0.000723057
0.000878302
0.000878302
0.000878302
0.000871554
0.000871554
0.000871554
0.000881477
0.000881477
0.000881477
0.000877849
0.000877849
0.000877849
0.000870625
0.000870625
0.000870625
0.000867028
0.000867028
0.000867028
0.000860393
0.000860393
0.000860393
0.000859866
0.000859866
0.000859866
0.000856841
0.000856841
0.000856841
0.000847311
0.000847311
0.000847311
0.000850303
0.000850303
0.000850303
0.000878745
0.000878745
0.000878745
0.000869621
0.000869621
0.000869621
0.000777328
0.000777328
0.000777328
0.000765783
0.000765783
0.000765783
0.000863297
0.000863297
0.000863297
0.000868803
0.000868803
0.000868803
0.000862145
0.000862145
0.000862145
0.000872338
0.000872338
0.000872338
0.000610816
0.000610816
0.000610816
0.000601553
0.000601553
0.000601553
0.000589244
0.000589244
0.000589244
0.000589418
0.000589418
0.000589418
0.000591472
0.000591472
0.000591472
0.000602375
0.000602375
0.000602375
0.000595775
0.000595775
0.000595775
0.000598022
0.000598022
0.000598022
0.000591287
0.000591287
0.000591287
0.000585512
0.000585512
0.000585512
0.000596207
0.000596207
0.000596207
0.000600566
0.000600566
0.000600566
0.000563527
0.000563527
0.000563527
0.000573932
0.000573932
0.000573932
0.000569813
0.000569813
0.000569813
0.000567591
0.000567591
0.000567591
0.000582275
0.000582275
0.000582275
0.0005746
0.0005746
0.0005746
0.000570473
0.000570473
0.000570473
0.000653011
0.000653011
0.000653011
0.000650672
0.000650672
0.000650672
0.000653092
0.000653092
0.000653092
0.000638941
0.000638941
0.000638941
0.000643621
0.000643621
0.000643621
0.000636577
0.000636577
0.000636577
0.000638864
0.000638864
0.000638864
0.000645938
0.000645938
0.000645938
0.000643543
0.000643543
0.000643543
0.000672399
0.000672399
0.000672399
0.000667384
0.000667384
0.000667384
0.000670069
0.000670069
0.000670069
0.000674981
0.000674981
0.000674981
0.000672483
0.000672483
0.000672483
0.000831645
0.000831645
0.000831645
0.000785244
0.000785244
0.000785244
0.000797156
0.000797156
0.000797156
0.0007665
0.0007665
0.0007665
0.000760798
0.000760798
0.000760798
0.000765369
0.000765369
0.000765369
0.000748434
0.000748434
0.000748434
0.000742871
0.000742871
0.000742871
0.000782773
0.000782773
0.000782773
0.000788574
0.000788574
0.000788574
0.000794538
0.000794538
0.000794538
0.000788662
0.000788662
0.000788662
0.000785664
0.000785664
0.000785664
0.000788292
0.000788292
0.000788292
0.00079425
0.00079425
0.00079425
0.00080353
0.00080353
0.00080353
0.000797483
0.000797483
0.000797483
0.000794412
0.000794412
0.000794412
0.000797337
0.000797337
0.000797337
0.000824154
0.000824154
0.000824154
0.000636489
0.000636489
0.000636489
0.000631865
0.000631865
0.000631865
0.000679776
0.000679776
0.000679776
0.000682213
0.000682213
0.000682213
0.000674813
0.000674813
0.000674813
0.000672288
0.000672288
0.000672288
0.000689696
0.000689696
0.000689696
0.000731947
0.000731947
0.000731947
0.000734613
0.000734613
0.000734613
0.000737376
0.000737376
0.000737376
0.000737296
0.000737296
0.000737296
0.000734516
0.000734516
0.000734516
0.000705315
0.000705315
0.000705315
0.000710532
0.000710532
0.000710532
0.000728817
0.000728817
0.000728817
0.000694911
0.000694911
0.000694911
0.000705211
0.000705211
0.000705211
0.000697525
0.000697525
0.000697525
0.000702676
0.000702676
0.000702676
0.000772917
0.000772917
0.000772917
0.000767177
0.000767177
0.000767177
0.000735723
0.000735723
0.000735723
0.000752507
0.000752507
0.000752507
0.000750236
0.000750236
0.000750236
0.000737005
0.000737005
0.000737005
0.000742464
0.000742464
0.000742464
0.000734775
0.000734775
0.000734775
0.00073797
0.00073797
0.00073797
0.000738908
0.000738908
0.000738908
0.000744388
0.000744388
0.000744388
0.000768374
0.000768374
0.000768374
0.000774116
0.000774116
0.000774116
0.000683254
0.000683254
0.000683254
0.000685361
0.000685361
0.000685361
0.000682471
0.000682471
0.000682471
0.000677516
0.000677516
0.000677516
0.000675441
0.000675441
0.000675441
0.00067829
0.00067829
0.00067829
0.000684745
0.000684745
0.000684745
0.000679764
0.000679764
0.000679764
0.000680465
0.000680465
0.000680465
0.000677641
0.000677641
0.000677641
0.00069483
0.00069483
0.00069483
0.000702876
0.000702876
0.000702876
0.000699936
0.000699936
0.000699936
0.000673393
0.000673393
0.000673393
0.000670608
0.000670608
0.000670608
0.00067127
0.00067127
0.00067127
0.000639975
0.000639975
0.000639975
0.000635352
0.000635352
0.000635352
0.000658519
0.000658519
0.000658519
0.000663582
0.000663582
0.000663582
0.0006673
0.0006673
0.0006673
0.000664456
0.000664456
0.000664456
0.00066531
0.00066531
0.00066531
0.000660499
0.000660499
0.000660499
0.000642724
0.000642724
0.000642724
0.000635388
0.000635388
0.000635388
0.000638094
0.000638094
0.000638094
0.000622569
0.000622569
0.000622569
0.000611043
0.000611043
0.000611043
0.000615467
0.000615467
0.000615467
0.000618091
0.000618091
0.000618091
0.000616248
0.000616248
0.000616248
0.000603797
0.000603797
0.000603797
0.000573688
0.000573688
0.000573688
0.000568988
0.000568988
0.000568988
0.000573086
0.000573086
0.000573086
0.000575452
0.000575452
0.000575452
0.000576049
0.000576049
0.000576049
0.00057663
0.00057663
0.00057663
0.000574273
0.000574273
0.000574273
0.000580206
0.000580206
0.000580206
0.000572464
0.000572464
0.000572464
0.000566031
0.000566031
0.000566031
0.000568376
0.000568376
0.000568376
0.000574194
0.000574194
0.000574194
0.000585566
0.000585566
0.000585566
0.000581374
0.000581374
0.000581374
0.0005796
0.0005796
0.0005796
0.000581994
0.000581994
0.000581994
0.000602297
0.000602297
0.000602297
0.000597975
0.000597975
0.000597975
0.000596954
0.000596954
0.000596954
0.000592677
0.000592677
0.000592677
0.000596214
0.000596214
0.000596214
0.000598736
0.000598736
0.000598736
0.000707019
0.000707019
0.000707019
0.000696749
0.000696749
0.000696749
0.000699723
0.000699723
0.000699723
0.000704863
0.000704863
0.000704863
0.000695889
0.000695889
0.000695889
0.000706139
0.000706139
0.000706139
0.000698871
0.000698871
0.000698871
0.000704001
0.000704001
0.000704001
0.000697992
0.000697992
0.000697992
0.000703113
0.000703113
0.000703113
0.000719656
0.000719656
0.000719656
0.000714393
0.000714393
0.000714393
0.00071133
0.00071133