<VTKFile type="UnstructuredGrid" version="1.0">
<UnstructuredGrid>
<Piece NumberOfPoints="8859" NumberOfCells="2953">
<Points>
<DataArray type="Float64" NumberOfComponents="3" format="ascii">
2.75455 1.50245 12.4076
2.76986 1.48714 12.4196
2.75465 1.50235 12.4333
2.78515 1.47185 12.3567
2.78516 1.47184 12.3315
2.8005 1.4565 12.344
2.76981 1.48719 12.3694
2.78515 1.47185 12.3567
2.78514 1.47186 12.3819
2.72412 1.53288 12.4599
2.73952 1.51748 12.4675
2.70875 1.54825 12.4675
2.72412 1.53288 12.4599
2.73943 1.51757 12.4446
2.73952 1.51748 12.4675
2.75488 1.50212 12.4598
2.77036 1.48664 12.4675
2.73952 1.51748 12.4675
2.75488 1.50212 12.4598
2.73943 1.51757 12.4446
2.75465 1.50235 12.4333
2.73952 1.51748 12.4675
2.73943 1.51757 12.4446
2.75488 1.50212 12.4598
2.75465 1.50235 12.4333
2.76986 1.48714 12.4196
2.76997 1.48703 12.4443
2.76997 1.48703 12.4443
2.75488 1.50212 12.4598
2.75465 1.50235 12.4333
2.77036 1.48664 12.4675
2.75488 1.50212 12.4598
2.76997 1.48703 12.4443
2.76986 1.48714 12.4196
2.75455 1.50245 12.4076
2.76982 1.48718 12.3945
2.76981 1.48719 12.3694
2.78514 1.47186 12.3819
2.76982 1.48718 12.3945
2.7852 1.4718 12.4326
2.76997 1.48703 12.4443
2.76986 1.48714 12.4196
2.8005 1.4565 12.4189
2.8005 1.4565 12.4436
2.7852 1.4718 12.4326
2.8005 1.4565 12.3189
2.8005 1.4565 12.344
2.78516 1.47184 12.3315
2.78515 1.47185 12.3567
2.8005 1.4565 12.344
2.8005 1.4565 12.3691
2.8005 1.4565 12.3691
2.78514 1.47186 12.3819
2.78515 1.47185 12.3567
2.8005 1.4565 11.7915
2.8005 1.4565 11.8167
2.78518 1.47182 11.8041
2.78517 1.47183 12.2561
2.8005 1.4565 12.2686
2.78517 1.47183 12.2812
2.8005 1.4565 12.2435
2.8005 1.4565 12.2686
2.78517 1.47183 12.2561
2.78519 1.47181 12.1304
2.8005 1.4565 12.143
2.78519 1.47181 12.1556
2.32274 1.93426 11.5756
2.33845 1.91855 11.5675
2.33845 1.91855 11.5906
2.27541 1.98159 12.4675
2.24359 2.01341 12.4675
2.25954 1.99746 12.4593
2.78515 1.47185 12.4071
2.76982 1.48718 12.3945
2.78514 1.47186 12.3819
2.76986 1.48714 12.4196
2.76982 1.48718 12.3945
2.78515 1.47185 12.4071
2.78515 1.47185 12.4071
2.7852 1.4718 12.4326
2.76986 1.48714 12.4196
2.8005 1.4565 12.4189
2.7852 1.4718 12.4326
2.78515 1.47185 12.4071
2.78544 1.47156 12.4588
2.8005 1.4565 12.4436
2.8005 1.4565 12.4675
2.78544 1.47156 12.4588
2.7852 1.4718 12.4326
2.8005 1.4565 12.4436
2.8005 1.4565 12.4675
2.77036 1.48664 12.4675
2.78544 1.47156 12.4588
2.77036 1.48664 12.4675
2.76997 1.48703 12.4443
2.78544 1.47156 12.4588
2.76997 1.48703 12.4443
2.7852 1.4718 12.4326
2.78544 1.47156 12.4588
2.78517 1.47183 12.2812
2.8005 1.4565 12.2686
2.8005 1.4565 12.2937
2.78514 1.47186 12.3819
2.8005 1.4565 12.3691
2.8005 1.4565 12.3941
2.8005 1.4565 12.4189
2.78515 1.47185 12.4071
2.8005 1.4565 12.3941
2.8005 1.4565 12.3941
2.78515 1.47185 12.4071
2.78514 1.47186 12.3819
2.8005 1.4565 12.1179
2.8005 1.4565 12.143
2.78519 1.47181 12.1304
2.78518 1.47182 11.8041
2.8005 1.4565 11.8167
2.78518 1.47182 11.8292
2.76985 1.48715 12.2435
2.75454 1.50246 12.231
2.76986 1.48714 12.2184
2.78516 1.47184 12.3064
2.8005 1.4565 12.3189
2.78516 1.47184 12.3315
2.78516 1.47184 12.3064
2.8005 1.4565 12.2937
2.8005 1.4565 12.3189
2.78516 1.47184 12.3064
2.76984 1.48716 12.2938
2.78517 1.47183 12.2812
2.78517 1.47183 12.2812
2.8005 1.4565 12.2937
2.78516 1.47184 12.3064
2.76982 1.48718 12.3442
2.78515 1.47185 12.3567
2.76981 1.48719 12.3694
2.76982 1.48718 12.3442
2.78516 1.47184 12.3315
2.78515 1.47185 12.3567
2.75451 1.50249 12.3065
2.7392 1.5178 12.3191
2.73921 1.51779 12.2939
2.53996 1.71704 12.4334
2.52458 1.73242 12.4199
2.53996 1.71704 12.4078
2.49374 1.76326 12.2688
2.49375 1.76325 12.294
2.47832 1.77868 12.2814
2.8005 1.4565 11.5675
2.8005 1.4565 11.5914
2.78544 1.47156 11.5762
2.27543 1.98157 12.4443
2.27541 1.98159 12.4675
2.25954 1.99746 12.4593
2.33845 1.91855 12.3695
2.32276 1.93424 12.3821
2.32275 1.93425 12.3569
2.25954 1.99746 12.4593
2.24359 2.01341 12.4675
2.24374 2.01326 12.4442
2.76987 1.48713 11.892
2.75455 1.50245 11.8794
2.76987 1.48713 11.8669
2.8005 1.4565 12.0426
2.78519 1.47181 12.03
2.8005 1.4565 12.0175
2.78519 1.47181 12.0802
2.8005 1.4565 12.0677
2.8005 1.4565 12.0928
2.76988 1.48712 11.9924
2.75456 1.50244 12.005
2.75456 1.50244 11.9799
2.76988 1.48712 12.0175
2.75456 1.50244 12.005
2.76988 1.48712 11.9924
2.78519 1.47181 12.03
2.76988 1.48712 12.0426
2.76988 1.48712 12.0175
2.75455 1.50245 12.1556
2.76987 1.48713 12.1681
2.75455 1.50245 12.1807
2.72393 1.53307 12.1305
2.72392 1.53308 12.1556
2.70861 1.54839 12.143
2.75456 1.50244 12.1305
2.73924 1.51776 12.1179
2.75456 1.50244 12.1053
2.75456 1.50244 12.1053
2.76987 1.48713 12.1179
2.75456 1.50244 12.1305
2.73924 1.51776 12.1179
2.73925 1.51775 12.0928
2.75456 1.50244 12.1053
2.75456 1.50244 12.1053
2.73925 1.51775 12.0928
2.75456 1.50244 12.0802
2.8005 1.4565 12.0928
2.8005 1.4565 12.1179
2.78519 1.47181 12.1053
2.78519 1.47181 12.1053
2.78519 1.47181 12.0802
2.8005 1.4565 12.0928
2.78519 1.47181 12.1053
2.8005 1.4565 12.1179
2.78519 1.47181 12.1304
2.78519 1.47181 12.1304
2.76987 1.48713 12.1179
2.78519 1.47181 12.1053
2.75454 1.50246 12.2058
2.73923 1.51777 12.1933
2.75455 1.50245 12.1807
2.75454 1.50246 12.2058
2.76986 1.48714 12.2184
2.75454 1.50246 12.231
2.7086 1.5484 12.1933
2.72392 1.53308 12.1807
2.72392 1.53308 12.2059
2.72392 1.53308 12.2059
2.72392 1.53308 12.1807
2.73923 1.51777 12.1933
2.8005 1.4565 12.1681
2.78519 1.47181 12.1556
2.8005 1.4565 12.143
2.75455 1.50245 12.1807
2.76987 1.48713 12.1681
2.76986 1.48714 12.1932
2.76986 1.48714 12.1932
2.75454 1.50246 12.2058
2.75455 1.50245 12.1807
2.76986 1.48714 12.2184
2.75454 1.50246 12.2058
2.76986 1.48714 12.1932
2.78517 1.47183 12.2812
2.76984 1.48716 12.2938
2.76985 1.48715 12.2687
2.76985 1.48715 12.2687
2.78517 1.47183 12.2561
2.78517 1.47183 12.2812
2.76985 1.48715 12.2435
2.78517 1.47183 12.2561
2.76985 1.48715 12.2687
2.73921 1.51779 12.2939
2.73921 1.51779 12.2688
2.75452 1.50248 12.2813
2.75452 1.50248 12.2813
2.75451 1.50249 12.3065
2.73921 1.51779 12.2939
2.76984 1.48716 12.2938
2.75451 1.50249 12.3065
2.75452 1.50248 12.2813
2.75452 1.50248 12.2813
2.76985 1.48715 12.2687
2.76984 1.48716 12.2938
2.7239 1.5331 12.2814
2.73921 1.51779 12.2688
2.73921 1.51779 12.2939
2.7239 1.5331 12.2814
2.70859 1.54841 12.294
2.70859 1.54841 12.2688
2.76981 1.48719 12.3694
2.76982 1.48718 12.3945
2.75451 1.50249 12.3822
2.75451 1.50249 12.3822
2.76982 1.48718 12.3945
2.75455 1.50245 12.4076
2.7392 1.5178 12.3191
2.75451 1.50249 12.3065
2.75451 1.50249 12.3317
2.75451 1.50249 12.3317
2.7392 1.5178 12.3444
2.7392 1.5178 12.3191
2.67798 1.57902 12.1682
2.66266 1.59434 12.1807
2.66266 1.59434 12.1556
2.70859 1.54841 12.2688
2.70859 1.54841 12.2436
2.7239 1.5331 12.2562
2.7239 1.5331 12.2562
2.7239 1.5331 12.2814
2.70859 1.54841 12.2688
2.73921 1.51779 12.2688
2.7239 1.5331 12.2814
2.7239 1.5331 12.2562
2.73922 1.51778 12.2436
2.73921 1.51779 12.2688
2.7239 1.5331 12.2562
2.57068 1.68632 12.4078
2.57068 1.68632 12.4334
2.55533 1.70167 12.4199
2.55533 1.70167 12.4199
2.57068 1.68632 12.4334
2.55533 1.70167 12.4445
2.55533 1.70167 12.4199
2.55533 1.70167 12.4445
2.53996 1.71704 12.4334
2.53996 1.71704 12.4334
2.53996 1.71704 12.4078
2.55533 1.70167 12.4199
2.52458 1.73242 12.3948
2.53996 1.71704 12.4078
2.52458 1.73242 12.4199
2.50912 1.74788 12.03
2.50912 1.74788 12.0552
2.49371 1.76329 12.0426
2.41633 1.84067 12.1556
2.40077 1.85623 12.143
2.41632 1.84068 12.1304
2.41635 1.84065 12.2058
2.40081 1.85619 12.2184
2.40079 1.85621 12.1932
2.33845 1.91855 12.3695
2.32275 1.93425 12.3569
2.33843 1.91857 12.3442
2.33845 1.91855 12.3947
2.32276 1.93424 12.3821
2.33845 1.91855 12.3695
2.40087 1.85613 12.3191
2.40088 1.85612 12.3443
2.38531 1.87169 12.3317
2.30693 1.95007 12.2686
2.32265 1.93435 12.256
2.32267 1.93433 12.2812
2.30684 1.95016 12.168
2.29108 1.96592 12.1806
2.29106 1.96594 12.1555
2.32274 1.93426 12.4594
2.33845 1.91855 12.4675
2.30701 1.94999 12.4675
2.33845 1.91855 12.4444
2.33845 1.91855 12.4675
2.32274 1.93426 12.4594
2.35411 1.90289 12.4595
2.33845 1.91855 12.4675
2.33845 1.91855 12.4444
2.30704 1.94996 12.3946
2.30703 1.94997 12.4197
2.29128 1.96572 12.4075
2.55533 1.70167 12.4675
2.52458 1.73242 12.4675
2.53996 1.71704 12.4597
2.53996 1.71704 12.4334
2.55533 1.70167 12.4445
2.53996 1.71704 12.4597
2.53996 1.71704 12.4597
2.55533 1.70167 12.4445
2.55533 1.70167 12.4675
2.52458 1.73242 12.4445
2.52458 1.73242 12.4199
2.53996 1.71704 12.4334
2.53996 1.71704 12.4334
2.53996 1.71704 12.4597
2.52458 1.73242 12.4445
2.52458 1.73242 12.4445
2.53996 1.71704 12.4597
2.52458 1.73242 12.4675
2.41642 1.84058 12.3318
2.40088 1.85612 12.3443
2.40087 1.85613 12.3191
2.47831 1.77869 12.2562
2.49374 1.76326 12.2436
2.49374 1.76326 12.2688
2.49374 1.76326 12.2688
2.47832 1.77868 12.2814
2.47831 1.77869 12.2562
2.47833 1.77867 12.3066
2.47832 1.77868 12.2814
2.49375 1.76325 12.294
2.47833 1.77867 12.3066
2.49375 1.76325 12.294
2.49376 1.76324 12.3192
2.49376 1.76324 12.3192
2.47834 1.77866 12.3318
2.47833 1.77867 12.3066
2.47833 1.77867 12.3066
2.47834 1.77866 12.3318
2.46289 1.79411 12.3192
2.49377 1.76323 12.3444
2.47834 1.77866 12.3318
2.49376 1.76324 12.3192
2.49377 1.76323 12.3696
2.47835 1.77865 12.3823
2.47834 1.77866 12.3571
2.47834 1.77866 12.3571
2.49377 1.76323 12.3444
2.49377 1.76323 12.3696
2.47834 1.77866 12.3318
2.49377 1.76323 12.3444
2.47834 1.77866 12.3571
2.7852 1.4718 11.6024
2.78544 1.47156 11.5762
2.8005 1.4565 11.5914
2.76997 1.48703 11.5907
2.78544 1.47156 11.5762
2.7852 1.4718 11.6024
2.64739 1.60961 11.5905
2.64738 1.60962 11.5675
2.66272 1.59428 11.5752
2.70875 1.54825 11.5675
2.6934 1.5636 11.5752
2.67805 1.57895 11.5675
2.67805 1.57895 11.5675
2.66272 1.59428 11.5752
2.64738 1.60962 11.5675
2.19638 2.06062 11.604
2.1963 2.0607 11.5779
2.2122 2.0448 11.5914
2.2122 2.0448 11.5914
2.22771 2.02929 11.576
2.22802 2.02898 11.6025
2.18073 2.07627 11.5928
2.1963 2.0607 11.5779
2.19638 2.06062 11.604
2.18073 2.07627 11.5928
2.18123 2.07577 11.5675
2.1963 2.0607 11.5779
2.27543 1.98157 11.5907
[...]
<PointData Scalars="View Factor" >
<DataArray type="Float64" Name="View Factor" NumberOfComponents="1" format="ascii">
0.386701
0.386701
0.386701
0.411525
0.411525
0.411525
0.403751
0.403751
0.403751
0.371706
0.371706
0.371706
0.374078
0.374078
0.374078
0.369104
0.369104
0.369104
0.377387
0.377387
0.377387
0.373178
0.373178
0.373178
0.381274
0.381274
0.381274
0.376421
0.376421
0.376421
0.371314
0.371314
0.371314
0.391218
0.391218
0.391218
0.399699
0.399699
0.399699
0.380259
0.380259
0.380259
0.378147
0.378147
0.378147
0.415237
0.415237
0.415237
0.406232
0.406232
0.406232
0.402352
0.402352
0.402352
0.540159
0.540159
0.540159
0.43766
0.43766
0.43766
0.440857
0.440857
0.440857
0.475765
0.475765
0.475765
0.583053
0.583053
0.583053
0.373825
0.373825
0.373825
0.394243
0.394243
0.394243
0.390052
0.390052
0.390052
0.38452
0.38452
0.38452
0.383397
0.383397
0.383397
0.36852
0.36852
0.36852
0.373571
0.373571
0.373571
0.366395
0.366395
0.366395
0.370455
0.370455
0.370455
0.374555
0.374555
0.374555
0.432567
0.432567
0.432567
0.397032
0.397032
0.397032
0.38766
0.38766
0.38766
0.392977
0.392977
0.392977
0.478066
0.478066
0.478066
0.53989
0.53989
0.53989
0.454672
0.454672
0.454672
0.420479
0.420479
0.420479
0.424023
0.424023
0.424023
0.430923
0.430923
0.430923
0.429195
0.429195
0.429195
0.409151
0.409151
0.409151
0.413043
0.413043
0.413043
0.432278
0.432278
0.432278
0.401196
0.401196
0.401196
0.465697
0.465697
0.465697
0.55662
0.55662
0.55662
0.378654
0.378654
0.378654
0.427756
0.427756
0.427756
0.379591
0.379591
0.379591
0.537381
0.537381
0.537381
0.502439
0.502439
0.502439
0.49086
0.49086
0.49086
0.518585
0.518585
0.518585
0.514835
0.514835
0.514835
0.507117
0.507117
0.507117
0.475005
0.475005
0.475005
0.490454
0.490454
0.490454
0.491217
0.491217
0.491217
0.489067
0.489067
0.489067
0.495625
0.495625
0.495625
0.497801
0.497801
0.497801
0.484615
0.484615
0.484615
0.48891
0.48891
0.48891
0.482491
0.482491
0.482491
0.484702
0.484702
0.484702
0.469481
0.469481
0.469481
0.459657
0.459657
0.459657
0.475309
0.475309
0.475309
0.473393
0.473393
0.473393
0.471215
0.471215
0.471215
0.47027
0.47027
0.47027
0.467491
0.467491
0.467491
0.462627
0.462627
0.462627
0.436115
0.436115
0.436115
0.439478
0.439478
0.439478
0.444579
0.444579
0.444579
0.441303
0.441303
0.441303
0.435998
0.435998
0.435998
0.434324
0.434324
0.434324
0.437863
0.437863
0.437863
0.442991
0.442991
0.442991
0.446296
0.446296
0.446296
0.401003
0.401003
0.401003
0.396713
0.396713
0.396713
0.426877
0.426877
0.426877
0.422967
0.422967
0.422967
0.492365
0.492365
0.492365
0.455281
0.455281
0.455281
0.449992
0.449992
0.449992
0.448296
0.448296
0.448296
0.451806
0.451806
0.451806
0.401251
0.401251
0.401251
0.395137
0.395137
0.395137
0.395114
0.395114
0.395114
0.401335
0.401335
0.401335
0.407673
0.407673
0.407673
0.54234
0.54234
0.54234
0.506164
0.506164
0.506164
0.487577
0.487577
0.487577
0.433944
0.433944
0.433944
0.420147
0.420147
0.420147
0.437843
0.437843
0.437843
0.477564
0.477564
0.477564
0.515311
0.515311
0.515311
0.370332
0.370332
0.370332
0.374609
0.374609
0.374609
0.373781
0.373781
0.373781
0.408606
0.408606
0.408606
0.377995
0.377995
0.377995
0.388176
0.388176
0.388176
0.382345
0.382345
0.382345
0.394703
0.394703
0.394703
0.387898
0.387898
0.387898
0.381653
0.381653
0.381653
0.436209
0.436209
0.436209
0.47602
0.47602
0.47602
0.470609
0.470609
0.470609
0.45998
0.45998
0.45998
0.454782
0.454782
0.454782
0.448755
0.448755
0.448755
0.447876
0.447876
0.447876
0.443282
0.443282
0.443282
0.424568
0.424568
0.424568
0.43122
0.43122
0.43122
0.436943
0.436943
0.436943
0.557486
0.557486
0.557486
0.559947
0.559947
0.559947
0.586484
0.586484
0.586484
0.579499
0.579499
0.579499
0.585033
0.585033
0.585033
0.588294
0.588294
0.588294
0.588059
0.588059
0.588059
0.588333
0.588333
0.588333
0.588566
0.588566
0.588566
0.586391
0.586391
0.586391
0.583982
0.583982
0.583982
0.585982
0.585982
0.585982
0.581997
0.581997
0.581997
0.581237
0.581237
0.581237
0.376135
0.376135
0.376135
0.401135
0.401135
0.401135
0.392948
0.392948
0.392948
0.520402
0.520402
0.520402
0.516337
0.516337
0.516337
0.457441
0.457441
0.457441
0.542847
0.542847
0.542847
0.51282
0.51282
0.51282
0.529246
0.529246
0.529246
0.528205
0.528205
0.528205
0.533456
0.533456
0.533456
0.532567
0.532567
0.532567
0.534901
0.534901
0.534901
0.538129
0.538129
0.538129
0.538977
0.538977
0.538977
0.536638
0.536638
0.536638
0.595943
0.595943
0.595943
0.595646
0.595646
0.595646
0.596109
0.596109
0.596109
0.542063
0.542063
0.542063
0.537074
0.537074
0.537074
0.501741
0.501741
0.501741
0.505069
0.505069
0.505069
0.494393
0.494393
0.494393
0.521758
0.521758
0.521758
0.52267
0.52267
0.52267
0.526613
0.526613
0.526613
0.528453
0.528453
0.528453
0.526338
0.526338
0.526338
0.520881
0.520881
0.520881
0.507778
0.507778
0.507778
0.50633
0.50633
0.50633
0.508683
0.508683
0.508683
0.512507
0.512507
0.512507
0.513908
0.513908
0.513908
0.511532
0.511532
0.511532
0.541256
0.541256
0.541256
0.543467
0.543467
0.543467
0.537828
0.537828
0.537828
0.534196
0.534196
0.534196
0.532266
0.532266
0.532266
0.533999
0.533999
0.533999
0.548812
0.548812
0.548812
0.551931
0.551931
0.551931
0.547868
0.547868
0.547868
0.546781
0.546781
0.546781
0.539562
0.539562
0.539562
0.537661
0.537661
0.537661
0.475484
0.475484
0.475484
0.477595
0.477595
0.477595
0.482198
0.482198
0.482198
0.477927
0.477927
0.477927
0.482441
0.482441
0.482441
0.484601
0.484601
0.484601
0.488433
0.488433
0.488433
0.484301
0.484301
0.484301
0.488856
0.488856
0.488856
0.490944
0.490944
0.490944
0.508277
0.508277
0.508277
0.508454
0.508454
0.508454
0.51051
0.51051
0.51051
0.491163
0.491163
0.491163
0.49765
0.49765
0.49765
0.495407
0.495407
0.495407
0.495612
0.495612
0.495612
0.491286
0.491286
0.491286
0.489081
0.489081
0.489081
0.47431
0.47431
0.47431
0.476298
0.476298
0.476298
0.481085
0.481085
0.481085
0.477054
0.477054
0.477054
0.483792
0.483792
0.483792
0.48175
0.48175
0.48175
0.483057
0.483057
0.483057
0.487786
0.487786
0.487786
0.489734
0.489734
0.489734
0.480187
0.480187
0.480187
0.466542
0.466542
0.466542
0.468467
0.468467
0.468467
0.46158
0.46158
0.46158
0.458445
0.458445
0.458445
0.472235
0.472235
0.472235
0.470844
0.470844
0.470844
0.468736
0.468736
0.468736
0.464061
0.464061
0.464061
0.468218
0.468218
0.468218
0.448876
0.448876
0.448876
0.452755
0.452755
0.452755
0.445857
0.445857
0.445857
0.44776
0.44776
0.44776
0.456615
0.456615
0.456615
0.461402
0.461402
0.461402
0.463448
0.463448
0.463448
0.460638
0.460638
0.460638
0.455751
0.455751
0.455751
0.453776
0.453776
0.453776
0.450031
0.450031
0.450031
0.446415
0.446415
0.446415
0.44483
0.44483
0.44483
0.443065
0.443065
0.443065
0.453362
0.453362
0.453362
0.451513
0.451513
0.451513
0.433871
0.433871
0.433871
0.439279
0.439279
0.439279
0.440885
0.440885
0.440885
0.410582
0.410582
0.410582
0.41339
0.41339
0.41339
0.416023
0.416023
0.416023
0.417484
0.417484
0.417484
0.406487
0.406487
0.406487
0.407831
0.407831
0.407831
0.383334
0.383334
0.383334
0.38779
0.38779
0.38779
0.379287
0.379287
0.379287
0.384344
0.384344
0.384344
0.38993
0.38993
0.38993
0.403565
0.403565
0.403565
0.394658
0.394658
0.394658
0.397931
0.397931
0.397931
0.393525
0.393525
0.393525
0.425306
0.425306
0.425306
0.422106
0.422106
0.422106
0.418386
0.418386
0.418386
0.419932
0.419932
0.419932
0.427379
0.427379
0.427379
0.429032
0.429032
0.429032
0.510779
0.510779
0.510779
0.515131
0.515131
0.515131
0.506628
0.506628
0.506628
0.509491
0.509491
0.509491
0.48754
0.48754
0.48754
0.378643
0.378643
0.378643
0.382509
0.382509
0.382509
0.388375
0.388375
0.388375
0.539208
0.539208
0.539208
0.542648
0.542648
0.542648
0.545658
0.545658
0.545658
0.54236
0.54236
0.54236
0.510525
0.510525
0.510525
0.485602
0.485602
0.485602
0.503462
0.503462
0.503462
0.527342
0.527342
0.527342
0.526492
0.526492
0.526492
0.528773
0.528773
0.528773
0.441178
0.441178
0.441178
0.413469
0.413469
0.413469
0.414571
0.414571
0.414571
0.407643
0.407643
0.407643
0.43262
0.43262
0.43262
0.438461
0.438461
0.438461
0.429827
0.429827
0.429827
0.437025
0.437025
0.437025
0.465642
0.465642
0.465642
0.464011
0.464011
0.464011
0.468743
0.468743
0.468743
0.470202
0.470202
0.470202
0.476209
0.476209
0.476209
0.483946
0.483946
0.483946
0.441026
0.441026
0.441026
0.442563
0.442563
0.442563
0.48331
0.48331
0.48331
0.487557
0.487557
0.487557
0.495415
0.495415
0.495415
0.518378
0.518378
0.518378
0.368042
0.368042
0.368042
0.365515
0.365515
0.365515
0.428953
0.428953
0.428953
0.422451
0.422451
0.422451
0.376215
0.376215
0.376215
0.381112
0.381112
0.381112
0.498027
0.498027
0.498027
0.493136
0.493136
0.493136
0.486213
0.486213
0.486213
0.379824
0.379824
0.379824
0.453048
0.453048
0.453048
0.459127
0.459127
0.459127
0.423587
0.423587
0.423587
0.420869
0.420869
0.420869
0.559291
0.559291
0.559291
0.561502
0.561502
0.561502
0.571605
0.571605
0.571605
0.570849
0.570849
0.570849
0.573269
0.573269
0.573269
0.587944
0.587944
0.587944
0.587852
0.587852
0.587852
0.58742
0.58742
0.58742
0.587647
0.587647
0.587647
0.587258
0.587258
0.587258
0.586871
0.586871
0.586871
0.58687
0.58687
0.58687
0.586364
0.586364
0.586364
0.587856
0.587856
0.587856
0.587713
0.587713
0.587713
0.587974
0.587974
0.587974
0.588479
0.588479
0.588479
0.588363
0.588363
0.588363
0.588685
0.588685
0.588685
0.588314
0.588314
0.588314
0.581442
0.581442
0.581442
0.554845
0.554845
0.554845
0.579453
0.579453
0.579453
0.565003
0.565003
0.565003
0.568032
0.568032
0.568032
0.566612
0.566612
0.566612
0.56815
0.56815
0.56815
0.566672
0.566672
0.566672
0.577626
0.577626
0.577626
0.570852
0.570852
0.570852
0.547408
0.547408
0.547408
0.55744
0.55744
0.55744
0.555289
0.555289
0.555289
0.581319
0.581319
0.581319
0.580993
0.580993
0.580993
0.581778
0.581778
0.581778
0.581913
0.581913
0.581913
0.581194
0.581194
0.581194
0.576722
0.576722
0.576722
0.581138
0.581138
0.581138
0.582618
0.582618
0.582618
0.581948
0.581948
0.581948
0.547032
0.547032
0.547032
0.54428
0.54428
0.54428
0.543757
0.543757
0.543757
0.538412
0.538412
0.538412
0.539813
0.539813
0.539813
0.54273
0.54273
0.54273
0.536251
0.536251
0.536251
0.539027
0.539027
0.539027
0.554367
0.554367
0.554367
0.555752
0.555752
0.555752
0.382385
0.382385
0.382385
0.383222
0.383222
0.383222
0.392104
0.392104
0.392104
0.399327
0.399327
0.399327
0.376843
0.376843
0.376843
0.384768
0.384768
0.384768
0.372294
0.372294
0.372294
0.378098
0.378098
0.378098
0.385457
0.385457
0.385457
0.533904
0.533904
0.533904
0.527617
0.527617
0.527617
0.530915
0.530915
0.530915
0.513062
0.513062
0.513062
0.505954
0.505954
0.505954
0.510455
0.510455
0.510455
0.513953
0.513953
0.513953
0.515423
0.515423
0.515423
0.507467
0.507467
0.507467
0.511201
0.511201
0.511201
0.508062
0.508062
0.508062
0.462851
0.462851
0.462851
0.472904
0.472904
0.472904
0.483025
0.483025
0.483025
0.487675
0.487675
0.487675
0.458518
0.458518
0.458518
0.380029
0.380029
0.380029
0.374912
0.374912
0.374912
0.380705
0.380705
0.380705
0.401948
0.401948
0.401948
0.394459
0.394459
0.394459
0.38668
0.38668
0.38668
0.387203
0.387203
0.387203
0.39513
0.39513
0.39513
0.403393
0.403393
0.403393
0.573782
0.573782
0.573782
0.575201
0.575201
0.575201
0.577279
0.577279
0.577279
0.577936
0.577936
0.577936
0.583064
0.583064
0.583064
0.581216
0.581216
0.581216
0.579906
0.579906
0.579906
0.58389
0.58389
0.58389
0.560701
0.560701
0.560701
0.563104
0.563104
0.563104
0.570023
0.570023
0.570023
0.567768
0.567768
0.567768
0.524741
0.524741
0.524741
0.523546
0.523546
0.523546
0.519941
0.519941
0.519941
0.517593
0.517593
0.517593
0.522029
0.522029
0.522029
0.526868
0.526868
0.526868
0.530529
0.530529
0.530529
0.535065
0.535065
0.535065
0.536175
0.536175
0.536175
0.533903
0.533903
0.533903
0.56037
0.56037
0.56037
0.564721
0.564721
0.564721
0.581402
0.581402
0.581402
0.579512
0.579512
0.579512
0.578814
0.578814
0.578814
0.579652
0.579652
0.579652
0.58109
0.58109
0.58109
0.581363
0.581363
0.581363
0.582096
0.582096
0.582096
0.578359
0.578359
0.578359
0.576994
0.576994
0.576994
0.572981
0.572981
0.572981
0.570598
0.570598
0.570598
0.57848
0.57848
0.57848
0.574387
0.574387
0.574387
0.572569
0.572569
0.572569
0.566712
0.566712
0.566712
0.568657
0.568657
0.568657
0.57538
0.57538
0.57538
0.576281
0.576281
0.576281
0.574955
0.574955
0.574955
0.595204
0.595204
0.595204
0.588046
0.588046
0.588046
0.59124
0.59124
0.59124
0.592243
0.592243
0.592243
0.593239
0.593239
0.593239
0.59401
0.59401
0.59401
0.582758
0.582758
0.582758
0.584503
0.584503
0.584503
0.585151
0.585151
0.585151
0.540423
0.540423
0.540423
0.542766
0.542766
0.542766
0.56918
0.56918
0.56918
0.566445
0.566445
0.566445
0.568919
0.568919
0.568919
0.570278
0.570278
0.570278
0.556664
0.556664
0.556664
0.5528
0.5528
0.5528
0.53958
0.53958
0.53958
0.53667
0.53667
0.53667
0.533721
0.533721
0.533721
0.530102
0.530102
0.530102
0.534984
0.534984
0.534984
0.535625
0.535625
0.535625
0.533179
0.533179
0.533179
0.526205
0.526205
0.526205
0.525375
0.525375
0.525375
0.527801
0.527801
0.527801
0.531068
0.531068
0.531068
0.531853
0.531853
0.531853
0.529417
0.529417
0.529417
0.495021
0.495021
0.495021
0.497313
0.497313
0.497313
0.501418
0.501418
0.501418
0.496801
0.496801
0.496801
0.503151
0.503151
0.503151
0.500827
0.500827
0.500827
0.508998
0.508998
0.508998
0.507962
0.507962
0.507962
0.506283
0.506283
0.506283
0.513356
0.513356
0.513356
0.496303
0.496303
0.496303
0.499981
0.499981
0.499981
0.495331
0.495331
0.495331
0.493511
0.493511
0.493511
0.507208
0.507208
0.507208
0.502734
0.502734
0.502734
0.500876
0.500876
0.500876
0.503462
0.503462
0.503462
0.516723
0.516723
0.516723
0.520741
0.520741
0.520741
0.514679
0.514679
0.514679
0.516677
0.516677
0.516677
0.510542
0.510542
0.510542
0.514643
0.514643
0.514643
0.532348
0.532348
0.532348
0.528578
0.528578
0.528578
0.52004
0.52004
0.52004
0.515864
0.515864
0.515864
0.520519
0.520519
0.520519
0.522348
0.522348
0.522348
0.537269
0.537269
0.537269
0.536042
0.536042
0.536042
0.528112
0.528112
0.528112
0.524547
0.524547
0.524547
0.525858
0.525858
0.525858
0.53164
0.53164
0.53164
0.529377
0.529377
0.529377
0.512379
0.512379
0.512379
0.515058
0.515058
0.515058
0.519285
0.519285
0.519285
0.520878
0.520878
0.520878
0.518232
0.518232
0.518232
0.513959
0.513959
0.513959
0.5111
0.5111
0.5111
0.512542
0.512542
0.512542
0.525792
0.525792
0.525792
0.528066
0.528066
0.528066
0.531916
0.531916
0.531916
0.533521
0.533521
0.533521
0.537745
0.537745
0.537745
0.536445
0.536445
0.536445
0.543044
0.543044
0.543044
0.549665
0.549665
0.549665
0.542179
0.542179
0.542179
0.539266
0.539266
0.539266
0.538669
0.538669
0.538669
0.537208
0.537208
0.537208
0.558719
0.558719
0.558719
0.562592
0.562592
0.562592
0.560453
0.560453
0.560453
0.552999
0.552999
0.552999
0.550964
0.550964
0.550964
0.503944
0.503944
0.503944
0.501516
0.501516
0.501516
0.495028
0.495028
0.495028
0.49702
0.49702
0.49702
0.502095
0.502095
0.502095
0.504194
0.504194
0.504194
0.497755
0.497755
0.497755
0.501917
0.501917
0.501917
0.495435
0.495435
0.495435
0.497498
0.497498
0.497498
0.465702
0.465702
0.465702
0.465361
0.465361
0.465361
0.467213
0.467213
0.467213
0.460298
0.460298
0.460298
0.463932
0.463932
0.463932
0.45699
0.45699
0.45699
0.458769
0.458769
0.458769
0.375803
0.375803
0.375803
0.38021
0.38021
0.38021
0.400321
0.400321
0.400321
0.404822
0.404822
0.404822
0.504231
0.504231
0.504231
0.49095
0.49095
0.49095
0.494684
0.494684
0.494684
0.497347
0.497347
0.497347
0.494087
0.494087
0.494087
0.498812
0.498812
0.498812
0.500461
0.500461
0.500461
0.480652
0.480652
0.480652
0.485765
0.485765
0.485765
0.482084
0.482084
0.482084
0.488768
0.488768
0.488768
0.486902
0.486902
0.486902
0.477641
0.477641
0.477641
0.472576
0.472576
0.472576
0.470823
0.470823
0.470823
0.474073
0.474073
0.474073
0.479045
0.479045
0.479045
0.480859
0.480859
0.480859
0.479363
0.479363
0.479363
0.475959
0.475959
0.475959
0.47758
0.47758
0.47758
0.484357
0.484357
0.484357
0.456978
0.456978
0.456978
0.462238
0.462238
0.462238
0.468728
0.468728
0.468728
0.475485
0.475485
0.475485
0.473977
0.473977
0.473977
0.471677
0.471677
0.471677
0.464895
0.464895
0.464895
0.466335
0.466335
0.466335
0.418627
0.418627
0.418627
0.419321
0.419321
0.419321
0.405557
0.405557
0.405557
0.411655
0.411655
0.411655
0.407392
0.407392
0.407392
0.413608
0.413608
0.413608
0.406349
0.406349
0.406349
0.413143
0.413143
0.413143
0.496961
0.496961
0.496961
0.490865
0.490865
0.490865
0.498809
0.498809
0.498809
0.495824
0.495824
0.495824
0.527791
0.527791
0.527791
0.513026
0.513026
0.513026
0.516261
0.516261
0.516261
0.523799
0.523799
0.523799
0.525105
0.525105
0.525105
0.522296
0.522296
0.522296
0.519688
0.519688
0.519688
0.518158
0.518158
0.518158
0.516857
0.516857
0.516857
0.525283
0.525283
0.525283
0.523426
0.523426
0.523426
0.520416
0.520416
0.520416
0.521348
0.521348
0.521348
0.529026
0.529026
0.529026
0.531626
0.531626
0.531626
0.535344
0.535344
0.535344
0.539784
0.539784
0.539784
0.53971
0.53971
0.53971
0.536537
0.536537
0.536537
0.533509
0.533509
0.533509
0.512964
0.512964
0.512964
0.533924
0.533924
0.533924
0.529907
0.529907
0.529907
0.53518
0.53518
0.53518
0.505235
0.505235
0.505235
0.522687
0.522687
0.522687
0.532305
0.532305
0.532305
0.534359
0.534359
0.534359
0.537638
0.537638
0.537638
0.445502
0.445502
0.445502
0.446891
0.446891
0.446891
0.46096
0.46096
0.46096
0.454501
0.454501
0.454501
0.449399
0.449399
0.449399
0.450897
0.450897
0.450897
0.462498
0.462498
0.462498
0.45754
0.45754
0.45754
0.455037
0.455037
0.455037
0.461636
0.461636
0.461636
0.466737
0.466737
0.466737
0.465394
0.465394
0.465394
0.458974
0.458974
0.458974
0.453721
0.453721
0.453721
0.405551
0.405551
0.405551
0.404431
0.404431
0.404431
0.390275
0.390275
0.390275
0.398344
0.398344
0.398344
0.432473
0.432473
0.432473
0.428369
0.428369
0.428369
0.434026
0.434026
0.434026
0.42929
0.42929
0.42929
0.473279
0.473279
0.473279
0.4817
0.4817
0.4817
0.476
0.476
0.476
0.471718
0.471718
0.471718
0.488734
0.488734
0.488734
0.480599
0.480599
0.480599
0.483268
0.483268
0.483268
0.479131
0.479131
0.479131
0.490199
0.490199
0.490199
0.486203
0.486203
0.486203
0.492834
0.492834
0.492834
0.487629
0.487629
0.487629
0.489375
0.489375
0.489375
0.485897
0.485897
0.485897
0.441295
0.441295
0.441295
0.447896
0.447896
0.447896
0.452594
0.452594
0.452594
0.450824
0.450824
0.450824
0.456872
0.456872
0.456872
0.480483
0.480483
0.480483
0.446264
0.446264
0.446264
0.456052
0.456052
0.456052
0.45773
0.45773
0.45773
0.452907
0.452907
0.452907
0.444638
0.444638
0.444638
0.449599
0.449599
0.449599
0.50504
0.50504
0.50504
0.50865
0.50865
0.50865
0.492897
0.492897
0.492897
0.496757
0.496757
0.496757
0.534068
0.534068
0.534068
0.522374
0.522374
0.522374
0.523372
0.523372
0.523372
0.527117
0.527117
0.527117
0.411112
0.411112
0.411112
0.418914
0.418914
0.418914
0.425195
0.425195
0.425195
0.423844
0.423844
0.423844
0.380582
0.380582
0.380582
0.389292
0.389292
0.389292
0.396239
0.396239
0.396239
0.442445
0.442445
0.442445
0.436411
0.436411
0.436411
0.449477
0.449477
0.449477
0.450662
0.450662
0.450662
0.4166
0.4166
0.4166
0.423511
0.423511
0.423511
0.38694
0.38694
0.38694
0.399927
0.399927
0.399927
0.394297
0.394297
0.394297
0.400507
0.400507
0.400507
0.495285
0.495285
0.495285
0.491791
0.491791
0.491791
0.496376
0.496376
0.496376
0.493377
0.493377
0.493377
0.488023
0.488023
0.488023
0.485535
0.485535
0.485535
0.489009
0.489009
0.489009
0.493814
0.493814
0.493814
0.490071
0.490071
0.490071
0.479787
0.479787
0.479787
0.480637
0.480637
0.480637
0.485753
0.485753
0.485753
0.484034
0.484034
0.484034
0.489204
0.489204
0.489204
0.367911
0.367911
0.367911
0.374245
0.374245
0.374245
0.375894
0.375894
0.375894
0.37299
0.37299
0.37299
0.383028
0.383028
0.383028
0.398231
0.398231
0.398231
0.370181
0.370181
0.370181
0.377838
0.377838
0.377838
0.410597
0.410597
0.410597
0.40775
0.40775
0.40775
0.415202
0.415202
0.415202
0.416588
0.416588
0.416588
0.445978
0.445978
0.445978
0.439588
0.439588
0.439588
0.469765
0.469765
0.469765
0.463997
0.463997
0.463997
0.474323
0.474323
0.474323
0.473038
0.473038
0.473038
0.436023
0.436023
0.436023
0.429317
0.429317
0.429317
0.441481
0.441481
0.441481
0.427986
0.427986
0.427986
0.564753
0.564753
0.564753
0.563904
0.563904