<VTKFile type="UnstructuredGrid" version="1.0">
<UnstructuredGrid>
<Piece NumberOfPoints="8859" NumberOfCells="2953">
<Points>
<DataArray type="Float64" NumberOfComponents="3" format="ascii">
2.75455 1.50245 14.4976
2.76986 1.48714 14.5096
2.75465 1.50235 14.5233
2.78515 1.47185 14.4467
2.78516 1.47184 14.4215
2.8005 1.4565 14.434
2.76981 1.48719 14.4594
2.78515 1.47185 14.4467
2.78514 1.47186 14.4719
2.72412 1.53288 14.5499
2.73952 1.51748 14.5575
2.70875 1.54825 14.5575
2.72412 1.53288 14.5499
2.73943 1.51757 14.5346
2.73952 1.51748 14.5575
2.75488 1.50212 14.5498
2.77036 1.48664 14.5575
2.73952 1.51748 14.5575
2.75488 1.50212 14.5498
2.73943 1.51757 14.5346
2.75465 1.50235 14.5233
2.73952 1.51748 14.5575
2.73943 1.51757 14.5346
2.75488 1.50212 14.5498
2.75465 1.50235 14.5233
2.76986 1.48714 14.5096
2.76997 1.48703 14.5343
2.76997 1.48703 14.5343
2.75488 1.50212 14.5498
2.75465 1.50235 14.5233
2.77036 1.48664 14.5575
2.75488 1.50212 14.5498
2.76997 1.48703 14.5343
2.76986 1.48714 14.5096
2.75455 1.50245 14.4976
2.76982 1.48718 14.4845
2.76981 1.48719 14.4594
2.78514 1.47186 14.4719
2.76982 1.48718 14.4845
2.7852 1.4718 14.5226
2.76997 1.48703 14.5343
2.76986 1.48714 14.5096
2.8005 1.4565 14.5089
2.8005 1.4565 14.5336
2.7852 1.4718 14.5226
2.8005 1.4565 14.4089
2.8005 1.4565 14.434
2.78516 1.47184 14.4215
2.78515 1.47185 14.4467
2.8005 1.4565 14.434
2.8005 1.4565 14.4591
2.8005 1.4565 14.4591
2.78514 1.47186 14.4719
2.78515 1.47185 14.4467
2.8005 1.4565 13.8815
2.8005 1.4565 13.9067
2.78518 1.47182 13.8941
2.78517 1.47183 14.3461
2.8005 1.4565 14.3586
2.78517 1.47183 14.3712
2.8005 1.4565 14.3335
2.8005 1.4565 14.3586
2.78517 1.47183 14.3461
2.78519 1.47181 14.2204
2.8005 1.4565 14.233
2.78519 1.47181 14.2456
2.32274 1.93426 13.6656
2.33845 1.91855 13.6575
2.33845 1.91855 13.6806
2.27541 1.98159 14.5575
2.24359 2.01341 14.5575
2.25954 1.99746 14.5493
2.78515 1.47185 14.4971
2.76982 1.48718 14.4845
2.78514 1.47186 14.4719
2.76986 1.48714 14.5096
2.76982 1.48718 14.4845
2.78515 1.47185 14.4971
2.78515 1.47185 14.4971
2.7852 1.4718 14.5226
2.76986 1.48714 14.5096
2.8005 1.4565 14.5089
2.7852 1.4718 14.5226
2.78515 1.47185 14.4971
2.78544 1.47156 14.5488
2.8005 1.4565 14.5336
2.8005 1.4565 14.5575
2.78544 1.47156 14.5488
2.7852 1.4718 14.5226
2.8005 1.4565 14.5336
2.8005 1.4565 14.5575
2.77036 1.48664 14.5575
2.78544 1.47156 14.5488
2.77036 1.48664 14.5575
2.76997 1.48703 14.5343
2.78544 1.47156 14.5488
2.76997 1.48703 14.5343
2.7852 1.4718 14.5226
2.78544 1.47156 14.5488
2.78517 1.47183 14.3712
2.8005 1.4565 14.3586
2.8005 1.4565 14.3837
2.78514 1.47186 14.4719
2.8005 1.4565 14.4591
2.8005 1.4565 14.4841
2.8005 1.4565 14.5089
2.78515 1.47185 14.4971
2.8005 1.4565 14.4841
2.8005 1.4565 14.4841
2.78515 1.47185 14.4971
2.78514 1.47186 14.4719
2.8005 1.4565 14.2079
2.8005 1.4565 14.233
2.78519 1.47181 14.2204
2.78518 1.47182 13.8941
2.8005 1.4565 13.9067
2.78518 1.47182 13.9192
2.76985 1.48715 14.3335
2.75454 1.50246 14.321
2.76986 1.48714 14.3084
2.78516 1.47184 14.3964
2.8005 1.4565 14.4089
2.78516 1.47184 14.4215
2.78516 1.47184 14.3964
2.8005 1.4565 14.3837
2.8005 1.4565 14.4089
2.78516 1.47184 14.3964
2.76984 1.48716 14.3838
2.78517 1.47183 14.3712
2.78517 1.47183 14.3712
2.8005 1.4565 14.3837
2.78516 1.47184 14.3964
2.76982 1.48718 14.4342
2.78515 1.47185 14.4467
2.76981 1.48719 14.4594
2.76982 1.48718 14.4342
2.78516 1.47184 14.4215
2.78515 1.47185 14.4467
2.75451 1.50249 14.3965
2.7392 1.5178 14.4091
2.73921 1.51779 14.3839
2.53996 1.71704 14.5234
2.52458 1.73242 14.5099
2.53996 1.71704 14.4978
2.49374 1.76326 14.3588
2.49375 1.76325 14.384
2.47832 1.77868 14.3714
2.8005 1.4565 13.6575
2.8005 1.4565 13.6814
2.78544 1.47156 13.6662
2.27543 1.98157 14.5343
2.27541 1.98159 14.5575
2.25954 1.99746 14.5493
2.33845 1.91855 14.4595
2.32276 1.93424 14.4721
2.32275 1.93425 14.4469
2.25954 1.99746 14.5493
2.24359 2.01341 14.5575
2.24374 2.01326 14.5342
2.76987 1.48713 13.982
2.75455 1.50245 13.9694
2.76987 1.48713 13.9569
2.8005 1.4565 14.1326
2.78519 1.47181 14.12
2.8005 1.4565 14.1075
2.78519 1.47181 14.1702
2.8005 1.4565 14.1577
2.8005 1.4565 14.1828
2.76988 1.48712 14.0824
2.75456 1.50244 14.095
2.75456 1.50244 14.0699
2.76988 1.48712 14.1075
2.75456 1.50244 14.095
2.76988 1.48712 14.0824
2.78519 1.47181 14.12
2.76988 1.48712 14.1326
2.76988 1.48712 14.1075
2.75455 1.50245 14.2456
2.76987 1.48713 14.2581
2.75455 1.50245 14.2707
2.72393 1.53307 14.2205
2.72392 1.53308 14.2456
2.70861 1.54839 14.233
2.75456 1.50244 14.2205
2.73924 1.51776 14.2079
2.75456 1.50244 14.1953
2.75456 1.50244 14.1953
2.76987 1.48713 14.2079
2.75456 1.50244 14.2205
2.73924 1.51776 14.2079
2.73925 1.51775 14.1828
2.75456 1.50244 14.1953
2.75456 1.50244 14.1953
2.73925 1.51775 14.1828
2.75456 1.50244 14.1702
2.8005 1.4565 14.1828
2.8005 1.4565 14.2079
2.78519 1.47181 14.1953
2.78519 1.47181 14.1953
2.78519 1.47181 14.1702
2.8005 1.4565 14.1828
2.78519 1.47181 14.1953
2.8005 1.4565 14.2079
2.78519 1.47181 14.2204
2.78519 1.47181 14.2204
2.76987 1.48713 14.2079
2.78519 1.47181 14.1953
2.75454 1.50246 14.2958
2.73923 1.51777 14.2833
2.75455 1.50245 14.2707
2.75454 1.50246 14.2958
2.76986 1.48714 14.3084
2.75454 1.50246 14.321
2.7086 1.5484 14.2833
2.72392 1.53308 14.2707
2.72392 1.53308 14.2959
2.72392 1.53308 14.2959
2.72392 1.53308 14.2707
2.73923 1.51777 14.2833
2.8005 1.4565 14.2581
2.78519 1.47181 14.2456
2.8005 1.4565 14.233
2.75455 1.50245 14.2707
2.76987 1.48713 14.2581
2.76986 1.48714 14.2832
2.76986 1.48714 14.2832
2.75454 1.50246 14.2958
2.75455 1.50245 14.2707
2.76986 1.48714 14.3084
2.75454 1.50246 14.2958
2.76986 1.48714 14.2832
2.78517 1.47183 14.3712
2.76984 1.48716 14.3838
2.76985 1.48715 14.3587
2.76985 1.48715 14.3587
2.78517 1.47183 14.3461
2.78517 1.47183 14.3712
2.76985 1.48715 14.3335
2.78517 1.47183 14.3461
2.76985 1.48715 14.3587
2.73921 1.51779 14.3839
2.73921 1.51779 14.3588
2.75452 1.50248 14.3713
2.75452 1.50248 14.3713
2.75451 1.50249 14.3965
2.73921 1.51779 14.3839
2.76984 1.48716 14.3838
2.75451 1.50249 14.3965
2.75452 1.50248 14.3713
2.75452 1.50248 14.3713
2.76985 1.48715 14.3587
2.76984 1.48716 14.3838
2.7239 1.5331 14.3714
2.73921 1.51779 14.3588
2.73921 1.51779 14.3839
2.7239 1.5331 14.3714
2.70859 1.54841 14.384
2.70859 1.54841 14.3588
2.76981 1.48719 14.4594
2.76982 1.48718 14.4845
2.75451 1.50249 14.4722
2.75451 1.50249 14.4722
2.76982 1.48718 14.4845
2.75455 1.50245 14.4976
2.7392 1.5178 14.4091
2.75451 1.50249 14.3965
2.75451 1.50249 14.4217
2.75451 1.50249 14.4217
2.7392 1.5178 14.4344
2.7392 1.5178 14.4091
2.67798 1.57902 14.2582
2.66266 1.59434 14.2707
2.66266 1.59434 14.2456
2.70859 1.54841 14.3588
2.70859 1.54841 14.3336
2.7239 1.5331 14.3462
2.7239 1.5331 14.3462
2.7239 1.5331 14.3714
2.70859 1.54841 14.3588
2.73921 1.51779 14.3588
2.7239 1.5331 14.3714
2.7239 1.5331 14.3462
2.73922 1.51778 14.3336
2.73921 1.51779 14.3588
2.7239 1.5331 14.3462
2.57068 1.68632 14.4978
2.57068 1.68632 14.5234
2.55533 1.70167 14.5099
2.55533 1.70167 14.5099
2.57068 1.68632 14.5234
2.55533 1.70167 14.5345
2.55533 1.70167 14.5099
2.55533 1.70167 14.5345
2.53996 1.71704 14.5234
2.53996 1.71704 14.5234
2.53996 1.71704 14.4978
2.55533 1.70167 14.5099
2.52458 1.73242 14.4848
2.53996 1.71704 14.4978
2.52458 1.73242 14.5099
2.50912 1.74788 14.12
2.50912 1.74788 14.1451
2.49371 1.76329 14.1326
2.41633 1.84067 14.2456
2.40077 1.85623 14.233
2.41632 1.84068 14.2204
2.41635 1.84065 14.2958
2.40081 1.85619 14.3084
2.40079 1.85621 14.2832
2.33845 1.91855 14.4595
2.32275 1.93425 14.4469
2.33843 1.91857 14.4342
2.33845 1.91855 14.4847
2.32276 1.93424 14.4721
2.33845 1.91855 14.4595
2.40087 1.85613 14.4091
2.40088 1.85612 14.4343
2.38531 1.87169 14.4217
2.30693 1.95007 14.3586
2.32265 1.93435 14.346
2.32267 1.93433 14.3712
2.30684 1.95016 14.258
2.29108 1.96592 14.2706
2.29106 1.96594 14.2455
2.32274 1.93426 14.5494
2.33845 1.91855 14.5575
2.30701 1.94999 14.5575
2.33845 1.91855 14.5344
2.33845 1.91855 14.5575
2.32274 1.93426 14.5494
2.35411 1.90289 14.5495
2.33845 1.91855 14.5575
2.33845 1.91855 14.5344
2.30704 1.94996 14.4846
2.30703 1.94997 14.5097
2.29128 1.96572 14.4975
2.55533 1.70167 14.5575
2.52458 1.73242 14.5575
2.53996 1.71704 14.5497
2.53996 1.71704 14.5234
2.55533 1.70167 14.5345
2.53996 1.71704 14.5497
2.53996 1.71704 14.5497
2.55533 1.70167 14.5345
2.55533 1.70167 14.5575
2.52458 1.73242 14.5345
2.52458 1.73242 14.5099
2.53996 1.71704 14.5234
2.53996 1.71704 14.5234
2.53996 1.71704 14.5497
2.52458 1.73242 14.5345
2.52458 1.73242 14.5345
2.53996 1.71704 14.5497
2.52458 1.73242 14.5575
2.41642 1.84058 14.4218
2.40088 1.85612 14.4343
2.40087 1.85613 14.4091
2.47831 1.77869 14.3462
2.49374 1.76326 14.3336
2.49374 1.76326 14.3588
2.49374 1.76326 14.3588
2.47832 1.77868 14.3714
2.47831 1.77869 14.3462
2.47833 1.77867 14.3966
2.47832 1.77868 14.3714
2.49375 1.76325 14.384
2.47833 1.77867 14.3966
2.49375 1.76325 14.384
2.49376 1.76324 14.4092
2.49376 1.76324 14.4092
2.47834 1.77866 14.4218
2.47833 1.77867 14.3966
2.47833 1.77867 14.3966
2.47834 1.77866 14.4218
2.46289 1.79411 14.4092
2.49377 1.76323 14.4344
2.47834 1.77866 14.4218
2.49376 1.76324 14.4092
2.49377 1.76323 14.4596
2.47835 1.77865 14.4723
2.47834 1.77866 14.4471
2.47834 1.77866 14.4471
2.49377 1.76323 14.4344
2.49377 1.76323 14.4596
2.47834 1.77866 14.4218
2.49377 1.76323 14.4344
2.47834 1.77866 14.4471
2.7852 1.4718 13.6924
2.78544 1.47156 13.6662
2.8005 1.4565 13.6814
2.76997 1.48703 13.6807
2.78544 1.47156 13.6662
2.7852 1.4718 13.6924
2.64739 1.60961 13.6805
2.64738 1.60962 13.6575
2.66272 1.59428 13.6652
2.70875 1.54825 13.6575
2.6934 1.5636 13.6652
2.67805 1.57895 13.6575
2.67805 1.57895 13.6575
2.66272 1.59428 13.6652
2.64738 1.60962 13.6575
2.19638 2.06062 13.694
2.1963 2.0607 13.6679
2.2122 2.0448 13.6814
2.2122 2.0448 13.6814
2.22771 2.02929 13.666
2.22802 2.02898 13.6925
2.18073 2.07627 13.6828
2.1963 2.0607 13.6679
2.19638 2.06062 13.694
2.18073 2.07627 13.6828
2.18123 2.07577 13.6575
2.1963 2.0607 13.6679
2.27543 1.98157 13.6807
[...]
<PointData Scalars="View Factor" >
<DataArray type="Float64" Name="View Factor" NumberOfComponents="1" format="ascii">
0.288354
0.288354
0.288354
0.259379
0.259379
0.259379
0.268644
0.268644
0.268644
0.30685
0.30685
0.30685
0.303598
0.303598
0.303598
0.306683
0.306683
0.306683
0.298831
0.298831
0.298831
0.303574
0.303574
0.303574
0.293321
0.293321
0.293321
0.298775
0.298775
0.298775
0.303391
0.303391
0.303391
0.283213
0.283213
0.283213
0.273401
0.273401
0.273401
0.293222
0.293222
0.293222
0.292926
0.292926
0.292926
0.254883
0.254883
0.254883
0.264185
0.264185
0.264185
0.268829
0.268829
0.268829
0.113048
0.113048
0.113048
0.232175
0.232175
0.232175
0.228128
0.228128
0.228128
0.191457
0.191457
0.191457
0.0387698
0.0387698
0.0387698
0.265725
0.265725
0.265725
0.278385
0.278385
0.278385
0.28326
0.28326
0.28326
0.288302
0.288302
0.288302
0.288218
0.288218
0.288218
0.302684
0.302684
0.302684
0.298195
0.298195
0.298195
0.30606
0.30606
0.30606
0.303136
0.303136
0.303136
0.298412
0.298412
0.298412
0.236837
0.236837
0.236837
0.273645
0.273645
0.273645
0.283234
0.283234
0.283234
0.278441
0.278441
0.278441
0.188182
0.188182
0.188182
0.114731
0.114731
0.114731
0.217475
0.217475
0.217475
0.250109
0.250109
0.250109
0.24576
0.24576
0.24576
0.240533
0.240533
0.240533
0.241037
0.241037
0.241037
0.263697
0.263697
0.263697
0.259077
0.259077
0.259077
0.243158
0.243158
0.243158
0.272311
0.272311
0.272311
0.195722
0.195722
0.195722
0.0807399
0.0807399
0.0807399
0.260724
0.260724
0.260724
0.210005
0.210005
0.210005
0.260078
0.260078
0.260078
0.123738
0.123738
0.123738
0.160789
0.160789
0.160789
0.173976
0.173976
0.173976
0.147747
0.147747
0.147747
0.151351
0.151351
0.151351
0.158707
0.158707
0.158707
0.196408
0.196408
0.196408
0.184267
0.184267
0.184267
0.180064
0.180064
0.180064
0.181126
0.181126
0.181126
0.175847
0.175847
0.175847
0.172811
0.172811
0.172811
0.180951
0.180951
0.180951
0.176955
0.176955
0.176955
0.184076
0.184076
0.184076
0.183132
0.183132
0.183132
0.20354
0.20354
0.20354
0.212805
0.212805
0.212805
0.200487
0.200487
0.200487
0.201552
0.201552
0.201552
0.19567
0.19567
0.19567
0.200864
0.200864
0.200864
0.204467
0.204467
0.204467
0.209034
0.209034
0.209034
0.235742
0.235742
0.235742
0.231585
0.231585
0.231585
0.226868
0.226868
0.226868
0.233778
0.233778
0.233778
0.238771
0.238771
0.238771
0.239403
0.239403
0.239403
0.235132
0.235132
0.235132
0.23303
0.23303
0.23303
0.231382
0.231382
0.231382
0.273219
0.273219
0.273219
0.278156
0.278156
0.278156
0.248229
0.248229
0.248229
0.252786
0.252786
0.252786
0.185922
0.185922
0.185922
0.222019
0.222019
0.222019
0.227115
0.227115
0.227115
0.22798
0.22798
0.22798
0.223827
0.223827
0.223827
0.276741
0.276741
0.276741
0.282304
0.282304
0.282304
0.280947
0.280947
0.280947
0.273897
0.273897
0.273897
0.264818
0.264818
0.264818
0.119856
0.119856
0.119856
0.126147
0.126147
0.126147
0.145735
0.145735
0.145735
0.203593
0.203593
0.203593
0.217505
0.217505
0.217505
0.197021
0.197021
0.197021
0.159905
0.159905
0.159905
0.12181
0.12181
0.12181
0.267896
0.267896
0.267896
0.263285
0.263285
0.263285
0.263766
0.263766
0.263766
0.230015
0.230015
0.230015
0.296575
0.296575
0.296575
0.287164
0.287164
0.287164
0.293811
0.293811
0.293811
0.277904
0.277904
0.277904
0.285717
0.285717
0.285717
0.291044
0.291044
0.291044
0.198137
0.198137
0.198137
0.185147
0.185147
0.185147
0.189066
0.189066
0.189066
0.199931
0.199931
0.199931
0.206863
0.206863
0.206863
0.211369
0.211369
0.211369
0.208723
0.208723
0.208723
0.218566
0.218566
0.218566
0.23591
0.23591
0.23591
0.230807
0.230807
0.230807
0.223369
0.223369
0.223369
0.0816622
0.0816622
0.0816622
0.0807287
0.0807287
0.0807287
0.067147
0.067147
0.067147
0.0704045
0.0704045
0.0704045
0.0673888
0.0673888
0.0673888
0.0373502
0.0373502
0.0373502
0.0373615
0.0373615
0.0373615
0.0373796
0.0373796
0.0373796
0.0366836
0.0366836
0.0366836
0.0374188
0.0374188
0.0374188
0.0379842
0.0379842
0.0379842
0.0371855
0.0371855
0.0371855
0.0490821
0.0490821
0.0490821
0.050162
0.050162
0.050162
0.262365
0.262365
0.262365
0.237648
0.237648
0.237648
0.245751
0.245751
0.245751
0.11693
0.11693
0.11693
0.121019
0.121019
0.121019
0.180897
0.180897
0.180897
0.110379
0.110379
0.110379
0.148594
0.148594
0.148594
0.134071
0.134071
0.134071
0.136227
0.136227
0.136227
0.128791
0.128791
0.128791
0.130831
0.130831
0.130831
0.129669
0.129669
0.129669
0.126472
0.126472
0.126472
0.124512
0.124512
0.124512
0.125668
0.125668
0.125668
0.0563859
0.0563859
0.0563859
0.0568489
0.0568489
0.0568489
0.0546066
0.0546066
0.0546066
0.121434
0.121434
0.121434
0.117501
0.117501
0.117501
0.176346
0.176346
0.176346
0.173305
0.173305
0.173305
0.181819
0.181819
0.181819
0.155184
0.155184
0.155184
0.152763
0.152763
0.152763
0.148689
0.148689
0.148689
0.147204
0.147204
0.147204
0.149793
0.149793
0.149793
0.146587
0.146587
0.146587
0.15457
0.15457
0.15457
0.157137
0.157137
0.157137
0.156087
0.156087
0.156087
0.152457
0.152457
0.152457
0.149969
0.149969
0.149969
0.151032
0.151032
0.151032
0.133318
0.133318
0.133318
0.131056
0.131056
0.131056
0.13689
0.13689
0.13689
0.140751
0.140751
0.140751
0.143181
0.143181
0.143181
0.141638
0.141638
0.141638
0.125028
0.125028
0.125028
0.121288
0.121288
0.121288
0.125377
0.125377
0.125377
0.127135
0.127135
0.127135
0.135359
0.135359
0.135359
0.137675
0.137675
0.137675
0.193909
0.193909
0.193909
0.192969
0.192969
0.192969
0.188628
0.188628
0.188628
0.190554
0.190554
0.190554
0.186332
0.186332
0.186332
0.185349
0.185349
0.185349
0.185423
0.185423
0.185423
0.187602
0.187602
0.187602
0.183258
0.183258
0.183258
0.18215
0.18215
0.18215
0.166729
0.166729
0.166729
0.165105
0.165105
0.165105
0.163817
0.163817
0.163817
0.175976
0.175976
0.175976
0.170937
0.170937
0.170937
0.171987
0.171987
0.171987
0.173905
0.173905
0.173905
0.178006
0.178006
0.178006
0.179026
0.179026
0.179026
0.198955
0.198955
0.198955
0.197934
0.197934
0.197934
0.193336
0.193336
0.193336
0.195428
0.195428
0.195428
0.189892
0.189892
0.189892
0.19096
0.19096
0.19096
0.192221
0.192221
0.192221
0.187621
0.187621
0.187621
0.186415
0.186415
0.186415
0.195752
0.195752
0.195752
0.207238
0.207238
0.207238
0.206272
0.206272
0.206272
0.211938
0.211938
0.211938
0.215808
0.215808
0.215808
0.204197
0.204197
0.204197
0.19824
0.19824
0.19824
0.199095
0.199095
0.199095
0.203412
0.203412
0.203412
0.201754
0.201754
0.201754
0.219648
0.219648
0.219648
0.218241
0.218241
0.218241
0.22354
0.22354
0.22354
0.222872
0.222872
0.222872
0.211407
0.211407
0.211407
0.206995
0.206995
0.206995
0.206194
0.206194
0.206194
0.209866
0.209866
0.209866
0.214404
0.214404
0.214404
0.215143
0.215143
0.215143
0.224656
0.224656
0.224656
0.226175
0.226175
0.226175
0.229561
0.229561
0.229561
0.23028
0.23028
0.23028
0.220613
0.220613
0.220613
0.22141
0.22141
0.22141
0.242501
0.242501
0.242501
0.237363
0.237363
0.237363
0.236583
0.236583
0.236583
0.263392
0.263392
0.263392
0.262642
0.262642
0.262642
0.258353
0.258353
0.258353
0.257923
0.257923
0.257923
0.268154
0.268154
0.268154
0.267838
0.267838
0.267838
0.293303
0.293303
0.293303
0.288288
0.288288
0.288288
0.29877
0.29877
0.29877
0.29321
0.29321
0.29321
0.287985
0.287985
0.287985
0.272709
0.272709
0.272709
0.282738
0.282738
0.282738
0.277964
0.277964
0.277964
0.282951
0.282951
0.282951
0.248765
0.248765
0.248765
0.249701
0.249701
0.249701
0.254171
0.254171
0.254171
0.253755
0.253755
0.253755
0.244846
0.244846
0.244846
0.244328
0.244328
0.244328
0.166575
0.166575
0.166575
0.161683
0.161683
0.161683
0.171705
0.171705
0.171705
0.168341
0.168341
0.168341
0.190798
0.190798
0.190798
0.300091
0.300091
0.300091
0.295027
0.295027
0.295027
0.289731
0.289731
0.289731
0.121909
0.121909
0.121909
0.12198
0.12198
0.12198
0.127509
0.127509
0.127509
0.13153
0.13153
0.13153
0.121906
0.121906
0.121906
0.149912
0.149912
0.149912
0.129286
0.129286
0.129286
0.106822
0.106822
0.106822
0.108459
0.108459
0.108459
0.105812
0.105812
0.105812
0.196459
0.196459
0.196459
0.224398
0.224398
0.224398
0.223601
0.223601
0.223601
0.230717
0.230717
0.230717
0.204566
0.204566
0.204566
0.198473
0.198473
0.198473
0.206572
0.206572
0.206572
0.199515
0.199515
0.199515
0.170285
0.170285
0.170285
0.171475
0.171475
0.171475
0.167982
0.167982
0.167982
0.166879
0.166879
0.166879
0.160948
0.160948
0.160948
0.151121
0.151121
0.151121
0.194797
0.194797
0.194797
0.193698
0.193698
0.193698
0.15421
0.15421
0.15421
0.149717
0.149717
0.149717
0.141325
0.141325
0.141325
0.11848
0.11848
0.11848
0.269148
0.269148
0.269148
0.270382
0.270382
0.270382
0.209114
0.209114
0.209114
0.215813
0.215813
0.215813
0.292007
0.292007
0.292007
0.289477
0.289477
0.289477
0.157291
0.157291
0.157291
0.160444
0.160444
0.160444
0.177652
0.177652
0.177652
0.269193
0.269193
0.269193
0.201545
0.201545
0.201545
0.197264
0.197264
0.197264
0.233358
0.233358
0.233358
0.227817
0.227817
0.227817
0.0789403
0.0789403
0.0789403
0.078931
0.078931
0.078931
0.075928
0.075928
0.075928
0.0751408
0.0751408
0.0751408
0.0733374
0.0733374
0.0733374
0.0367964
0.0367964
0.0367964
0.0374281
0.0374281
0.0374281
0.0366046
0.0366046
0.0366046
0.0369086
0.0369086
0.0369086
0.0376552
0.0376552
0.0376552
0.0372227
0.0372227
0.0372227
0.0378151
0.0378151
0.0378151
0.0387142
0.0387142
0.0387142
0.0381362
0.0381362
0.0381362
0.0388943
0.0388943
0.0388943
0.0381263
0.0381263
0.0381263
0.0366521
0.0366521
0.0366521
0.0366536
0.0366536
0.0366536
0.0361882
0.0361882
0.0361882
0.0362618
0.0362618
0.0362618
0.0471558
0.0471558
0.0471558
0.0810221
0.0810221
0.0810221
0.0496056
0.0496056
0.0496056
0.0703361
0.0703361
0.0703361
0.0668366
0.0668366
0.0668366
0.0684921
0.0684921
0.0684921
0.066677
0.066677
0.066677
0.0684107
0.0684107
0.0684107
0.05508
0.05508
0.05508
0.0634299
0.0634299
0.0634299
0.0897317
0.0897317
0.0897317
0.0784185
0.0784185
0.0784185
0.0807109
0.0807109
0.0807109
0.0493309
0.0493309
0.0493309
0.0494999
0.0494999
0.0494999
0.0491112
0.0491112
0.0491112
0.0490612
0.0490612
0.0490612
0.0501535
0.0501535
0.0501535
0.0547144
0.0547144
0.0547144
0.0503006
0.0503006
0.0503006
0.0481371
0.0481371
0.0481371
0.0491516
0.0491516
0.0491516
0.0835852
0.0835852
0.0835852
0.0863023
0.0863023
0.0863023
0.0904872
0.0904872
0.0904872
0.0920666
0.0920666
0.0920666
0.0901387
0.0901387
0.0901387
0.0872785
0.0872785
0.0872785
0.10861
0.10861
0.10861
0.100676
0.100676
0.100676
0.0797262
0.0797262
0.0797262
0.0779561
0.0779561
0.0779561
0.255644
0.255644
0.255644
0.25511
0.25511
0.25511
0.246335
0.246335
0.246335
0.238934
0.238934
0.238934
0.261917
0.261917
0.261917
0.254086
0.254086
0.254086
0.266714
0.266714
0.266714
0.2611
0.2611
0.2611
0.253615
0.253615
0.253615
0.104044
0.104044
0.104044
0.110615
0.110615
0.110615
0.107172
0.107172
0.107172
0.124529
0.124529
0.124529
0.132069
0.132069
0.132069
0.12754
0.12754
0.12754
0.123833
0.123833
0.123833
0.122678
0.122678
0.122678
0.130869
0.130869
0.130869
0.12695
0.12695
0.12695
0.130399
0.130399
0.130399
0.175288
0.175288
0.175288
0.164802
0.164802
0.164802
0.155591
0.155591
0.155591
0.150764
0.150764
0.150764
0.180044
0.180044
0.180044
0.259756
0.259756
0.259756
0.264985
0.264985
0.264985
0.259257
0.259257
0.259257
0.237054
0.237054
0.237054
0.244679
0.244679
0.244679
0.252753
0.252753
0.252753
0.252376
0.252376
0.252376
0.244188
0.244188
0.244188
0.235971
0.235971
0.235971
0.074948
0.074948
0.074948
0.0731996
0.0731996
0.0731996
0.0722155
0.0722155
0.0722155
0.0729577
0.0729577
0.0729577
0.0692032
0.0692032
0.0692032
0.0702164
0.0702164
0.0702164
0.0719464
0.0719464
0.0719464
0.0806399
0.0806399
0.0806399
0.0818178
0.0818178
0.0818178
0.0808549
0.0808549
0.0808549
0.0779445
0.0779445
0.0779445
0.0789236
0.0789236
0.0789236
0.139586
0.139586
0.139586
0.141863
0.141863
0.141863
0.145342
0.145342
0.145342
0.146457
0.146457
0.146457
0.137348
0.137348
0.137348
0.135192
0.135192
0.135192
0.135061
0.135061
0.135061
0.13264
0.13264
0.13264
0.130534
0.130534
0.130534
0.131742
0.131742
0.131742
0.103273
0.103273
0.103273
0.100184
0.100184
0.100184
0.0793615
0.0793615
0.0793615
0.078819
0.078819
0.078819
0.0772268
0.0772268
0.0772268
0.0746911
0.0746911
0.0746911
0.077819
0.077819
0.077819
0.0737808
0.0737808
0.0737808
0.0753171
0.0753171
0.0753171
0.0814529
0.0814529
0.0814529
0.0782121
0.0782121
0.0782121
0.0802472
0.0802472
0.0802472
0.0528398
0.0528398
0.0528398
0.0731072
0.0731072
0.0731072
0.0542358
0.0542358
0.0542358
0.0965436
0.0965436
0.0965436
0.0986984
0.0986984
0.0986984
0.0955108
0.0955108
0.0955108
0.0902041
0.0902041
0.0902041
0.0905138
0.0905138
0.0905138
0.0917963
0.0917963
0.0917963
0.0586436
0.0586436
0.0586436
0.066106
0.066106
0.066106
0.0654031
0.0654031
0.0654031
0.0635123
0.0635123
0.0635123
0.0624191
0.0624191
0.0624191
0.0607765
0.0607765
0.0607765
0.0783489
0.0783489
0.0783489
0.0792365
0.0792365
0.0792365
0.0763869
0.0763869
0.0763869
0.12073
0.12073
0.12073
0.119582
0.119582
0.119582
0.100915
0.100915
0.100915
0.103875
0.103875
0.103875
0.100901
0.100901
0.100901
0.0994388
0.0994388
0.0994388
0.114671
0.114671
0.114671
0.12063
0.12063
0.12063
0.134608
0.134608
0.134608
0.119275
0.119275
0.119275
0.122149
0.122149
0.122149
0.127002
0.127002
0.127002
0.124851
0.124851
0.124851
0.122951
0.122951
0.122951
0.124024
0.124024
0.124024
0.132066
0.132066
0.132066
0.13415
0.13415
0.13415
0.133072
0.133072
0.133072
0.12991
0.12991
0.12991
0.127901
0.127901
0.127901
0.128978
0.128978
0.128978
0.170095
0.170095
0.170095
0.169087
0.169087
0.169087
0.165217
0.165217
0.165217
0.167257
0.167257
0.167257
0.162458
0.162458
0.162458
0.163489
0.163489
0.163489
0.168543
0.168543
0.168543
0.170124
0.170124
0.170124
0.171654
0.171654
0.171654
0.164019
0.164019
0.164019
0.180524
0.180524
0.180524
0.177789
0.177789
0.177789
0.182506
0.182506
0.182506
0.183859
0.183859
0.183859
0.170007
0.170007
0.170007
0.174563
0.174563
0.174563
0.175944
0.175944
0.175944
0.172792
0.172792
0.172792
0.15691
0.15691
0.15691
0.154186
0.154186
0.154186
0.159662
0.159662
0.159662
0.158305
0.158305
0.158305
0.162253
0.162253
0.162253
0.158212
0.158212
0.158212
0.142231
0.142231
0.142231
0.146148
0.146148
0.146148
0.156734
0.156734
0.156734
0.161089
0.161089
0.161089
0.155464
0.155464
0.155464
0.153979
0.153979
0.153979
0.131385
0.131385
0.131385
0.133525
0.133525
0.133525
0.143996
0.143996
0.143996
0.143016
0.143016
0.143016
0.140698
0.140698
0.140698
0.136042
0.136042
0.136042
0.137254
0.137254
0.137254
0.165466
0.165466
0.165466
0.162476
0.162476
0.162476
0.157994
0.157994
0.157994
0.156375
0.156375
0.156375
0.159242
0.159242
0.159242
0.163854
0.163854
0.163854
0.166909
0.166909
0.166909
0.165222
0.165222
0.165222
0.15088
0.15088
0.15088
0.148244
0.148244
0.148244
0.14411
0.14411
0.14411
0.142501
0.142501
0.142501
0.137421
0.137421
0.137421
0.139157
0.139157
0.139157
0.13156
0.13156
0.13156
0.124194
0.124194
0.124194
0.132769
0.132769
0.132769
0.136079
0.136079
0.136079
0.136768
0.136768
0.136768
0.138432
0.138432
0.138432
0.113732
0.113732
0.113732
0.103542
0.103542
0.103542
0.105148
0.105148
0.105148
0.119562
0.119562
0.119562
0.121544
0.121544
0.121544
0.171032
0.171032
0.171032
0.174115
0.174115
0.174115
0.179804
0.179804
0.179804
0.178564
0.178564
0.178564
0.170504
0.170504
0.170504
0.169288
0.169288
0.169288
0.174707
0.174707
0.174707
0.172299
0.172299
0.172299
0.177813
0.177813
0.177813
0.176624
0.176624
0.176624
0.211904
0.211904
0.211904
0.210065
0.210065
0.210065
0.209058
0.209058
0.209058
0.214905
0.214905
0.214905
0.212955
0.212955
0.212955
0.21888
0.21888
0.21888
0.21794
0.21794
0.21794
0.303492
0.303492
0.303492
0.298657
0.298657
0.298657
0.277415
0.277415
0.277415
0.272376
0.272376
0.272376
0.163965
0.163965
0.163965
0.187178
0.187178
0.187178
0.183554
0.183554
0.183554
0.181519
0.181519
0.181519
0.184509
0.184509
0.184509
0.179648
0.179648
0.179648
0.178139
0.178139
0.178139
0.199092
0.199092
0.199092
0.192113
0.192113
0.192113
0.194589
0.194589
0.194589
0.188592
0.188592
0.188592
0.189851
0.189851
0.189851
0.200708
0.200708
0.200708
0.205734
0.205734
0.205734
0.206894
0.206894
0.206894
0.203085
0.203085
0.203085
0.198209
0.198209
0.198209
0.196995
0.196995
0.196995
0.199439
0.199439
0.199439
0.203248
0.203248
0.203248
0.201921
0.201921
0.201921
0.194408
0.194408
0.194408
0.221038
0.221038
0.221038
0.215904
0.215904
0.215904
0.211173
0.211173
0.211173
0.204442
0.204442
0.204442
0.205831
0.205831
0.205831
0.208452
0.208452
0.208452
0.215292
0.215292
0.215292
0.213963
0.213963
0.213963
0.243555
0.243555
0.243555
0.245864
0.245864
0.245864
0.256755
0.256755
0.256755
0.248964
0.248964
0.248964
0.262994
0.262994
0.262994
0.255557
0.255557
0.255557
0.258971
0.258971
0.258971
0.253493
0.253493
0.253493
0.135079
0.135079
0.135079
0.142037
0.142037
0.142037
0.133809
0.133809
0.133809
0.137216
0.137216
0.137216
0.12605
0.12605
0.12605
0.162868
0.162868
0.162868
0.159831
0.159831
0.159831
0.152994
0.152994
0.152994
0.151229
0.151229
0.151229
0.154015
0.154015
0.154015
0.157551
0.157551
0.157551
0.158705
0.158705
0.158705
0.160474
0.160474
0.160474
0.148319
0.148319
0.148319
0.152169
0.152169
0.152169
0.155004
0.155004
0.155004
0.153072
0.153072
0.153072
0.146741
0.146741
0.146741
0.144141
0.144141
0.144141
0.139845
0.139845
0.139845
0.126212
0.126212
0.126212
0.128296
0.128296
0.128296
0.132639
0.132639
0.132639
0.135011
0.135011
0.135011
0.119017
0.119017
0.119017
0.10624
0.10624
0.10624
0.107946
0.107946
0.107946
0.102232
0.102232
0.102232
0.128052
0.128052
0.128052
0.112228
0.112228
0.112228
0.102306
0.102306
0.102306
0.0998726
0.0998726
0.0998726
0.0966099
0.0966099
0.0966099
0.19155
0.19155
0.19155
0.190513
0.190513
0.190513
0.175268
0.175268
0.175268
0.181603
0.181603
0.181603
0.186994
0.186994
0.186994
0.185892
0.185892
0.185892
0.174128
0.174128
0.174128
0.179357
0.179357
0.179357
0.182769
0.182769
0.182769
0.176237
0.176237
0.176237
0.170909
0.170909
0.170909
0.171942
0.171942
0.171942
0.178278
0.178278
0.178278
0.183774
0.183774
0.183774
0.2322
0.2322
0.2322
0.232972
0.232972
0.232972
0.247556
0.247556
0.247556
0.239612
0.239612
0.239612
0.202715
0.202715
0.202715
0.207594
0.207594
0.207594
0.201641
0.201641
0.201641
0.204862
0.204862
0.204862
0.163163
0.163163
0.163163
0.154137
0.154137
0.154137
0.159731
0.159731
0.159731
0.164324
0.164324
0.164324
0.147588
0.147588
0.147588
0.156293
0.156293
0.156293
0.152972
0.152972
0.152972
0.157403
0.157403
0.157403
0.146484
0.146484
0.146484
0.150756
0.150756
0.150756
0.141993
0.141993
0.141993
0.147086
0.147086
0.147086
0.144469
0.144469
0.144469
0.148328
0.148328
0.148328
0.1927
0.1927
0.1927
0.186285
0.186285
0.186285
0.181224
0.181224
0.181224
0.182433
0.182433
0.182433
0.178326
0.178326
0.178326
0.153607
0.153607
0.153607
0.189252
0.189252
0.189252
0.178812
0.178812
0.178812
0.177616
0.177616
0.177616
0.182757
0.182757
0.182757
0.190398
0.190398
0.190398
0.185103
0.185103
0.185103
0.13279
0.13279
0.13279
0.128957
0.128957
0.128957
0.144418
0.144418
0.144418
0.1403
0.1403
0.1403
0.102881
0.102881
0.102881
0.114474
0.114474
0.114474
0.113714
0.113714
0.113714
0.109934
0.109934
0.109934
0.226059
0.226059
0.226059
0.21839
0.21839
0.21839
0.211866
0.211866
0.211866
0.212825
0.212825
0.212825
0.256755
0.256755
0.256755
0.248192
0.248192
0.248192
0.241023
0.241023
0.241023
0.1955
0.1955
0.1955
0.20174
0.20174
0.20174
0.188544
0.188544
0.188544
0.187624
0.187624
0.187624
0.222097
0.222097
0.222097
0.215015
0.215015
0.215015
0.282454
0.282454
0.282454
0.266832
0.266832
0.266832
0.276204
0.276204
0.276204
0.268785
0.268785
0.268785
0.151846
0.151846
0.151846
0.157696
0.157696
0.157696
0.143298
0.143298
0.143298
0.149001
0.149001
0.149001
0.151942
0.151942
0.151942
0.148937
0.148937
0.148937
0.143319
0.143319
0.143319
0.140372
0.140372
0.140372
0.169057
0.169057
0.169057
0.176116
0.176116
0.176116
0.178777
0.178777
0.178777
0.175137
0.175137
0.175137
0.169835
0.169835
0.169835
0.166419
0.166419
0.166419
0.278816
0.278816
0.278816
0.277031
0.277031
0.277031
0.279518
0.279518
0.279518
0.286172
0.286172
0.286172
0.274264
0.274264
0.274264
0.262506
0.262506
0.262506
0.271497
0.271497
0.271497
0.266384
0.266384
0.266384
0.246486
0.246486
0.246486
0.241069
0.241069
0.241069
0.235776