<VTKFile type="UnstructuredGrid" version="1.0">
<UnstructuredGrid>
<Piece NumberOfPoints="8859" NumberOfCells="2953">
<Points>
<DataArray type="Float64" NumberOfComponents="3" format="ascii">
0.5 3.01 4.085
0.512524 3.01 4.1075
0.487476 3.01 4.1075
0.17352 3.01 3.2075
0.160827 3.01 3.22922
0.148445 3.01 3.2075
0.122979 3.01 3.25089
0.110383 3.01 3.22921
0.135644 3.01 3.22922
0.135644 3.01 3.22922
0.110383 3.01 3.22921
0.123433 3.01 3.2075
0.123433 3.01 3.2075
0.148445 3.01 3.2075
0.135644 3.01 3.22922
0.135644 3.01 3.22922
0.148445 3.01 3.2075
0.160827 3.01 3.22922
0.17352 3.01 3.2075
0.198629 3.01 3.2075
0.185985 3.01 3.2292
0.185985 3.01 3.2292
0.160827 3.01 3.22922
0.17352 3.01 3.2075
0.0732297 3.01 3.25067
0.0586606 3.01 3.22881
0.0848754 3.01 3.22914
0.05 3.01 4.04027
0.05 3.01 3.9951
0.058509 3.01 4.01756
0.324276 3.01 3.2075
0.349395 3.01 3.2075
0.336827 3.01 3.22916
0.148138 3.01 3.2509
0.135644 3.01 3.22922
0.160827 3.01 3.22922
0.122979 3.01 3.25089
0.135644 3.01 3.22922
0.148138 3.01 3.2509
0.160827 3.01 3.22922
0.185985 3.01 3.2292
0.173316 3.01 3.25089
0.185806 3.01 3.27255
0.160572 3.01 3.27255
0.173316 3.01 3.25089
0.173316 3.01 3.25089
0.148138 3.01 3.2509
0.160827 3.01 3.22922
0.160572 3.01 3.27255
0.148138 3.01 3.2509
0.173316 3.01 3.25089
0.211137 3.01 3.22919
0.185985 3.01 3.2292
0.198629 3.01 3.2075
0.0979162 3.01 3.25084
0.110383 3.01 3.22921
0.122979 3.01 3.25089
0.122979 3.01 3.25089
0.109875 3.01 3.27249
0.0979162 3.01 3.25084
0.0732297 3.01 3.25067
0.0848754 3.01 3.22914
0.0979162 3.01 3.25084
0.0979162 3.01 3.25084
0.0848754 3.01 3.22914
0.110383 3.01 3.22921
0.0975729 3.01 3.29404
0.109875 3.01 3.27249
0.122678 3.01 3.29414
0.0841718 3.01 3.27235
0.0577122 3.01 3.27202
0.0732297 3.01 3.25067
0.0729308 3.01 3.29388
0.0577122 3.01 3.27202
0.0841718 3.01 3.27235
0.0732297 3.01 3.25067
0.0979162 3.01 3.25084
0.0841718 3.01 3.27235
0.0841718 3.01 3.27235
0.0979162 3.01 3.25084
0.109875 3.01 3.27249
0.0975729 3.01 3.29404
0.0729308 3.01 3.29388
0.0841718 3.01 3.27235
0.0841718 3.01 3.27235
0.109875 3.01 3.27249
0.0975729 3.01 3.29404
0.073948 3.01 3.2075
0.0586606 3.01 3.22881
0.05 3.01 3.2075
0.073948 3.01 3.2075
0.0848754 3.01 3.22914
0.0586606 3.01 3.22881
0.05 3.01 4.08329
0.05 3.01 4.04027
0.0603641 3.01 4.06197
0.0603641 3.01 4.06197
0.0753197 3.01 4.08399
0.05 3.01 4.08329
0.0709395 3.01 4.1075
0.05 3.01 4.1075
0.05 3.01 4.08329
0.05 3.01 4.08329
0.0753197 3.01 4.08399
0.0709395 3.01 4.1075
0.0579641 3.01 3.79463
0.05 3.01 3.81669
0.05 3.01 3.77261
0.0841948 3.01 3.7068
0.097638 3.01 3.68493
0.109814 3.01 3.7068
0.0841948 3.01 3.7068
0.0730539 3.01 3.7287
0.0578646 3.01 3.7068
0.0580261 3.01 3.8388
0.05 3.01 3.86095
0.05 3.01 3.81669
0.942292 3.01 3.40236
0.95 3.01 3.38067
0.95 3.01 3.42404
0.95 3.01 3.33726
0.95 3.01 3.38067
0.942332 3.01 3.35897
0.73872 3.01 3.61953
0.726137 3.01 3.59776
0.75132 3.01 3.59775
0.751305 3.01 3.64132
0.726124 3.01 3.64133
0.73872 3.01 3.61953
0.713546 3.01 3.61954
0.726137 3.01 3.59776
0.73872 3.01 3.61953
0.73872 3.01 3.61953
0.726124 3.01 3.64133
0.713546 3.01 3.61954
0.814318 3.01 3.66311
0.789096 3.01 3.66312
0.801709 3.01 3.6413
0.7765 3.01 3.64131
0.789115 3.01 3.61951
0.801709 3.01 3.6413
0.801709 3.01 3.6413
0.789096 3.01 3.66312
0.7765 3.01 3.64131
0.7765 3.01 3.64131
0.789096 3.01 3.66312
0.763892 3.01 3.66314
0.763892 3.01 3.66314
0.751305 3.01 3.64132
0.7765 3.01 3.64131
0.95 3.01 4.1075
0.929061 3.01 4.1075
0.95 3.01 4.08329
0.95 3.01 3.9054
0.926844 3.01 3.9054
0.941913 3.01 3.88315
0.941913 3.01 3.88315
0.95 3.01 3.86095
0.95 3.01 3.9054
0.926866 3.01 3.86094
0.95 3.01 3.86095
0.941913 3.01 3.88315
0.941974 3.01 3.8388
0.95 3.01 3.86095
0.926866 3.01 3.86094
0.95 3.01 3.81669
0.95 3.01 3.86095
0.941974 3.01 3.8388
0.941974 3.01 3.8388
0.926895 3.01 3.81669
0.95 3.01 3.81669
0.6127 3.01 4.1075
0.625238 3.01 4.08498
0.637734 3.01 4.1075
0.662757 3.01 4.1075
0.637734 3.01 4.1075
0.650275 3.01 4.08497
0.650275 3.01 4.08497
0.637734 3.01 4.1075
0.625238 3.01 4.08498
0.600415 3.01 3.64137
0.587856 3.01 3.6632
0.575304 3.01 3.64137
0.575304 3.01 3.64137
0.587856 3.01 3.6632
0.562749 3.01 3.6632
0.336827 3.01 3.22916
0.349395 3.01 3.2075
0.361946 3.01 3.22916
0.223755 3.01 3.2075
0.211137 3.01 3.22919
0.198629 3.01 3.2075
0.185985 3.01 3.2292
0.211137 3.01 3.22919
0.198492 3.01 3.25088
0.185806 3.01 3.27255
0.173316 3.01 3.25089
0.198492 3.01 3.25088
0.198492 3.01 3.25088
0.173316 3.01 3.25089
0.185985 3.01 3.2292
0.0576202 3.01 3.31553
0.05 3.01 3.33726
0.05 3.01 3.29374
0.05 3.01 3.29374
0.0729308 3.01 3.29388
0.0576202 3.01 3.31553
0.05 3.01 3.29374
0.0577122 3.01 3.27202
0.0729308 3.01 3.29388
0.135283 3.01 3.27254
0.109875 3.01 3.27249
0.122979 3.01 3.25089
0.135283 3.01 3.27254
0.122678 3.01 3.29414
0.109875 3.01 3.27249
0.122979 3.01 3.25089
0.148138 3.01 3.2509
0.135283 3.01 3.27254
0.135283 3.01 3.27254
0.148138 3.01 3.2509
0.160572 3.01 3.27255
0.123433 3.01 3.2075
0.110383 3.01 3.22921
0.0985513 3.01 3.2075
0.110383 3.01 3.22921
0.0848754 3.01 3.22914
0.0985513 3.01 3.2075
0.0848754 3.01 3.22914
0.073948 3.01 3.2075
0.0985513 3.01 3.2075
0.0603641 3.01 4.06197
0.05 3.01 4.04027
0.0739464 3.01 4.03949
0.0739464 3.01 4.03949
0.05 3.01 4.04027
0.058509 3.01 4.01756
0.058509 3.01 4.01756
0.0849548 3.01 4.01711
0.0739464 3.01 4.03949
0.058509 3.01 4.01756
0.05 3.01 3.9951
0.0732725 3.01 3.99488
0.0732725 3.01 3.99488
0.0849548 3.01 4.01711
0.058509 3.01 4.01756
0.5 3.01 4.085
0.487476 3.01 4.1075
0.47495 3.01 4.085
0.097663 3.01 3.7287
0.0841948 3.01 3.7068
0.109814 3.01 3.7068
0.0730539 3.01 3.7287
0.0841948 3.01 3.7068
0.097663 3.01 3.7287
0.0578646 3.01 3.7068
0.0730539 3.01 3.7287
0.05 3.01 3.7287
0.05 3.01 3.7287
0.05 3.01 3.68492
0.0578646 3.01 3.7068
0.05 3.01 3.9054
0.05 3.01 3.86095
0.0580869 3.01 3.88315
0.05 3.01 3.86095
0.0580261 3.01 3.8388
0.073134 3.01 3.86094
0.073134 3.01 3.86094
0.0580869 3.01 3.88315
0.05 3.01 3.86095
0.942268 3.01 3.44573
0.95 3.01 3.42404
0.95 3.01 3.46741
0.942292 3.01 3.40236
0.95 3.01 3.42404
0.927025 3.01 3.42404
0.927025 3.01 3.42404
0.942268 3.01 3.44573
0.915919 3.01 3.44572
0.95 3.01 3.42404
0.942268 3.01 3.44573
0.927025 3.01 3.42404
0.927013 3.01 3.46741
0.942268 3.01 3.44573
0.95 3.01 3.46741
0.915919 3.01 3.44572
0.942268 3.01 3.44573
0.927013 3.01 3.46741
0.801738 3.01 3.55425
0.814364 3.01 3.53253
0.826957 3.01 3.55425
0.852174 3.01 3.55424
0.826957 3.01 3.55425
0.839609 3.01 3.53252
0.839609 3.01 3.53252
0.826957 3.01 3.55425
0.814364 3.01 3.53253
0.776516 3.01 3.59775
0.75132 3.01 3.59775
0.763923 3.01 3.576
0.776516 3.01 3.59775
0.801725 3.01 3.59774
0.789115 3.01 3.61951
0.738704 3.01 3.66315
0.751305 3.01 3.64132
0.763892 3.01 3.66314
0.726124 3.01 3.64133
0.751305 3.01 3.64132
0.738704 3.01 3.66315
0.915617 3.01 3.88314
0.902228 3.01 3.86094
0.926866 3.01 3.86094
0.926866 3.01 3.86094
0.941913 3.01 3.88315
0.915617 3.01 3.88314
0.915617 3.01 3.88314
0.941913 3.01 3.88315
0.926844 3.01 3.9054
0.915617 3.01 3.88314
0.926844 3.01 3.9054
0.902193 3.01 3.90538
0.926866 3.01 3.86094
0.902228 3.01 3.86094
0.915668 3.01 3.83879
0.902267 3.01 3.81668
0.926895 3.01 3.81669
0.915668 3.01 3.83879
0.915668 3.01 3.83879
0.941974 3.01 3.8388
0.926866 3.01 3.86094
0.926895 3.01 3.81669
0.941974 3.01 3.8388
0.915668 3.01 3.83879
0.902267 3.01 3.81668
0.915668 3.01 3.83879
0.890059 3.01 3.83879
0.890059 3.01 3.83879
0.915668 3.01 3.83879
0.902228 3.01 3.86094
0.826927 3.01 3.64129
0.814318 3.01 3.66311
0.801709 3.01 3.6413
0.864816 3.01 3.7068
0.877308 3.01 3.68493
0.890186 3.01 3.7068
0.877308 3.01 3.68493
0.864816 3.01 3.7068
0.852122 3.01 3.68494
0.890186 3.01 3.7068
0.877308 3.01 3.68493
0.902362 3.01 3.68493
0.902362 3.01 3.68493
0.915805 3.01 3.7068
0.890186 3.01 3.7068
0.902362 3.01 3.68493
0.926964 3.01 3.68492
0.915805 3.01 3.7068
0.915835 3.01 3.66309
0.926964 3.01 3.68492
0.902362 3.01 3.68493
0.942171 3.01 3.66309
0.926964 3.01 3.68492
0.915835 3.01 3.66309
0.915835 3.01 3.66309
0.926978 3.01 3.64127
0.942171 3.01 3.66309
0.942171 3.01 3.66309
0.926978 3.01 3.64127
0.95 3.01 3.64127
0.87737 3.01 3.51081
0.890277 3.01 3.48911
0.902417 3.01 3.5108
0.852144 3.01 3.64128
0.877329 3.01 3.64128
0.864842 3.01 3.66309
0.877308 3.01 3.68493
0.852122 3.01 3.68494
0.864842 3.01 3.66309
0.902396 3.01 3.59772
0.915858 3.01 3.61948
0.890234 3.01 3.61949
0.926997 3.01 3.55423
0.942237 3.01 3.53251
0.95 3.01 3.55423
0.91589 3.01 3.53251
0.942237 3.01 3.53251
0.926997 3.01 3.55423
0.942199 3.01 3.61948
0.95 3.01 3.59771
0.95 3.01 3.64127
0.95 3.01 3.64127
0.926978 3.01 3.64127
0.942199 3.01 3.61948
0.942199 3.01 3.61948
0.926978 3.01 3.64127
0.915858 3.01 3.61948
0.95 3.01 3.55423
0.95 3.01 3.59771
0.942221 3.01 3.57597
0.942221 3.01 3.57597
0.926997 3.01 3.55423
0.95 3.01 3.55423
0.915876 3.01 3.57597
0.926997 3.01 3.55423
0.942221 3.01 3.57597
0.926989 3.01 3.59771
0.915858 3.01 3.61948
0.902396 3.01 3.59772
0.902396 3.01 3.59772
0.915876 3.01 3.57597
0.926989 3.01 3.59771
0.926989 3.01 3.59771
0.942199 3.01 3.61948
0.915858 3.01 3.61948
0.95 3.01 3.59771
0.942199 3.01 3.61948
0.926989 3.01 3.59771
0.915876 3.01 3.57597
0.942221 3.01 3.57597
0.926989 3.01 3.59771
0.926989 3.01 3.59771
0.942221 3.01 3.57597
0.95 3.01 3.59771
0.91353 3.01 4.06185
0.926054 3.01 4.03949
0.939636 3.01 4.06197
0.926728 3.01 3.99488
0.95 3.01 3.9951
0.941491 3.01 4.01756
0.926728 3.01 3.99488
0.941822 3.01 3.97254
0.95 3.01 3.9951
0.95 3.01 4.04027
0.95 3.01 4.08329
0.939636 3.01 4.06197
0.95 3.01 4.04027
0.926054 3.01 4.03949
0.941491 3.01 4.01756
0.939636 3.01 4.06197
0.926054 3.01 4.03949
0.95 3.01 4.04027
0.941491 3.01 4.01756
0.95 3.01 3.9951
0.95 3.01 4.04027
0.941869 3.01 3.92772
0.926844 3.01 3.9054
0.95 3.01 3.9054
0.762942 3.01 4.06228
0.75028 3.01 4.08489
0.737933 3.01 4.06234
0.71291 3.01 4.06239
0.725533 3.01 4.03985
0.737933 3.01 4.06234
0.71291 3.01 4.06239
0.737933 3.01 4.06234
0.725313 3.01 4.08492
0.725313 3.01 4.08492
0.737933 3.01 4.06234
0.75028 3.01 4.08489
0.737693 3.01 4.1075
0.712746 3.01 4.1075
[...]
<PointData Scalars="View Factor" >
<DataArray type="Float64" Name="View Factor" NumberOfComponents="1" format="ascii">
0.00419267
0.00419267
0.00419267
0.00233591
0.00233591
0.00233591
0.00236917
0.00236917
0.00236917
0.00234767
0.00234767
0.00234767
0.00233667
0.00233667
0.00233667
0.00234698
0.00234698
0.00234698
0.00233502
0.00233502
0.00233502
0.00234614
0.00234614
0.00234614
0.00236984
0.00236984
0.00236984
0.00400527
0.00400527
0.00400527
0.00232703
0.00232703
0.00232703
0.00236847
0.00236847
0.00236847
0.00237967
0.00237967
0.00237967
0.00236762
0.00236762
0.00236762
0.00241126
0.00241126
0.00241126
0.00237889
0.00237889
0.00237889
0.00240071
0.00240071
0.00240071
0.00234517
0.00234517
0.00234517
0.00238028
0.00238028
0.00238028
0.00240209
0.00240209
0.00240209
0.00238064
0.00238064
0.00238064
0.00236968
0.00236968
0.00236968
0.0024464
0.0024464
0.0024464
0.00241341
0.00241341
0.00241341
0.00243557
0.00243557
0.00243557
0.00240242
0.00240242
0.00240242
0.00241328
0.00241328
0.00241328
0.00244673
0.00244673
0.00244673
0.00243543
0.00243543
0.00243543
0.00233797
0.00233797
0.00233797
0.00234844
0.00234844
0.00234844
0.00413439
0.00413439
0.00413439
0.00417786
0.00417786
0.00417786
0.00424817
0.00424817
0.00424817
0.00422387
0.00422387
0.00422387
0.00342488
0.00342488
0.00342488
0.00320811
0.00320811
0.00320811
0.00324076
0.00324076
0.00324076
0.00353111
0.00353111
0.00353111
0.00253074
0.00253074
0.00253074
0.00246201
0.00246201
0.00246201
0.00293391
0.00293391
0.00293391
0.00299094
0.00299094
0.00299094
0.00295065
0.00295065
0.00295065
0.0029792
0.0029792
0.0029792
0.00302039
0.00302039
0.00302039
0.00297983
0.00297983
0.00297983
0.00300874
0.00300874
0.00300874
0.00302624
0.00302624
0.00302624
0.00301446
0.00301446
0.00301446
0.00404694
0.00404694
0.00404694
0.00351584
0.00351584
0.00351584
0.0034776
0.0034776
0.0034776
0.00344499
0.00344499
0.00344499
0.0034103
0.0034103
0.0034103
0.00337364
0.00337364
0.00337364
0.00334237
0.00334237
0.00334237
0.00416037
0.00416037
0.00416037
0.00415309
0.00415309
0.00415309
0.00413439
0.00413439
0.00413439
0.00304952
0.00304952
0.00304952
0.00306657
0.00306657
0.00306657
0.00233673
0.00233673
0.00233673
0.00233401
0.00233401
0.00233401
0.00236663
0.00236663
0.00236663
0.00239978
0.00239978
0.00239978
0.00237796
0.00237796
0.00237796
0.00249246
0.00249246
0.00249246
0.00246948
0.00246948
0.00246948
0.00244679
0.00244679
0.00244679
0.00241281
0.00241281
0.00241281
0.00243497
0.00243497
0.00243497
0.00240149
0.00240149
0.00240149
0.00241212
0.00241212
0.00241212
0.0023373
0.0023373
0.0023373
0.0023482
0.0023482
0.0023482
0.00233776
0.00233776
0.00233776
0.00409097
0.00409097
0.00409097
0.00404774
0.00404774
0.00404774
0.00402506
0.00402506
0.00402506
0.00396203
0.00396203
0.00396203
0.0039825
0.0039825
0.0039825
0.00417288
0.00417288
0.00417288
0.00324006
0.00324006
0.00324006
0.00325656
0.00325656
0.00325656
0.00325714
0.00325714
0.00325714
0.00322512
0.00322512
0.00322512
0.00364193
0.00364193
0.00364193
0.00356734
0.00356734
0.00356734
0.00360427
0.00360427
0.00360427
0.00260182
0.00260182
0.00260182
0.00255583
0.00255583
0.00255583
0.00259401
0.00259401
0.00259401
0.00257954
0.00257954
0.00257954
0.0026278
0.0026278
0.0026278
0.00261817
0.00261817
0.00261817
0.00280843
0.00280843
0.00280843
0.00280292
0.00280292
0.00280292
0.00279245
0.00279245
0.00279245
0.00290068
0.00290068
0.00290068
0.0029231
0.0029231
0.0029231
0.00303191
0.00303191
0.00303191
0.00302001
0.00302001
0.00302001
0.00345305
0.00345305
0.00345305
0.00346631
0.00346631
0.00346631
0.00350179
0.00350179
0.00350179
0.00352413
0.00352413
0.00352413
0.00341825
0.00341825
0.00341825
0.0033501
0.0033501
0.0033501
0.00339683
0.00339683
0.00339683
0.00336281
0.00336281
0.00336281
0.00337077
0.00337077
0.00337077
0.0034049
0.0034049
0.0034049
0.00300285
0.00300285
0.00300285
0.00309045
0.00309045
0.00309045
0.00307876
0.00307876
0.00307876
0.00307211
0.00307211
0.00307211
0.00308363
0.00308363
0.00308363
0.00306532
0.00306532
0.00306532
0.00303572
0.00303572
0.00303572
0.00301749
0.00301749
0.00301749
0.0029885
0.0029885
0.0029885
0.0029711
0.0029711
0.0029711
0.00271375
0.00271375
0.00271375
0.00299056
0.00299056
0.00299056
0.00304898
0.00304898
0.00304898
0.0029102
0.0029102
0.0029102
0.00277955
0.00277955
0.00277955
0.00276923
0.00276923
0.00276923
0.00291265
0.00291265
0.00291265
0.0029427
0.0029427
0.0029427
0.00293162
0.00293162
0.00293162
0.00283067
0.00283067
0.00283067
0.00280591
0.00280591
0.00280591
0.00282204
0.00282204
0.00282204
0.00289326
0.00289326
0.00289326
0.00286583
0.00286583
0.00286583
0.00290372
0.00290372
0.00290372
0.00288697
0.00288697
0.00288697
0.00284893
0.00284893
0.00284893
0.00285962
0.00285962
0.00285962
0.00392642
0.00392642
0.00392642
0.00378062
0.00378062
0.00378062
0.0037411
0.0037411
0.0037411
0.00393902
0.00393902
0.00393902
0.00386101
0.00386101
0.00386101
0.00390176
0.00390176
0.00390176
0.00381798
0.00381798
0.00381798
0.00355204
0.00355204
0.00355204
0.00403342
0.00403342
0.00403342
0.00399856
0.00399856
0.00399856
0.00404163
0.00404163
0.00404163
0.00405931
0.00405931
0.00405931
0.00412964
0.00412964
0.00412964
0.00410328
0.00410328
0.00410328
0.0041213
0.0041213
0.0041213
0.0038708
0.0038708
0.0038708
0.00391424
0.00391424
0.00391424
0.00398119
0.00398119
0.00398119
0.00393898
0.00393898
0.00393898
0.00399623
0.00399623
0.00399623
0.00395383
0.00395383
0.00395383
0.00409712
0.00409712
0.00409712
0.00414149
0.00414149
0.00414149
0.00416738
0.00416738
0.00416738
0.00302631
0.00302631
0.00302631
0.00306217
0.00306217
0.00306217
0.00316239
0.00316239
0.00316239
0.00318927
0.00318927
0.00318927
0.00315799
0.00315799
0.00315799
0.00314471
0.00314471
0.00314471
0.00309665
0.00309665
0.00309665
0.00311401
0.00311401
0.00311401
0.00319373
0.00319373
0.00319373
0.00320734
0.00320734
0.00320734
0.0033909
0.0033909
0.0033909
0.00313847
0.00313847
0.00313847
0.00312571
0.00312571
0.00312571
0.00304981
0.00304981
0.00304981
0.00310982
0.00310982
0.00310982
0.0023302
0.0023302
0.0023302
0.00233159
0.00233159
0.00233159
0.00234152
0.00234152
0.00234152
0.00236291
0.00236291
0.00236291
0.00229964
0.00229964
0.00229964
0.00284061
0.00284061
0.00284061
0.00289526
0.00289526
0.00289526
0.00285682
0.00285682
0.00285682
0.00288418
0.00288418
0.00288418
0.00288948
0.00288948
0.00288948
0.00290593
0.00290593
0.00290593
0.00237296
0.00237296
0.00237296
0.00232526
0.00232526
0.00232526
0.00229763
0.00229763
0.00229763
0.00268558
0.00268558
0.00268558
0.00267399
0.00267399
0.00267399
0.00242432
0.00242432
0.00242432
0.00235907
0.00235907
0.00235907
0.00238049
0.00238049
0.00238049
0.00240228
0.00240228
0.00240228
0.00404565
0.00404565
0.00404565
0.00419829
0.00419829
0.00419829
0.00345962
0.00345962
0.00345962
0.00349502
0.00349502
0.00349502
0.00328916
0.00328916
0.00328916
0.0025114
0.0025114
0.0025114
0.00345812
0.00345812
0.00345812
0.0034935
0.0034935
0.0034935
0.00319188
0.00319188
0.00319188
0.00320724
0.00320724
0.00320724
0.00316132
0.00316132
0.00316132
0.00319264
0.00319264
0.00319264
0.00319321
0.00319321
0.00319321
0.0032088
0.0032088
0.0032088
0.00313109
0.00313109
0.00313109
0.00316187
0.00316187
0.00316187
0.00314612
0.00314612
0.00314612
0.0031154
0.0031154
0.0031154
0.00310041
0.00310041
0.00310041
0.0029619
0.0029619
0.0029619
0.00294457
0.00294457
0.00294457
0.0026333
0.0026333
0.0026333
0.00283518
0.00283518
0.00283518
0.00285144
0.00285144
0.00285144
0.00287872
0.00287872
0.00287872
0.00278689
0.00278689
0.00278689
0.00279725
0.00279725
0.00279725
0.00270384
0.00270384
0.00270384
0.00254651
0.00254651
0.00254651
0.00266891
0.00266891
0.00266891
0.00292859
0.00292859
0.00292859
0.00298547
0.00298547
0.00298547
0.00296834
0.00296834
0.00296834
0.00293994
0.00293994
0.00293994
0.00294538
0.00294538
0.00294538
0.00297386
0.00297386
0.00297386
0.0030615
0.0030615
0.0030615
0.00307926
0.00307926
0.00307926
0.0030374
0.0030374
0.0030374
0.00306707
0.00306707
0.00306707
0.00316404
0.00316404
0.00316404
0.00317685
0.00317685
0.00317685
0.00309527
0.00309527
0.00309527
0.00311385
0.00311385
0.00311385
0.00335778
0.00335778
0.00335778
0.00333174
0.00333174
0.00333174
0.0033243
0.0033243
0.0033243
0.00331142
0.00331142
0.00331142
0.00396501
0.00396501
0.00396501
0.00399043
0.00399043
0.00399043
0.00397324
0.00397324
0.00397324
0.00393114
0.00393114
0.00393114
0.00374517
0.00374517
0.00374517
0.00384008
0.00384008
0.00384008
0.00388086
0.00388086
0.00388086
0.00365966
0.00365966
0.00365966
0.00370604
0.00370604
0.00370604
0.00363669
0.00363669
0.00363669
0.00288969
0.00288969
0.00288969
0.00301437
0.00301437
0.00301437
0.00299678
0.00299678
0.00299678
0.00300817
0.00300817
0.00300817
0.00303743
0.00303743
0.00303743
0.0031275
0.0031275
0.0031275
0.00309708
0.00309708
0.00309708
0.00297766
0.00297766
0.00297766
0.0029556
0.0029556
0.0029556
0.00294917
0.00294917
0.00294917
0.0029382
0.0029382
0.0029382
0.00302899
0.00302899
0.00302899
0.00299777
0.00299777
0.00299777
0.00285525
0.00285525
0.00285525
0.00282385
0.00282385
0.00282385
0.00283431
0.00283431
0.00283431
0.00274929
0.00274929
0.00274929
0.00278118
0.00278118
0.00278118
0.00273934
0.00273934
0.00273934
0.00275509
0.00275509
0.00275509
0.00269819
0.00269819
0.00269819
0.00267309
0.00267309
0.00267309
0.00265793
0.00265793
0.00265793
0.00399774
0.00399774
0.00399774
0.00396432
0.00396432
0.00396432
0.0039833
0.0039833
0.0039833
0.00396804
0.00396804
0.00396804
0.00402791
0.00402791
0.00402791
0.00391055
0.00391055
0.00391055
0.00378909
0.00378909
0.00378909
0.00386942
0.00386942
0.00386942
0.00384455
0.00384455
0.00384455
0.00380451
0.00380451
0.00380451
0.0037603
0.0037603
0.0037603
0.00369782
0.00369782
0.00369782
0.00372126
0.00372126
0.00372126
0.00371289
0.00371289
0.00371289
0.00356042
0.00356042
0.00356042
0.00357428
0.00357428
0.00357428
0.0037256
0.0037256
0.0037256
0.0037497
0.0037497
0.0037497
0.00401397
0.00401397
0.00401397
0.00400641
0.00400641
0.00400641
0.00398885
0.00398885
0.00398885
0.00413772
0.00413772
0.00413772
0.00411146
0.00411146
0.00411146
0.00406742
0.00406742
0.00406742
0.00404957
0.00404957
0.00404957
0.00406795
0.00406795
0.00406795
0.00400708
0.00400708
0.00400708
0.00402407
0.00402407
0.00402407
0.00409483
0.00409483
0.00409483
0.00405092
0.00405092
0.00405092
0.00409483
0.00409483
0.00409483
0.00387298
0.00387298
0.00387298
0.00385635
0.00385635
0.00385635
0.0035915
0.0035915
0.0035915
0.0035698
0.0035698
0.0035698
0.00366797
0.00366797
0.00366797
0.00381591
0.00381591
0.00381591
0.0037922
0.0037922
0.0037922
0.00383015
0.00383015
0.00383015
0.00369076
0.00369076
0.00369076
0.00372941
0.00372941
0.00372941
0.00375266
0.00375266
0.00375266
0.00373671
0.00373671
0.00373671
0.0039219
0.0039219
0.0039219
0.0038878
0.0038878
0.0038878
0.00392927
0.00392927
0.00392927
0.00394655
0.00394655
0.00394655
0.00386371
0.00386371
0.00386371
0.00388053
0.00388053
0.00388053
0.00402126
0.00402126
0.00402126
0.0040646
0.0040646
0.0040646
0.00409011
0.00409011
0.00409011
0.00407171
0.00407171
0.00407171
0.00393637
0.00393637
0.00393637
0.00389481
0.00389481
0.00389481
0.00387762
0.00387762
0.00387762
0.00354198
0.00354198
0.00354198
0.0035059
0.0035059
0.0035059
0.00297298
0.00297298
0.00297298
0.00309079
0.00309079
0.00309079
0.00295957
0.00295957
0.00295957
0.00297475
0.00297475
0.00297475
0.00310493
0.00310493
0.00310493
0.00304269
0.00304269
0.00304269
0.00302952
0.00302952
0.00302952
0.00318149
0.00318149
0.00318149
0.00316416
0.00316416
0.00316416
0.00312974
0.00312974
0.00312974
0.00321309
0.00321309
0.00321309
0.00323073
0.00323073
0.00323073
0.003263
0.003263
0.003263
0.00327759
0.00327759
0.00327759
0.00304505
0.00304505
0.00304505
0.00309218
0.00309218
0.00309218
0.00310961
0.00310961
0.00310961
0.00314024
0.00314024
0.00314024
0.0031534
0.0031534
0.0031534
0.00332886
0.00332886
0.00332886
0.00331049
0.00331049
0.00331049
0.00321173
0.00321173
0.00321173
0.00323928
0.00323928
0.00323928
0.00317805
0.00317805
0.00317805
0.00316065
0.00316065
0.00316065
0.0033176
0.0033176
0.0033176
0.003299
0.003299
0.003299
0.00317471
0.00317471
0.00317471
0.00314364
0.00314364
0.00314364
0.00314042
0.00314042
0.00314042
0.00340745
0.00340745
0.00340745
0.00233286
0.00233286
0.00233286
0.00234286
0.00234286
0.00234286
0.00234408
0.00234408
0.00234408
0.00244118
0.00244118
0.00244118
0.00239549
0.00239549
0.00239549
0.00241899
0.00241899
0.00241899
0.0023064
0.0023064
0.0023064
0.00227641
0.00227641
0.00227641
0.00228755
0.00228755
0.00228755
0.00284588
0.00284588
0.00284588
0.00286205
0.00286205
0.00286205
0.00285099
0.00285099
0.00285099
0.00282402
0.00282402
0.00282402
0.00289461
0.00289461
0.00289461
0.00286711
0.00286711
0.00286711
0.00234005
0.00234005
0.00234005
0.00236142
0.00236142
0.00236142
0.00232868
0.00232868
0.00232868
0.00233845
0.00233845
0.00233845
0.00235805
0.00235805
0.00235805
0.00236787
0.00236787
0.00236787
0.00238954
0.00238954
0.00238954
0.00238757
0.00238757
0.00238757
0.00239949
0.00239949
0.00239949
0.00243363
0.00243363
0.00243363
0.00242152
0.00242152
0.00242152
0.00231919
0.00231919
0.00231919
0.0023096
0.0023096
0.0023096
0.00271094
0.00271094
0.00271094
0.00276258
0.00276258
0.00276258
0.00235429
0.00235429
0.00235429
0.0023744
0.0023744
0.0023744
0.00239617
0.00239617
0.00239617
0.00236428
0.00236428
0.00236428
0.00376803
0.00376803
0.00376803
0.00384334
0.00384334
0.00384334
0.00397466
0.00397466
0.00397466
0.00397645
0.00397645
0.00397645
0.00395446
0.00395446
0.00395446
0.0038519
0.0038519
0.0038519
0.00391265
0.00391265
0.00391265
0.00389283
0.00389283
0.00389283
0.00395255
0.00395255
0.00395255
0.00402348
0.00402348
0.00402348
0.00391989
0.00391989
0.00391989
0.00387871
0.00387871
0.00387871
0.00417832
0.00417832
0.00417832
0.00406973
0.00406973
0.00406973
0.00411376
0.00411376
0.00411376
0.00413342
0.00413342
0.00413342
0.00398348
0.00398348
0.00398348
0.0040791
0.0040791
0.0040791
0.00412328
0.00412328
0.00412328
0.00344108
0.00344108
0.00344108
0.00345898
0.00345898
0.00345898
0.00344184
0.00344184
0.00344184
0.00354879
0.00354879
0.00354879
0.00351264
0.00351264
0.00351264
0.00356666
0.00356666
0.00356666
0.00354799
0.00354799
0.00354799
0.00349437
0.00349437
0.00349437
0.00351185
0.00351185
0.00351185
0.00330526
0.00330526
0.00330526
0.0033376
0.0033376
0.0033376
0.00332297
0.00332297
0.00332297
0.00328975
0.00328975
0.00328975
0.00330597
0.00330597
0.00330597
0.00251559
0.00251559
0.00251559
0.00269582
0.00269582
0.00269582
0.00264571
0.00264571
0.00264571
0.00276644
0.00276644
0.00276644
0.00279278
0.00279278
0.00279278
0.00278888
0.00278888
0.00278888
0.00286973
0.00286973
0.00286973
0.00289722
0.00289722
0.00289722
0.00271088
0.00271088
0.00271088
0.00268494
0.00268494
0.00268494
0.00265985
0.00265985
0.00265985
0.00268538
0.00268538
0.00268538
0.00269785
0.00269785
0.00269785
0.00268361
0.00268361
0.00268361
0.00265855
0.00265855
0.00265855
0.0026225
0.0026225
0.0026225
0.00264715
0.00264715
0.00264715
0.00265927
0.00265927
0.00265927
0.00264651
0.00264651
0.00264651
0.00253472
0.00253472
0.00253472
0.00356576
0.00356576
0.00356576
0.00360266
0.00360266
0.00360266
0.00325577
0.00325577
0.00325577
0.00323918
0.00323918
0.00323918
0.00328836
0.00328836
0.00328836
0.00330435
0.00330435
0.00330435
0.00319092
0.00319092
0.00319092
0.00295359
0.00295359
0.00295359
0.00293906
0.00293906
0.00293906
0.00292517
0.00292517
0.00292517
0.00292467
0.00292467
0.00292467
0.00293846
0.00293846
0.00293846
0.00309987
0.00309987
0.00309987
0.00306974
0.00306974
0.00306974
0.00296518
0.00296518
0.00296518
0.00316056
0.00316056
0.00316056
0.00309914
0.00309914
0.00309914
0.00314546
0.00314546
0.00314546
0.00311475
0.00311475
0.00311475
0.00263405
0.00263405
0.00263405
0.00265873
0.00265873
0.00265873
0.00276622
0.00276622
0.00276622
0.00266348
0.00266348
0.00266348
0.00267867
0.00267867
0.00267867
0.002745
0.002745
0.002745
0.00271934
0.00271934
0.00271934
0.00276073
0.00276073
0.00276073
0.00275051
0.00275051
0.00275051
0.00275588
0.00275588
0.00275588
0.00273008
0.00273008
0.00273008
0.0025849
0.0025849
0.0025849
0.00256112
0.00256112
0.00256112
0.00307356
0.00307356
0.00307356
0.00305574
0.00305574
0.00305574
0.00306768
0.00306768
0.00306768
0.00309772
0.00309772
0.00309772
0.00311592
0.00311592
0.00311592
0.00310369
0.00310369
0.00310369
0.00308478
0.00308478
0.00308478
0.00311507
0.00311507
0.00311507
0.00312048
0.00312048
0.00312048
0.00313311
0.00313311
0.00313311
0.00302537
0.00302537
0.00302537
0.00298437
0.00298437
0.00298437
0.00299624
0.00299624
0.00299624
0.00316948
0.00316948
0.00316948
0.00318242
0.00318242
0.00318242
0.0031878
0.0031878
0.0031878
0.00335968
0.00335968
0.00335968
0.00339367
0.00339367
0.00339367
0.00318954
0.00318954
0.00318954
0.00312569
0.00312569
0.00312569
0.00312077
0.00312077
0.00312077
0.00313266
0.00313266
0.00313266
0.0031395
0.0031395
0.0031395
0.00317048
0.00317048
0.00317048
0.00327115
0.00327115
0.00327115
0.00331672
0.00331672
0.00331672
0.0033039
0.0033039
0.0033039
0.00342615
0.00342615
0.00342615
0.00351019
0.00351019
0.00351019
0.0034746
0.0034746
0.0034746
0.00346106
0.00346106
0.00346106
0.00348264
0.00348264
0.00348264
0.00359938
0.00359938
0.00359938
0.00391459
0.00391459
0.00391459
0.00394771
0.00394771
0.00394771
0.00390592
0.00390592
0.00390592
0.0038896
0.0038896
0.0038896
0.00389809
0.00389809
0.00389809
0.00390631
0.00390631
0.00390631
0.00392301
0.00392301
0.00392301
0.00385705
0.00385705
0.00385705
0.003897
0.003897
0.003897
0.0039551
0.0039551
0.0039551
0.00393866
0.00393866
0.00393866
0.00387192
0.00387192
0.00387192
0.00378426
0.00378426
0.00378426
0.00382422
0.00382422
0.00382422
0.00384869
0.00384869
0.00384869
0.00383264
0.00383264
0.00383264
0.00358287
0.00358287
0.00358287
0.00361998
0.00361998
0.00361998
0.00365141
0.00365141
0.00365141
0.00368944
0.00368944
0.00368944
0.00364304
0.00364304
0.00364304
0.00362842
0.00362842
0.00362842
0.00291745
0.00291745
0.00291745
0.00297402
0.00297402
0.00297402
0.00296265
0.00296265
0.00296265
0.00293432
0.00293432
0.00293432
0.00296804
0.00296804
0.00296804
0.00291163
0.00291163
0.00291163
0.00295679
0.00295679
0.00295679
0.00292855
0.00292855
0.00292855
0.00295077
0.00295077
0.00295077
0.0029226
0.0029226
0.0029226
0.00284589
0.00284589
0.00284589
0.0028731
0.0028731
0.0028731
0.00288395
0.00288395
0.00288395
0.0028296
0.0028296
0.0028296
0.00284018
0.00284018
0.00284018
0.00286732
0.00286732
0.00286732
0.00308526
0.00308526
0.00308526
0.00306162
0.00306162
0.00306162
0.00309158
0.00309158
0.00309158
0.00310354
0.00310354
0.00310354
0.00304371
0.00304371
0.00304371
0.00305538
0.00305538
0.00305538
0.00304242
0.00304242
0.00304242
0.00303097
0.00303097
0.00303097
0.00302433
0.00302433
0.00302433
0.00299526
0.00299526
0.00299526
0.0030018
0.0030018
0.0030018
0.00298417
0.00298417
0.00298417
0.00307659
0.00307659
0.00307659
0.0030585
0.0030585
0.0030585
0.00308621
0.00308621
0.00308621
0.00311867
0.00311867
0.00311867
0.00310672
0.00310672
0.00310672
0.00290565
0.00290565
0.00290565
0.00287805
0.00287805
0.00287805
0.00289952
0.00289952
0.00289952
0.00291649
0.00291649
0.00291649
0.002872
0.002872
0.002872
0.00286137
0.00286137
0.00286137
0.00278551
0.00278551
0.00278551
0.0027753
0.0027753
0.0027753
0.00281196
0.00281196
0.00281196
0.00282827
0.00282827
0.00282827
0.00281797
0.00281797
0.00281797
0.00279144
0.00279144
0.00279144
0.00265235
0.00265235
0.00265235
0.00266734
0.00266734
0.00266734
0.00275164
0.00275164
0.00275164
0.00267541
0.00267541
0.00267541
0.00405694
0.00405694
0.00405694
0.00392941
0.00392941
0.00392941
0.0038879
0.0038879
0.0038879
0.00381333
0.00381333
0.00381333
0.00385361
0.00385361
0.00385361
0.00382234
0.00382234
0.00382234
0.00379791
0.00379791
0.00379791
0.00386281
0.00386281
0.00386281
0.00387867
0.00387867
0.00387867
0.00377577
0.00377577
0.00377577
0.00380679
0.00380679
0.00380679
0.00376712
0.00376712
0.00376712
0.00375179
0.00375179
0.00375179
0.00383128
0.00383128
0.00383128
0.00381558
0.00381558
0.00381558
0.00373441
0.00373441
0.00373441
0.00369576