<VTKFile type="UnstructuredGrid" version="1.0">
<UnstructuredGrid>
<Piece NumberOfPoints="8859" NumberOfCells="2953">
<Points>
<DataArray type="Float64" NumberOfComponents="3" format="ascii">
2.75455 1.50245 8.22762
2.76986 1.48714 8.23958
2.75465 1.50235 8.25333
2.78515 1.47185 8.17667
2.78516 1.47184 8.15152
2.8005 1.4565 8.16398
2.76981 1.48719 8.18936
2.78515 1.47185 8.17667
2.78514 1.47186 8.20186
2.72412 1.53288 8.27988
2.73952 1.51748 8.2875
2.70875 1.54825 8.2875
2.72412 1.53288 8.27988
2.73943 1.51757 8.26457
2.73952 1.51748 8.2875
2.75488 1.50212 8.27979
2.77036 1.48664 8.2875
2.73952 1.51748 8.2875
2.75488 1.50212 8.27979
2.73943 1.51757 8.26457
2.75465 1.50235 8.25333
2.73952 1.51748 8.2875
2.73943 1.51757 8.26457
2.75488 1.50212 8.27979
2.75465 1.50235 8.25333
2.76986 1.48714 8.23958
2.76997 1.48703 8.26427
2.76997 1.48703 8.26427
2.75488 1.50212 8.27979
2.75465 1.50235 8.25333
2.77036 1.48664 8.2875
2.75488 1.50212 8.27979
2.76997 1.48703 8.26427
2.76986 1.48714 8.23958
2.75455 1.50245 8.22762
2.76982 1.48718 8.21452
2.76981 1.48719 8.18936
2.78514 1.47186 8.20186
2.76982 1.48718 8.21452
2.7852 1.4718 8.25262
2.76997 1.48703 8.26427
2.76986 1.48714 8.23958
2.8005 1.4565 8.23895
2.8005 1.4565 8.26355
2.7852 1.4718 8.25262
2.8005 1.4565 8.13887
2.8005 1.4565 8.16398
2.78516 1.47184 8.15152
2.78515 1.47185 8.17667
2.8005 1.4565 8.16398
2.8005 1.4565 8.18906
2.8005 1.4565 8.18906
2.78514 1.47186 8.20186
2.78515 1.47185 8.17667
2.8005 1.4565 7.61152
2.8005 1.4565 7.63665
2.78518 1.47182 7.62407
2.78517 1.47183 8.07607
2.8005 1.4565 8.08861
2.78517 1.47183 8.10121
2.8005 1.4565 8.06348
2.8005 1.4565 8.08861
2.78517 1.47183 8.07607
2.78519 1.47181 7.95044
2.8005 1.4565 7.96299
2.78519 1.47181 7.97555
2.32274 1.93426 7.39559
2.33845 1.91855 7.3875
2.33845 1.91855 7.41063
2.27541 1.98159 8.2875
2.24359 2.01341 8.2875
2.25954 1.99746 8.27932
2.78515 1.47185 8.22712
2.76982 1.48718 8.21452
2.78514 1.47186 8.20186
2.76986 1.48714 8.23958
2.76982 1.48718 8.21452
2.78515 1.47185 8.22712
2.78515 1.47185 8.22712
2.7852 1.4718 8.25262
2.76986 1.48714 8.23958
2.8005 1.4565 8.23895
2.7852 1.4718 8.25262
2.78515 1.47185 8.22712
2.78544 1.47156 8.27884
2.8005 1.4565 8.26355
2.8005 1.4565 8.2875
2.78544 1.47156 8.27884
2.7852 1.4718 8.25262
2.8005 1.4565 8.26355
2.8005 1.4565 8.2875
2.77036 1.48664 8.2875
2.78544 1.47156 8.27884
2.77036 1.48664 8.2875
2.76997 1.48703 8.26427
2.78544 1.47156 8.27884
2.76997 1.48703 8.26427
2.7852 1.4718 8.25262
2.78544 1.47156 8.27884
2.78517 1.47183 8.10121
2.8005 1.4565 8.08861
2.8005 1.4565 8.11374
2.78514 1.47186 8.20186
2.8005 1.4565 8.18906
2.8005 1.4565 8.21407
2.8005 1.4565 8.23895
2.78515 1.47185 8.22712
2.8005 1.4565 8.21407
2.8005 1.4565 8.21407
2.78515 1.47185 8.22712
2.78514 1.47186 8.20186
2.8005 1.4565 7.93788
2.8005 1.4565 7.96299
2.78519 1.47181 7.95044
2.78518 1.47182 7.62407
2.8005 1.4565 7.63665
2.78518 1.47182 7.6492
2.76985 1.48715 8.06353
2.75454 1.50246 8.05098
2.76986 1.48714 8.03838
2.78516 1.47184 8.12636
2.8005 1.4565 8.13887
2.78516 1.47184 8.15152
2.78516 1.47184 8.12636
2.8005 1.4565 8.11374
2.8005 1.4565 8.13887
2.78516 1.47184 8.12636
2.76984 1.48716 8.11384
2.78517 1.47183 8.10121
2.78517 1.47183 8.10121
2.8005 1.4565 8.11374
2.78516 1.47184 8.12636
2.76982 1.48718 8.16418
2.78515 1.47185 8.17667
2.76981 1.48719 8.18936
2.76982 1.48718 8.16418
2.78516 1.47184 8.15152
2.78515 1.47185 8.17667
2.75451 1.50249 8.12649
2.7392 1.5178 8.13915
2.73921 1.51779 8.11394
2.53996 1.71704 8.25338
2.52458 1.73242 8.2399
2.53996 1.71704 8.22775
2.49374 1.76326 8.0888
2.49375 1.76325 8.114
2.47832 1.77868 8.10139
2.8005 1.4565 7.3875
2.8005 1.4565 7.41145
2.78544 1.47156 7.39616
2.27543 1.98157 8.26433
2.27541 1.98159 8.2875
2.25954 1.99746 8.27932
2.33845 1.91855 8.18946
2.32276 1.93424 8.20214
2.32275 1.93425 8.17685
2.25954 1.99746 8.27932
2.24359 2.01341 8.2875
2.24374 2.01326 8.26423
2.76987 1.48713 7.712
2.75455 1.50245 7.69943
2.76987 1.48713 7.68688
2.8005 1.4565 7.86259
2.78519 1.47181 7.85005
2.8005 1.4565 7.8375
2.78519 1.47181 7.90024
2.8005 1.4565 7.88769
2.8005 1.4565 7.91278
2.76988 1.48712 7.81241
2.75456 1.50244 7.82495
2.75456 1.50244 7.79986
2.76988 1.48712 7.8375
2.75456 1.50244 7.82495
2.76988 1.48712 7.81241
2.78519 1.47181 7.85005
2.76988 1.48712 7.86259
2.76988 1.48712 7.8375
2.75455 1.50245 7.97557
2.76987 1.48713 7.98812
2.75455 1.50245 8.0007
2.72393 1.53307 7.95047
2.72392 1.53308 7.97559
2.70861 1.54839 7.96303
2.75456 1.50244 7.95045
2.73924 1.51776 7.9379
2.75456 1.50244 7.92535
2.75456 1.50244 7.92535
2.76987 1.48713 7.93789
2.75456 1.50244 7.95045
2.73924 1.51776 7.9379
2.73925 1.51775 7.9128
2.75456 1.50244 7.92535
2.75456 1.50244 7.92535
2.73925 1.51775 7.9128
2.75456 1.50244 7.90024
2.8005 1.4565 7.91278
2.8005 1.4565 7.93788
2.78519 1.47181 7.92534
2.78519 1.47181 7.92534
2.78519 1.47181 7.90024
2.8005 1.4565 7.91278
2.78519 1.47181 7.92534
2.8005 1.4565 7.93788
2.78519 1.47181 7.95044
2.78519 1.47181 7.95044
2.76987 1.48713 7.93789
2.78519 1.47181 7.92534
2.75454 1.50246 8.02583
2.73923 1.51777 8.01328
2.75455 1.50245 8.0007
2.75454 1.50246 8.02583
2.76986 1.48714 8.03838
2.75454 1.50246 8.05098
2.7086 1.5484 8.0133
2.72392 1.53308 8.00072
2.72392 1.53308 8.02586
2.72392 1.53308 8.02586
2.72392 1.53308 8.00072
2.73923 1.51777 8.01328
2.8005 1.4565 7.9881
2.78519 1.47181 7.97555
2.8005 1.4565 7.96299
2.75455 1.50245 8.0007
2.76987 1.48713 7.98812
2.76986 1.48714 8.01325
2.76986 1.48714 8.01325
2.75454 1.50246 8.02583
2.75455 1.50245 8.0007
2.76986 1.48714 8.03838
2.75454 1.50246 8.02583
2.76986 1.48714 8.01325
2.78517 1.47183 8.10121
2.76984 1.48716 8.11384
2.76985 1.48715 8.08868
2.76985 1.48715 8.08868
2.78517 1.47183 8.07607
2.78517 1.47183 8.10121
2.76985 1.48715 8.06353
2.78517 1.47183 8.07607
2.76985 1.48715 8.08868
2.73921 1.51779 8.11394
2.73921 1.51779 8.08875
2.75452 1.50248 8.1013
2.75452 1.50248 8.1013
2.75451 1.50249 8.12649
2.73921 1.51779 8.11394
2.76984 1.48716 8.11384
2.75451 1.50249 8.12649
2.75452 1.50248 8.1013
2.75452 1.50248 8.1013
2.76985 1.48715 8.08868
2.76984 1.48716 8.11384
2.7239 1.5331 8.10138
2.73921 1.51779 8.08875
2.73921 1.51779 8.11394
2.7239 1.5331 8.10138
2.70859 1.54841 8.11401
2.70859 1.54841 8.08881
2.76981 1.48719 8.18936
2.76982 1.48718 8.21452
2.75451 1.50249 8.20222
2.75451 1.50249 8.20222
2.76982 1.48718 8.21452
2.75455 1.50245 8.22762
2.7392 1.5178 8.13915
2.75451 1.50249 8.12649
2.75451 1.50249 8.15169
2.75451 1.50249 8.15169
2.7392 1.5178 8.16437
2.7392 1.5178 8.13915
2.67798 1.57902 7.98817
2.66266 1.59434 8.00075
2.66266 1.59434 7.97561
2.70859 1.54841 8.08881
2.70859 1.54841 8.06362
2.7239 1.5331 8.07619
2.7239 1.5331 8.07619
2.7239 1.5331 8.10138
2.70859 1.54841 8.08881
2.73921 1.51779 8.08875
2.7239 1.5331 8.10138
2.7239 1.5331 8.07619
2.73922 1.51778 8.06358
2.73921 1.51779 8.08875
2.7239 1.5331 8.07619
2.57068 1.68632 8.22776
2.57068 1.68632 8.25339
2.55533 1.70167 8.23991
2.55533 1.70167 8.23991
2.57068 1.68632 8.25339
2.55533 1.70167 8.2645
2.55533 1.70167 8.23991
2.55533 1.70167 8.2645
2.53996 1.71704 8.25338
2.53996 1.71704 8.25338
2.53996 1.71704 8.22775
2.55533 1.70167 8.23991
2.52458 1.73242 8.21484
2.53996 1.71704 8.22775
2.52458 1.73242 8.2399
2.50912 1.74788 7.85005
2.50912 1.74788 7.87515
2.49371 1.76329 7.8626
2.41633 1.84067 7.97556
2.40077 1.85623 7.963
2.41632 1.84068 7.95045
2.41635 1.84065 8.02583
2.40081 1.85619 8.03839
2.40079 1.85621 8.01325
2.33845 1.91855 8.18946
2.32275 1.93425 8.17685
2.33843 1.91857 8.16424
2.33845 1.91855 8.21466
2.32276 1.93424 8.20214
2.33845 1.91855 8.18946
2.40087 1.85613 8.13912
2.40088 1.85612 8.16434
2.38531 1.87169 8.15172
2.30693 1.95007 8.08858
2.32265 1.93435 8.07603
2.32267 1.93433 8.1012
2.30684 1.95016 7.98803
2.29108 1.96592 8.00056
2.29106 1.96594 7.97546
2.32274 1.93426 8.27941
2.33845 1.91855 8.2875
2.30701 1.94999 8.2875
2.33845 1.91855 8.26437
2.33845 1.91855 8.2875
2.32274 1.93426 8.27941
2.35411 1.90289 8.27947
2.33845 1.91855 8.2875
2.33845 1.91855 8.26437
2.30704 1.94996 8.21461
2.30703 1.94997 8.23969
2.29128 1.96572 8.22746
2.55533 1.70167 8.2875
2.52458 1.73242 8.2875
2.53996 1.71704 8.27972
2.53996 1.71704 8.25338
2.55533 1.70167 8.2645
2.53996 1.71704 8.27972
2.53996 1.71704 8.27972
2.55533 1.70167 8.2645
2.55533 1.70167 8.2875
2.52458 1.73242 8.26449
2.52458 1.73242 8.2399
2.53996 1.71704 8.25338
2.53996 1.71704 8.25338
2.53996 1.71704 8.27972
2.52458 1.73242 8.26449
2.52458 1.73242 8.26449
2.53996 1.71704 8.27972
2.52458 1.73242 8.2875
2.41642 1.84058 8.15176
2.40088 1.85612 8.16434
2.40087 1.85613 8.13912
2.47831 1.77869 8.0762
2.49374 1.76326 8.06362
2.49374 1.76326 8.0888
2.49374 1.76326 8.0888
2.47832 1.77868 8.10139
2.47831 1.77869 8.0762
2.47833 1.77867 8.1266
2.47832 1.77868 8.10139
2.49375 1.76325 8.114
2.47833 1.77867 8.1266
2.49375 1.76325 8.114
2.49376 1.76324 8.13921
2.49376 1.76324 8.13921
2.47834 1.77866 8.15182
2.47833 1.77867 8.1266
2.47833 1.77867 8.1266
2.47834 1.77866 8.15182
2.46289 1.79411 8.13919
2.49377 1.76323 8.16443
2.47834 1.77866 8.15182
2.49376 1.76324 8.13921
2.49377 1.76323 8.18964
2.47835 1.77865 8.20234
2.47834 1.77866 8.17706
2.47834 1.77866 8.17706
2.49377 1.76323 8.16443
2.49377 1.76323 8.18964
2.47834 1.77866 8.15182
2.49377 1.76323 8.16443
2.47834 1.77866 8.17706
2.7852 1.4718 7.42238
2.78544 1.47156 7.39616
2.8005 1.4565 7.41145
2.76997 1.48703 7.41073
2.78544 1.47156 7.39616
2.7852 1.4718 7.42238
2.64739 1.60961 7.41048
2.64738 1.60962 7.3875
2.66272 1.59428 7.39521
2.70875 1.54825 7.3875
2.6934 1.5636 7.39517
2.67805 1.57895 7.3875
2.67805 1.57895 7.3875
2.66272 1.59428 7.39521
2.64738 1.60962 7.3875
2.19638 2.06062 7.42397
2.1963 2.0607 7.39786
2.2122 2.0448 7.41145
2.2122 2.0448 7.41145
2.22771 2.02929 7.39601
2.22802 2.02898 7.42245
2.18073 2.07627 7.41282
2.1963 2.0607 7.39786
2.19638 2.06062 7.42397
2.18073 2.07627 7.41282
2.18123 2.07577 7.3875
2.1963 2.0607 7.39786
2.27543 1.98157 7.41067
2.27541 1.98159 7.3875
2.29123 1.96577 7.39563
2.30701 1.94999 7.3875
[...]
<PointData Scalars="View Factor" >
<DataArray type="Float64" Name="View Factor" NumberOfComponents="1" format="ascii">
0.00309665
0.00309665
0.00309665
0.00306574
0.00306574
0.00306574
0.00307601
0.00307601
0.00307601
0.00303661
0.00303661
0.00303661
0.00306524
0.00306524
0.00306524
0.00317102
0.00317102
0.00317102
0.00310768
0.00310768
0.00310768
0.00310972
0.00310972
0.00310972
0.00314429
0.00314429
0.00314429
0.0031514
0.0031514
0.0031514
0.00319859
0.00319859
0.00319859
0.00309106
0.00309106
0.00309106
0.00308094
0.00308094
0.00308094
0.00318732
0.00318732
0.00318732
0.00327355
0.00327355
0.00327355
0.00306053
0.00306053
0.00306053
0.00311223
0.00311223
0.00311223
0.00311769
0.00311769
0.00311769
0.00218385
0.00218385
0.00218385
0.00291624
0.00291624
0.00291624
0.00291156
0.00291156
0.00291156
0.00268662
0.00268662
0.00268662
0.00099787
0.00099787
0.00099787
0.00171254
0.00171254
0.00171254
0.00312837
0.00312837
0.00312837
0.00313356
0.00313356
0.00313356
0.00318223
0.00318223
0.00318223
0.00322509
0.00322509
0.00322509
0.00332964
0.00332964
0.00332964
0.00328143
0.00328143
0.00328143
0.00330389
0.00330389
0.00330389
0.00324221
0.00324221
0.00324221
0.00323804
0.00323804
0.00323804
0.00296021
0.00296021
0.00296021
0.00316495
0.00316495
0.00316495
0.00321871
0.00321871
0.00321871
0.00317067
0.00317067
0.00317067
0.00268267
0.00268267
0.00268267
0.00218632
0.00218632
0.00218632
0.00274986
0.00274986
0.00274986
0.00301485
0.00301485
0.00301485
0.00300986
0.00300986
0.00300986
0.0029254
0.0029254
0.0029254
0.00296509
0.00296509
0.00296509
0.00302956
0.00302956
0.00302956
0.00302471
0.00302471
0.00302471
0.00280997
0.00280997
0.00280997
0.00215486
0.00215486
0.00215486
0.00179415
0.00179415
0.00179415
0.00190501
0.00190501
0.00190501
0.00170367
0.00170367
0.00170367
0.00161453
0.00161453
0.00161453
0.00170468
0.00170468
0.00170468
0.00219748
0.00219748
0.00219748
0.00251551
0.00251551
0.00251551
0.00259742
0.00259742
0.00259742
0.0023425
0.0023425
0.0023425
0.00237755
0.00237755
0.00237755
0.0024489
0.0024489
0.0024489
0.0026213
0.0026213
0.0026213
0.00243587
0.00243587
0.00243587
0.00250239
0.00250239
0.00250239
0.00253762
0.00253762
0.00253762
0.00246486
0.00246486
0.00246486
0.00246238
0.00246238
0.00246238
0.00263962
0.00263962
0.00263962
0.00260103
0.00260103
0.00260103
0.00264339
0.00264339
0.00264339
0.00260812
0.00260812
0.00260812
0.00262736
0.00262736
0.00262736
0.00270847
0.00270847
0.00270847
0.00251646
0.00251646
0.00251646
0.00255342
0.00255342
0.00255342
0.0027266
0.0027266
0.0027266
0.00266109
0.00266109
0.00266109
0.00266439
0.00266439
0.00266439
0.00270497
0.00270497
0.00270497
0.00288154
0.00288154
0.00288154
0.00287722
0.00287722
0.00287722
0.00283414
0.00283414
0.00283414
0.00276369
0.00276369
0.00276369
0.00280653
0.00280653
0.00280653
0.00284613
0.00284613
0.00284613
0.00284223
0.00284223
0.00284223
0.00272446
0.00272446
0.00272446
0.00264601
0.00264601
0.00264601
0.00303903
0.00303903
0.00303903
0.00304403
0.00304403
0.00304403
0.00285368
0.00285368
0.00285368
0.00285736
0.00285736
0.00285736
0.00229445
0.00229445
0.00229445
0.00260262
0.00260262
0.00260262
0.00264361
0.00264361
0.00264361
0.00268247
0.00268247
0.00268247
0.00267967
0.00267967
0.00267967
0.0022818
0.0022818
0.0022818
0.00227921
0.00227921
0.00227921
0.00223649
0.00223649
0.00223649
0.00219711
0.00219711
0.00219711
0.00211557
0.00211557
0.00211557
0.00158938
0.00158938
0.00158938
0.0014172
0.0014172
0.0014172
0.00147307
0.00147307
0.00147307
0.00160235
0.00160235
0.00160235
0.00162859
0.00162859
0.00162859
0.00159334
0.00159334
0.00159334
0.00151256
0.00151256
0.00151256
0.00141869
0.00141869
0.00141869
0.00171645
0.00171645
0.00171645
0.00170981
0.00170981
0.00170981
0.00171217
0.00171217
0.00171217
0.00165094
0.00165094
0.00165094
0.00224165
0.00224165
0.00224165
0.00223488
0.00223488
0.00223488
0.00227363
0.00227363
0.00227363
0.00215127
0.00215127
0.00215127
0.00219188
0.00219188
0.00219188
0.00218695
0.00218695
0.00218695
0.00159725
0.00159725
0.00159725
0.00176508
0.00176508
0.00176508
0.00176061
0.00176061
0.00176061
0.00178967
0.00178967
0.00178967
0.00182382
0.00182382
0.00182382
0.00181937
0.00181937
0.00181937
0.0017803
0.0017803
0.0017803
0.00185418
0.00185418
0.00185418
0.00188064
0.00188064
0.00188064
0.00188511
0.00188511
0.00188511
0.0018497
0.0018497
0.0018497
0.0019057
0.0019057
0.0019057
0.00188032
0.00188032
0.00188032
0.00155538
0.00155538
0.00155538
0.00164729
0.00164729
0.00164729
0.00157308
0.00157308
0.00157308
0.00101416
0.00101416
0.00101416
0.00101023
0.00101023
0.00101023
0.00101634
0.00101634
0.00101634
0.0010103
0.0010103
0.0010103
0.000997997
0.000997997
0.000997997
0.000993119
0.000993119
0.000993119
0.000993249
0.000993249
0.000993249
0.00111773
0.00111773
0.00111773
0.00112473
0.00112473
0.00112473
0.00170622
0.00170622
0.00170622
0.00166423
0.00166423
0.00166423
0.00167793
0.00167793
0.00167793
0.00140753
0.00140753
0.00140753
0.00141849
0.00141849
0.00141849
0.0015599
0.0015599
0.0015599
0.00215273
0.00215273
0.00215273
0.00243676
0.00243676
0.00243676
0.00226745
0.00226745
0.00226745
0.00226965
0.00226965
0.00226965
0.00223215
0.00223215
0.00223215
0.00223425
0.00223425
0.00223425
0.00220335
0.00220335
0.00220335
0.00217086
0.00217086
0.00217086
0.00216909
0.00216909
0.00216909
0.0021995
0.0021995
0.0021995
0.00130875
0.00130875
0.00130875
0.0013052
0.0013052
0.0013052
0.00127851
0.00127851
0.00127851
0.00213719
0.00213719
0.00213719
0.00221795
0.00221795
0.00221795
0.002222
0.002222
0.002222
0.00215101
0.00215101
0.00215101
0.00236446
0.00236446
0.00236446
0.00208338
0.00208338
0.00208338
0.00215106
0.00215106
0.00215106
0.0021174
0.0021174
0.0021174
0.00208411
0.00208411
0.00208411
0.00208399
0.00208399
0.00208399
0.00231006
0.00231006
0.00231006
0.00247575
0.00247575
0.00247575
0.00247902
0.00247902
0.00247902
0.002446
0.002446
0.002446
0.00241028
0.00241028
0.00241028
0.00240743
0.00240743
0.00240743
0.00243991
0.00243991
0.00243991
0.00185388
0.00185388
0.00185388
0.00185552
0.00185552
0.00185552
0.0020189
0.0020189
0.0020189
0.00205127
0.00205127
0.00205127
0.00205108
0.00205108
0.00205108
0.00201811
0.00201811
0.00201811
0.00182651
0.00182651
0.00182651
0.0017964
0.0017964
0.0017964
0.0017926
0.0017926
0.0017926
0.0018248
0.0018248
0.0018248
0.00198647
0.00198647
0.00198647
0.00198588
0.00198588
0.00198588
0.0026543
0.0026543
0.0026543
0.00261815
0.00261815
0.00261815
0.00257906
0.00257906
0.00257906
0.00265075
0.00265075
0.00265075
0.00261154
0.00261154
0.00261154
0.00257599
0.00257599
0.00257599
0.00247162
0.00247162
0.00247162
0.00254325
0.00254325
0.00254325
0.00250492
0.00250492
0.00250492
0.00246943
0.00246943
0.00246943
0.00228946
0.00228946
0.00228946
0.00232261
0.00232261
0.00232261
0.00228835
0.00228835
0.00228835
0.00256634
0.00256634
0.00256634
0.0024942
0.0024942
0.0024942
0.00252858
0.00252858
0.00252858
0.00249703
0.00249703
0.00249703
0.0025347
0.0025347
0.0025347
0.00256966
0.00256966
0.00256966
0.00258771
0.00258771
0.00258771
0.00255101
0.00255101
0.00255101
0.0025121
0.0025121
0.0025121
0.00258488
0.00258488
0.00258488
0.00250978
0.00250978
0.00250978
0.00254586
0.00254586
0.00254586
0.00247576
0.00247576
0.00247576
0.00243771
0.00243771
0.00243771
0.00240171
0.00240171
0.00240171
0.0024777
0.0024777
0.0024777
0.00263031
0.00263031
0.00263031
0.002593
0.002593
0.002593
0.00267082
0.00267082
0.00267082
0.00267387
0.00267387
0.00267387
0.00251843
0.00251843
0.00251843
0.00269412
0.00269412
0.00269412
0.0027306
0.0027306
0.0027306
0.00277144
0.00277144
0.00277144
0.00269784
0.00269784
0.00269784
0.00286389
0.00286389
0.00286389
0.00278787
0.00278787
0.00278787
0.00286841
0.00286841
0.00286841
0.00283004
0.00283004
0.00283004
0.00281719
0.00281719
0.00281719
0.00277571
0.00277571
0.00277571
0.00273862
0.00273862
0.00273862
0.00274235
0.00274235
0.00274235
0.0027838
0.0027838
0.0027838
0.00282152
0.00282152
0.00282152
0.00271825
0.00271825
0.00271825
0.00279549
0.00279549
0.00279549
0.00276031
0.00276031
0.00276031
0.00279926
0.00279926
0.00279926
0.00271505
0.00271505
0.00271505
0.00275335
0.00275335
0.00275335
0.00277008
0.00277008
0.00277008
0.00272741
0.00272741
0.00272741
0.00268789
0.00268789
0.00268789
0.00298828
0.00298828
0.00298828
0.00290573
0.00290573
0.00290573
0.00294277
0.00294277
0.00294277
0.00290186
0.00290186
0.00290186
0.00299275
0.00299275
0.00299275
0.00295118
0.00295118
0.00295118
0.0030577
0.0030577
0.0030577
0.00305373
0.00305373
0.00305373
0.0030197
0.0030197
0.0030197
0.00301428
0.00301428
0.00301428
0.00296771
0.00296771
0.00296771
0.00295531
0.00295531
0.00295531
0.00296335
0.00296335
0.00296335
0.0030018
0.0030018
0.0030018
0.00300598
0.00300598
0.00300598
0.00289393
0.00289393
0.00289393
0.00297449
0.00297449
0.00297449
0.00297915
0.00297915
0.00297915
0.00293852
0.00293852
0.00293852
0.00292979
0.00292979
0.00292979
0.00288982
0.00288982
0.00288982
0.00200946
0.00200946
0.00200946
0.00197584
0.00197584
0.00197584
0.00211555
0.00211555
0.00211555
0.00204478
0.00204478
0.00204478
0.00233141
0.00233141
0.00233141
0.00237268
0.00237268
0.00237268
0.00231709
0.00231709
0.00231709
0.00232111
0.00232111
0.00232111
0.00158554
0.00158554
0.00158554
0.00162205
0.00162205
0.00162205
0.00179057
0.00179057
0.00179057
0.00182114
0.00182114
0.00182114
0.00140439
0.00140439
0.00140439
0.00148482
0.00148482
0.00148482
0.00142685
0.00142685
0.00142685
0.00136051
0.00136051
0.00136051
0.00136859
0.00136859
0.00136859
0.00135877
0.00135877
0.00135877
0.00158859
0.00158859
0.00158859
0.00164108
0.00164108
0.00164108
0.00163947
0.00163947
0.00163947
0.00165206
0.00165206
0.00165206
0.00160439
0.00160439
0.00160439
0.0015926
0.0015926
0.0015926
0.00160949
0.00160949
0.00160949
0.0015951
0.0015951
0.0015951
0.00153316
0.00153316
0.00153316
0.00153592
0.00153592
0.00153592
0.00152859
0.00152859
0.00152859
0.00152678
0.00152678
0.00152678
0.00151386
0.00151386
0.00151386
0.00148739
0.00148739
0.00148739
0.00158647
0.00158647
0.00158647
0.00158353
0.00158353
0.00158353
0.00150005
0.00150005
0.00150005
0.00148871
0.00148871
0.00148871
0.00146652
0.00146652
0.00146652
0.00140787
0.00140787
0.00140787
0.00172348
0.00172348
0.00172348
0.001734
0.001734
0.001734
0.00161298
0.00161298
0.00161298
0.00162544
0.00162544
0.00162544
0.00211136
0.00211136
0.00211136
0.0021437
0.0021437
0.0021437
0.00164102
0.00164102
0.00164102
0.00163626
0.00163626
0.00163626
0.00177349
0.00177349
0.00177349
0.00185028
0.00185028
0.00185028
0.00174635
0.00174635
0.00174635
0.00175126
0.00175126
0.00175126
0.00184022
0.00184022
0.00184022
0.00175954
0.00175954
0.00175954
0.0018714
0.0018714
0.0018714
0.00185517
0.00185517
0.00185517
0.00175386
0.00175386
0.00175386
0.00175472
0.00175472
0.00175472
0.00172186
0.00172186
0.00172186
0.00100143
0.00100143
0.00100143
0.00100873
0.00100873
0.00100873
0.000994905
0.000994905
0.000994905
0.00100026
0.00100026
0.00100026
0.00100635
0.00100635
0.00100635
0.000998565
0.000998565
0.000998565
0.00100551
0.00100551
0.00100551
0.00101282
0.00101282
0.00101282
0.00101876
0.00101876
0.00101876
0.00102902
0.00102902
0.00102902
0.00102071
0.00102071
0.00102071
0.0010063
0.0010063
0.0010063
0.00100432
0.00100432
0.00100432
0.00100352
0.00100352
0.00100352
0.000998313
0.000998313
0.000998313
0.00108075
0.00108075
0.00108075
0.00128545
0.00128545
0.00128545
0.00109657
0.00109657
0.00109657
0.00125267
0.00125267
0.00125267
0.00123411
0.00123411
0.00123411
0.00124193
0.00124193
0.00124193
0.00122885
0.00122885
0.00122885
0.00123929
0.00123929
0.00123929
0.00116321
0.00116321
0.00116321
0.00120841
0.00120841
0.00120841
0.00133907
0.00133907
0.00133907
0.0012776
0.0012776
0.0012776
0.00128661
0.00128661
0.00128661
0.00110851
0.00110851
0.00110851
0.00110733
0.00110733
0.00110733
0.00111154
0.00111154
0.00111154
0.00111338
0.00111338
0.00111338
0.00112255
0.00112255
0.00112255
0.0011388
0.0011388
0.0011388
0.00112972
0.00112972
0.00112972
0.00111347
0.00111347
0.00111347
0.00112023
0.00112023
0.00112023
0.00126517
0.00126517
0.00126517
0.00127613
0.00127613
0.00127613
0.00130531
0.00130531
0.00130531
0.00129864
0.00129864
0.00129864
0.00128999
0.00128999
0.00128999
0.00127867
0.00127867
0.00127867
0.0014267
0.0014267
0.0014267
0.00137262
0.00137262
0.00137262
0.00126448
0.00126448
0.00126448
0.00125518
0.00125518
0.00125518
0.00169605
0.00169605
0.00169605
0.0016943
0.0016943
0.0016943
0.00167909
0.00167909
0.00167909
0.00166649
0.00166649
0.00166649
0.00170499
0.00170499
0.00170499
0.00169192
0.00169192
0.00169192
0.00171268
0.00171268
0.00171268
0.00170374
0.00170374
0.00170374
0.0016913
0.0016913
0.0016913
0.0013927
0.0013927
0.0013927
0.00141424
0.00141424
0.00141424
0.00140185
0.00140185
0.00140185
0.00142961
0.00142961
0.00142961
0.00145239
0.00145239
0.00145239
0.0014413
0.0014413
0.0014413
0.00142985
0.00142985
0.00142985
0.00143124
0.00143124
0.00143124
0.00145371
0.00145371
0.00145371
0.00144199
0.00144199
0.00144199
0.00145484
0.00145484
0.00145484
0.00154779
0.00154779
0.00154779
0.00152412
0.00152412
0.00152412
0.00151082
0.00151082
0.00151082
0.00149878
0.00149878
0.00149878
0.00155946
0.00155946
0.00155946
0.00170568
0.00170568
0.00170568
0.00171578
0.00171578
0.00171578
0.00170887
0.00170887
0.00170887
0.00166364
0.00166364
0.00166364
0.00167673
0.00167673
0.00167673
0.00169118
0.00169118
0.00169118
0.00169168
0.00169168
0.00169168
0.00167668
0.00167668
0.00167668
0.00166352
0.00166352
0.00166352
0.00172871
0.00172871
0.00172871
0.00170465
0.00170465
0.00170465
0.0016797
0.0016797
0.0016797
0.00167852
0.00167852
0.00167852
0.00160503
0.00160503
0.00160503
0.0016299
0.0016299
0.0016299
0.00165344
0.00165344
0.00165344
0.00153348
0.00153348
0.00153348
0.00188214
0.00188214
0.00188214
0.00185657
0.00185657
0.00185657
0.0017804
0.0017804
0.0017804
0.00180575
0.00180575
0.00180575
0.00230346
0.00230346
0.00230346
0.00230572
0.00230572
0.00230572
0.00234009
0.00234009
0.00234009
0.00237229
0.00237229
0.00237229
0.00236102
0.00236102
0.00236102
0.00229863
0.00229863
0.00229863
0.00223824
0.00223824
0.00223824
0.00217545
0.00217545
0.00217545
0.00217399
0.00217399
0.00217399
0.00220511
0.00220511
0.00220511
0.00155102
0.00155102
0.00155102
0.00155751
0.00155751
0.00155751
0.0014421
0.0014421
0.0014421
0.00141069
0.00141069
0.00141069
0.0013824
0.0013824
0.0013824
0.00135788
0.00135788
0.00135788
0.00141399
0.00141399
0.00141399
0.00136148
0.00136148
0.00136148
0.00138932
0.00138932
0.00138932
0.00143576
0.00143576
0.00143576
0.00137877
0.00137877
0.00137877
0.00137115
0.00137115
0.00137115
0.00109468
0.00109468
0.00109468
0.00132988
0.00132988
0.00132988
0.00112077
0.00112077
0.00112077
0.00169267
0.00169267
0.00169267
0.00156063
0.00156063
0.00156063
0.00153359
0.00153359
0.00153359
0.00154512
0.00154512
0.00154512
0.00157668
0.00157668
0.00157668
0.00157425
0.00157425
0.00157425
0.00132791
0.00132791
0.00132791
0.00153059
0.00153059
0.00153059
0.00147777
0.00147777
0.00147777
0.00145376
0.00145376
0.00145376
0.00142892
0.00142892
0.00142892
0.00140707
0.00140707
0.00140707
0.00144509
0.00144509
0.00144509
0.00150587
0.00150587
0.00150587
0.00145074
0.00145074
0.00145074
0.00216546
0.00216546
0.00216546
0.00213553
0.00213553
0.00213553
0.00171905
0.00171905
0.00171905
0.00177818
0.00177818
0.00177818
0.00174976
0.00174976
0.00174976
0.00172042
0.00172042
0.00172042
0.00189602
0.00189602
0.00189602
0.00186222
0.00186222
0.00186222
0.00201908
0.00201908
0.00201908
0.00222044
0.00222044
0.00222044
0.00225271
0.00225271
0.00225271
0.00228812
0.00228812
0.00228812
0.00222767
0.00222767
0.00222767
0.00222542
0.00222542
0.00222542
0.0022554
0.0022554
0.0022554
0.00232422
0.00232422
0.00232422
0.00232706
0.00232706
0.00232706
0.00229611
0.00229611
0.00229611
0.00226283
0.00226283
0.00226283
0.00226038
0.00226038
0.00226038
0.00229083
0.00229083
0.00229083
0.0025596
0.0025596
0.0025596
0.00252548
0.00252548
0.00252548
0.0024884
0.0024884
0.0024884
0.00255606
0.00255606
0.00255606
0.00248533
0.00248533
0.00248533
0.0025189
0.0025189
0.0025189
0.00218652
0.00218652
0.00218652
0.00215134
0.00215134
0.00215134
0.00218655
0.00218655
0.00218655
0.00215169
0.00215169
0.00215169
0.00232879
0.00232879
0.00232879
0.00225757
0.00225757
0.00225757
0.00229384
0.00229384
0.00229384
0.00232975
0.00232975
0.00232975
0.00222151
0.00222151
0.00222151
0.00225709
0.00225709
0.00225709
0.00229241
0.00229241
0.00229241
0.00229156
0.00229156
0.00229156
0.00225199
0.00225199
0.00225199
0.00218468
0.00218468
0.00218468
0.0022531
0.0022531
0.0022531
0.00221917
0.00221917
0.00221917
0.00232103
0.00232103
0.00232103
0.00228569
0.00228569
0.00228569
0.00208403
0.00208403
0.00208403
0.00211714
0.00211714
0.00211714
0.00211745
0.00211745
0.00211745
0.00215168
0.00215168
0.00215168
0.00215136
0.00215136
0.00215136
0.00211752
0.00211752
0.00211752
0.0021441
0.0021441
0.0021441
0.00214524
0.00214524
0.00214524
0.00218152
0.00218152
0.00218152
0.00227576
0.00227576
0.00227576
0.0022738
0.0022738
0.0022738
0.00220848
0.00220848
0.00220848
0.00224011
0.00224011
0.00224011
0.00211665
0.00211665
0.00211665
0.00211706
0.00211706
0.00211706
0.00208295
0.00208295
0.00208295
0.00204866
0.00204866
0.00204866
0.0020479
0.0020479
0.0020479
0.00208178
0.00208178
0.00208178
0.00208104
0.00208104
0.00208104
0.00204595
0.00204595
0.00204595
0.00205
0.00205
0.00205
0.00205048
0.00205048
0.00205048
0.00201758
0.00201758
0.00201758
0.0019844
0.0019844
0.0019844
0.0018851
0.0018851
0.0018851
0.00191817
0.00191817
0.00191817
0.00195478
0.00195478
0.00195478
0.00189262
0.00189262
0.00189262
0.00188805
0.00188805
0.00188805
0.00195324
0.00195324
0.00195324
0.00191945
0.00191945
0.00191945
0.00195231
0.00195231
0.00195231
0.00180248
0.00180248
0.00180248
0.00158506
0.00158506
0.00158506
0.00158197
0.00158197
0.00158197
0.00176471
0.00176471
0.00176471
0.00176262
0.00176262
0.00176262
0.00232533
0.00232533
0.00232533
0.00232664
0.00232664
0.00232664
0.00239856
0.00239856
0.00239856
0.00236315
0.00236315
0.00236315
0.00239318
0.00239318
0.00239318
0.0023586
0.0023586
0.0023586
0.00242996
0.00242996
0.00242996
0.00236016
0.00236016
0.00236016
0.00243201
0.00243201
0.00243201
0.00239685
0.00239685
0.00239685
0.00252224
0.00252224
0.00252224
0.00259548
0.00259548
0.00259548
0.00255789
0.00255789
0.00255789
0.00263594
0.00263594
0.00263594
0.0025601
0.0025601
0.0025601
0.00263863
0.00263863
0.00263863
0.00260041
0.00260041
0.00260041
0.00297643
0.00297643
0.00297643
0.00297567
0.00297567
0.00297567
0.00291723
0.00291723
0.00291723
0.0029134
0.0029134
0.0029134
0.00178857
0.00178857
0.00178857
0.00207405
0.00207405
0.00207405
0.00207549
0.00207549
0.00207549
0.00218607
0.00218607
0.00218607
0.00225828
0.00225828
0.00225828
0.00222214
0.00222214
0.00222214
0.00218634
0.00218634
0.00218634
0.00225842
0.00225842
0.00225842
0.00236793
0.00236793
0.00236793
0.00244109
0.00244109
0.00244109
0.00236688
0.00236688
0.00236688
0.00240314
0.00240314
0.00240314
0.00240686
0.00240686
0.00240686
0.00244537
0.00244537
0.00244537
0.00248287
0.00248287
0.00248287
0.0024812
0.0024812
0.0024812
0.0024426
0.0024426
0.0024426
0.00240572
0.00240572
0.00240572
0.00236972
0.00236972
0.00236972
0.00237044
0.00237044
0.00237044
0.00233304
0.00233304
0.00233304
0.00233207
0.00233207
0.00233207
0.00256411
0.00256411
0.00256411
0.00252402
0.00252402
0.00252402
0.00237164
0.00237164
0.00237164
0.00229579
0.00229579
0.00229579
0.00233344
0.00233344
0.00233344
0.0022957
0.0022957
0.0022957
0.00237207
0.00237207
0.00237207
0.00233378
0.00233378
0.00233378
0.00191669
0.00191669
0.00191669
0.00195756
0.00195756
0.00195756
0.00194889
0.00194889
0.00194889
0.00191224
0.00191224
0.00191224
0.00207379
0.00207379
0.00207379
0.002036
0.002036
0.002036
0.00199047
0.00199047
0.00199047
0.00199467
0.00199467
0.00199467
0.00144356
0.00144356
0.00144356
0.00146309
0.00146309
0.00146309
0.00143994
0.00143994
0.00143994
0.00144972
0.00144972
0.00144972
0.00153945
0.00153945
0.00153945
0.00193888
0.00193888
0.00193888
0.00194086
0.00194086
0.00194086
0.00198016
0.00198016