<VTKFile type="UnstructuredGrid" version="1.0">
<UnstructuredGrid>
<Piece NumberOfPoints="8859" NumberOfCells="2953">
<Points>
<DataArray type="Float64" NumberOfComponents="3" format="ascii">
3.01 0.5 5.13
3.01 0.487476 5.1525
3.01 0.512524 5.1525
3.01 0.17352 4.2525
3.01 0.148445 4.2525
3.01 0.160827 4.27422
3.01 0.122979 4.29589
3.01 0.135644 4.27422
3.01 0.110383 4.27421
3.01 0.135644 4.27422
3.01 0.123433 4.2525
3.01 0.110383 4.27421
3.01 0.123433 4.2525
3.01 0.135644 4.27422
3.01 0.148445 4.2525
3.01 0.135644 4.27422
3.01 0.160827 4.27422
3.01 0.148445 4.2525
3.01 0.17352 4.2525
3.01 0.185985 4.2742
3.01 0.198629 4.2525
3.01 0.185985 4.2742
3.01 0.17352 4.2525
3.01 0.160827 4.27422
3.01 0.0732297 4.29567
3.01 0.0848754 4.27414
3.01 0.0586606 4.27381
3.01 0.05 5.08527
3.01 0.058509 5.06256
3.01 0.05 5.0401
3.01 0.324276 4.2525
3.01 0.336827 4.27416
3.01 0.349395 4.2525
3.01 0.148138 4.2959
3.01 0.160827 4.27422
3.01 0.135644 4.27422
3.01 0.122979 4.29589
3.01 0.148138 4.2959
3.01 0.135644 4.27422
3.01 0.160827 4.27422
3.01 0.173316 4.29589
3.01 0.185985 4.2742
3.01 0.185806 4.31755
3.01 0.173316 4.29589
3.01 0.160572 4.31755
3.01 0.173316 4.29589
3.01 0.160827 4.27422
3.01 0.148138 4.2959
3.01 0.160572 4.31755
3.01 0.173316 4.29589
3.01 0.148138 4.2959
3.01 0.211137 4.27419
3.01 0.198629 4.2525
3.01 0.185985 4.2742
3.01 0.0979162 4.29584
3.01 0.122979 4.29589
3.01 0.110383 4.27421
3.01 0.122979 4.29589
3.01 0.0979162 4.29584
3.01 0.109875 4.31749
3.01 0.0732297 4.29567
3.01 0.0979162 4.29584
3.01 0.0848754 4.27414
3.01 0.0979162 4.29584
3.01 0.110383 4.27421
3.01 0.0848754 4.27414
3.01 0.0975729 4.33904
3.01 0.122678 4.33914
3.01 0.109875 4.31749
3.01 0.0841718 4.31735
3.01 0.0732297 4.29567
3.01 0.0577122 4.31702
3.01 0.0729308 4.33888
3.01 0.0841718 4.31735
3.01 0.0577122 4.31702
3.01 0.0732297 4.29567
3.01 0.0841718 4.31735
3.01 0.0979162 4.29584
3.01 0.0841718 4.31735
3.01 0.109875 4.31749
3.01 0.0979162 4.29584
3.01 0.0975729 4.33904
3.01 0.0841718 4.31735
3.01 0.0729308 4.33888
3.01 0.0841718 4.31735
3.01 0.0975729 4.33904
3.01 0.109875 4.31749
3.01 0.073948 4.2525
3.01 0.05 4.2525
3.01 0.0586606 4.27381
3.01 0.073948 4.2525
3.01 0.0586606 4.27381
3.01 0.0848754 4.27414
3.01 0.05 5.12829
3.01 0.0603641 5.10697
3.01 0.05 5.08527
3.01 0.0603641 5.10697
3.01 0.05 5.12829
3.01 0.0753197 5.12899
3.01 0.0709395 5.1525
3.01 0.05 5.12829
3.01 0.05 5.1525
3.01 0.05 5.12829
3.01 0.0709395 5.1525
3.01 0.0753197 5.12899
3.01 0.0579641 4.83963
3.01 0.05 4.81761
3.01 0.05 4.86169
3.01 0.0841948 4.7518
3.01 0.109814 4.7518
3.01 0.097638 4.72993
3.01 0.0841948 4.7518
3.01 0.0578646 4.7518
3.01 0.0730539 4.7737
3.01 0.0580261 4.8838
3.01 0.05 4.86169
3.01 0.05 4.90595
3.01 0.942292 4.44736
3.01 0.95 4.46904
3.01 0.95 4.42567
3.01 0.95 4.38226
3.01 0.942332 4.40397
3.01 0.95 4.42567
3.01 0.73872 4.66453
3.01 0.75132 4.64276
3.01 0.726137 4.64276
3.01 0.751305 4.68632
3.01 0.73872 4.66453
3.01 0.726124 4.68633
3.01 0.713546 4.66454
3.01 0.73872 4.66453
3.01 0.726137 4.64276
3.01 0.73872 4.66453
3.01 0.713546 4.66454
3.01 0.726124 4.68633
3.01 0.814318 4.70811
3.01 0.801709 4.6863
3.01 0.789096 4.70812
3.01 0.7765 4.68631
3.01 0.801709 4.6863
3.01 0.789115 4.66451
3.01 0.801709 4.6863
3.01 0.7765 4.68631
3.01 0.789096 4.70812
3.01 0.7765 4.68631
3.01 0.763892 4.70814
3.01 0.789096 4.70812
3.01 0.763892 4.70814
3.01 0.7765 4.68631
3.01 0.751305 4.68632
3.01 0.95 5.1525
3.01 0.95 5.12829
3.01 0.929061 5.1525
3.01 0.95 4.9504
3.01 0.941913 4.92815
3.01 0.926844 4.9504
3.01 0.941913 4.92815
3.01 0.95 4.9504
3.01 0.95 4.90595
3.01 0.926866 4.90594
3.01 0.941913 4.92815
3.01 0.95 4.90595
3.01 0.941974 4.8838
3.01 0.926866 4.90594
3.01 0.95 4.90595
3.01 0.95 4.86169
3.01 0.941974 4.8838
3.01 0.95 4.90595
3.01 0.941974 4.8838
3.01 0.95 4.86169
3.01 0.926895 4.86169
3.01 0.6127 5.1525
3.01 0.637734 5.1525
3.01 0.625238 5.12998
3.01 0.662757 5.1525
3.01 0.650275 5.12997
3.01 0.637734 5.1525
3.01 0.650275 5.12997
3.01 0.625238 5.12998
3.01 0.637734 5.1525
3.01 0.600415 4.68637
3.01 0.575304 4.68637
3.01 0.587856 4.7082
3.01 0.575304 4.68637
3.01 0.562749 4.7082
3.01 0.587856 4.7082
3.01 0.336827 4.27416
3.01 0.361946 4.27416
3.01 0.349395 4.2525
3.01 0.223755 4.2525
3.01 0.198629 4.2525
3.01 0.211137 4.27419
3.01 0.185985 4.2742
3.01 0.198492 4.29588
3.01 0.211137 4.27419
3.01 0.185806 4.31755
3.01 0.198492 4.29588
3.01 0.173316 4.29589
3.01 0.198492 4.29588
3.01 0.185985 4.2742
3.01 0.173316 4.29589
3.01 0.0576202 4.36053
3.01 0.05 4.33874
3.01 0.05 4.38226
3.01 0.05 4.33874
3.01 0.0576202 4.36053
3.01 0.0729308 4.33888
3.01 0.05 4.33874
3.01 0.0729308 4.33888
3.01 0.0577122 4.31702
3.01 0.135283 4.31754
3.01 0.122979 4.29589
3.01 0.109875 4.31749
3.01 0.135283 4.31754
3.01 0.109875 4.31749
3.01 0.122678 4.33914
3.01 0.122979 4.29589
3.01 0.135283 4.31754
3.01 0.148138 4.2959
3.01 0.135283 4.31754
3.01 0.160572 4.31755
3.01 0.148138 4.2959
3.01 0.123433 4.2525
3.01 0.0985513 4.2525
3.01 0.110383 4.27421
3.01 0.110383 4.27421
3.01 0.0985513 4.2525
3.01 0.0848754 4.27414
3.01 0.0848754 4.27414
3.01 0.0985513 4.2525
3.01 0.073948 4.2525
3.01 0.0603641 5.10697
3.01 0.0739464 5.08449
3.01 0.05 5.08527
3.01 0.0739464 5.08449
3.01 0.058509 5.06256
3.01 0.05 5.08527
3.01 0.058509 5.06256
3.01 0.0739464 5.08449
3.01 0.0849548 5.06211
3.01 0.058509 5.06256
3.01 0.0732725 5.03988
3.01 0.05 5.0401
3.01 0.0732725 5.03988
3.01 0.058509 5.06256
3.01 0.0849548 5.06211
3.01 0.5 5.13
3.01 0.47495 5.13
3.01 0.487476 5.1525
3.01 0.097663 4.7737
3.01 0.109814 4.7518
3.01 0.0841948 4.7518
3.01 0.0730539 4.7737
3.01 0.097663 4.7737
3.01 0.0841948 4.7518
3.01 0.0578646 4.7518
3.01 0.05 4.7737
3.01 0.0730539 4.7737
3.01 0.05 4.7737
3.01 0.0578646 4.7518
3.01 0.05 4.72992
3.01 0.05 4.9504
3.01 0.0580869 4.92815
3.01 0.05 4.90595
3.01 0.05 4.90595
3.01 0.073134 4.90594
3.01 0.0580261 4.8838
3.01 0.073134 4.90594
3.01 0.05 4.90595
3.01 0.0580869 4.92815
3.01 0.942268 4.49073
3.01 0.95 4.51241
3.01 0.95 4.46904
3.01 0.942292 4.44736
3.01 0.927025 4.46904
3.01 0.95 4.46904
3.01 0.927025 4.46904
3.01 0.915919 4.49072
3.01 0.942268 4.49073
3.01 0.95 4.46904
3.01 0.927025 4.46904
3.01 0.942268 4.49073
3.01 0.927013 4.51241
3.01 0.95 4.51241
3.01 0.942268 4.49073
3.01 0.915919 4.49072
3.01 0.927013 4.51241
3.01 0.942268 4.49073
3.01 0.801738 4.59925
3.01 0.826957 4.59925
3.01 0.814364 4.57753
3.01 0.852174 4.59924
3.01 0.839609 4.57752
3.01 0.826957 4.59925
3.01 0.839609 4.57752
3.01 0.814364 4.57753
3.01 0.826957 4.59925
3.01 0.776516 4.64275
3.01 0.763923 4.621
3.01 0.75132 4.64276
3.01 0.776516 4.64275
3.01 0.789115 4.66451
3.01 0.801725 4.64274
3.01 0.738704 4.70815
3.01 0.763892 4.70814
3.01 0.751305 4.68632
3.01 0.726124 4.68633
3.01 0.738704 4.70815
3.01 0.751305 4.68632
3.01 0.915617 4.92814
3.01 0.926866 4.90594
3.01 0.902228 4.90594
3.01 0.926866 4.90594
3.01 0.915617 4.92814
3.01 0.941913 4.92815
3.01 0.915617 4.92814
3.01 0.926844 4.9504
3.01 0.941913 4.92815
3.01 0.915617 4.92814
3.01 0.902193 4.95038
3.01 0.926844 4.9504
3.01 0.926866 4.90594
3.01 0.915668 4.88379
3.01 0.902228 4.90594
3.01 0.902267 4.86168
3.01 0.915668 4.88379
3.01 0.926895 4.86169
3.01 0.915668 4.88379
3.01 0.926866 4.90594
3.01 0.941974 4.8838
3.01 0.926895 4.86169
3.01 0.915668 4.88379
3.01 0.941974 4.8838
3.01 0.902267 4.86168
3.01 0.890059 4.88379
3.01 0.915668 4.88379
3.01 0.890059 4.88379
3.01 0.902228 4.90594
3.01 0.915668 4.88379
3.01 0.826927 4.68629
3.01 0.801709 4.6863
3.01 0.814318 4.70811
3.01 0.864816 4.7518
3.01 0.890186 4.7518
3.01 0.877308 4.72993
3.01 0.877308 4.72993
3.01 0.852122 4.72994
3.01 0.864816 4.7518
3.01 0.890186 4.7518
3.01 0.902362 4.72993
3.01 0.877308 4.72993
3.01 0.902362 4.72993
3.01 0.890186 4.7518
3.01 0.915805 4.7518
3.01 0.902362 4.72993
3.01 0.915805 4.7518
3.01 0.926964 4.72992
3.01 0.915835 4.70809
3.01 0.902362 4.72993
3.01 0.926964 4.72992
3.01 0.942171 4.70809
3.01 0.915835 4.70809
3.01 0.926964 4.72992
3.01 0.915835 4.70809
3.01 0.942171 4.70809
3.01 0.926978 4.68627
3.01 0.942171 4.70809
3.01 0.95 4.68627
3.01 0.926978 4.68627
3.01 0.87737 4.55581
3.01 0.902417 4.5558
3.01 0.890277 4.53411
3.01 0.852144 4.68628
3.01 0.864842 4.70809
3.01 0.877329 4.68628
3.01 0.877308 4.72993
3.01 0.864842 4.70809
3.01 0.852122 4.72994
3.01 0.902396 4.64272
3.01 0.890234 4.66449
3.01 0.915858 4.66448
3.01 0.926997 4.59923
3.01 0.95 4.59923
3.01 0.942237 4.57751
3.01 0.91589 4.57751
3.01 0.926997 4.59923
3.01 0.942237 4.57751
3.01 0.942199 4.66448
3.01 0.95 4.68627
3.01 0.95 4.64271
3.01 0.95 4.68627
3.01 0.942199 4.66448
3.01 0.926978 4.68627
3.01 0.942199 4.66448
3.01 0.915858 4.66448
3.01 0.926978 4.68627
3.01 0.95 4.59923
3.01 0.942221 4.62097
3.01 0.95 4.64271
3.01 0.942221 4.62097
3.01 0.95 4.59923
3.01 0.926997 4.59923
3.01 0.915876 4.62097
3.01 0.942221 4.62097
3.01 0.926997 4.59923
3.01 0.926989 4.64271
3.01 0.902396 4.64272
3.01 0.915858 4.66448
3.01 0.902396 4.64272
3.01 0.926989 4.64271
3.01 0.915876 4.62097
3.01 0.926989 4.64271
3.01 0.915858 4.66448
3.01 0.942199 4.66448
3.01 0.95 4.64271
3.01 0.926989 4.64271
3.01 0.942199 4.66448
3.01 0.915876 4.62097
3.01 0.926989 4.64271
3.01 0.942221 4.62097
3.01 0.926989 4.64271
3.01 0.95 4.64271
3.01 0.942221 4.62097
3.01 0.91353 5.10685
3.01 0.939636 5.10697
3.01 0.926054 5.08449
3.01 0.926728 5.03988
3.01 0.941491 5.06256
3.01 0.95 5.0401
3.01 0.926728 5.03988
3.01 0.95 5.0401
3.01 0.941822 5.01754
3.01 0.95 5.08527
3.01 0.939636 5.10697
3.01 0.95 5.12829
3.01 0.95 5.08527
3.01 0.941491 5.06256
3.01 0.926054 5.08449
3.01 0.939636 5.10697
3.01 0.95 5.08527
3.01 0.926054 5.08449
3.01 0.941491 5.06256
3.01 0.95 5.08527
3.01 0.95 5.0401
3.01 0.941869 4.97272
3.01 0.95 4.9504
3.01 0.926844 4.9504
3.01 0.762942 5.10729
3.01 0.737933 5.10734
3.01 0.75028 5.12989
3.01 0.71291 5.10739
3.01 0.737933 5.10734
3.01 0.725533 5.08485
3.01 0.71291 5.10739
3.01 0.725313 5.12992
3.01 0.737933 5.10734
3.01 0.725313 5.12992
3.01 0.75028 5.12989
3.01 0.737933 5.10734
3.01 0.737693 5.1525
3.01 0.725313 5.12992
[...]
<PointData Scalars="View Factor" >
<DataArray type="Float64" Name="View Factor" NumberOfComponents="1" format="ascii">
0.104821
0.104821
0.104821
0.370429
0.370429
0.370429
0.361742
0.361742
0.361742
0.367751
0.367751
0.367751
0.370662
0.370662
0.370662
0.367538
0.367538
0.367538
0.370155
0.370155
0.370155
0.367287
0.367287
0.367287
0.362145
0.362145
0.362145
0.121784
0.121784
0.121784
0.367623
0.367623
0.367623
0.36153
0.36153
0.36153
0.358646
0.358646
0.358646
0.361284
0.361284
0.361284
0.349351
0.349351
0.349351
0.358418
0.358418
0.358418
0.35245
0.35245
0.35245
0.366996
0.366996
0.366996
0.358845
0.358845
0.358845
0.352881
0.352881
0.352881
0.359036
0.359036
0.359036
0.361933
0.361933
0.361933
0.341043
0.341043
0.341043
0.35023
0.35023
0.35023
0.34431
0.34431
0.34431
0.353079
0.353079
0.353079
0.350014
0.350014
0.350014
0.341242
0.341242
0.341242
0.344096
0.344096
0.344096
0.371181
0.371181
0.371181
0.368128
0.368128
0.368128
0.114066
0.114066
0.114066
0.111625
0.111625
0.111625
0.107907
0.107907
0.107907
0.109148
0.109148
0.109148
0.169643
0.169643
0.169643
0.195013
0.195013
0.195013
0.190976
0.190976
0.190976
0.158886
0.158886
0.158886
0.267528
0.267528
0.267528
0.28313
0.28313
0.28313
0.210994
0.210994
0.210994
0.202298
0.202298
0.202298
0.209253
0.209253
0.209253
0.204896
0.204896
0.204896
0.193645
0.193645
0.193645
0.20041
0.20041
0.20041
0.196204
0.196204
0.196204
0.194601
0.194601
0.194601
0.19715
0.19715
0.19715
0.0966963
0.0966963
0.0966963
0.130754
0.130754
0.130754
0.133429
0.133429
0.133429
0.136707
0.136707
0.136707
0.139776
0.139776
0.139776
0.142621
0.142621
0.142621
0.146107
0.146107
0.146107
0.103064
0.103064
0.103064
0.102662
0.102662
0.102662
0.104014
0.104014
0.104014
0.202705
0.202705
0.202705
0.200896
0.200896
0.200896
0.364355
0.364355
0.364355
0.36984
0.36984
0.36984
0.360998
0.360998
0.360998
0.352188
0.352188
0.352188
0.358154
0.358154
0.358154
0.329677
0.329677
0.329677
0.335517
0.335517
0.335517
0.341433
0.341433
0.341433
0.349812
0.349812
0.349812
0.343891
0.343891
0.343891
0.352678
0.352678
0.352678
0.349596
0.349596
0.349596
0.370857
0.370857
0.370857
0.367936
0.367936
0.367936
0.371021
0.371021
0.371021
0.116545
0.116545
0.116545
0.11913
0.11913
0.11913
0.120481
0.120481
0.120481
0.124538
0.124538
0.124538
0.123168
0.123168
0.123168
0.106144
0.106144
0.106144
0.190894
0.190894
0.190894
0.188904
0.188904
0.188904
0.188972
0.188972
0.188972
0.193071
0.193071
0.193071
0.148745
0.148745
0.148745
0.155427
0.155427
0.155427
0.152047
0.152047
0.152047
0.252406
0.252406
0.252406
0.262938
0.262938
0.262938
0.256106
0.256106
0.256106
0.257889
0.257889
0.257889
0.247961
0.247961
0.247961
0.251129
0.251129
0.251129
0.225998
0.225998
0.225998
0.224824
0.224824
0.224824
0.22774
0.22774
0.22774
0.214472
0.214472
0.214472
0.209034
0.209034
0.209034
0.195518
0.195518
0.195518
0.198056
0.198056
0.198056
0.137567
0.137567
0.137567
0.135593
0.135593
0.135593
0.132608
0.132608
0.132608
0.131578
0.131578
0.131578
0.140655
0.140655
0.140655
0.147024
0.147024
0.147024
0.14175
0.14175
0.14175
0.144925
0.144925
0.144925
0.145847
0.145847
0.145847
0.142654
0.142654
0.142654
0.195218
0.195218
0.195218
0.178645
0.178645
0.178645
0.181104
0.181104
0.181104
0.180056
0.180056
0.180056
0.177581
0.177581
0.177581
0.178971
0.178971
0.178971
0.182862
0.182862
0.182862
0.184226
0.184226
0.184226
0.188209
0.188209
0.188209
0.189679
0.189679
0.189679
0.236344
0.236344
0.236344
0.193119
0.193119
0.193119
0.185039
0.185039
0.185039
0.201831
0.201831
0.201831
0.219661
0.219661
0.219661
0.222564
0.222564
0.222564
0.19751
0.19751
0.19751
0.193755
0.193755
0.193755
0.196384
0.196384
0.196384
0.210338
0.210338
0.210338
0.215173
0.215173
0.215173
0.213564
0.213564
0.213564
0.203363
0.203363
0.203363
0.207672
0.207672
0.207672
0.200576
0.200576
0.200576
0.202116
0.202116
0.202116
0.209166
0.209166
0.209166
0.2064
0.2064
0.2064
0.103808
0.103808
0.103808
0.111793
0.111793
0.111793
0.114327
0.114327
0.114327
0.102143
0.102143
0.102143
0.106915
0.106915
0.106915
0.1046
0.1046
0.1046
0.109075
0.109075
0.109075
0.127869
0.127869
0.127869
0.105485
0.105485
0.105485
0.108362
0.108362
0.108362
0.105972
0.105972
0.105972
0.104558
0.104558
0.104558
0.101353
0.101353
0.101353
0.102253
0.102253
0.102253
0.100883
0.100883
0.100883
0.118422
0.118422
0.118422
0.113309
0.113309
0.113309
0.109822
0.109822
0.109822
0.112301
0.112301
0.112301
0.110756
0.110756
0.110756
0.113253
0.113253
0.113253
0.106757
0.106757
0.106757
0.104411
0.104411
0.104411
0.103449
0.103449
0.103449
0.212492
0.212492
0.212492
0.200233
0.200233
0.200233
0.189032
0.189032
0.189032
0.184426
0.184426
0.184426
0.188436
0.188436
0.188436
0.190772
0.190772
0.190772
0.19667
0.19667
0.19667
0.194895
0.194895
0.194895
0.185012
0.185012
0.185012
0.182742
0.182742
0.182742
0.162385
0.162385
0.162385
0.185733
0.185733
0.185733
0.188109
0.188109
0.188109
0.189554
0.189554
0.189554
0.181586
0.181586
0.181586
0.368641
0.368641
0.368641
0.369084
0.369084
0.369084
0.365871
0.365871
0.365871
0.359891
0.359891
0.359891
0.351329
0.351329
0.351329
0.222497
0.222497
0.222497
0.213452
0.213452
0.213452
0.22074
0.22074
0.22074
0.216208
0.216208
0.216208
0.217215
0.217215
0.217215
0.215449
0.215449
0.215449
0.356688
0.356688
0.356688
0.367047
0.367047
0.367047
0.357393
0.357393
0.357393
0.278953
0.278953
0.278953
0.281861
0.281861
0.281861
0.34744
0.34744
0.34744
0.365293
0.365293
0.365293
0.359291
0.359291
0.359291
0.353331
0.353331
0.353331
0.11916
0.11916
0.11916
0.105123
0.105123
0.105123
0.165976
0.165976
0.165976
0.16239
0.16239
0.16239
0.184894
0.184894
0.184894
0.322541
0.322541
0.322541
0.165831
0.165831
0.165831
0.162249
0.162249
0.162249
0.197047
0.197047
0.197047
0.194903
0.194903
0.194903
0.201374
0.201374
0.201374
0.197144
0.197144
0.197144
0.197214
0.197214
0.197214
0.195097
0.195097
0.195097
0.205764
0.205764
0.205764
0.201445
0.201445
0.201445
0.203557
0.203557
0.203557
0.207897
0.207897
0.207897
0.210126
0.210126
0.210126
0.197264
0.197264
0.197264
0.198791
0.198791
0.198791
0.249467
0.249467
0.249467
0.221393
0.221393
0.221393
0.219668
0.219668
0.219668
0.215156
0.215156
0.215156
0.22653
0.22653
0.22653
0.223601
0.223601
0.223601
0.239417
0.239417
0.239417
0.266231
0.266231
0.266231
0.258615
0.258615
0.258615
0.210036
0.210036
0.210036
0.201374
0.201374
0.201374
0.203032
0.203032
0.203032
0.207353
0.207353
0.207353
0.208324
0.208324
0.208324
0.203984
0.203984
0.203984
0.191392
0.191392
0.191392
0.189787
0.189787
0.189787
0.196396
0.196396
0.196396
0.192253
0.192253
0.192253
0.18103
0.18103
0.18103
0.178703
0.178703
0.178703
0.192182
0.192182
0.192182
0.173782
0.173782
0.173782
0.147924
0.147924
0.147924
0.152114
0.152114
0.152114
0.151225
0.151225
0.151225
0.15335
0.15335
0.15335
0.108818
0.108818
0.108818
0.107865
0.107865
0.107865
0.109329
0.109329
0.109329
0.111797
0.111797
0.111797
0.123325
0.123325
0.123325
0.113621
0.113621
0.113621
0.111116
0.111116
0.111116
0.125271
0.125271
0.125271
0.123171
0.123171
0.123171
0.126321
0.126321
0.126321
0.212388
0.212388
0.212388
0.192647
0.192647
0.192647
0.194189
0.194189
0.194189
0.191607
0.191607
0.191607
0.187556
0.187556
0.187556
0.175826
0.175826
0.175826
0.179666
0.179666
0.179666
0.190854
0.190854
0.190854
0.196129
0.196129
0.196129
0.194954
0.194954
0.194954
0.197615
0.197615
0.197615
0.181734
0.181734
0.181734
0.185303
0.185303
0.185303
0.210472
0.210472
0.210472
0.219039
0.219039
0.219039
0.216166
0.216166
0.216166
0.228573
0.228573
0.228573
0.225266
0.225266
0.225266
0.231606
0.231606
0.231606
0.229918
0.229918
0.229918
0.238023
0.238023
0.238023
0.242845
0.242845
0.242845
0.244565
0.244565
0.244565
0.10337
0.10337
0.10337
0.10627
0.10627
0.10627
0.100175
0.100175
0.100175
0.101557
0.101557
0.101557
0.0980364
0.0980364
0.0980364
0.105315
0.105315
0.105315
0.112548
0.112548
0.112548
0.107668
0.107668
0.107668
0.108476
0.108476
0.108476
0.110904
0.110904
0.110904
0.118803
0.118803
0.118803
0.122509
0.122509
0.122509
0.121481
0.121481
0.121481
0.120812
0.120812
0.120812
0.128676
0.128676
0.128676
0.126823
0.126823
0.126823
0.11597
0.11597
0.11597
0.11508
0.11508
0.11508
0.109304
0.109304
0.109304
0.108842
0.108842
0.108842
0.110298
0.110298
0.110298
0.101806
0.101806
0.101806
0.102718
0.102718
0.102718
0.105032
0.105032
0.105032
0.106442
0.106442
0.106442
0.100232
0.100232
0.100232
0.103925
0.103925
0.103925
0.1025
0.1025
0.1025
0.0993776
0.0993776
0.0993776
0.104067
0.104067
0.104067
0.101771
0.101771
0.101771
0.115867
0.115867
0.115867
0.117428
0.117428
0.117428
0.137856
0.137856
0.137856
0.139102
0.139102
0.139102
0.128952
0.128952
0.128952
0.120079
0.120079
0.120079
0.121158
0.121158
0.121158
0.121095
0.121095
0.121095
0.127819
0.127819
0.127819
0.124999
0.124999
0.124999
0.123893
0.123893
0.123893
0.125561
0.125561
0.125561
0.113809
0.113809
0.113809
0.116869
0.116869
0.116869
0.11429
0.11429
0.11429
0.112786
0.112786
0.112786
0.117935
0.117935
0.117935
0.116378
0.116378
0.116378
0.109748
0.109748
0.109748
0.107331
0.107331
0.107331
0.106352
0.106352
0.106352
0.107749
0.107749
0.107749
0.114753
0.114753
0.114753
0.117342
0.117342
0.117342
0.11889
0.11889
0.11889
0.146327
0.146327
0.146327
0.149601
0.149601
0.149601
0.226925
0.226925
0.226925
0.208768
0.208768
0.208768
0.229422
0.229422
0.229422
0.227207
0.227207
0.227207
0.206439
0.206439
0.206439
0.210519
0.210519
0.210519
0.212981
0.212981
0.212981
0.19157
0.19157
0.19157
0.193406
0.193406
0.193406
0.197099
0.197099
0.197099
0.187505
0.187505
0.187505
0.185709
0.185709
0.185709
0.181749
0.181749
0.181749
0.179592
0.179592
0.179592
0.20202
0.20202
0.20202
0.196019
0.196019
0.196019
0.194266
0.194266
0.194266
0.190155
0.190155
0.190155
0.187808
0.187808
0.187808
0.174044
0.174044
0.174044
0.175743
0.175743
0.175743
0.183308
0.183308
0.183308
0.178835
0.178835
0.178835
0.191119
0.191119
0.191119
0.192937
0.192937
0.192937
0.172757
0.172757
0.172757
0.174406
0.174406
0.174406
0.182485
0.182485
0.182485
0.186458
0.186458
0.186458
0.177708
0.177708
0.177708
0.149921
0.149921
0.149921
0.369483
0.369483
0.369483
0.366289
0.366289
0.366289
0.366664
0.366664
0.366664
0.288978
0.288978
0.288978
0.299164
0.299164
0.299164
0.29433
0.29433
0.29433
0.353874
0.353874
0.353874
0.349093
0.349093
0.349093
0.353549
0.353549
0.353549
0.223555
0.223555
0.223555
0.221766
0.221766
0.221766
0.224568
0.224568
0.224568
0.229232
0.229232
0.229232
0.218179
0.218179
0.218179
0.222747
0.222747
0.222747
0.36541
0.36541
0.36541
0.359437
0.359437
0.359437
0.368155
0.368155
0.368155
0.364905
0.364905
0.364905
0.358396
0.358396
0.358396
0.355137
0.355137
0.355137
0.349212
0.349212
0.349212
0.348614
0.348614
0.348614
0.345967
0.345967
0.345967
0.337439
0.337439
0.337439
0.340084
0.340084
0.340084
0.365037
0.365037
0.365037
0.355052
0.355052
0.355052
0.273608
0.273608
0.273608
0.263103
0.263103
0.263103
0.350785
0.350785
0.350785
0.357118
0.357118
0.357118
0.351166
0.351166
0.351166
0.360302
0.360302
0.360302
0.136966
0.136966
0.136966
0.130644
0.130644
0.130644
0.122739
0.122739
0.122739
0.122879
0.122879
0.122879
0.124182
0.124182
0.124182
0.131333
0.131333
0.131333
0.126969
0.126969
0.126969
0.128454
0.128454
0.128454
0.124032
0.124032
0.124032
0.120462
0.120462
0.120462
0.127345
0.127345
0.127345
0.130214
0.130214
0.130214
0.10644
0.10644
0.10644
0.112665
0.112665
0.112665
0.110189
0.110189
0.110189
0.108827
0.108827
0.108827
0.117791
0.117791
0.117791
0.113221
0.113221
0.113221
0.110733
0.110733
0.110733
0.167695
0.167695
0.167695
0.165915
0.165915
0.165915
0.167769
0.167769
0.167769
0.157118
0.157118
0.157118
0.160599
0.160599
0.160599
0.15537
0.15537
0.15537
0.157048
0.157048
0.157048
0.162331
0.162331
0.162331
0.160528
0.160528
0.160528
0.182874
0.182874
0.182874
0.178869
0.178869
0.178869
0.181034
0.181034
0.181034
0.18496
0.18496
0.18496
0.182953
0.182953
0.182953
0.323807
0.323807
0.323807
0.281143
0.281143
0.281143
0.292074
0.292074
0.292074
0.263864
0.263864
0.263864
0.258697
0.258697
0.258697
0.263063
0.263063
0.263063
0.247783
0.247783
0.247783
0.242808
0.242808
0.242808
0.278937
0.278937
0.278937
0.284242
0.284242
0.284242
0.289716
0.289716
0.289716
0.284332
0.284332
0.284332
0.281579
0.281579
0.281579
0.283949
0.283949
0.283949
0.289417
0.289417
0.289417
0.297973
0.297973
0.297973
0.292415
0.292415
0.292415
0.289585
0.289585
0.289585
0.292262
0.292262
0.292262
0.316784
0.316784
0.316784
0.155291
0.155291
0.155291
0.151914
0.151914
0.151914
0.188811
0.188811
0.188811
0.190786
0.190786
0.190786
0.184802
0.184802
0.184802
0.182769
0.182769
0.182769
0.196924
0.196924
0.196924
0.233127
0.233127
0.233127
0.235474
0.235474
0.235474
0.237923
0.237923
0.237923
0.237842
0.237842
0.237842
0.235377
0.235377
0.235377
0.210052
0.210052
0.210052
0.214502
0.214502
0.214502
0.230324
0.230324
0.230324
0.201275
0.201275
0.201275
0.209951
0.209951
0.209951
0.20347
0.20347
0.20347
0.207809
0.207809
0.207809
0.266883
0.266883
0.266883
0.261725
0.261725
0.261725
0.232437
0.232437
0.232437
0.246012
0.246012
0.246012
0.244264
0.244264
0.244264
0.232927
0.232927
0.232927
0.237689
0.237689
0.237689
0.231204
0.231204
0.231204
0.234196
0.234196
0.234196
0.235413
0.235413
0.235413
0.24022
0.24022
0.24022
0.25945
0.25945
0.25945
0.264528
0.264528
0.264528
0.188915
0.188915
0.188915
0.190493
0.190493
0.190493
0.188005
0.188005
0.188005
0.184012
0.184012
0.184012
0.182488
0.182488
0.182488
0.184904
0.184904
0.184904
0.190621
0.190621
0.190621
0.186578
0.186578
0.186578
0.187361
0.187361
0.187361
0.184975
0.184975
0.184975
0.198923
0.198923
0.198923
0.205768
0.205768
0.205768
0.203181
0.203181
0.203181
0.181774
0.181774
0.181774
0.179457
0.179457
0.179457
0.180177
0.180177
0.180177
0.155339
0.155339
0.155339
0.151952
0.151952
0.151952
0.168354
0.168354
0.168354
0.171396
0.171396
0.171396
0.174825
0.174825
0.174825
0.172437
0.172437
0.172437
0.173444
0.173444
0.173444
0.169718
0.169718
0.169718
0.15582
0.15582
0.15582
0.150306
0.150306
0.150306
0.152429
0.152429
0.152429
0.141518
0.141518
0.141518
0.133456
0.133456
0.133456
0.136459
0.136459
0.136459
0.138412
0.138412
0.138412
0.137288
0.137288
0.137288
0.129167
0.129167
0.129167
0.110734
0.110734
0.110734
0.107743
0.107743
0.107743
0.110174
0.110174
0.110174
0.111695
0.111695
0.111695
0.112253
0.112253
0.112253
0.11279
0.11279
0.11279
0.111275
0.111275
0.111275
0.114787
0.114787
0.114787
0.109591
0.109591
0.109591
0.1057
0.1057
0.1057
0.107176
0.107176
0.107176
0.110512
0.110512
0.110512
0.117797
0.117797
0.117797
0.115199
0.115199
0.115199
0.114216
0.114216
0.114216
0.115789
0.115789
0.115789
0.127637
0.127637
0.127637
0.12482
0.12482
0.12482
0.124563
0.124563
0.124563
0.121817
0.121817
0.121817
0.123823
0.123823
0.123823
0.125588
0.125588
0.125588
0.20799
0.20799
0.20799
0.199404
0.199404
0.199404
0.202037
0.202037
0.202037
0.20634
0.20634
0.20634
0.198356
0.198356
0.198356
0.2069
0.2069
0.2069
0.201
0.201
0.201
0.205282
0.205282
0.205282
0.199919
0.199919
0.199919
0.20418
0.20418
0.20418
0.21855
0.21855
0.21855
0.214058
0.214058
0.214058
0.211277
0.211277
0.211277
0.22024
0.22024
0.22024
0.217383
0.217383
0.217383
0.212913
0.212913
0.212913
0.182113
0.182113
0.182113
0.187057
0.187057
0.187057
0.183082
0.183082
0.183082
0.180646
0.180646
0.180646
0.188576
0.188576
0.188576
0.186068
0.186068
0.186068
0.183969
0.183969
0.183969
0.186493
0.186493
0.186493
0.185385
0.185385
0.185385
0.189392
0.189392
0.189392
0.190523
0.190523
0.190523
0.192006
0.192006
0.192006
0.176467
0.176467
0.176467
0.177865
0.177865
0.177865
0.173718
0.173718
0.173718
0.170334
0.170334
0.170334
0.172691
0.172691
0.172691
0.205765
0.205765
0.205765
0.21012
0.21012
0.21012
0.204585
0.204585
0.204585
0.203031
0.203031
0.203031
0.208917
0.208917
0.208917
0.211718
0.211718
0.211718
0.221008
0.221008
0.221008
0.223947
0.223947
0.223947
0.216495
0.216495
0.216495
0.214896
0.214896
0.214896
0.217789
0.217789
0.217789
0.222328
0.222328
0.222328
0.243086
0.243086
0.243086
0.241355
0.241355
0.241355
0.223778
0.223778
0.223778
0.23781
0.23781
0.23781
0.0972208
0.0972208
0.0972208
0.106584
0.106584
0.106584
0.108982
0.108982
0.108982
0.111657
0.111657
0.111657
0.109206
0.109206
0.109206
0.112348
0.112348
0.112348
0.113264
0.113264
0.113264
0.109878
0.109878
0.109878
0.108343
0.108343
0.108343
0.117167
0.117167
0.117167
0.113941
0.113941
0.113941
0.116507
0.116507
0.116507
0.118149
0.118149
0.118149
0.113001
0.113001
0.113001
0.114584
0.114584
0.114584
0.116738
0.116738
0.116738
0.11937
0.11937
0.11937
0.115813
0.115813
0.115813
0.117463
0.117463
0.117463
0.121092
0.121092
0.121092
0.12011
0.12011
0.12011
0.12402
0.12402
0.12402
0.118593
0.118593
0.118593
0.123055
0.123055
0.123055
0.120336
0.120336
0.120336
0.103167
0.103167
0.103167
0.103599
0.103599
0.103599
0.102242
0.102242
0.102242
0.105929
0.105929
0.105929
0.106895
0.106895
0.106895
0.105489
0.105489
0.105489
0.100396
0.100396
0.100396
0.104981
0.104981
0.104981
0.107352
0.107352
0.107352
0.10682
0.10682
0.10682
0.10829
0.10829
0.10829
0.10076
0.10076
0.10076
0.103561
0.103561
0.103561
0.0998942
0.0998942
0.0998942
0.101273
0.101273
0.101273
0.103038
0.103038
0.103038
0.104462
0.104462
0.104462
0.119541
0.119541
0.119541
0.118982
0.118982
0.118982
0.120603
0.120603
0.120603
0.116356
0.116356
0.116356
0.116902
0.116902
0.116902
0.115337
0.115337
0.115337
0.137267
0.137267
0.137267
0.129545
0.129545
0.129545
0.128394
0.128394
0.128394
0.132465
0.132465
0.132465
0.134246
0.134246
0.134246
0.142192
0.142192
0.142192
0.14538
0.14538
0.14538
0.146642
0.146642
0.146642
0.125948
0.125948
0.125948
0.127021
0.127021
0.127021
0.12722
0.12722
0.12722
0.124414
0.124414
0.124414
0.131692
0.131692
0.131692
0.129987
0.129987
0.129987
0.126622
0.126622
0.126622
0.120597
0.120597
0.120597
0.122205
0.122205
0.122205
0.121692
0.121692
0.121692
0.124963
0.124963
0.124963
0.124438
0.124438
0.124438
0.126103
0.126103
0.126103
0.127598
0.127598
0.127598
0.13094
0.13094
0.13094
0.130474
0.130474
0.130474
0.132174
0.132174
0.132174
0.122031
0.122031
0.122031
0.12595
0.12595
0.12595
0.127121
0.127121
0.127121
0.125467
0.125467
0.125467
0.122698
0.122698
0.122698
0.121573
0.121573
0.121573
0.123171
0.123171
0.123171
0.10815
0.10815
0.10815
0.108206
0.108206
0.108206
0.105831
0.105831
0.105831
0.104503
0.104503
0.104503
0.221971
0.221971
0.221971
0.213198
0.213198
0.213198
0.215294
0.215294
0.215294
0.219832
0.219832
0.219832
0.222277
0.222277
0.222277
0.209271
0.209271
0.209271
0.200615
0.200615
0.200615
0.202858
0.202858
0.202858
0.207188
0.207188
0.207188
0.222554
0.222554
0.222554
0.213467
0.213467
0.213467
0.220121
0.220121
0.220121
0.21558
0.21558
0.21558
0.234454
0.234454
0.234454
0.229691
0.229691
0.229691
0.229931
0.229931
0.229931
0.227459
0.227459
0.227459
0.213709
0.213709
0.213709
0.215837
0.215837
0.215837
0.220382
0.220382
0.220382
0.222803
0.222803
0.222803
0.217482
0.217482
0.217482
0.199197
0.199197
0.199197
0.205804
0.205804
0.205804
0.201495
0.201495
0.201495
0.195
0.195
0.195
0.192755
0.192755
0.192755
0.193845
0.193845
0.193845
0.186107
0.186107
0.186107
0.18792
0.18792
0.18792
0.188309
0.188309
0.188309
0.191992
0.191992
0.191992
0.197575
0.197575
0.197575
0.199451
0.199451
0.199451
0.206132
0.206132
0.206132
0.203725
0.203725
0.203725
0.203357
0.203357
0.203357
0.196593
0.196593
0.196593
0.198955
0.198955
0.198955
0.198431
0.198431
0.198431
0.181331
0.181331
0.181331
0.184832
0.184832
0.184832
0.185284
0.185284
0.185284
0.187063
0.187063
0.187063
0.174422
0.174422
0.174422
0.176137
0.176137
0.176137
0.182141
0.182141
0.182141
0.179993
0.179993
0.179993
0.199536
0.199536
0.199536
0.194618
0.194618
0.194618
0.198805
0.198805
0.198805
0.201299
0.201299
0.201299
0.132634
0.132634
0.132634
0.135619
0.135619
0.135619
0.137364
0.137364
0.137364
0.144961
0.144961
0.144961
0.141782
0.141782
0.141782
0.14045
0.14045
0.14045
0.151519
0.151519
0.151519
0.155402
0.155402
0.155402
0.160863
0.160863
0.160863
0.157367
0.157367
0.157367
0.131995
0.131995
0.131995
0.169902
0.169902
0.169902
0.173641
0.173641
0.173641
0.179917
0.179917
0.179917
0.180416
0.180416
0.180416