<VTKFile type="UnstructuredGrid" version="1.0">
<UnstructuredGrid>
<Piece NumberOfPoints="8859" NumberOfCells="2953">
<Points>
<DataArray type="Float64" NumberOfComponents="3" format="ascii">
0.5 3.01 18.715
0.512524 3.01 18.7375
0.487476 3.01 18.7375
0.17352 3.01 17.8375
0.160827 3.01 17.8592
0.148445 3.01 17.8375
0.122979 3.01 17.8809
0.110383 3.01 17.8592
0.135644 3.01 17.8592
0.135644 3.01 17.8592
0.110383 3.01 17.8592
0.123433 3.01 17.8375
0.123433 3.01 17.8375
0.148445 3.01 17.8375
0.135644 3.01 17.8592
0.135644 3.01 17.8592
0.148445 3.01 17.8375
0.160827 3.01 17.8592
0.17352 3.01 17.8375
0.198629 3.01 17.8375
0.185985 3.01 17.8592
0.185985 3.01 17.8592
0.160827 3.01 17.8592
0.17352 3.01 17.8375
0.0732297 3.01 17.8807
0.0586606 3.01 17.8588
0.0848754 3.01 17.8591
0.05 3.01 18.6703
0.05 3.01 18.6251
0.058509 3.01 18.6476
0.324276 3.01 17.8375
0.349395 3.01 17.8375
0.336827 3.01 17.8592
0.148138 3.01 17.8809
0.135644 3.01 17.8592
0.160827 3.01 17.8592
0.122979 3.01 17.8809
0.135644 3.01 17.8592
0.148138 3.01 17.8809
0.160827 3.01 17.8592
0.185985 3.01 17.8592
0.173316 3.01 17.8809
0.185806 3.01 17.9025
0.160572 3.01 17.9026
0.173316 3.01 17.8809
0.173316 3.01 17.8809
0.148138 3.01 17.8809
0.160827 3.01 17.8592
0.160572 3.01 17.9026
0.148138 3.01 17.8809
0.173316 3.01 17.8809
0.211137 3.01 17.8592
0.185985 3.01 17.8592
0.198629 3.01 17.8375
0.0979162 3.01 17.8808
0.110383 3.01 17.8592
0.122979 3.01 17.8809
0.122979 3.01 17.8809
0.109875 3.01 17.9025
0.0979162 3.01 17.8808
0.0732297 3.01 17.8807
0.0848754 3.01 17.8591
0.0979162 3.01 17.8808
0.0979162 3.01 17.8808
0.0848754 3.01 17.8591
0.110383 3.01 17.8592
0.0975729 3.01 17.924
0.109875 3.01 17.9025
0.122678 3.01 17.9241
0.0841718 3.01 17.9023
0.0577122 3.01 17.902
0.0732297 3.01 17.8807
0.0729308 3.01 17.9239
0.0577122 3.01 17.902
0.0841718 3.01 17.9023
0.0732297 3.01 17.8807
0.0979162 3.01 17.8808
0.0841718 3.01 17.9023
0.0841718 3.01 17.9023
0.0979162 3.01 17.8808
0.109875 3.01 17.9025
0.0975729 3.01 17.924
0.0729308 3.01 17.9239
0.0841718 3.01 17.9023
0.0841718 3.01 17.9023
0.109875 3.01 17.9025
0.0975729 3.01 17.924
0.073948 3.01 17.8375
0.0586606 3.01 17.8588
0.05 3.01 17.8375
0.073948 3.01 17.8375
0.0848754 3.01 17.8591
0.0586606 3.01 17.8588
0.05 3.01 18.7133
0.05 3.01 18.6703
0.0603641 3.01 18.692
0.0603641 3.01 18.692
0.0753197 3.01 18.714
0.05 3.01 18.7133
0.0709395 3.01 18.7375
0.05 3.01 18.7375
0.05 3.01 18.7133
0.05 3.01 18.7133
0.0753197 3.01 18.714
0.0709395 3.01 18.7375
0.0579641 3.01 18.4246
0.05 3.01 18.4467
0.05 3.01 18.4026
0.0841948 3.01 18.3368
0.097638 3.01 18.3149
0.109814 3.01 18.3368
0.0841948 3.01 18.3368
0.0730539 3.01 18.3587
0.0578646 3.01 18.3368
0.0580261 3.01 18.4688
0.05 3.01 18.4909
0.05 3.01 18.4467
0.942292 3.01 18.0324
0.95 3.01 18.0107
0.95 3.01 18.054
0.95 3.01 17.9673
0.95 3.01 18.0107
0.942332 3.01 17.989
0.73872 3.01 18.2495
0.726137 3.01 18.2278
0.75132 3.01 18.2278
0.751305 3.01 18.2713
0.726124 3.01 18.2713
0.73872 3.01 18.2495
0.713546 3.01 18.2495
0.726137 3.01 18.2278
0.73872 3.01 18.2495
0.73872 3.01 18.2495
0.726124 3.01 18.2713
0.713546 3.01 18.2495
0.814318 3.01 18.2931
0.789096 3.01 18.2931
0.801709 3.01 18.2713
0.7765 3.01 18.2713
0.789115 3.01 18.2495
0.801709 3.01 18.2713
0.801709 3.01 18.2713
0.789096 3.01 18.2931
0.7765 3.01 18.2713
0.7765 3.01 18.2713
0.789096 3.01 18.2931
0.763892 3.01 18.2931
0.763892 3.01 18.2931
0.751305 3.01 18.2713
0.7765 3.01 18.2713
0.95 3.01 18.7375
0.929061 3.01 18.7375
0.95 3.01 18.7133
0.95 3.01 18.5354
0.926844 3.01 18.5354
0.941913 3.01 18.5132
0.941913 3.01 18.5132
0.95 3.01 18.4909
0.95 3.01 18.5354
0.926866 3.01 18.4909
0.95 3.01 18.4909
0.941913 3.01 18.5132
0.941974 3.01 18.4688
0.95 3.01 18.4909
0.926866 3.01 18.4909
0.95 3.01 18.4467
0.95 3.01 18.4909
0.941974 3.01 18.4688
0.941974 3.01 18.4688
0.926895 3.01 18.4467
0.95 3.01 18.4467
0.6127 3.01 18.7375
0.625238 3.01 18.715
0.637734 3.01 18.7375
0.662757 3.01 18.7375
0.637734 3.01 18.7375
0.650275 3.01 18.715
0.650275 3.01 18.715
0.637734 3.01 18.7375
0.625238 3.01 18.715
0.600415 3.01 18.2714
0.587856 3.01 18.2932
0.575304 3.01 18.2714
0.575304 3.01 18.2714
0.587856 3.01 18.2932
0.562749 3.01 18.2932
0.336827 3.01 17.8592
0.349395 3.01 17.8375
0.361946 3.01 17.8592
0.223755 3.01 17.8375
0.211137 3.01 17.8592
0.198629 3.01 17.8375
0.185985 3.01 17.8592
0.211137 3.01 17.8592
0.198492 3.01 17.8809
0.185806 3.01 17.9025
0.173316 3.01 17.8809
0.198492 3.01 17.8809
0.198492 3.01 17.8809
0.173316 3.01 17.8809
0.185985 3.01 17.8592
0.0576202 3.01 17.9455
0.05 3.01 17.9673
0.05 3.01 17.9237
0.05 3.01 17.9237
0.0729308 3.01 17.9239
0.0576202 3.01 17.9455
0.05 3.01 17.9237
0.0577122 3.01 17.902
0.0729308 3.01 17.9239
0.135283 3.01 17.9025
0.109875 3.01 17.9025
0.122979 3.01 17.8809
0.135283 3.01 17.9025
0.122678 3.01 17.9241
0.109875 3.01 17.9025
0.122979 3.01 17.8809
0.148138 3.01 17.8809
0.135283 3.01 17.9025
0.135283 3.01 17.9025
0.148138 3.01 17.8809
0.160572 3.01 17.9026
0.123433 3.01 17.8375
0.110383 3.01 17.8592
0.0985513 3.01 17.8375
0.110383 3.01 17.8592
0.0848754 3.01 17.8591
0.0985513 3.01 17.8375
0.0848754 3.01 17.8591
0.073948 3.01 17.8375
0.0985513 3.01 17.8375
0.0603641 3.01 18.692
0.05 3.01 18.6703
0.0739464 3.01 18.6695
0.0739464 3.01 18.6695
0.05 3.01 18.6703
0.058509 3.01 18.6476
0.058509 3.01 18.6476
0.0849548 3.01 18.6471
0.0739464 3.01 18.6695
0.058509 3.01 18.6476
0.05 3.01 18.6251
0.0732725 3.01 18.6249
0.0732725 3.01 18.6249
0.0849548 3.01 18.6471
0.058509 3.01 18.6476
0.5 3.01 18.715
0.487476 3.01 18.7375
0.47495 3.01 18.715
0.097663 3.01 18.3587
0.0841948 3.01 18.3368
0.109814 3.01 18.3368
0.0730539 3.01 18.3587
0.0841948 3.01 18.3368
0.097663 3.01 18.3587
0.0578646 3.01 18.3368
0.0730539 3.01 18.3587
0.05 3.01 18.3587
0.05 3.01 18.3587
0.05 3.01 18.3149
0.0578646 3.01 18.3368
0.05 3.01 18.5354
0.05 3.01 18.4909
0.0580869 3.01 18.5132
0.05 3.01 18.4909
0.0580261 3.01 18.4688
0.073134 3.01 18.4909
0.073134 3.01 18.4909
0.0580869 3.01 18.5132
0.05 3.01 18.4909
0.942268 3.01 18.0757
0.95 3.01 18.054
0.95 3.01 18.0974
0.942292 3.01 18.0324
0.95 3.01 18.054
0.927025 3.01 18.054
0.927025 3.01 18.054
0.942268 3.01 18.0757
0.915919 3.01 18.0757
0.95 3.01 18.054
0.942268 3.01 18.0757
0.927025 3.01 18.054
0.927013 3.01 18.0974
0.942268 3.01 18.0757
0.95 3.01 18.0974
0.915919 3.01 18.0757
0.942268 3.01 18.0757
0.927013 3.01 18.0974
0.801738 3.01 18.1843
0.814364 3.01 18.1625
0.826957 3.01 18.1842
0.852174 3.01 18.1842
0.826957 3.01 18.1842
0.839609 3.01 18.1625
0.839609 3.01 18.1625
0.826957 3.01 18.1842
0.814364 3.01 18.1625
0.776516 3.01 18.2277
0.75132 3.01 18.2278
0.763923 3.01 18.206
0.776516 3.01 18.2277
0.801725 3.01 18.2277
0.789115 3.01 18.2495
0.738704 3.01 18.2931
0.751305 3.01 18.2713
0.763892 3.01 18.2931
0.726124 3.01 18.2713
0.751305 3.01 18.2713
0.738704 3.01 18.2931
0.915617 3.01 18.5131
0.902228 3.01 18.4909
0.926866 3.01 18.4909
0.926866 3.01 18.4909
0.941913 3.01 18.5132
0.915617 3.01 18.5131
0.915617 3.01 18.5131
0.941913 3.01 18.5132
0.926844 3.01 18.5354
0.915617 3.01 18.5131
0.926844 3.01 18.5354
0.902193 3.01 18.5354
0.926866 3.01 18.4909
0.902228 3.01 18.4909
0.915668 3.01 18.4688
0.902267 3.01 18.4467
0.926895 3.01 18.4467
0.915668 3.01 18.4688
0.915668 3.01 18.4688
0.941974 3.01 18.4688
0.926866 3.01 18.4909
0.926895 3.01 18.4467
0.941974 3.01 18.4688
0.915668 3.01 18.4688
0.902267 3.01 18.4467
0.915668 3.01 18.4688
0.890059 3.01 18.4688
0.890059 3.01 18.4688
0.915668 3.01 18.4688
0.902228 3.01 18.4909
0.826927 3.01 18.2713
0.814318 3.01 18.2931
0.801709 3.01 18.2713
0.864816 3.01 18.3368
0.877308 3.01 18.3149
0.890186 3.01 18.3368
0.877308 3.01 18.3149
0.864816 3.01 18.3368
0.852122 3.01 18.3149
0.890186 3.01 18.3368
0.877308 3.01 18.3149
0.902362 3.01 18.3149
0.902362 3.01 18.3149
0.915805 3.01 18.3368
0.890186 3.01 18.3368
0.902362 3.01 18.3149
0.926964 3.01 18.3149
0.915805 3.01 18.3368
0.915835 3.01 18.2931
0.926964 3.01 18.3149
0.902362 3.01 18.3149
0.942171 3.01 18.2931
0.926964 3.01 18.3149
0.915835 3.01 18.2931
0.915835 3.01 18.2931
0.926978 3.01 18.2713
0.942171 3.01 18.2931
0.942171 3.01 18.2931
0.926978 3.01 18.2713
0.95 3.01 18.2713
0.87737 3.01 18.1408
0.890277 3.01 18.1191
0.902417 3.01 18.1408
0.852144 3.01 18.2713
0.877329 3.01 18.2713
0.864842 3.01 18.2931
0.877308 3.01 18.3149
0.852122 3.01 18.3149
0.864842 3.01 18.2931
0.902396 3.01 18.2277
0.915858 3.01 18.2495
0.890234 3.01 18.2495
0.926997 3.01 18.1842
0.942237 3.01 18.1625
0.95 3.01 18.1842
0.91589 3.01 18.1625
0.942237 3.01 18.1625
0.926997 3.01 18.1842
0.942199 3.01 18.2495
0.95 3.01 18.2277
0.95 3.01 18.2713
0.95 3.01 18.2713
0.926978 3.01 18.2713
0.942199 3.01 18.2495
0.942199 3.01 18.2495
0.926978 3.01 18.2713
0.915858 3.01 18.2495
0.95 3.01 18.1842
0.95 3.01 18.2277
0.942221 3.01 18.206
0.942221 3.01 18.206
0.926997 3.01 18.1842
0.95 3.01 18.1842
0.915876 3.01 18.206
0.926997 3.01 18.1842
0.942221 3.01 18.206
0.926989 3.01 18.2277
0.915858 3.01 18.2495
0.902396 3.01 18.2277
0.902396 3.01 18.2277
0.915876 3.01 18.206
0.926989 3.01 18.2277
0.926989 3.01 18.2277
0.942199 3.01 18.2495
0.915858 3.01 18.2495
0.95 3.01 18.2277
0.942199 3.01 18.2495
0.926989 3.01 18.2277
0.915876 3.01 18.206
0.942221 3.01 18.206
0.926989 3.01 18.2277
0.926989 3.01 18.2277
0.942221 3.01 18.206
0.95 3.01 18.2277
0.91353 3.01 18.6919
0.926054 3.01 18.6695
0.939636 3.01 18.692
0.926728 3.01 18.6249
0.95 3.01 18.6251
0.941491 3.01 18.6476
0.926728 3.01 18.6249
0.941822 3.01 18.6025
0.95 3.01 18.6251
0.95 3.01 18.6703
0.95 3.01 18.7133
0.939636 3.01 18.692
0.95 3.01 18.6703
0.926054 3.01 18.6695
0.941491 3.01 18.6476
0.939636 3.01 18.692
0.926054 3.01 18.6695
0.95 3.01 18.6703
0.941491 3.01 18.6476
0.95 3.01 18.6251
0.95 3.01 18.6703
0.941869 3.01 18.5577
0.926844 3.01 18.5354
0.95 3.01 18.5354
0.762942 3.01 18.6923
0.75028 3.01 18.7149
0.737933 3.01 18.6923
0.71291 3.01 18.6924
0.725533 3.01 18.6699
0.737933 3.01 18.6923
0.71291 3.01 18.6924
0.737933 3.01 18.6923
0.725313 3.01 18.7149
0.725313 3.01 18.7149
[...]
<PointData Scalars="View Factor" >
<DataArray type="Float64" Name="View Factor" NumberOfComponents="1" format="ascii">
0.00471332
0.00471332
0.00471332
0.00977182
0.00977182
0.00977182
0.00959501
0.00959501
0.00959501
0.00971747
0.00971747
0.00971747
0.00977713
0.00977713
0.00977713
0.00971262
0.00971262
0.00971262
0.00976561
0.00976561
0.00976561
0.00970693
0.00970693
0.00970693
0.00960394
0.00960394
0.00960394
0.0050858
0.0050858
0.0050858
0.00970943
0.00970943
0.00970943
0.00959021
0.00959021
0.00959021
0.00953225
0.00953225
0.00953225
0.00958464
0.00958464
0.00958464
0.00934595
0.00934595
0.00934595
0.00952711
0.00952711
0.00952711
0.00940773
0.00940773
0.00940773
0.00970035
0.00970035
0.00970035
0.00953674
0.00953674
0.00953674
0.0094174
0.0094174
0.0094174
0.00954097
0.00954097
0.00954097
0.0095993
0.0095993
0.0095993
0.00918439
0.00918439
0.00918439
0.00936537
0.00936537
0.00936537
0.0092488
0.0092488
0.0092488
0.00942174
0.00942174
0.00942174
0.00936072
0.00936072
0.00936072
0.0091887
0.0091887
0.0091887
0.00924424
0.00924424
0.00924424
0.00978891
0.00978891
0.00978891
0.00972592
0.00972592
0.00972592
0.00491915
0.00491915
0.00491915
0.00486543
0.00486543
0.00486543
0.00478264
0.00478264
0.00478264
0.0048104
0.0048104
0.0048104
0.00604114
0.00604114
0.00604114
0.00651273
0.00651273
0.00651273
0.00643889
0.00643889
0.00643889
0.00583542
0.00583542
0.00583542
0.00782141
0.00782141
0.00782141
0.00810963
0.00810963
0.00810963
0.00678595
0.00678595
0.00678595
0.00662938
0.00662938
0.00662938
0.00675454
0.00675454
0.00675454
0.00667613
0.00667613
0.00667613
0.00647403
0.00647403
0.00647403
0.00659629
0.00659629
0.00659629
0.00652012
0.00652012
0.00652012
0.00649068
0.00649068
0.00649068
0.00653665
0.00653665
0.00653665
0.00454601
0.00454601
0.00454601
0.00528381
0.00528381
0.00528381
0.00533886
0.00533886
0.00533886
0.00540418
0.00540418
0.00540418
0.00546548
0.00546548
0.00546548
0.00552258
0.00552258
0.00552258
0.00559043
0.00559043
0.00559043
0.00467541
0.00467541
0.00467541
0.00466688
0.00466688
0.00466688
0.00469719
0.00469719
0.00469719
0.00663819
0.00663819
0.00663819
0.0066058
0.0066058
0.0066058
0.00964206
0.00964206
0.00964206
0.0097585
0.0097585
0.0097585
0.0095782
0.0095782
0.0095782
0.00940186
0.00940186
0.00940186
0.00952116
0.00952116
0.00952116
0.00896589
0.00896589
0.00896589
0.00907801
0.00907801
0.00907801
0.00919273
0.00919273
0.00919273
0.00935626
0.00935626
0.00935626
0.00923974
0.00923974
0.00923974
0.00941286
0.00941286
0.00941286
0.00935143
0.00935143
0.00935143
0.00978159
0.00978159
0.00978159
0.00972167
0.00972167
0.00972167
0.00978532
0.00978532
0.00978532
0.00497317
0.00497317
0.00497317
0.00502899
0.00502899
0.00502899
0.00505794
0.00505794
0.00505794
0.00514418
0.00514418
0.00514418
0.00511518
0.00511518
0.00511518
0.004743
0.004743
0.004743
0.00643712
0.00643712
0.00643712
0.00640061
0.00640061
0.00640061
0.00640207
0.00640207
0.00640207
0.00647754
0.00647754
0.00647754
0.00563744
0.00563744
0.00563744
0.00576833
0.00576833
0.00576833
0.00570235
0.00570235
0.00570235
0.00754581
0.00754581
0.00754581
0.00773593
0.00773593
0.00773593
0.00760959
0.00760959
0.00760959
0.00764396
0.00764396
0.00764396
0.007464
0.007464
0.007464
0.00751943
0.00751943
0.00751943
0.00705692
0.00705692
0.00705692
0.00703733
0.00703733
0.00703733
0.00708876
0.00708876
0.00708876
0.00684877
0.00684877
0.00684877
0.00675178
0.00675178
0.00675178
0.00650683
0.00650683
0.00650683
0.00655268
0.00655268
0.00655268
0.00541929
0.00541929
0.00541929
0.00538081
0.00538081
0.00538081
0.00532052
0.00532052
0.00532052
0.00529849
0.00529849
0.00529849
0.00548083
0.00548083
0.00548083
0.00560624
0.00560624
0.00560624
0.00550364
0.00550364
0.00550364
0.00556621
0.00556621
0.00556621
0.00558225
0.00558225
0.00558225
0.00551943
0.00551943
0.00551943
0.00650309
0.00650309
0.00650309
0.00620299
0.00620299
0.00620299
0.00624756
0.00624756
0.00624756
0.00622993
0.00622993
0.00622993
0.00618516
0.00618516
0.00618516
0.00621191
0.00621191
0.00621191
0.0062837
0.0062837
0.0062837
0.00631
0.00631
0.00631
0.00638309
0.00638309
0.00638309
0.00641116
0.00641116
0.00641116
0.00724804
0.00724804
0.00724804
0.00646755
0.00646755
0.00646755
0.00631991
0.00631991
0.00631991
0.00662857
0.00662857
0.00662857
0.0069542
0.0069542
0.0069542
0.00700498
0.00700498
0.00700498
0.00655481
0.00655481
0.00655481
0.00648559
0.00648559
0.00648559
0.00653223
0.00653223
0.00653223
0.00678715
0.00678715
0.00678715
0.00687337
0.00687337
0.00687337
0.006843
0.006843
0.006843
0.00665745
0.00665745
0.00665745
0.0067353
0.0067353
0.0067353
0.00660833
0.00660833
0.00660833
0.00663752
0.00663752
0.00663752
0.00676369
0.00676369
0.00676369
0.00671505
0.00671505
0.00671505
0.00470718
0.00470718
0.00470718
0.00488495
0.00488495
0.00488495
0.00493982
0.00493982
0.00493982
0.00467138
0.00467138
0.00467138
0.00477775
0.00477775
0.00477775
0.00472604
0.00472604
0.00472604
0.0048262
0.0048262
0.0048262
0.00522473
0.00522473
0.00522473
0.00473384
0.00473384
0.00473384
0.00479693
0.00479693
0.00479693
0.00474377
0.00474377
0.00474377
0.00471254
0.00471254
0.00471254
0.00463946
0.00463946
0.00463946
0.00466044
0.00466044
0.00466044
0.00462974
0.00462974
0.00462974
0.00501362
0.00501362
0.00501362
0.0049053
0.0049053
0.0049053
0.00482872
0.00482872
0.00482872
0.00488298
0.00488298
0.00488298
0.00484784
0.00484784
0.00484784
0.00490238
0.00490238
0.00490238
0.00475829
0.00475829
0.00475829
0.00470563
0.00470563
0.00470563
0.00468363
0.00468363
0.00468363
0.00681933
0.00681933
0.00681933
0.00659318
0.00659318
0.00659318
0.00639057
0.00639057
0.00639057
0.00630544
0.00630544
0.00630544
0.00637903
0.00637903
0.00637903
0.00642207
0.00642207
0.00642207
0.00652919
0.00652919
0.00652919
0.00649725
0.00649725
0.00649725
0.0063168
0.0063168
0.0063168
0.0062747
0.0062747
0.0062747
0.00589392
0.00589392
0.00589392
0.00632801
0.00632801
0.00632801
0.00637162
0.00637162
0.00637162
0.00639952
0.00639952
0.00639952
0.00625347
0.00625347
0.00625347
0.00973174
0.00973174
0.00973174
0.00974156
0.00974156
0.00974156
0.00967522
0.00967522
0.00967522
0.00955357
0.00955357
0.00955357
0.00938496
0.00938496
0.00938496
0.00699321
0.00699321
0.00699321
0.00683115
0.00683115
0.00683115
0.00696136
0.00696136
0.00696136
0.00688019
0.00688019
0.00688019
0.00689769
0.00689769
0.00689769
0.00686586
0.00686586
0.00686586
0.00948862
0.00948862
0.00948862
0.00969695
0.00969695
0.00969695
0.00950255
0.00950255
0.00950255
0.00801651
0.00801651
0.00801651
0.00806981
0.00806981
0.00806981
0.0093105
0.0093105
0.0093105
0.00966812
0.00966812
0.00966812
0.0095464
0.0095464
0.0095464
0.00942705
0.00942705
0.00942705
0.00502959
0.00502959
0.00502959
0.00471993
0.00471993
0.00471993
0.00597141
0.00597141
0.00597141
0.00590285
0.00590285
0.00590285
0.00632648
0.00632648
0.00632648
0.00882643
0.00882643
0.00882643
0.00596827
0.00596827
0.00596827
0.00589976
0.00589976
0.00589976
0.00654979
0.00654979
0.00654979
0.00651038
0.00651038
0.00651038
0.00662904
0.00662904
0.00662904
0.00655186
0.00655186
0.00655186
0.00655337
0.00655337
0.00655337
0.00651454
0.00651454
0.00651454
0.00670916
0.00670916
0.00670916
0.00663057
0.00663057
0.00663057
0.00666891
0.00666891
0.00666891
0.00674768
0.00674768
0.00674768
0.00678814
0.00678814
0.00678814
0.00654287
0.00654287
0.00654287
0.00657145
0.00657145
0.00657145
0.00748737
0.00748737
0.00748737
0.00697447
0.00697447
0.00697447
0.00694304
0.00694304
0.00694304
0.00686216
0.00686216
0.00686216
0.00706873
0.00706873
0.00706873
0.00701719
0.00701719
0.00701719
0.00730191
0.00730191
0.00730191
0.00779391
0.00779391
0.00779391
0.00763798
0.00763798
0.00763798
0.00676913
0.00676913
0.00676913
0.00661309
0.00661309
0.00661309
0.00664329
0.00664329
0.00664329
0.00672118
0.00672118
0.00672118
0.00673812
0.00673812
0.00673812
0.00665997
0.00665997
0.00665997
0.0064318
0.0064318
0.0064318
0.00640236
0.00640236
0.00640236
0.00652248
0.00652248
0.00652248
0.00644719
0.00644719
0.00644719
0.00624149
0.00624149
0.00624149
0.00619859
0.00619859
0.00619859
0.00644598
0.00644598
0.00644598
0.00611464
0.00611464
0.00611464
0.00562192
0.00562192
0.00562192
0.00570161
0.00570161
0.00570161
0.00568605
0.00568605
0.00568605
0.00572627
0.00572627
0.00572627
0.00480846
0.00480846
0.00480846
0.00478687
0.00478687
0.00478687
0.00481873
0.00481873
0.00481873
0.00487284
0.00487284
0.00487284
0.00511943
0.00511943
0.00511943
0.00491645
0.00491645
0.00491645
0.004862
0.004862
0.004862
0.00516384
0.00516384
0.00516384
0.00511878
0.00511878
0.00511878
0.00518631
0.00518631
0.00518631
0.00681299
0.00681299
0.00681299
0.00645689
0.00645689
0.00645689
0.00648557
0.00648557
0.00648557
0.00643924
0.00643924
0.00643924
0.00636529
0.00636529
0.00636529
0.00614924
0.00614924
0.00614924
0.0062203
0.0062203
0.0062203
0.00643018
0.00643018
0.00643018
0.00652409
0.00652409
0.00652409
0.00650491
0.00650491
0.00650491
0.00655215
0.00655215
0.00655215
0.00626526
0.00626526
0.00626526
0.00633177
0.00633177
0.00633177
0.00678459
0.00678459
0.00678459
0.00693536
0.00693536
0.00693536
0.00688478
0.00688478
0.00688478
0.00710996
0.00710996
0.00710996
0.00704811
0.00704811
0.00704811
0.00716301
0.00716301
0.00716301
0.00713152
0.00713152
0.00713152
0.00727966
0.00727966
0.00727966
0.00736636
0.00736636
0.00736636
0.00739896
0.00739896
0.00739896
0.00469156
0.00469156
0.00469156
0.00475508
0.00475508
0.00475508
0.00462581
0.00462581
0.00462581
0.00465623
0.00465623
0.00465623
0.00457631
0.00457631
0.00457631
0.00473988
0.00473988
0.00473988
0.00489922
0.00489922
0.00489922
0.00479225
0.00479225
0.00479225
0.00481125
0.00481125
0.00481125
0.00486455
0.00486455
0.00486455
0.00502744
0.00502744
0.00502744
0.00510627
0.00510627
0.00510627
0.00508401
0.00508401
0.00508401
0.00507136
0.00507136
0.00507136
0.00523921
0.00523921
0.00523921
0.00520217
0.00520217
0.00520217
0.00497411
0.00497411
0.00497411
0.00495391
0.00495391
0.00495391
0.0048162
0.0048162
0.0048162
0.00480671
0.00480671
0.00480671
0.00483843
0.00483843
0.00483843
0.0046489
0.0046489
0.0046489
0.00467007
0.00467007
0.00467007
0.00472227
0.00472227
0.00472227
0.00475342
0.00475342
0.00475342
0.00461942
0.00461942
0.00461942
0.00470253
0.00470253
0.00470253
0.00467109
0.00467109
0.00467109
0.00459906
0.00459906
0.00459906
0.00470254
0.00470254
0.00470254
0.00465055
0.00465055
0.00465055
0.00496052
0.00496052
0.00496052
0.0049936
0.0049936
0.0049936
0.00541528
0.00541528
0.00541528
0.00544041
0.00544041
0.00544041
0.00523605
0.00523605
0.00523605
0.00504999
0.00504999
0.00504999
0.00507312
0.00507312
0.00507312
0.00507033
0.00507033
0.00507033
0.00521234
0.00521234
0.00521234
0.00515394
0.00515394
0.00515394
0.00513051
0.00513051
0.00513051
0.00516495
0.00516495
0.00516495
0.00491537
0.00491537
0.00491537
0.00498069
0.00498069
0.00498069
0.00492515
0.00492515
0.00492515
0.00489283
0.00489283
0.00489283
0.00500377
0.00500377
0.00500377
0.00497076
0.00497076
0.00497076
0.0048254
0.0048254
0.0048254
0.00477186
0.00477186
0.00477186
0.00474974
0.00474974
0.00474974
0.00478062
0.00478062
0.00478062
0.00493462
0.00493462
0.00493462
0.00499031
0.00499031
0.00499031
0.00502315
0.00502315
0.00502315
0.00558301
0.00558301
0.00558301
0.00564716
0.00564716
0.00564716
0.00708597
0.00708597
0.00708597
0.0067593
0.0067593
0.0067593
0.00713115
0.00713115
0.00713115
0.00709189
0.00709189
0.00709189
0.00671675
0.00671675
0.00671675
0.00678432
0.00678432
0.00678432
0.00682915
0.00682915
0.00682915
0.00644093
0.00644093
0.00644093
0.00647407
0.00647407
0.00647407
0.00654052
0.00654052
0.00654052
0.00636638
0.00636638
0.00636638
0.00633372
0.00633372
0.00633372
0.00626057
0.00626057
0.00626057
0.00622019
0.00622019
0.00622019
0.00662522
0.00662522
0.00662522
0.00651677
0.00651677
0.00651677
0.00648517
0.00648517
0.00648517
0.00641019
0.00641019
0.00641019
0.006367
0.006367
0.006367
0.00611711
0.00611711
0.00611711
0.00614852
0.00614852
0.00614852
0.00628573
0.00628573
0.00628573
0.00620246
0.00620246
0.00620246
0.00643185
0.00643185
0.00643185
0.00646467
0.00646467
0.00646467
0.006091
0.006091
0.006091
0.00612152
0.00612152
0.00612152
0.00626849
0.00626849
0.00626849
0.00634149
0.00634149
0.00634149
0.00618188
0.00618188
0.00618188
0.00565521
0.00565521
0.00565521
0.00975048
0.00975048
0.00975048
0.0096845
0.0096845
0.0096845
0.00969287
0.00969287
0.00969287
0.008217
0.008217
0.008217
0.00841151
0.00841151
0.00841151
0.00831771
0.00831771
0.00831771
0.00943178
0.00943178
0.00943178
0.00935366
0.00935366
0.00935366
0.00943177
0.00943177
0.00943177
0.00701141
0.00701141
0.00701141
0.00697914
0.00697914
0.00697914
0.00702905
0.00702905
0.00702905
0.00711238
0.00711238
0.00711238
0.00691464
0.00691464
0.00691464
0.00699638
0.00699638
0.00699638
0.00966505
0.00966505
0.00966505
0.00954359
0.00954359
0.00954359
0.00972103
0.00972103
0.00972103
0.009654
0.009654
0.009654
0.00952101
0.00952101
0.00952101
0.00945506
0.00945506
0.00945506
0.00933689
0.00933689
0.00933689
0.0093242
0.0093242
0.0093242
0.0092723
0.0092723
0.0092723
0.00910596
0.00910596
0.00910596
0.00915694
0.00915694
0.00915694
0.00965425
0.00965425
0.00965425
0.00945395
0.00945395
0.00945395
0.00791991
0.00791991
0.00791991
0.00773089
0.00773089
0.00773089
0.00936494
0.00936494
0.00936494
0.00949808
0.00949808
0.00949808
0.00937917
0.00937917
0.00937917
0.00956267
0.00956267
0.00956267
0.00540033
0.00540033
0.00540033
0.00527033
0.00527033
0.00527033
0.00510549
0.00510549
0.00510549
0.00510861
0.00510861
0.00510861
0.00513611
0.00513611
0.00513611
0.00528547
0.00528547
0.00528547
0.00519467
0.00519467
0.00519467
0.00522576
0.00522576
0.00522576
0.00513277
0.00513277
0.00513277
0.00505748
0.00505748
0.00505748
0.00520316
0.00520316
0.00520316
0.00526293
0.00526293
0.00526293
0.0047495
0.0047495
0.0047495
0.00488742
0.00488742
0.00488742
0.00483295
0.00483295
0.00483295
0.00480282
0.00480282
0.00480282
0.00499855
0.00499855
0.00499855
0.00489958
0.00489958
0.00489958
0.00484492
0.00484492
0.00484492
0.00600386
0.00600386
0.00600386
0.0059701
0.0059701
0.0059701
0.00600547
0.00600547
0.00600547
0.00580111
0.00580111
0.00580111
0.00586835
0.00586835
0.00586835
0.00576709
0.00576709
0.00576709
0.00579959
0.00579959
0.00579959
0.00590156
0.00590156
0.00590156
0.00586681
0.00586681
0.00586681
0.00628888
0.00628888
0.00628888
0.006214
0.006214
0.006214
0.00625503
0.00625503
0.00625503
0.00632791
0.00632791
0.00632791
0.0062906
0.0062906
0.0062906
0.00885402
0.00885402
0.00885402
0.00806299
0.00806299
0.00806299
0.00826207
0.00826207
0.00826207
0.0077468
0.0077468
0.0077468
0.00765408
0.00765408
0.00765408
0.00773847
0.00773847
0.00773847
0.00746446
0.00746446
0.00746446
0.00737532
0.00737532
0.00737532
0.00802477
0.00802477
0.00802477
0.0081206
0.0081206
0.0081206
0.00822034
0.00822034
0.00822034
0.00812259
0.00812259
0.00812259
0.00807245
0.00807245
0.00807245
0.00811426
0.00811426
0.00811426
0.00821384
0.00821384
0.00821384
0.00837142
0.00837142
0.00837142
0.00826946
0.00826946
0.00826946
0.00821748
0.00821748
0.00821748
0.00826614
0.00826614
0.00826614
0.00871783
0.00871783
0.00871783
0.00576536
0.00576536
0.00576536
0.00569944
0.00569944
0.00569944
0.00639859
0.00639859
0.00639859
0.0064348
0.0064348
0.0064348
0.00632449
0.00632449
0.00632449
0.00628663
0.00628663
0.00628663
0.00654715
0.00654715
0.00654715
0.00720201
0.00720201
0.00720201
0.00724385
0.00724385
0.00724385
0.00728785
0.00728785
0.00728785
0.0072861
0.0072861
0.0072861
0.00724177
0.00724177
0.00724177
0.00678655
0.00678655
0.00678655
0.00686694
0.00686694
0.00686694
0.00715026
0.00715026
0.00715026
0.00662693
0.00662693
0.00662693
0.00678438
0.00678438
0.00678438
0.00666704
0.00666704
0.00666704
0.00674579
0.00674579
0.00674579
0.00778651
0.00778651
0.00778651
0.00769358
0.00769358
0.00769358
0.00717282
0.00717282
0.00717282
0.00742179
0.00742179
0.00742179
0.00738896
0.00738896
0.00738896
0.00718433
0.00718433
0.00718433
0.0072697
0.0072697
0.0072697
0.00715246
0.00715246
0.00715246
0.00720512
0.00720512
0.00720512
0.00722534
0.00722534
0.00722534
0.00731136
0.00731136
0.00731136
0.00766809
0.00766809
0.00766809
0.00776046
0.00776046
0.00776046
0.00638684
0.00638684
0.00638684
0.00641591
0.00641591
0.00641591
0.00637083
0.00637083
0.00637083
0.00629768
0.00629768
0.00629768
0.00626933
0.00626933
0.00626933
0.00631342
0.00631342
0.00631342
0.00641738
0.00641738
0.00641738
0.00634348
0.00634348
0.00634348
0.00635779
0.00635779
0.00635779
0.00631405
0.00631405
0.00631405
0.0065682
0.0065682
0.0065682
0.00669177
0.00669177
0.00669177
0.00664515
0.00664515
0.00664515
0.00625522
0.00625522
0.00625522
0.00621244
0.00621244
0.00621244
0.00622583
0.00622583
0.00622583
0.00575954
0.00575954
0.00575954
0.00569424
0.00569424
0.00569424
0.00600988
0.00600988
0.00600988
0.00607115
0.00607115
0.00607115
0.0061322
0.0061322
0.0061322
0.00608861
0.00608861
0.00608861
0.0061057
0.0061057
0.0061057
0.00603616
0.00603616
0.00603616
0.00577553
0.00577553
0.00577553
0.00567014
0.00567014
0.00567014
0.00571028
0.00571028
0.00571028
0.00549604
0.00549604
0.00549604
0.00533564
0.00533564
0.00533564
0.00539614
0.00539614
0.00539614
0.00543428
0.00543428
0.00543428
0.00541097
0.00541097
0.00541097
0.00524492
0.00524492
0.00524492
0.00485169
0.00485169
0.00485169
0.0047871
0.0047871
0.0047871
0.00484067
0.00484067
0.00484067
0.0048733
0.0048733
0.0048733
0.00488427
0.00488427
0.00488427
0.00489493
0.00489493
0.00489493
0.00486241
0.00486241
0.00486241
0.00493914
0.00493914
0.00493914
0.0048293
0.0048293
0.0048293
0.00474387
0.00474387
0.00474387
0.00477596
0.00477596
0.00477596
0.00485029
0.00485029
0.00485029
0.00500541
0.00500541
0.00500541
0.0049498
0.0049498
0.0049498
0.00492797
0.00492797
0.00492797
0.00496124
0.00496124
0.00496124
0.00521689
0.00521689
0.00521689
0.00515865
0.00515865
0.00515865
0.00515064
0.00515064
0.00515064
0.00509328
0.00509328
0.00509328
0.00513695
0.00513695
0.00513695
0.00517274
0.00517274
0.00517274
0.00673391
0.00673391
0.00673391
0.00657899
0.00657899
0.00657899
0.00662611
0.00662611
0.00662611
0.00670371
0.00670371
0.00670371
0.00656118
0.00656118
0.00656118
0.00671553
0.00671553
0.00671553
0.00660841
0.00660841
0.00660841
0.00668572
0.00668572
0.00668572
0.00659019
0.00659019
0.00659019
0.00666722
0.00666722
0.00666722
0.00692417
0.00692417
0.00692417
0.00684358
0.00684358
0.00684358
0.00679431
0.00679431
0.00679431
0.00695518
0.00695518
0.00695518
0.00690476
0.00690476
0.00690476
0.00682448
0.00682448
0.00682448
0.00626474
0.00626474
0.00626474
0.00635434
0.00635434
0.00635434
0.00628145
0.00628145
0.00628145
0.00623713
0.00623713
0.00623713
0.00638265
0.00638265
0.00638265
0.00633737
0.00633737
0.00633737
0.006302
0.006302
0.006302
0.00634742
0.00634742
0.00634742
0.00632902
0.00632902
0.00632902
0.0064024
0.0064024
0.0064024
0.00642109
0.00642109
0.00642109
0.00644906
0.00644906
0.00644906
0.00616673
0.00616673
0.00616673
0.00619376
0.00619376
0.00619376
0.0061175
0.0061175
0.0061175
0.00605355
0.00605355
0.00605355
0.0060965
0.0060965
0.0060965
0.00669663
0.00669663
0.00669663
0.00677511
0.00677511
0.00677511
0.00667724
0.00667724
0.00667724
0.00664817
0.00664817
0.00664817
0.00675541
0.00675541
0.00675541
0.00680482
0.00680482
0.00680482
0.00697544
0.00697544
0.00697544
0.0070269
0.0070269
0.0070269
0.00689427
0.00689427
0.00689427
0.00686423
0.00686423
0.00686423
0.00691503
0.00691503
0.00691503
0.00699653
0.00699653
0.00699653
0.00737596
0.00737596
0.00737596
0.007343
0.007343
0.007343
0.00702935
0.00702935
0.00702935
0.00728203
0.00728203
0.00728203
0.00455618
0.00455618
0.00455618
0.00476442
0.00476442
0.00476442
0.0048175
0.0048175
0.0048175
0.00487886
0.00487886
0.00487886
0.00482521
0.00482521
0.00482521
0.00489201
0.00489201
0.00489201
0.00491278
0.00491278
0.00491278
0.00483807
0.00483807
0.00483807
0.00480518
0.00480518
0.00480518
0.00499333
0.00499333
0.00499333
0.00492564
0.00492564
0.00492564
0.00498078
0.00498078
0.00498078
0.00501501
0.00501501
0.00501501
0.00490449
0.00490449
0.00490449
0.00493795
0.00493795
0.00493795
0.00498845
0.00498845
0.00498845