<VTKFile type="UnstructuredGrid" version="1.0">
<UnstructuredGrid>
<Piece NumberOfPoints="8859" NumberOfCells="2953">
<Points>
<DataArray type="Float64" NumberOfComponents="3" format="ascii">
2.04744 2.20956 8.22762
2.06275 2.19425 8.23958
2.04754 2.20946 8.25333
2.07804 2.17896 8.17667
2.07805 2.17895 8.15152
2.0934 2.1636 8.16398
2.06271 2.19429 8.18936
2.07804 2.17896 8.17667
2.07804 2.17896 8.20186
2.01701 2.23999 8.27988
2.03242 2.22458 8.2875
2.00164 2.25536 8.2875
2.01701 2.23999 8.27988
2.03232 2.22468 8.26457
2.03242 2.22458 8.2875
2.04777 2.20923 8.27979
2.06326 2.19374 8.2875
2.03242 2.22458 8.2875
2.04777 2.20923 8.27979
2.03232 2.22468 8.26457
2.04754 2.20946 8.25333
2.03242 2.22458 8.2875
2.03232 2.22468 8.26457
2.04777 2.20923 8.27979
2.04754 2.20946 8.25333
2.06275 2.19425 8.23958
2.06287 2.19413 8.26427
2.06287 2.19413 8.26427
2.04777 2.20923 8.27979
2.04754 2.20946 8.25333
2.06326 2.19374 8.2875
2.04777 2.20923 8.27979
2.06287 2.19413 8.26427
2.06275 2.19425 8.23958
2.04744 2.20956 8.22762
2.06271 2.19429 8.21452
2.06271 2.19429 8.18936
2.07804 2.17896 8.20186
2.06271 2.19429 8.21452
2.07809 2.17891 8.25262
2.06287 2.19413 8.26427
2.06275 2.19425 8.23958
2.0934 2.1636 8.23895
2.0934 2.1636 8.26355
2.07809 2.17891 8.25262
2.0934 2.1636 8.13887
2.0934 2.1636 8.16398
2.07805 2.17895 8.15152
2.07804 2.17896 8.17667
2.0934 2.1636 8.16398
2.0934 2.1636 8.18906
2.0934 2.1636 8.18906
2.07804 2.17896 8.20186
2.07804 2.17896 8.17667
2.0934 2.1636 7.61152
2.0934 2.1636 7.63665
2.07807 2.17893 7.62407
2.07807 2.17893 8.07607
2.0934 2.1636 8.08861
2.07806 2.17894 8.10121
2.0934 2.1636 8.06348
2.0934 2.1636 8.08861
2.07807 2.17893 8.07607
2.07808 2.17892 7.95044
2.0934 2.1636 7.96299
2.07808 2.17892 7.97555
1.61564 2.64136 7.39559
1.63134 2.62566 7.3875
1.63134 2.62566 7.41063
1.5683 2.6887 8.2875
1.53648 2.72052 8.2875
1.55243 2.70457 8.27932
2.07804 2.17896 8.22712
2.06271 2.19429 8.21452
2.07804 2.17896 8.20186
2.06275 2.19425 8.23958
2.06271 2.19429 8.21452
2.07804 2.17896 8.22712
2.07804 2.17896 8.22712
2.07809 2.17891 8.25262
2.06275 2.19425 8.23958
2.0934 2.1636 8.23895
2.07809 2.17891 8.25262
2.07804 2.17896 8.22712
2.07833 2.17867 8.27884
2.0934 2.1636 8.26355
2.0934 2.1636 8.2875
2.07833 2.17867 8.27884
2.07809 2.17891 8.25262
2.0934 2.1636 8.26355
2.0934 2.1636 8.2875
2.06326 2.19374 8.2875
2.07833 2.17867 8.27884
2.06326 2.19374 8.2875
2.06287 2.19413 8.26427
2.07833 2.17867 8.27884
2.06287 2.19413 8.26427
2.07809 2.17891 8.25262
2.07833 2.17867 8.27884
2.07806 2.17894 8.10121
2.0934 2.1636 8.08861
2.0934 2.1636 8.11374
2.07804 2.17896 8.20186
2.0934 2.1636 8.18906
2.0934 2.1636 8.21407
2.0934 2.1636 8.23895
2.07804 2.17896 8.22712
2.0934 2.1636 8.21407
2.0934 2.1636 8.21407
2.07804 2.17896 8.22712
2.07804 2.17896 8.20186
2.0934 2.1636 7.93788
2.0934 2.1636 7.96299
2.07808 2.17892 7.95044
2.07807 2.17893 7.62407
2.0934 2.1636 7.63665
2.07807 2.17893 7.6492
2.06275 2.19425 8.06353
2.04743 2.20957 8.05098
2.06275 2.19425 8.03838
2.07806 2.17894 8.12636
2.0934 2.1636 8.13887
2.07805 2.17895 8.15152
2.07806 2.17894 8.12636
2.0934 2.1636 8.11374
2.0934 2.1636 8.13887
2.07806 2.17894 8.12636
2.06273 2.19427 8.11384
2.07806 2.17894 8.10121
2.07806 2.17894 8.10121
2.0934 2.1636 8.11374
2.07806 2.17894 8.12636
2.06271 2.19429 8.16418
2.07804 2.17896 8.17667
2.06271 2.19429 8.18936
2.06271 2.19429 8.16418
2.07805 2.17895 8.15152
2.07804 2.17896 8.17667
2.04741 2.20959 8.12649
2.03209 2.22491 8.13915
2.0321 2.2249 8.11394
1.83285 2.42415 8.25338
1.81747 2.43953 8.2399
1.83285 2.42415 8.22775
1.78664 2.47036 8.0888
1.78664 2.47036 8.114
1.77121 2.48579 8.10139
2.0934 2.1636 7.3875
2.0934 2.1636 7.41145
2.07833 2.17867 7.39616
1.56833 2.68867 8.26433
1.5683 2.6887 8.2875
1.55243 2.70457 8.27932
1.63134 2.62566 8.18946
1.61565 2.64135 8.20214
1.61564 2.64136 8.17685
1.55243 2.70457 8.27932
1.53648 2.72052 8.2875
1.53664 2.72036 8.26423
2.06276 2.19424 7.712
2.04745 2.20955 7.69943
2.06276 2.19424 7.68688
2.0934 2.1636 7.86259
2.07808 2.17892 7.85005
2.0934 2.1636 7.8375
2.07808 2.17892 7.90024
2.0934 2.1636 7.88769
2.0934 2.1636 7.91278
2.06277 2.19423 7.81241
2.04745 2.20955 7.82495
2.04745 2.20955 7.79986
2.06277 2.19423 7.8375
2.04745 2.20955 7.82495
2.06277 2.19423 7.81241
2.07808 2.17892 7.85005
2.06277 2.19423 7.86259
2.06277 2.19423 7.8375
2.04745 2.20955 7.97557
2.06276 2.19424 7.98812
2.04744 2.20956 8.0007
2.01682 2.24018 7.95047
2.01682 2.24018 7.97559
2.0015 2.2555 7.96303
2.04745 2.20955 7.95045
2.03214 2.22486 7.9379
2.04745 2.20955 7.92535
2.04745 2.20955 7.92535
2.06277 2.19423 7.93789
2.04745 2.20955 7.95045
2.03214 2.22486 7.9379
2.03214 2.22486 7.9128
2.04745 2.20955 7.92535
2.04745 2.20955 7.92535
2.03214 2.22486 7.9128
2.04745 2.20955 7.90024
2.0934 2.1636 7.91278
2.0934 2.1636 7.93788
2.07808 2.17892 7.92534
2.07808 2.17892 7.92534
2.07808 2.17892 7.90024
2.0934 2.1636 7.91278
2.07808 2.17892 7.92534
2.0934 2.1636 7.93788
2.07808 2.17892 7.95044
2.07808 2.17892 7.95044
2.06277 2.19423 7.93789
2.07808 2.17892 7.92534
2.04744 2.20956 8.02583
2.03213 2.22487 8.01328
2.04744 2.20956 8.0007
2.04744 2.20956 8.02583
2.06275 2.19425 8.03838
2.04743 2.20957 8.05098
2.0015 2.2555 8.0133
2.01681 2.24019 8.00072
2.01681 2.24019 8.02586
2.01681 2.24019 8.02586
2.01681 2.24019 8.00072
2.03213 2.22487 8.01328
2.0934 2.1636 7.9881
2.07808 2.17892 7.97555
2.0934 2.1636 7.96299
2.04744 2.20956 8.0007
2.06276 2.19424 7.98812
2.06276 2.19424 8.01325
2.06276 2.19424 8.01325
2.04744 2.20956 8.02583
2.04744 2.20956 8.0007
2.06275 2.19425 8.03838
2.04744 2.20956 8.02583
2.06276 2.19424 8.01325
2.07806 2.17894 8.10121
2.06273 2.19427 8.11384
2.06274 2.19426 8.08868
2.06274 2.19426 8.08868
2.07807 2.17893 8.07607
2.07806 2.17894 8.10121
2.06275 2.19425 8.06353
2.07807 2.17893 8.07607
2.06274 2.19426 8.08868
2.0321 2.2249 8.11394
2.03211 2.22489 8.08875
2.04742 2.20958 8.1013
2.04742 2.20958 8.1013
2.04741 2.20959 8.12649
2.0321 2.2249 8.11394
2.06273 2.19427 8.11384
2.04741 2.20959 8.12649
2.04742 2.20958 8.1013
2.04742 2.20958 8.1013
2.06274 2.19426 8.08868
2.06273 2.19427 8.11384
2.01679 2.24021 8.10138
2.03211 2.22489 8.08875
2.0321 2.2249 8.11394
2.01679 2.24021 8.10138
2.00148 2.25552 8.11401
2.00148 2.25552 8.08881
2.06271 2.19429 8.18936
2.06271 2.19429 8.21452
2.04741 2.20959 8.20222
2.04741 2.20959 8.20222
2.06271 2.19429 8.21452
2.04744 2.20956 8.22762
2.03209 2.22491 8.13915
2.04741 2.20959 8.12649
2.0474 2.2096 8.15169
2.0474 2.2096 8.15169
2.03209 2.22491 8.16437
2.03209 2.22491 8.13915
1.97087 2.28613 7.98817
1.95555 2.30145 8.00075
1.95555 2.30145 7.97561
2.00148 2.25552 8.08881
2.00149 2.25551 8.06362
2.0168 2.2402 8.07619
2.0168 2.2402 8.07619
2.01679 2.24021 8.10138
2.00148 2.25552 8.08881
2.03211 2.22489 8.08875
2.01679 2.24021 8.10138
2.0168 2.2402 8.07619
2.03211 2.22489 8.06358
2.03211 2.22489 8.08875
2.0168 2.2402 8.07619
1.86358 2.39342 8.22776
1.86358 2.39342 8.25339
1.84822 2.40878 8.23991
1.84822 2.40878 8.23991
1.86358 2.39342 8.25339
1.84822 2.40878 8.2645
1.84822 2.40878 8.23991
1.84822 2.40878 8.2645
1.83285 2.42415 8.25338
1.83285 2.42415 8.25338
1.83285 2.42415 8.22775
1.84822 2.40878 8.23991
1.81747 2.43953 8.21484
1.83285 2.42415 8.22775
1.81747 2.43953 8.2399
1.80202 2.45498 7.85005
1.80202 2.45498 7.87515
1.7866 2.4704 7.8626
1.70922 2.54778 7.97556
1.69367 2.56333 7.963
1.70922 2.54778 7.95045
1.70924 2.54776 8.02583
1.6937 2.5633 8.03839
1.69369 2.56331 8.01325
1.63134 2.62566 8.18946
1.61564 2.64136 8.17685
1.63132 2.62568 8.16424
1.63135 2.62565 8.21466
1.61565 2.64135 8.20214
1.63134 2.62566 8.18946
1.69376 2.56324 8.13912
1.69378 2.56322 8.16434
1.6782 2.5788 8.15172
1.59983 2.65717 8.08858
1.61554 2.64146 8.07603
1.61557 2.64143 8.1012
1.59973 2.65727 7.98803
1.58397 2.67303 8.00056
1.58396 2.67304 7.97546
1.61564 2.64136 8.27941
1.63134 2.62566 8.2875
1.5999 2.6571 8.2875
1.63134 2.62566 8.26437
1.63134 2.62566 8.2875
1.61564 2.64136 8.27941
1.647 2.61 8.27947
1.63134 2.62566 8.2875
1.63134 2.62566 8.26437
1.59993 2.65707 8.21461
1.59992 2.65708 8.23969
1.58418 2.67282 8.22746
1.84822 2.40878 8.2875
1.81747 2.43953 8.2875
1.83285 2.42415 8.27972
1.83285 2.42415 8.25338
1.84822 2.40878 8.2645
1.83285 2.42415 8.27972
1.83285 2.42415 8.27972
1.84822 2.40878 8.2645
1.84822 2.40878 8.2875
1.81747 2.43953 8.26449
1.81747 2.43953 8.2399
1.83285 2.42415 8.25338
1.83285 2.42415 8.25338
1.83285 2.42415 8.27972
1.81747 2.43953 8.26449
1.81747 2.43953 8.26449
1.83285 2.42415 8.27972
1.81747 2.43953 8.2875
1.70931 2.54769 8.15176
1.69378 2.56322 8.16434
1.69376 2.56324 8.13912
1.7712 2.4858 8.0762
1.78663 2.47037 8.06362
1.78664 2.47036 8.0888
1.78664 2.47036 8.0888
1.77121 2.48579 8.10139
1.7712 2.4858 8.0762
1.77122 2.48578 8.1266
1.77121 2.48579 8.10139
1.78664 2.47036 8.114
1.77122 2.48578 8.1266
1.78664 2.47036 8.114
1.78665 2.47035 8.13921
1.78665 2.47035 8.13921
1.77123 2.48577 8.15182
1.77122 2.48578 8.1266
1.77122 2.48578 8.1266
1.77123 2.48577 8.15182
1.75578 2.50122 8.13919
1.78666 2.47034 8.16443
1.77123 2.48577 8.15182
1.78665 2.47035 8.13921
1.78666 2.47034 8.18964
1.77124 2.48576 8.20234
1.77124 2.48576 8.17706
1.77124 2.48576 8.17706
1.78666 2.47034 8.16443
1.78666 2.47034 8.18964
1.77123 2.48577 8.15182
1.78666 2.47034 8.16443
1.77124 2.48576 8.17706
2.07809 2.17891 7.42238
2.07833 2.17867 7.39616
2.0934 2.1636 7.41145
2.06287 2.19413 7.41073
2.07833 2.17867 7.39616
2.07809 2.17891 7.42238
1.94028 2.31672 7.41048
1.94028 2.31672 7.3875
1.95561 2.30139 7.39521
2.00164 2.25536 7.3875
1.98629 2.27071 7.39517
1.97095 2.28605 7.3875
1.97095 2.28605 7.3875
1.95561 2.30139 7.39521
1.94028 2.31672 7.3875
1.48928 2.76772 7.42397
1.48919 2.76781 7.39786
1.50509 2.75191 7.41145
1.50509 2.75191 7.41145
1.5206 2.7364 7.39601
1.52092 2.73608 7.42245
1.47362 2.78338 7.41282
1.48919 2.76781 7.39786
1.48928 2.76772 7.42397
1.47362 2.78338 7.41282
1.47412 2.78288 7.3875
1.48919 2.76781 7.39786
1.56833 2.68867 7.41067
1.5683 2.6887 7.3875
1.58412 2.67288 7.39563
[...]
<PointData Scalars="View Factor" >
<DataArray type="Float64" Name="View Factor" NumberOfComponents="1" format="ascii">
0.000543176
0.000543176
0.000543176
0.000517982
0.000517982
0.000517982
0.000526141
0.000526141
0.000526141
0.000562717
0.000562717
0.000562717
0.000558381
0.000558381
0.000558381
0.000556177
0.000556177
0.000556177
0.000552086
0.000552086
0.000552086
0.000556225
0.000556225
0.000556225
0.00054545
0.00054545
0.00054545
0.000550038
0.000550038
0.000550038
0.000552091
0.000552091
0.000552091
0.000538785
0.000538785
0.000538785
0.000530296
0.000530296
0.000530296
0.000543475
0.000543475
0.000543475
0.000539717
0.000539717
0.000539717
0.000513983
0.000513983
0.000513983
0.000520286
0.000520286
0.000520286
0.000524351
0.000524351
0.000524351
0.000400981
0.000400981
0.000400981
0.000499437
0.000499437
0.000499437
0.000495617
0.000495617
0.000495617
0.000470329
0.000470329
0.000470329
0.000671304
0.000671304
0.000671304
0.0011277
0.0011277
0.0011277
0.000532662
0.000532662
0.000532662
0.000536849
0.000536849
0.000536849
0.000539248
0.000539248
0.000539248
0.000537383
0.000537383
0.000537383
0.000546345
0.000546345
0.000546345
0.000544127
0.000544127
0.000544127
0.000550286
0.000550286
0.000550286
0.000550065
0.000550065
0.000550065
0.000546019
0.000546019
0.000546019
0.000501649
0.000501649
0.000501649
0.000526678
0.000526678
0.000526678
0.000533158
0.000533158
0.000533158
0.000530836
0.000530836
0.000530836
0.00046678
0.00046678
0.00046678
0.000403937
0.000403937
0.000403937
0.000494674
0.000494674
0.000494674
0.000511708
0.000511708
0.000511708
0.000507771
0.000507771
0.000507771
0.000507227
0.000507227
0.000507227
0.000505526
0.000505526
0.000505526
0.000523834
0.000523834
0.000523834
0.000519739
0.000519739
0.000519739
0.000516775
0.000516775
0.000516775
0.000735803
0.000735803
0.000735803
0.000743921
0.000743921
0.000743921
0.000362079
0.000362079
0.000362079
0.00110882
0.00110882
0.00110882
0.000985486
0.000985486
0.000985486
0.00113784
0.00113784
0.00113784
0.000419251
0.000419251
0.000419251
0.000445209
0.000445209
0.000445209
0.000455836
0.000455836
0.000455836
0.000442597
0.000442597
0.000442597
0.000444437
0.000444437
0.000444437
0.00044815
0.00044815
0.00044815
0.000480884
0.000480884
0.000480884
0.000482353
0.000482353
0.000482353
0.000471235
0.000471235
0.000471235
0.00046954
0.00046954
0.00046954
0.0004693
0.0004693
0.0004693
0.00046565
0.00046565
0.00046565
0.000461268
0.000461268
0.000461268
0.000459283
0.000459283
0.000459283
0.000464765
0.000464765
0.000464765
0.000466305
0.000466305
0.000466305
0.000488453
0.000488453
0.000488453
0.000492577
0.000492577
0.000492577
0.000494075
0.000494075
0.000494075
0.000492148
0.000492148
0.000492148
0.000472376
0.000472376
0.000472376
0.000482917
0.000482917
0.000482917
0.000486686
0.000486686
0.000486686
0.000488751
0.000488751
0.000488751
0.000505023
0.000505023
0.000505023
0.000501112
0.000501112
0.000501112
0.000498942
0.000498942
0.000498942
0.000510515
0.000510515
0.000510515
0.000512675
0.000512675
0.000512675
0.000510802
0.000510802
0.000510802
0.000506797
0.000506797
0.000506797
0.000512459
0.000512459
0.000512459
0.000516532
0.000516532
0.000516532
0.000532195
0.000532195
0.000532195
0.000536462
0.000536462
0.000536462
0.00051897
0.00051897
0.00051897
0.000523134
0.000523134
0.000523134
0.000498457
0.000498457
0.000498457
0.00051025
0.00051025
0.00051025
0.00051235
0.00051235
0.00051235
0.000510337
0.000510337
0.000510337
0.000506268
0.000506268
0.000506268
0.000695493
0.000695493
0.000695493
0.000706501
0.000706501
0.000706501
0.000720011
0.000720011
0.000720011
0.000722344
0.000722344
0.000722344
0.000737846
0.000737846
0.000737846
0.000645998
0.000645998
0.000645998
0.00078498
0.00078498
0.00078498
0.000815442
0.000815442
0.000815442
0.000972529
0.000972529
0.000972529
0.000984771
0.000984771
0.000984771
0.000880562
0.000880562
0.000880562
0.000950572
0.000950572
0.000950572
0.000929813
0.000929813
0.000929813
0.00104085
0.00104085
0.00104085
0.0010225
0.0010225
0.0010225
0.00100823
0.00100823
0.00100823
0.00103918
0.00103918
0.00103918
0.000745487
0.000745487
0.000745487
0.000731545
0.000731545
0.000731545
0.000728874
0.000728874
0.000728874
0.00074708
0.00074708
0.00074708
0.000745186
0.000745186
0.000745186
0.000756303
0.000756303
0.000756303
0.000867342
0.000867342
0.000867342
0.000734782
0.000734782
0.000734782
0.00074565
0.00074565
0.00074565
0.000754868
0.000754868
0.000754868
0.000753164
0.000753164
0.000753164
0.000764292
0.000764292
0.000764292
0.000777232
0.000777232
0.000777232
0.000762536
0.000762536
0.000762536
0.000783549
0.000783549
0.000783549
0.000772096
0.000772096
0.000772096
0.000773872
0.000773872
0.000773872
0.00036454
0.00036454
0.00036454
0.000365675
0.000365675
0.000365675
0.000391599
0.000391599
0.000391599
0.000373814
0.000373814
0.000373814
0.000381512
0.000381512
0.000381512
0.000793166
0.000793166
0.000793166
0.000773922
0.000773922
0.000773922
0.000802744
0.000802744
0.000802744
0.000802822
0.000802822
0.000802822
0.000718001
0.000718001
0.000718001
0.000678229
0.000678229
0.000678229
0.000706131
0.000706131
0.000706131
0.000871139
0.000871139
0.000871139
0.00087105
0.00087105
0.00087105
0.00105118
0.00105118
0.00105118
0.00105293
0.00105293
0.00105293
0.00105234
0.00105234
0.00105234
0.000942697
0.000942697
0.000942697
0.000942243
0.000942243
0.000942243
0.00100114
0.00100114
0.00100114
0.000399319
0.000399319
0.000399319
0.000434886
0.000434886
0.000434886
0.000429111
0.000429111
0.000429111
0.000432389
0.000432389
0.000432389
0.000424147
0.000424147
0.000424147
0.000427364
0.000427364
0.000427364
0.000428885
0.000428885
0.000428885
0.000427168
0.000427168
0.000427168
0.000423925
0.000423925
0.000423925
0.000422424
0.000422424
0.000422424
0.000480145
0.000480145
0.000480145
0.000487128
0.000487128
0.000487128
0.000487351
0.000487351
0.000487351
0.000422232
0.000422232
0.000422232
0.000405623
0.000405623
0.000405623
0.000503362
0.000503362
0.000503362
0.00052634
0.00052634
0.00052634
0.000486255
0.000486255
0.000486255
0.000505233
0.000505233
0.000505233
0.000471308
0.000471308
0.000471308
0.000469516
0.000469516
0.000469516
0.000479854
0.000479854
0.000479854
0.000488211
0.000488211
0.000488211
0.00044418
0.00044418
0.00044418
0.000440011
0.000440011
0.000440011
0.000443313
0.000443313
0.000443313
0.000444774
0.000444774
0.000444774
0.000442914
0.000442914
0.000442914
0.000439585
0.000439585
0.000439585
0.000438143
0.000438143
0.000438143
0.000548
0.000548
0.000548
0.000539313
0.000539313
0.000539313
0.000476764
0.000476764
0.000476764
0.000474202
0.000474202
0.000474202
0.00048246
0.00048246
0.00048246
0.00049334
0.00049334
0.00049334
0.00053295
0.00053295
0.00053295
0.000535148
0.000535148
0.000535148
0.000552427
0.000552427
0.000552427
0.000541562
0.000541562
0.000541562
0.000487512
0.000487512
0.000487512
0.000495829
0.000495829
0.000495829
0.00047552
0.00047552
0.00047552
0.000477171
0.000477171
0.000477171
0.00047517
0.00047517
0.00047517
0.00047189
0.00047189
0.00047189
0.000469882
0.000469882
0.000469882
0.000471511
0.000471511
0.000471511
0.000480479
0.000480479
0.000480479
0.000476888
0.000476888
0.000476888
0.000474923
0.000474923
0.000474923
0.000476706
0.000476706
0.000476706
0.000474789
0.000474789
0.000474789
0.000469099
0.000469099
0.000469099
0.000470979
0.000470979
0.000470979
0.000460803
0.000460803
0.000460803
0.000460442
0.000460442
0.000460442
0.000458856
0.000458856
0.000458856
0.00046398
0.00046398
0.00046398
0.000465935
0.000465935
0.000465935
0.000464328
0.000464328
0.000464328
0.000486426
0.000486426
0.000486426
0.00048826
0.00048826
0.00048826
0.000486269
0.000486269
0.000486269
0.000482626
0.000482626
0.000482626
0.000482439
0.000482439
0.000482439
0.000480631
0.000480631
0.000480631
0.000488171
0.000488171
0.000488171
0.000486229
0.000486229
0.000486229
0.000488192
0.000488192
0.000488192
0.000492073
0.000492073
0.000492073
0.00049231
0.00049231
0.00049231
0.00049417
0.00049417
0.00049417
0.000494369
0.000494369
0.000494369
0.000498285
0.000498285
0.000498285
0.000498053
0.000498053
0.000498053
0.000477574
0.000477574
0.000477574
0.000475993
0.000475993
0.000475993
0.000478057
0.000478057
0.000478057
0.000481242
0.000481242
0.000481242
0.000489675
0.000489675
0.000489675
0.000492952
0.000492952
0.000492952
0.000493439
0.000493439
0.000493439
0.000495089
0.000495089
0.000495089
0.000483822
0.000483822
0.000483822
0.000481695
0.000481695
0.000481695
0.000483299
0.000483299
0.000483299
0.000487053
0.000487053
0.000487053
0.000489157
0.000489157
0.000489157
0.00048753
0.00048753
0.00048753
0.000504353
0.000504353
0.000504353
0.000500689
0.000500689
0.000500689
0.000506478
0.000506478
0.000506478
0.000504633
0.000504633
0.000504633
0.000500377
0.000500377
0.000500377
0.000498559
0.000498559
0.000498559
0.000518748
0.000518748
0.000518748
0.000516592
0.000516592
0.000516592
0.000518637
0.000518637
0.000518637
0.000525696
0.000525696
0.000525696
0.00052961
0.00052961
0.00052961
0.000523433
0.000523433
0.000523433
0.000525365
0.000525365
0.000525365
0.000529918
0.000529918
0.000529918
0.000531882
0.000531882
0.000531882
0.000549525
0.000549525
0.000549525
0.000545201
0.000545201
0.000545201
0.000556352
0.000556352
0.000556352
0.000551648
0.000551648
0.000551648
0.000549418
0.000549418
0.000549418
0.000536135
0.000536135
0.000536135
0.000544899
0.000544899
0.000544899
0.000538456
0.000538456
0.000538456
0.000542805
0.000542805
0.000542805
0.000517068
0.000517068
0.000517068
0.000513435
0.000513435
0.000513435
0.000517468
0.000517468
0.000517468
0.000519299
0.000519299
0.000519299
0.000511198
0.000511198
0.000511198
0.000512999
0.000512999
0.000512999
0.000572563
0.000572563
0.000572563
0.000574874
0.000574874
0.000574874
0.000537862
0.000537862
0.000537862
0.000560976
0.000560976
0.000560976
0.000500377
0.000500377
0.000500377
0.00070425
0.00070425
0.00070425
0.0007152
0.0007152
0.0007152
0.00070437
0.00070437
0.00070437
0.000655538
0.000655538
0.000655538
0.00063478
0.00063478
0.00063478
0.000561172
0.000561172
0.000561172
0.000558998
0.000558998
0.000558998
0.000786158
0.000786158
0.000786158
0.000875934
0.000875934
0.000875934
0.000795809
0.000795809
0.000795809
0.000825064
0.000825064
0.000825064
0.000847975
0.000847975
0.000847975
0.000836913
0.000836913
0.000836913
0.000973192
0.000973192
0.000973192
0.000997944
0.000997944
0.000997944
0.0010118
0.0010118
0.0010118
0.00102519
0.00102519
0.00102519
0.000958982
0.000958982
0.000958982
0.00094624
0.00094624
0.00094624
0.000931944
0.000931944
0.000931944
0.000932816
0.000932816
0.000932816
0.000897801
0.000897801
0.000897801
0.000884835
0.000884835
0.000884835
0.00092383
0.00092383
0.00092383
0.000936872
0.000936872
0.000936872
0.000937573
0.000937573
0.000937573
0.000863287
0.000863287
0.000863287
0.000907092
0.000907092
0.000907092
0.000920395
0.000920395
0.000920395
0.000951202
0.000951202
0.000951202
0.000938915
0.000938915
0.000938915
0.000914762
0.000914762
0.000914762
0.000918003
0.000918003
0.000918003
0.000997897
0.000997897
0.000997897
0.000955145
0.000955145
0.000955145
0.00099916
0.00099916
0.00099916
0.00101233
0.00101233
0.00101233
0.000786834
0.000786834
0.000786834
0.000770059
0.000770059
0.000770059
0.000730881
0.000730881
0.000730881
0.000741501
0.000741501
0.000741501
0.000713501
0.000713501
0.000713501
0.000855252
0.000855252
0.000855252
0.000778846
0.000778846
0.000778846
0.000767645
0.000767645
0.000767645
0.000796819
0.000796819
0.000796819
0.00082343
0.00082343
0.00082343
0.000361921
0.000361921
0.000361921
0.000364358
0.000364358
0.000364358
0.000371968
0.000371968
0.000371968
0.000369384
0.000369384
0.000369384
0.000369477
0.000369477
0.000369477
0.00075575
0.00075575
0.00075575
0.000764421
0.000764421
0.000764421
0.000734311
0.000734311
0.000734311
0.000746257
0.000746257
0.000746257
0.000745376
0.000745376
0.000745376
0.00072741
0.00072741
0.00072741
0.000735908
0.000735908
0.000735908
0.000735621
0.000735621
0.000735621
0.000783343
0.000783343
0.000783343
0.000802457
0.000802457
0.000802457
0.000793039
0.000793039
0.000793039
0.000784258
0.000784258
0.000784258
0.000774701
0.000774701
0.000774701
0.000790592
0.000790592
0.000790592
0.000762615
0.000762615
0.000762615
0.000760067
0.000760067
0.000760067
0.000911294
0.000911294
0.000911294
0.000758904
0.000758904
0.000758904
0.00096868
0.00096868
0.00096868
0.000957208
0.000957208
0.000957208
0.000957344
0.000957344
0.000957344
0.000934966
0.000934966
0.000934966
0.000946158
0.000946158
0.000946158
0.000912992
0.000912992
0.000912992
0.000912952
0.000912952
0.000912952
0.00101653
0.00101653
0.00101653
0.000923052
0.000923052
0.000923052
0.000922842
0.000922842
0.000922842
0.000819538
0.000819538
0.000819538
0.000809283
0.000809283
0.000809283
0.000840114
0.000840114
0.000840114
0.000850434
0.000850434
0.000850434
0.000860648
0.000860648
0.000860648
0.000807662
0.000807662
0.000807662
0.000891881
0.000891881
0.000891881
0.00088158
0.00088158
0.00088158
0.000881515
0.000881515
0.000881515
0.000743717
0.000743717
0.000743717
0.000742576
0.000742576
0.000742576
0.000829387
0.000829387
0.000829387
0.000740261
0.000740261
0.000740261
0.000730258
0.000730258
0.000730258
0.000731463
0.000731463
0.000731463
0.000702401
0.000702401
0.000702401
0.00070527
0.00070527
0.00070527
0.000832295
0.000832295
0.000832295
0.000821725
0.000821725
0.000821725
0.00102375
0.00102375
0.00102375
0.00103799
0.00103799
0.00103799
0.00103816
0.00103816
0.00103816
0.00102479
0.00102479
0.00102479
0.00106555
0.00106555
0.00106555
0.00106653
0.00106653
0.00106653
0.00108417
0.00108417
0.00108417
0.00109435
0.00109435
0.00109435
0.00108086
0.00108086
0.00108086
0.00105394
0.00105394
0.00105394
0.00106686
0.00106686
0.00106686
0.00105421
0.00105421
0.00105421
0.000954263
0.000954263
0.000954263
0.000978758
0.000978758
0.000978758
0.000979063
0.000979063
0.000979063
0.000966801
0.000966801
0.000966801
0.000991924
0.000991924
0.000991924
0.00100418
0.00100418
0.00100418
0.000991701
0.000991701
0.000991701
0.00101692
0.00101692
0.00101692
0.000988282
0.000988282
0.000988282
0.000963016
0.000963016
0.000963016
0.00101586
0.00101586
0.00101586
0.00100312
0.00100312
0.00100312
0.00101452
0.00101452
0.00101452
0.00115234
0.00115234
0.00115234
0.00117155
0.00117155
0.00117155
0.00118122
0.00118122
0.00118122
0.00106704
0.00106704
0.00106704
0.00108078
0.00108078
0.00108078
0.00110963
0.00110963
0.00110963
0.001124
0.001124
0.001124
0.00109502
0.00109502
0.00109502
0.0010953
0.0010953
0.0010953
0.000373361
0.000373361
0.000373361
0.000372172
0.000372172
0.000372172
0.000373615
0.000373615
0.000373615
0.000376258
0.000376258
0.000376258
0.000378159
0.000378159
0.000378159
0.000376612
0.000376612
0.000376612
0.000377761
0.000377761
0.000377761
0.000498979
0.000498979
0.000498979
0.00036844
0.00036844
0.00036844
0.000369637
0.000369637
0.000369637
0.000373516
0.000373516
0.000373516
0.00037218
0.00037218
0.00037218
0.000434148
0.000434148
0.000434148
0.000437457
0.000437457
0.000437457
0.000439256
0.000439256
0.000439256
0.000437752
0.000437752
0.000437752
0.000424856
0.000424856
0.000424856
0.000427648
0.000427648
0.000427648
0.000433929
0.000433929
0.000433929
0.000437133
0.000437133
0.000437133
0.000433772
0.000433772
0.000433772
0.000432173
0.000432173
0.000432173
0.0006035
0.0006035
0.0006035
0.000585821
0.000585821
0.000585821
0.000552424
0.000552424
0.000552424
0.000570714
0.000570714
0.000570714
0.000580774
0.000580774
0.000580774
0.000582394
0.000582394
0.000582394
0.000562394
0.000562394
0.000562394
0.000574014
0.000574014
0.000574014
0.000564075
0.000564075
0.000564075
0.00056901
0.00056901
0.00056901
0.000589241
0.000589241
0.000589241
0.000606475
0.000606475
0.000606475
0.000623183
0.000623183
0.000623183
0.00059242
0.00059242
0.00059242
0.000613514
0.000613514
0.000613514
0.00048663
0.00048663
0.00048663
0.000577138
0.000577138
0.000577138
0.000578955
0.000578955
0.000578955
0.000545138
0.000545138
0.000545138
0.000526799
0.000526799
0.000526799
0.000534981
0.000534981
0.000534981
0.000485518
0.000485518
0.000485518
0.000400396
0.000400396
0.000400396
0.000431616
0.000431616
0.000431616
0.000433495
0.000433495
0.000433495
0.000442397
0.000442397
0.000442397
0.000444553
0.000444553
0.000444553
0.000544251
0.000544251
0.000544251
0.000508695
0.000508695
0.000508695
0.000528187
0.000528187
0.000528187
0.000417553
0.000417553
0.000417553
0.000419034
0.000419034
0.000419034
0.000492349
0.000492349
0.000492349
0.000472135
0.000472135
0.000472135
0.000474398
0.000474398
0.000474398
0.000484447
0.000484447
0.000484447
0.000454853
0.000454853
0.000454853
0.000497189
0.000497189
0.000497189
0.000468637
0.000468637
0.000468637
0.000408634
0.000408634
0.000408634
0.000410332
0.000410332
0.000410332
0.000415105
0.000415105
0.000415105
0.000417826
0.000417826
0.000417826
0.000414707
0.000414707
0.000414707
0.000413356
0.000413356
0.000413356
0.000419946
0.000419946
0.000419946
0.000423069
0.000423069
0.000423069
0.000424456
0.000424456
0.000424456
0.000422702
0.000422702
0.000422702
0.000419554
0.000419554
0.000419554
0.000418185
0.000418185
0.000418185
0.000453881
0.000453881
0.000453881
0.000455381
0.000455381
0.000455381
0.000453464
0.000453464
0.000453464
0.000450484
0.000450484
0.000450484
0.000450039
0.000450039
0.000450039
0.000448559
0.000448559
0.000448559
0.000497348
0.000497348
0.000497348
0.000517465
0.000517465
0.000517465
0.000506042
0.000506042
0.000506042
0.000500004
0.000500004
0.000500004
0.000488283
0.000488283
0.000488283
0.000492502
0.000492502
0.000492502
0.000494392
0.000494392
0.000494392
0.000492272
0.000492272
0.000492272
0.000486621
0.000486621
0.000486621
0.000488482
0.000488482
0.000488482
0.000486392
0.000486392
0.000486392
0.000482462
0.000482462
0.000482462
0.000465453
0.000465453
0.000465453
0.000469306
0.000469306
0.000469306
0.000469151
0.000469151
0.000469151
0.000471098
0.000471098
0.000471098
0.000465422
0.000465422
0.000465422
0.000463597
0.000463597
0.000463597
0.000463993
0.000463993
0.000463993
0.000465751
0.000465751
0.000465751
0.000494086
0.000494086
0.000494086
0.000491424
0.000491424
0.000491424
0.000475145
0.000475145
0.000475145
0.000485609
0.000485609
0.000485609
0.00043881
0.00043881
0.00043881
0.000442262
0.000442262
0.000442262
0.000454565
0.000454565
0.000454565
0.000442414
0.000442414
0.000442414
0.000439016
0.000439016
0.000439016
0.00043887
0.00043887
0.00043887
0.000437249
0.000437249
0.000437249
0.000520053
0.000520053
0.000520053
0.000511287
0.000511287
0.000511287
0.000513867
0.000513867
0.000513867
0.000525111
0.000525111
0.000525111
0.00053393
0.00053393
0.00053393
0.000531434
0.000531434
0.000531434
0.000540371
0.000540371
0.000540371
0.000551858
0.000551858
0.000551858
0.00050776
0.00050776
0.00050776
0.000499223
0.000499223
0.000499223
0.00050175
0.00050175
0.00050175
0.000512725
0.000512725
0.000512725
0.000545764
0.000545764
0.000545764
0.000534732
0.000534732
0.000534732
0.000489993
0.000489993
0.000489993
0.000494824
0.000494824
0.000494824
0.000528412
0.000528412
0.000528412
0.000506671
0.000506671
0.000506671
0.000526084
0.000526084
0.000526084
0.000515148
0.000515148
0.000515148
0.000501778
0.000501778
0.000501778
0.000583963
0.000583963
0.000583963
0.000592779
0.000592779
0.000592779
0.000545882
0.000545882
0.000545882
0.00055455
0.00055455
0.00055455
0.000476639
0.000476639
0.000476639
0.000480464
0.000480464
0.000480464
0.000480427
0.000480427
0.000480427
0.000482364
0.000482364
0.000482364
0.000469159
0.000469159
0.000469159
0.00047098
0.00047098
0.00047098
0.000471059
0.000471059
0.000471059
0.000474728
0.000474728
0.000474728
0.000474776
0.000474776
0.000474776
0.000476624
0.000476624
0.000476624
0.000506179
0.000506179
0.000506179
0.000498134
0.000498134
0.000498134
0.000500088
0.000500088
0.000500088
0.000500174
0.000500174
0.000500174
0.000504127
0.000504127
0.000504127
0.000504165
0.000504165
0.000504165
0.000506149
0.000506149
0.000506149
0.000562851
0.000562851
0.000562851
0.000558578
0.000558578
0.000558578