<VTKFile type="UnstructuredGrid" version="1.0">
<UnstructuredGrid>
<Piece NumberOfPoints="8859" NumberOfCells="2953">
<Points>
<DataArray type="Float64" NumberOfComponents="3" format="ascii">
3.01 0.5 3.04
3.01 0.487476 3.0625
3.01 0.512524 3.0625
3.01 0.17352 2.1625
3.01 0.148445 2.1625
3.01 0.160827 2.18422
3.01 0.122979 2.20589
3.01 0.135644 2.18422
3.01 0.110383 2.18421
3.01 0.135644 2.18422
3.01 0.123433 2.1625
3.01 0.110383 2.18421
3.01 0.123433 2.1625
3.01 0.135644 2.18422
3.01 0.148445 2.1625
3.01 0.135644 2.18422
3.01 0.160827 2.18422
3.01 0.148445 2.1625
3.01 0.17352 2.1625
3.01 0.185985 2.1842
3.01 0.198629 2.1625
3.01 0.185985 2.1842
3.01 0.17352 2.1625
3.01 0.160827 2.18422
3.01 0.0732297 2.20567
3.01 0.0848754 2.18414
3.01 0.0586606 2.18381
3.01 0.05 2.99527
3.01 0.058509 2.97256
3.01 0.05 2.9501
3.01 0.324276 2.1625
3.01 0.336827 2.18416
3.01 0.349395 2.1625
3.01 0.148138 2.2059
3.01 0.160827 2.18422
3.01 0.135644 2.18422
3.01 0.122979 2.20589
3.01 0.148138 2.2059
3.01 0.135644 2.18422
3.01 0.160827 2.18422
3.01 0.173316 2.20589
3.01 0.185985 2.1842
3.01 0.185806 2.22755
3.01 0.173316 2.20589
3.01 0.160572 2.22755
3.01 0.173316 2.20589
3.01 0.160827 2.18422
3.01 0.148138 2.2059
3.01 0.160572 2.22755
3.01 0.173316 2.20589
3.01 0.148138 2.2059
3.01 0.211137 2.18419
3.01 0.198629 2.1625
3.01 0.185985 2.1842
3.01 0.0979162 2.20584
3.01 0.122979 2.20589
3.01 0.110383 2.18421
3.01 0.122979 2.20589
3.01 0.0979162 2.20584
3.01 0.109875 2.22749
3.01 0.0732297 2.20567
3.01 0.0979162 2.20584
3.01 0.0848754 2.18414
3.01 0.0979162 2.20584
3.01 0.110383 2.18421
3.01 0.0848754 2.18414
3.01 0.0975729 2.24904
3.01 0.122678 2.24914
3.01 0.109875 2.22749
3.01 0.0841718 2.22735
3.01 0.0732297 2.20567
3.01 0.0577122 2.22702
3.01 0.0729308 2.24888
3.01 0.0841718 2.22735
3.01 0.0577122 2.22702
3.01 0.0732297 2.20567
3.01 0.0841718 2.22735
3.01 0.0979162 2.20584
3.01 0.0841718 2.22735
3.01 0.109875 2.22749
3.01 0.0979162 2.20584
3.01 0.0975729 2.24904
3.01 0.0841718 2.22735
3.01 0.0729308 2.24888
3.01 0.0841718 2.22735
3.01 0.0975729 2.24904
3.01 0.109875 2.22749
3.01 0.073948 2.1625
3.01 0.05 2.1625
3.01 0.0586606 2.18381
3.01 0.073948 2.1625
3.01 0.0586606 2.18381
3.01 0.0848754 2.18414
3.01 0.05 3.03829
3.01 0.0603641 3.01697
3.01 0.05 2.99527
3.01 0.0603641 3.01697
3.01 0.05 3.03829
3.01 0.0753197 3.03899
3.01 0.0709395 3.0625
3.01 0.05 3.03829
3.01 0.05 3.0625
3.01 0.05 3.03829
3.01 0.0709395 3.0625
3.01 0.0753197 3.03899
3.01 0.0579641 2.74963
3.01 0.05 2.72761
3.01 0.05 2.77169
3.01 0.0841948 2.6618
3.01 0.109814 2.6618
3.01 0.097638 2.63993
3.01 0.0841948 2.6618
3.01 0.0578646 2.6618
3.01 0.0730539 2.6837
3.01 0.0580261 2.7938
3.01 0.05 2.77169
3.01 0.05 2.81595
3.01 0.942292 2.35736
3.01 0.95 2.37904
3.01 0.95 2.33567
3.01 0.95 2.29226
3.01 0.942332 2.31397
3.01 0.95 2.33567
3.01 0.73872 2.57453
3.01 0.75132 2.55275
3.01 0.726137 2.55276
3.01 0.751305 2.59632
3.01 0.73872 2.57453
3.01 0.726124 2.59633
3.01 0.713546 2.57454
3.01 0.73872 2.57453
3.01 0.726137 2.55276
3.01 0.73872 2.57453
3.01 0.713546 2.57454
3.01 0.726124 2.59633
3.01 0.814318 2.61811
3.01 0.801709 2.5963
3.01 0.789096 2.61812
3.01 0.7765 2.59631
3.01 0.801709 2.5963
3.01 0.789115 2.57451
3.01 0.801709 2.5963
3.01 0.7765 2.59631
3.01 0.789096 2.61812
3.01 0.7765 2.59631
3.01 0.763892 2.61814
3.01 0.789096 2.61812
3.01 0.763892 2.61814
3.01 0.7765 2.59631
3.01 0.751305 2.59632
3.01 0.95 3.0625
3.01 0.95 3.03829
3.01 0.929061 3.0625
3.01 0.95 2.8604
3.01 0.941913 2.83815
3.01 0.926844 2.8604
3.01 0.941913 2.83815
3.01 0.95 2.8604
3.01 0.95 2.81595
3.01 0.926866 2.81594
3.01 0.941913 2.83815
3.01 0.95 2.81595
3.01 0.941974 2.7938
3.01 0.926866 2.81594
3.01 0.95 2.81595
3.01 0.95 2.77169
3.01 0.941974 2.7938
3.01 0.95 2.81595
3.01 0.941974 2.7938
3.01 0.95 2.77169
3.01 0.926895 2.77169
3.01 0.6127 3.0625
3.01 0.637734 3.0625
3.01 0.625238 3.03998
3.01 0.662757 3.0625
3.01 0.650275 3.03997
3.01 0.637734 3.0625
3.01 0.650275 3.03997
3.01 0.625238 3.03998
3.01 0.637734 3.0625
3.01 0.600415 2.59637
3.01 0.575304 2.59637
3.01 0.587856 2.6182
3.01 0.575304 2.59637
3.01 0.562749 2.6182
3.01 0.587856 2.6182
3.01 0.336827 2.18416
3.01 0.361946 2.18416
3.01 0.349395 2.1625
3.01 0.223755 2.1625
3.01 0.198629 2.1625
3.01 0.211137 2.18419
3.01 0.185985 2.1842
3.01 0.198492 2.20588
3.01 0.211137 2.18419
3.01 0.185806 2.22755
3.01 0.198492 2.20588
3.01 0.173316 2.20589
3.01 0.198492 2.20588
3.01 0.185985 2.1842
3.01 0.173316 2.20589
3.01 0.0576202 2.27053
3.01 0.05 2.24874
3.01 0.05 2.29226
3.01 0.05 2.24874
3.01 0.0576202 2.27053
3.01 0.0729308 2.24888
3.01 0.05 2.24874
3.01 0.0729308 2.24888
3.01 0.0577122 2.22702
3.01 0.135283 2.22754
3.01 0.122979 2.20589
3.01 0.109875 2.22749
3.01 0.135283 2.22754
3.01 0.109875 2.22749
3.01 0.122678 2.24914
3.01 0.122979 2.20589
3.01 0.135283 2.22754
3.01 0.148138 2.2059
3.01 0.135283 2.22754
3.01 0.160572 2.22755
3.01 0.148138 2.2059
3.01 0.123433 2.1625
3.01 0.0985513 2.1625
3.01 0.110383 2.18421
3.01 0.110383 2.18421
3.01 0.0985513 2.1625
3.01 0.0848754 2.18414
3.01 0.0848754 2.18414
3.01 0.0985513 2.1625
3.01 0.073948 2.1625
3.01 0.0603641 3.01697
3.01 0.0739464 2.99449
3.01 0.05 2.99527
3.01 0.0739464 2.99449
3.01 0.058509 2.97256
3.01 0.05 2.99527
3.01 0.058509 2.97256
3.01 0.0739464 2.99449
3.01 0.0849548 2.97211
3.01 0.058509 2.97256
3.01 0.0732725 2.94988
3.01 0.05 2.9501
3.01 0.0732725 2.94988
3.01 0.058509 2.97256
3.01 0.0849548 2.97211
3.01 0.5 3.04
3.01 0.47495 3.04
3.01 0.487476 3.0625
3.01 0.097663 2.6837
3.01 0.109814 2.6618
3.01 0.0841948 2.6618
3.01 0.0730539 2.6837
3.01 0.097663 2.6837
3.01 0.0841948 2.6618
3.01 0.0578646 2.6618
3.01 0.05 2.6837
3.01 0.0730539 2.6837
3.01 0.05 2.6837
3.01 0.0578646 2.6618
3.01 0.05 2.63992
3.01 0.05 2.8604
3.01 0.0580869 2.83815
3.01 0.05 2.81595
3.01 0.05 2.81595
3.01 0.073134 2.81594
3.01 0.0580261 2.7938
3.01 0.073134 2.81594
3.01 0.05 2.81595
3.01 0.0580869 2.83815
3.01 0.942268 2.40073
3.01 0.95 2.42241
3.01 0.95 2.37904
3.01 0.942292 2.35736
3.01 0.927025 2.37904
3.01 0.95 2.37904
3.01 0.927025 2.37904
3.01 0.915919 2.40072
3.01 0.942268 2.40073
3.01 0.95 2.37904
3.01 0.927025 2.37904
3.01 0.942268 2.40073
3.01 0.927013 2.42241
3.01 0.95 2.42241
3.01 0.942268 2.40073
3.01 0.915919 2.40072
3.01 0.927013 2.42241
3.01 0.942268 2.40073
3.01 0.801738 2.50925
3.01 0.826957 2.50925
3.01 0.814364 2.48753
3.01 0.852174 2.50924
3.01 0.839609 2.48752
3.01 0.826957 2.50925
3.01 0.839609 2.48752
3.01 0.814364 2.48753
3.01 0.826957 2.50925
3.01 0.776516 2.55275
3.01 0.763923 2.531
3.01 0.75132 2.55275
3.01 0.776516 2.55275
3.01 0.789115 2.57451
3.01 0.801725 2.55274
3.01 0.738704 2.61815
3.01 0.763892 2.61814
3.01 0.751305 2.59632
3.01 0.726124 2.59633
3.01 0.738704 2.61815
3.01 0.751305 2.59632
3.01 0.915617 2.83814
3.01 0.926866 2.81594
3.01 0.902228 2.81594
3.01 0.926866 2.81594
3.01 0.915617 2.83814
3.01 0.941913 2.83815
3.01 0.915617 2.83814
3.01 0.926844 2.8604
3.01 0.941913 2.83815
3.01 0.915617 2.83814
3.01 0.902193 2.86038
3.01 0.926844 2.8604
3.01 0.926866 2.81594
3.01 0.915668 2.79379
3.01 0.902228 2.81594
3.01 0.902267 2.77168
3.01 0.915668 2.79379
3.01 0.926895 2.77169
3.01 0.915668 2.79379
3.01 0.926866 2.81594
3.01 0.941974 2.7938
3.01 0.926895 2.77169
3.01 0.915668 2.79379
3.01 0.941974 2.7938
3.01 0.902267 2.77168
3.01 0.890059 2.79379
3.01 0.915668 2.79379
3.01 0.890059 2.79379
3.01 0.902228 2.81594
3.01 0.915668 2.79379
3.01 0.826927 2.59629
3.01 0.801709 2.5963
3.01 0.814318 2.61811
3.01 0.864816 2.6618
3.01 0.890186 2.6618
3.01 0.877308 2.63993
3.01 0.877308 2.63993
3.01 0.852122 2.63994
3.01 0.864816 2.6618
3.01 0.890186 2.6618
3.01 0.902362 2.63993
3.01 0.877308 2.63993
3.01 0.902362 2.63993
3.01 0.890186 2.6618
3.01 0.915805 2.6618
3.01 0.902362 2.63993
3.01 0.915805 2.6618
3.01 0.926964 2.63992
3.01 0.915835 2.61809
3.01 0.902362 2.63993
3.01 0.926964 2.63992
3.01 0.942171 2.61809
3.01 0.915835 2.61809
3.01 0.926964 2.63992
3.01 0.915835 2.61809
3.01 0.942171 2.61809
3.01 0.926978 2.59627
3.01 0.942171 2.61809
3.01 0.95 2.59627
3.01 0.926978 2.59627
3.01 0.87737 2.46581
3.01 0.902417 2.4658
3.01 0.890277 2.44411
3.01 0.852144 2.59628
3.01 0.864842 2.61809
3.01 0.877329 2.59628
3.01 0.877308 2.63993
3.01 0.864842 2.61809
3.01 0.852122 2.63994
3.01 0.902396 2.55272
3.01 0.890234 2.57449
3.01 0.915858 2.57448
3.01 0.926997 2.50923
3.01 0.95 2.50923
3.01 0.942237 2.48751
3.01 0.91589 2.48751
3.01 0.926997 2.50923
3.01 0.942237 2.48751
3.01 0.942199 2.57448
3.01 0.95 2.59627
3.01 0.95 2.55271
3.01 0.95 2.59627
3.01 0.942199 2.57448
3.01 0.926978 2.59627
3.01 0.942199 2.57448
3.01 0.915858 2.57448
3.01 0.926978 2.59627
3.01 0.95 2.50923
3.01 0.942221 2.53097
3.01 0.95 2.55271
3.01 0.942221 2.53097
3.01 0.95 2.50923
3.01 0.926997 2.50923
3.01 0.915876 2.53097
3.01 0.942221 2.53097
3.01 0.926997 2.50923
3.01 0.926989 2.55271
3.01 0.902396 2.55272
3.01 0.915858 2.57448
3.01 0.902396 2.55272
3.01 0.926989 2.55271
3.01 0.915876 2.53097
3.01 0.926989 2.55271
3.01 0.915858 2.57448
3.01 0.942199 2.57448
3.01 0.95 2.55271
3.01 0.926989 2.55271
3.01 0.942199 2.57448
3.01 0.915876 2.53097
3.01 0.926989 2.55271
3.01 0.942221 2.53097
3.01 0.926989 2.55271
3.01 0.95 2.55271
3.01 0.942221 2.53097
3.01 0.91353 3.01685
3.01 0.939636 3.01697
3.01 0.926054 2.99449
3.01 0.926728 2.94988
3.01 0.941491 2.97256
3.01 0.95 2.9501
3.01 0.926728 2.94988
3.01 0.95 2.9501
3.01 0.941822 2.92754
3.01 0.95 2.99527
3.01 0.939636 3.01697
3.01 0.95 3.03829
3.01 0.95 2.99527
3.01 0.941491 2.97256
3.01 0.926054 2.99449
3.01 0.939636 3.01697
3.01 0.95 2.99527
3.01 0.926054 2.99449
3.01 0.941491 2.97256
3.01 0.95 2.99527
3.01 0.95 2.9501
3.01 0.941869 2.88272
3.01 0.95 2.8604
3.01 0.926844 2.8604
3.01 0.762942 3.01728
3.01 0.737933 3.01734
3.01 0.75028 3.03989
3.01 0.71291 3.01739
3.01 0.737933 3.01734
3.01 0.725533 2.99485
3.01 0.71291 3.01739
3.01 0.725313 3.03992
3.01 0.737933 3.01734
3.01 0.725313 3.03992
3.01 0.75028 3.03989
3.01 0.737933 3.01734
3.01 0.737693 3.0625
3.01 0.725313 3.03992
[...]
<PointData Scalars="View Factor" >
<DataArray type="Float64" Name="View Factor" NumberOfComponents="1" format="ascii">
0.00751239
0.00751239
0.00751239
0.00368084
0.00368084
0.00368084
0.00374448
0.00374448
0.00374448
0.00370352
0.00370352
0.00370352
0.00368251
0.00368251
0.00368251
0.00370199
0.00370199
0.00370199
0.00367889
0.00367889
0.00367889
0.00370016
0.00370016
0.00370016
0.00374606
0.00374606
0.00374606
0.00711607
0.00711607
0.00711607
0.00366137
0.00366137
0.00366137
0.00374293
0.00374293
0.00374293
0.0037644
0.0037644
0.0037644
0.00374106
0.00374106
0.00374106
0.00382446
0.00382446
0.00382446
0.00376268
0.00376268
0.00376268
0.00380439
0.00380439
0.00380439
0.00369804
0.00369804
0.00369804
0.00376576
0.00376576
0.00376576
0.00380745
0.00380745
0.00380745
0.00376661
0.00376661
0.00376661
0.00374562
0.00374562
0.00374562
0.00389248
0.00389248
0.00389248
0.00382937
0.00382937
0.00382937
0.00387187
0.00387187
0.00387187
0.00380825
0.00380825
0.00380825
0.00382896
0.00382896
0.00382896
0.00389325
0.00389325
0.00389325
0.00387146
0.00387146
0.00387146
0.0036854
0.0036854
0.0036854
0.00370528
0.00370528
0.00370528
0.00740165
0.00740165
0.00740165
0.00749833
0.00749833
0.00749833
0.00765545
0.00765545
0.00765545
0.007601
0.007601
0.007601
0.00586595
0.00586595
0.00586595
0.00541337
0.00541337
0.00541337
0.00548115
0.00548115
0.00548115
0.00609055
0.00609055
0.00609055
0.00402467
0.00402467
0.00402467
0.00389323
0.00389323
0.00389323
0.0048297
0.0048297
0.0048297
0.00494428
0.00494428
0.00494428
0.00486409
0.00486409
0.00486409
0.00492149
0.00492149
0.00492149
0.00499911
0.00499911
0.00499911
0.00491838
0.00491838
0.00491838
0.00497657
0.00497657
0.00497657
0.00501279
0.00501279
0.00501279
0.00498994
0.00498994
0.00498994
0.00714156
0.00714156
0.00714156
0.00600548
0.00600548
0.00600548
0.00592454
0.00592454
0.00592454
0.00585736
0.00585736
0.00585736
0.00578514
0.00578514
0.00578514
0.00570821
0.00570821
0.00570821
0.00564432
0.00564432
0.00564432
0.00742972
0.00742972
0.00742972
0.00741111
0.00741111
0.00741111
0.007371
0.007371
0.007371
0.00507207
0.00507207
0.00507207
0.00510741
0.00510741
0.00510741
0.00367952
0.00367952
0.00367952
0.00367666
0.00367666
0.00367666
0.0037389
0.0037389
0.0037389
0.00380234
0.00380234
0.00380234
0.00376065
0.00376065
0.00376065
0.00398156
0.00398156
0.00398156
0.00393717
0.00393717
0.00393717
0.00389349
0.00389349
0.00389349
0.00382789
0.00382789
0.00382789
0.00387041
0.00387041
0.00387041
0.00380612
0.00380612
0.00380612
0.00382636
0.00382636
0.00382636
0.00368387
0.00368387
0.00368387
0.00370469
0.00370469
0.00370469
0.0036849
0.0036849
0.0036849
0.00730526
0.00730526
0.00730526
0.00720964
0.00720964
0.00720964
0.0071595
0.0071595
0.0071595
0.00702095
0.00702095
0.00702095
0.0070658
0.0070658
0.0070658
0.00746935
0.00746935
0.00746935
0.0054795
0.0054795
0.0054795
0.00551383
0.00551383
0.00551383
0.00551522
0.00551522
0.00551522
0.00544888
0.00544888
0.00544888
0.0063269
0.0063269
0.0063269
0.00616753
0.00616753
0.00616753
0.00624629
0.00624629
0.00624629
0.00416158
0.00416158
0.00416158
0.0040734
0.0040734
0.0040734
0.00414779
0.00414779
0.00414779
0.0041191
0.0041191
0.0041191
0.0042124
0.0042124
0.0042124
0.00419454
0.00419454
0.00419454
0.0045748
0.0045748
0.0045748
0.00456217
0.00456217
0.00456217
0.00454237
0.00454237
0.00454237
0.00476154
0.00476154
0.00476154
0.00480462
0.00480462
0.00480462
0.00502607
0.00502607
0.00502607
0.0050029
0.0050029
0.0050029
0.00587689
0.00587689
0.00587689
0.00590312
0.00590312
0.00590312
0.00597734
0.00597734
0.00597734
0.00602567
0.00602567
0.00602567
0.00580436
0.00580436
0.00580436
0.00566289
0.00566289
0.00566289
0.00575839
0.00575839
0.00575839
0.00568783
0.00568783
0.00568783
0.00570698
0.00570698
0.00570698
0.00577787
0.00577787
0.00577787
0.00496281
0.00496281
0.00496281
0.00513463
0.00513463
0.00513463
0.00511205
0.00511205
0.00511205
0.00509642
0.00509642
0.00509642
0.00511859
0.00511859
0.00511859
0.00508049
0.00508049
0.00508049
0.00502078
0.00502078
0.00502078
0.0049829
0.0049829
0.0049829
0.0049247
0.0049247
0.0049247
0.00488884
0.00488884
0.00488884
0.00438331
0.00438331
0.00438331
0.00493413
0.00493413
0.00493413
0.00505182
0.00505182
0.00505182
0.0047703
0.0047703
0.0047703
0.0045087
0.0045087
0.0045087
0.0044893
0.0044893
0.0044893
0.00477149
0.00477149
0.00477149
0.00483206
0.00483206
0.00483206
0.00481091
0.00481091
0.00481091
0.00460888
0.00460888
0.00460888
0.00456062
0.00456062
0.00456062
0.00459335
0.00459335
0.00459335
0.00473558
0.00473558
0.00473558
0.00468108
0.00468108
0.00468108
0.0047553
0.0047553
0.0047553
0.00472105
0.00472105
0.00472105
0.00464653
0.00464653
0.00464653
0.00466678
0.00466678
0.00466678
0.00688196
0.00688196
0.00688196
0.00656643
0.00656643
0.00656643
0.00648195
0.00648195
0.00648195
0.00690645
0.00690645
0.00690645
0.00673903
0.00673903
0.00673903
0.00682698
0.00682698
0.00682698
0.00664548
0.00664548
0.00664548
0.00608147
0.00608147
0.00608147
0.0071369
0.0071369
0.0071369
0.00706337
0.00706337
0.00706337
0.00715767
0.00715767
0.00715767
0.00719508
0.00719508
0.00719508
0.00735127
0.00735127
0.00735127
0.00729175
0.00729175
0.00729175
0.00733002
0.00733002
0.00733002
0.0067915
0.0067915
0.0067915
0.00687962
0.00687962
0.00687962
0.00702675
0.00702675
0.00702675
0.00693472
0.00693472
0.00693472
0.00706468
0.00706468
0.00706468
0.00697206
0.00697206
0.00697206
0.00729109
0.00729109
0.00729109
0.00738913
0.00738913
0.00738913
0.00744765
0.00744765
0.00744765
0.00503166
0.00503166
0.00503166
0.00509706
0.00509706
0.00509706
0.0053045
0.0053045
0.0053045
0.00535827
0.00535827
0.00535827
0.00529406
0.00529406
0.00529406
0.00526757
0.00526757
0.00526757
0.00516866
0.00516866
0.00516866
0.00520478
0.00520478
0.00520478
0.00536888
0.00536888
0.00536888
0.00539617
0.00539617
0.00539617
0.00577788
0.00577788
0.00577788
0.00524785
0.00524785
0.00524785
0.00522262
0.00522262
0.00522262
0.00505855
0.00505855
0.00505855
0.00518023
0.00518023
0.00518023
0.00366831
0.00366831
0.00366831
0.00367137
0.00367137
0.00367137
0.00369002
0.00369002
0.00369002
0.00373072
0.00373072
0.00373072
0.00359846
0.00359846
0.00359846
0.00464027
0.00464027
0.00464027
0.00474902
0.00474902
0.00474902
0.00467331
0.00467331
0.00467331
0.00472779
0.00472779
0.00472779
0.00474002
0.00474002
0.00474002
0.00477369
0.00477369
0.00477369
0.00374965
0.00374965
0.00374965
0.00365749
0.00365749
0.00365749
0.00359714
0.00359714
0.00359714
0.00435458
0.00435458
0.00435458
0.0043321
0.0043321
0.0043321
0.00385036
0.00385036
0.00385036
0.00372559
0.00372559
0.00372559
0.00376643
0.00376643
0.00376643
0.00380809
0.00380809
0.00380809
0.00720475
0.00720475
0.00720475
0.0075268
0.0075268
0.0075268
0.00593913
0.00593913
0.00593913
0.00601398
0.00601398
0.00601398
0.00558159
0.00558159
0.00558159
0.0040168
0.0040168
0.0040168
0.00593548
0.00593548
0.00593548
0.00601026
0.00601026
0.00601026
0.0053797
0.0053797
0.0053797
0.00541128
0.00541128
0.00541128
0.00531694
0.00531694
0.00531694
0.00538152
0.00538152
0.00538152
0.00538287
0.00538287
0.00538287
0.00541499
0.00541499
0.00541499
0.005255
0.005255
0.005255
0.00531826
0.00531826
0.00531826
0.00528578
0.00528578
0.00528578
0.00522269
0.00522269
0.00522269
0.00519205
0.00519205
0.00519205
0.00487663
0.00487663
0.00487663
0.00484094
0.00484094
0.00484094
0.0042248
0.0042248
0.0042248
0.00462779
0.00462779
0.00462779
0.00466091
0.00466091
0.00466091
0.00471518
0.00471518
0.00471518
0.00452966
0.00452966
0.00452966
0.00454919
0.00454919
0.00454919
0.0043648
0.0043648
0.0043648
0.00405623
0.00405623
0.00405623
0.00430517
0.00430517
0.00430517
0.00481735
0.00481735
0.00481735
0.00493153
0.00493153
0.00493153
0.00489619
0.00489619
0.00489619
0.0048392
0.0048392
0.0048392
0.00485184
0.00485184
0.00485184
0.00490903
0.00490903
0.00490903
0.00508595
0.00508595
0.00508595
0.0051229
0.0051229
0.0051229
0.00503894
0.00503894
0.00503894
0.00509904
0.00509904
0.00509904
0.00529841
0.00529841
0.00529841
0.00532374
0.00532374
0.00532374
0.00516058
0.00516058
0.00516058
0.00517985
0.00517985
0.00517985
0.00568137
0.00568137
0.00568137
0.00562992
0.00562992
0.00562992
0.00561208
0.00561208
0.00561208
0.00558669
0.00558669
0.00558669
0.00698605
0.00698605
0.00698605
0.00704287
0.00704287
0.00704287
0.00700674
0.00700674
0.00700674
0.00691503
0.00691503
0.00691503
0.00651217
0.00651217
0.00651217
0.00670809
0.00670809
0.00670809
0.00679616
0.00679616
0.00679616
0.00632038
0.00632038
0.00632038
0.00642191
0.00642191
0.00642191
0.00627023
0.00627023
0.00627023
0.00473613
0.00473613
0.00473613
0.00498504
0.00498504
0.00498504
0.00494866
0.00494866
0.00494866
0.00497057
0.00497057
0.00497057
0.00502953
0.00502953
0.00502953
0.00521202
0.00521202
0.00521202
0.00515024
0.00515024
0.00515024
0.00490409
0.00490409
0.00490409
0.00486199
0.00486199
0.00486199
0.00484706
0.00484706
0.00484706
0.00482615
0.00482615
0.00482615
0.00500502
0.00500502
0.00500502
0.00494161
0.00494161
0.00494161
0.00466106
0.00466106
0.00466106
0.00460176
0.00460176
0.00460176
0.00462152
0.00462152
0.00462152
0.00445204
0.00445204
0.00445204
0.00451659
0.00451659
0.00451659
0.00443344
0.00443344
0.00443344
0.00446526
0.00446526
0.00446526
0.00435198
0.00435198
0.00435198
0.00430302
0.00430302
0.00430302
0.00427264
0.00427264
0.00427264
0.00704695
0.00704695
0.00704695
0.00697724
0.00697724
0.00697724
0.0070037
0.0070037
0.0070037
0.00697226
0.00697226
0.00697226
0.00710128
0.00710128
0.00710128
0.00684936
0.00684936
0.00684936
0.00658777
0.00658777
0.00658777
0.00676049
0.00676049
0.00676049
0.00670516
0.00670516
0.00670516
0.00661913
0.00661913
0.00661913
0.0065366
0.0065366
0.0065366
0.00640162
0.00640162
0.00640162
0.00645305
0.00645305
0.00645305
0.00643235
0.00643235
0.00643235
0.00610198
0.00610198
0.00610198
0.00612963
0.00612963
0.00612963
0.00645035
0.00645035
0.00645035
0.00650346
0.00650346
0.00650346
0.00710229
0.00710229
0.00710229
0.00708318
0.00708318
0.00708318
0.00704606
0.00704606
0.00704606
0.00737188
0.00737188
0.00737188
0.00731256
0.00731256
0.00731256
0.00721565
0.00721565
0.00721565
0.00717776
0.00717776
0.00717776
0.00720209
0.00720209
0.00720209
0.00707044
0.00707044
0.00707044
0.00710601
0.00710601
0.00710601
0.00726268
0.00726268
0.00726268
0.00717384
0.00717384
0.00717384
0.00727028
0.00727028
0.00727028
0.00679012
0.00679012
0.00679012
0.00675539
0.00675539
0.00675539
0.00619031
0.00619031
0.00619031
0.00614325
0.00614325
0.00614325
0.00634716
0.00634716
0.00634716
0.00666802
0.00666802
0.00666802
0.0066157
0.0066157
0.0066157
0.00670351
0.00670351
0.00670351
0.00639698
0.00639698
0.00639698
0.00647965
0.00647965
0.00647965
0.00653071
0.00653071
0.00653071
0.00649771
0.00649771
0.00649771
0.00689882
0.00689882
0.00689882
0.0068272
0.0068272
0.0068272
0.00691733
0.00691733
0.00691733
0.00695373
0.00695373
0.00695373
0.00677377
0.00677377
0.00677377
0.006809
0.006809
0.006809
0.00712072
0.00712072
0.00712072
0.00721588
0.00721588
0.00721588
0.00727325
0.00727325
0.00727325
0.00723392
0.00723392
0.00723392
0.00693517
0.00693517
0.00693517
0.00684475
0.00684475
0.00684475
0.00680856
0.00680856
0.00680856
0.00609322
0.00609322
0.00609322
0.006017
0.006017
0.006017
0.00492968
0.00492968
0.00492968
0.00516929
0.00516929
0.00516929
0.00490285
0.00490285
0.00490285
0.00493382
0.00493382
0.00493382
0.0051979
0.0051979
0.0051979
0.00506543
0.00506543
0.00506543
0.00503919
0.00503919
0.00503919
0.00534986
0.00534986
0.00534986
0.00531369
0.00531369
0.00531369
0.00524197
0.00524197
0.00524197
0.005415
0.005415
0.005415
0.00545196
0.00545196
0.00545196
0.00551875
0.00551875
0.00551875
0.00554845
0.00554845
0.00554845
0.00506158
0.00506158
0.00506158
0.00515813
0.00515813
0.00515813
0.00519438
0.00519438
0.00519438
0.005257
0.005257
0.005257
0.00528318
0.00528318
0.00528318
0.00565564
0.00565564
0.00565564
0.00561683
0.00561683
0.00561683
0.00540664
0.00540664
0.00540664
0.00546204
0.00546204
0.00546204
0.0053417
0.0053417
0.0053417
0.00530537
0.00530537
0.00530537
0.00562855
0.00562855
0.00562855
0.00558922
0.00558922
0.00558922
0.00532371
0.00532371
0.00532371
0.00526007
0.00526007
0.00526007
0.00524252
0.00524252
0.00524252
0.00579543
0.00579543
0.00579543
0.00367416
0.00367416
0.00367416
0.00369297
0.00369297
0.00369297
0.00369565
0.00369565
0.00369565
0.00385405
0.00385405
0.00385405
0.00376689
0.00376689
0.00376689
0.0038119
0.0038119
0.0038119
0.0036132
0.0036132
0.0036132
0.00355099
0.00355099
0.00355099
0.00357519
0.00357519
0.00357519
0.0046524
0.0046524
0.0046524
0.00468536
0.00468536
0.00468536
0.00466416
0.00466416
0.00466416
0.0046106
0.0046106
0.0046106
0.00475188
0.00475188
0.00475188
0.00469703
0.00469703
0.00469703
0.0036868
0.0036868
0.0036868
0.00372744
0.00372744
0.00372744
0.00366498
0.00366498
0.00366498
0.0036833
0.0036833
0.0036833
0.00372004
0.00372004
0.00372004
0.00373846
0.00373846
0.00373846
0.00377978
0.00377978
0.00377978
0.00377542
0.00377542
0.00377542
0.00379849
0.00379849
0.00379849
0.00386412
0.00386412
0.00386412
0.00384062
0.00384062
0.00384062
0.00364423
0.00364423
0.00364423
0.00362018
0.00362018
0.00362018
0.00440456
0.00440456
0.00440456
0.00450669
0.00450669
0.00450669
0.00370861
0.00370861
0.00370861
0.00375282
0.00375282
0.00375282
0.00379438
0.00379438
0.00379438
0.00373372
0.00373372
0.00373372
0.00659526
0.00659526
0.00659526
0.00675684
0.00675684
0.00675684
0.00704617
0.00704617
0.00704617
0.00705075
0.00705075
0.00705075
0.00700217
0.00700217
0.00700217
0.00677848
0.00677848
0.00677848
0.00691065
0.00691065
0.00691065
0.00686767
0.00686767
0.00686767
0.0069973
0.0069973
0.0069973
0.0071557
0.0071557
0.0071557
0.00692863
0.00692863
0.00692863
0.00683873
0.00683873
0.00683873
0.00748328
0.00748328
0.00748328
0.00724365
0.00724365
0.00724365
0.00734094
0.00734094
0.00734094
0.00738363
0.00738363
0.00738363
0.00705394
0.00705394
0.00705394
0.00726749
0.00726749
0.00726749
0.00736523
0.00736523
0.00736523
0.00589968
0.00589968
0.00589968
0.00593757
0.00593757
0.00593757
0.00590153
0.00590153
0.00590153
0.00612796
0.00612796
0.00612796
0.00605121
0.00605121
0.00605121
0.00616587
0.00616587
0.00616587
0.00612601
0.00612601
0.00612601
0.00601239
0.00601239
0.00601239
0.00604929
0.00604929
0.00604929
0.00561501
0.00561501
0.00561501
0.0056822
0.0056822
0.0056822
0.0056523
0.0056523
0.0056523
0.00558301
0.00558301
0.00558301
0.00561672
0.00561672
0.00561672
0.00402628
0.00402628
0.00402628
0.0043779
0.0043779
0.0043779
0.00427934
0.00427934
0.00427934
0.00451554
0.00451554
0.00451554
0.00456787
0.00456787
0.00456787
0.00456301
0.00456301
0.00456301
0.00472454
0.00472454
0.00472454
0.0047797
0.0047797
0.0047797
0.00440836
0.00440836
0.00440836
0.00435701
0.00435701
0.00435701
0.00430764
0.00430764
0.00430764
0.00435802
0.00435802
0.00435802
0.00438254
0.00438254
0.00438254
0.00435397
0.00435397
0.00435397
0.00430467
0.00430467
0.00430467
0.0042343
0.0042343
0.0042343
0.00428262
0.00428262
0.00428262
0.00430632
0.00430632
0.00430632
0.00428115
0.00428115
0.00428115
0.00406197
0.00406197
0.00406197
0.00616365
0.00616365
0.00616365
0.00624233
0.00624233
0.00624233
0.00551195
0.00551195
0.00551195
0.00547738
0.00547738
0.00547738
0.00557968
0.00557968
0.00557968
0.00561282
0.00561282
0.00561282
0.00537742
0.00537742
0.00537742
0.00489338
0.00489338
0.00489338
0.00486393
0.00486393
0.00486393
0.00483597
0.00483597
0.00483597
0.00483481
0.00483481
0.00483481
0.00486253
0.00486253
0.00486253
0.00519077
0.00519077
0.00519077
0.00512915
0.00512915
0.00512915
0.00491597
0.00491597
0.00491597
0.00531515
0.00531515
0.00531515
0.00518904
0.00518904
0.00518904
0.00528421
0.00528421
0.00528421
0.00522115
0.00522115
0.00522115
0.00423786
0.00423786
0.00423786
0.00428599
0.00428599
0.00428599
0.00449064
0.00449064
0.00449064
0.00428517
0.00428517
0.00428517
0.00431563
0.00431563
0.00431563
0.00444632
0.00444632
0.00444632
0.00439599
0.00439599
0.00439599
0.00447812
0.00447812
0.00447812
0.00445889
0.00445889
0.00445889
0.00447114
0.00447114
0.00447114
0.00442043
0.00442043
0.00442043
0.00413111
0.00413111
0.00413111
0.00408523
0.00408523
0.00408523
0.00510949
0.00510949
0.00510949
0.00507246
0.00507246
0.00507246
0.00509568
0.00509568
0.00509568
0.00515663
0.00515663
0.00515663
0.00519461
0.00519461
0.00519461
0.00517068
0.00517068
0.00517068
0.00513588
0.00513588
0.00513588
0.00519752
0.00519752
0.00519752
0.00521029
0.00521029
0.00521029
0.00523519
0.00523519
0.00523519
0.00501546
0.00501546
0.00501546
0.00493354
0.00493354
0.00493354
0.00495664
0.00495664
0.00495664
0.00531129
0.00531129
0.00531129
0.00533695
0.00533695
0.00533695
0.00534971
0.00534971
0.00534971
0.00569705
0.00569705
0.00569705
0.00576781
0.00576781
0.00576781
0.00533857
0.00533857
0.00533857
0.00520276
0.00520276
0.00520276
0.00519615
0.00519615
0.00519615
0.00521922
0.00521922
0.00521922
0.00523536
0.00523536
0.00523536
0.0052985
0.0052985
0.0052985
0.00550124
0.00550124
0.00550124
0.0055939
0.0055939
0.0055939
0.00556869
0.00556869
0.00556869
0.00582346
0.00582346
0.00582346
0.00599779
0.00599779
0.00599779
0.00592325
0.00592325
0.00592325
0.00589631
0.00589631
0.00589631
0.00594279
0.00594279
0.00594279
0.00619119
0.00619119
0.00619119
0.00687358
0.00687358
0.00687358
0.0069426
0.0069426
0.0069426
0.00685188
0.00685188
0.00685188
0.00681798
0.00681798
0.00681798
0.00683919
0.00683919
0.00683919
0.00685975
0.00685975
0.00685975
0.00689465
0.00689465
0.00689465
0.00675036
0.00675036
0.00675036
0.00682958
0.00682958
0.00682958
0.00695409
0.00695409
0.00695409
0.00691993
0.00691993
0.00691993
0.00677381
0.00677381
0.00677381
0.00658939
0.00658939
0.00658939
0.00667534
0.00667534
0.00667534
0.00672952
0.00672952
0.00672952
0.00669628
0.00669628
0.00669628
0.00615071
0.00615071
0.00615071
0.00622911
0.00622911
0.00622911
0.00630006
0.00630006
0.00630006
0.00638094
0.00638094
0.00638094
0.00627944
0.00627944
0.00627944
0.00624987
0.00624987
0.00624987
0.00479152
0.00479152
0.00479152
0.00490484
0.00490484
0.00490484
0.00488295
0.00488295
0.00488295
0.00482618
0.00482618
0.00482618
0.00489092
0.00489092
0.00489092
0.00477804
0.00477804
0.00477804
0.00486933
0.00486933
0.00486933
0.00481278
0.00481278
0.00481278
0.00485532
0.00485532
0.00485532
0.004799
0.004799
0.004799
0.00464814
0.00464814
0.00464814
0.0047022
0.0047022
0.0047022
0.00472287
0.00472287
0.00472287
0.00461495
0.00461495
0.00461495
0.00463501
0.00463501
0.00463501
0.00468886
0.00468886
0.00468886
0.0051273
0.0051273
0.0051273
0.00508145
0.00508145
0.00508145
0.00514217
0.00514217
0.00514217
0.00516544
0.00516544
0.00516544
0.00504424
0.00504424
0.00504424
0.00506683
0.00506683
0.00506683
0.00503645
0.00503645
0.00503645
0.00501443
0.00501443
0.00501443
0.0049989
0.0049989
0.0049989
0.00494044
0.00494044
0.00494044
0.00495571
0.00495571
0.00495571
0.00491926
0.00491926
0.00491926
0.00510207
0.00510207
0.00510207
0.00506448
0.00506448
0.00506448
0.00511975
0.00511975
0.00511975
0.00518621
0.00518621
0.00518621
0.00516305
0.00516305
0.00516305
0.00476421
0.00476421
0.00476421
0.00470925
0.00470925
0.00470925
0.00475004
0.00475004
0.00475004
0.00478485
0.00478485
0.00478485
0.00469531
0.00469531
0.00469531
0.00467516
0.00467516
0.00467516
0.00452233
0.00452233
0.00452233
0.00450315
0.00450315
0.00450315
0.00457447
0.00457447
0.00457447
0.00460765
0.00460765
0.00460765
0.00458825
0.00458825
0.00458825
0.00453589
0.00453589
0.00453589
0.00426005
0.00426005
0.00426005
0.00429001
0.00429001
0.00429001
0.0044533
0.0044533
0.0044533
0.00430433
0.00430433
0.00430433
0.00716667
0.00716667
0.00716667
0.00689673
0.00689673
0.00689673
0.00680681
0.00680681
0.00680681
0.00664133
0.00664133
0.00664133
0.00672801
0.00672801
0.00672801
0.00666386
0.00666386
0.00666386
0.00660982
0.00660982
0.00660982
0.00675105
0.00675105
0.00675105
0.0067837
0.0067837
0.0067837
0.00656832
0.00656832
0.00656832
0.00663197
0.00663197
0.00663197
0.00654685
0.00654685
0.00654685
0.0065155
0.0065155
0.0065155
0.00668617
0.00668617
0.00668617
0.00665386
0.00665386
0.00665386
0.00647233
0.00647233
0.00647233