<VTKFile type="UnstructuredGrid" version="1.0">
<UnstructuredGrid>
<Piece NumberOfPoints="8859" NumberOfCells="2953">
<Points>
<DataArray type="Float64" NumberOfComponents="3" format="ascii">
2.04744 2.20956 17.6326
2.06275 2.19425 17.6446
2.04754 2.20946 17.6583
2.07804 2.17896 17.5817
2.07805 2.17895 17.5565
2.0934 2.1636 17.569
2.06271 2.19429 17.5944
2.07804 2.17896 17.5817
2.07804 2.17896 17.6069
2.01701 2.23999 17.6849
2.03242 2.22458 17.6925
2.00164 2.25536 17.6925
2.01701 2.23999 17.6849
2.03232 2.22468 17.6696
2.03242 2.22458 17.6925
2.04777 2.20923 17.6848
2.06326 2.19374 17.6925
2.03242 2.22458 17.6925
2.04777 2.20923 17.6848
2.03232 2.22468 17.6696
2.04754 2.20946 17.6583
2.03242 2.22458 17.6925
2.03232 2.22468 17.6696
2.04777 2.20923 17.6848
2.04754 2.20946 17.6583
2.06275 2.19425 17.6446
2.06287 2.19413 17.6693
2.06287 2.19413 17.6693
2.04777 2.20923 17.6848
2.04754 2.20946 17.6583
2.06326 2.19374 17.6925
2.04777 2.20923 17.6848
2.06287 2.19413 17.6693
2.06275 2.19425 17.6446
2.04744 2.20956 17.6326
2.06271 2.19429 17.6195
2.06271 2.19429 17.5944
2.07804 2.17896 17.6069
2.06271 2.19429 17.6195
2.07809 2.17891 17.6576
2.06287 2.19413 17.6693
2.06275 2.19425 17.6446
2.0934 2.1636 17.6439
2.0934 2.1636 17.6686
2.07809 2.17891 17.6576
2.0934 2.1636 17.5439
2.0934 2.1636 17.569
2.07805 2.17895 17.5565
2.07804 2.17896 17.5817
2.0934 2.1636 17.569
2.0934 2.1636 17.5941
2.0934 2.1636 17.5941
2.07804 2.17896 17.6069
2.07804 2.17896 17.5817
2.0934 2.1636 17.0165
2.0934 2.1636 17.0417
2.07807 2.17893 17.0291
2.07807 2.17893 17.4811
2.0934 2.1636 17.4936
2.07806 2.17894 17.5062
2.0934 2.1636 17.4685
2.0934 2.1636 17.4936
2.07807 2.17893 17.4811
2.07808 2.17892 17.3554
2.0934 2.1636 17.368
2.07808 2.17892 17.3806
1.61564 2.64136 16.8006
1.63134 2.62566 16.7925
1.63134 2.62566 16.8156
1.5683 2.6887 17.6925
1.53648 2.72052 17.6925
1.55243 2.70457 17.6843
2.07804 2.17896 17.6321
2.06271 2.19429 17.6195
2.07804 2.17896 17.6069
2.06275 2.19425 17.6446
2.06271 2.19429 17.6195
2.07804 2.17896 17.6321
2.07804 2.17896 17.6321
2.07809 2.17891 17.6576
2.06275 2.19425 17.6446
2.0934 2.1636 17.6439
2.07809 2.17891 17.6576
2.07804 2.17896 17.6321
2.07833 2.17867 17.6838
2.0934 2.1636 17.6686
2.0934 2.1636 17.6925
2.07833 2.17867 17.6838
2.07809 2.17891 17.6576
2.0934 2.1636 17.6686
2.0934 2.1636 17.6925
2.06326 2.19374 17.6925
2.07833 2.17867 17.6838
2.06326 2.19374 17.6925
2.06287 2.19413 17.6693
2.07833 2.17867 17.6838
2.06287 2.19413 17.6693
2.07809 2.17891 17.6576
2.07833 2.17867 17.6838
2.07806 2.17894 17.5062
2.0934 2.1636 17.4936
2.0934 2.1636 17.5187
2.07804 2.17896 17.6069
2.0934 2.1636 17.5941
2.0934 2.1636 17.6191
2.0934 2.1636 17.6439
2.07804 2.17896 17.6321
2.0934 2.1636 17.6191
2.0934 2.1636 17.6191
2.07804 2.17896 17.6321
2.07804 2.17896 17.6069
2.0934 2.1636 17.3429
2.0934 2.1636 17.368
2.07808 2.17892 17.3554
2.07807 2.17893 17.0291
2.0934 2.1636 17.0417
2.07807 2.17893 17.0542
2.06275 2.19425 17.4685
2.04743 2.20957 17.456
2.06275 2.19425 17.4434
2.07806 2.17894 17.5314
2.0934 2.1636 17.5439
2.07805 2.17895 17.5565
2.07806 2.17894 17.5314
2.0934 2.1636 17.5187
2.0934 2.1636 17.5439
2.07806 2.17894 17.5314
2.06273 2.19427 17.5188
2.07806 2.17894 17.5062
2.07806 2.17894 17.5062
2.0934 2.1636 17.5187
2.07806 2.17894 17.5314
2.06271 2.19429 17.5692
2.07804 2.17896 17.5817
2.06271 2.19429 17.5944
2.06271 2.19429 17.5692
2.07805 2.17895 17.5565
2.07804 2.17896 17.5817
2.04741 2.20959 17.5315
2.03209 2.22491 17.5441
2.0321 2.2249 17.5189
1.83285 2.42415 17.6584
1.81747 2.43953 17.6449
1.83285 2.42415 17.6327
1.78664 2.47036 17.4938
1.78664 2.47036 17.519
1.77121 2.48579 17.5064
2.0934 2.1636 16.7925
2.0934 2.1636 16.8164
2.07833 2.17867 16.8012
1.56833 2.68867 17.6693
1.5683 2.6887 17.6925
1.55243 2.70457 17.6843
1.63134 2.62566 17.5945
1.61565 2.64135 17.6071
1.61564 2.64136 17.5819
1.55243 2.70457 17.6843
1.53648 2.72052 17.6925
1.53664 2.72036 17.6692
2.06276 2.19424 17.117
2.04745 2.20955 17.1044
2.06276 2.19424 17.0919
2.0934 2.1636 17.2676
2.07808 2.17892 17.255
2.0934 2.1636 17.2425
2.07808 2.17892 17.3052
2.0934 2.1636 17.2927
2.0934 2.1636 17.3178
2.06277 2.19423 17.2174
2.04745 2.20955 17.23
2.04745 2.20955 17.2049
2.06277 2.19423 17.2425
2.04745 2.20955 17.23
2.06277 2.19423 17.2174
2.07808 2.17892 17.255
2.06277 2.19423 17.2676
2.06277 2.19423 17.2425
2.04745 2.20955 17.3806
2.06276 2.19424 17.3931
2.04744 2.20956 17.4057
2.01682 2.24018 17.3555
2.01682 2.24018 17.3806
2.0015 2.2555 17.368
2.04745 2.20955 17.3555
2.03214 2.22486 17.3429
2.04745 2.20955 17.3303
2.04745 2.20955 17.3303
2.06277 2.19423 17.3429
2.04745 2.20955 17.3555
2.03214 2.22486 17.3429
2.03214 2.22486 17.3178
2.04745 2.20955 17.3303
2.04745 2.20955 17.3303
2.03214 2.22486 17.3178
2.04745 2.20955 17.3052
2.0934 2.1636 17.3178
2.0934 2.1636 17.3429
2.07808 2.17892 17.3303
2.07808 2.17892 17.3303
2.07808 2.17892 17.3052
2.0934 2.1636 17.3178
2.07808 2.17892 17.3303
2.0934 2.1636 17.3429
2.07808 2.17892 17.3554
2.07808 2.17892 17.3554
2.06277 2.19423 17.3429
2.07808 2.17892 17.3303
2.04744 2.20956 17.4308
2.03213 2.22487 17.4183
2.04744 2.20956 17.4057
2.04744 2.20956 17.4308
2.06275 2.19425 17.4434
2.04743 2.20957 17.456
2.0015 2.2555 17.4183
2.01681 2.24019 17.4057
2.01681 2.24019 17.4309
2.01681 2.24019 17.4309
2.01681 2.24019 17.4057
2.03213 2.22487 17.4183
2.0934 2.1636 17.3931
2.07808 2.17892 17.3806
2.0934 2.1636 17.368
2.04744 2.20956 17.4057
2.06276 2.19424 17.3931
2.06276 2.19424 17.4182
2.06276 2.19424 17.4182
2.04744 2.20956 17.4308
2.04744 2.20956 17.4057
2.06275 2.19425 17.4434
2.04744 2.20956 17.4308
2.06276 2.19424 17.4182
2.07806 2.17894 17.5062
2.06273 2.19427 17.5188
2.06274 2.19426 17.4937
2.06274 2.19426 17.4937
2.07807 2.17893 17.4811
2.07806 2.17894 17.5062
2.06275 2.19425 17.4685
2.07807 2.17893 17.4811
2.06274 2.19426 17.4937
2.0321 2.2249 17.5189
2.03211 2.22489 17.4938
2.04742 2.20958 17.5063
2.04742 2.20958 17.5063
2.04741 2.20959 17.5315
2.0321 2.2249 17.5189
2.06273 2.19427 17.5188
2.04741 2.20959 17.5315
2.04742 2.20958 17.5063
2.04742 2.20958 17.5063
2.06274 2.19426 17.4937
2.06273 2.19427 17.5188
2.01679 2.24021 17.5064
2.03211 2.22489 17.4938
2.0321 2.2249 17.5189
2.01679 2.24021 17.5064
2.00148 2.25552 17.519
2.00148 2.25552 17.4938
2.06271 2.19429 17.5944
2.06271 2.19429 17.6195
2.04741 2.20959 17.6072
2.04741 2.20959 17.6072
2.06271 2.19429 17.6195
2.04744 2.20956 17.6326
2.03209 2.22491 17.5441
2.04741 2.20959 17.5315
2.0474 2.2096 17.5567
2.0474 2.2096 17.5567
2.03209 2.22491 17.5694
2.03209 2.22491 17.5441
1.97087 2.28613 17.3932
1.95555 2.30145 17.4057
1.95555 2.30145 17.3806
2.00148 2.25552 17.4938
2.00149 2.25551 17.4686
2.0168 2.2402 17.4812
2.0168 2.2402 17.4812
2.01679 2.24021 17.5064
2.00148 2.25552 17.4938
2.03211 2.22489 17.4938
2.01679 2.24021 17.5064
2.0168 2.2402 17.4812
2.03211 2.22489 17.4686
2.03211 2.22489 17.4938
2.0168 2.2402 17.4812
1.86358 2.39342 17.6328
1.86358 2.39342 17.6584
1.84822 2.40878 17.6449
1.84822 2.40878 17.6449
1.86358 2.39342 17.6584
1.84822 2.40878 17.6695
1.84822 2.40878 17.6449
1.84822 2.40878 17.6695
1.83285 2.42415 17.6584
1.83285 2.42415 17.6584
1.83285 2.42415 17.6327
1.84822 2.40878 17.6449
1.81747 2.43953 17.6198
1.83285 2.42415 17.6327
1.81747 2.43953 17.6449
1.80202 2.45498 17.255
1.80202 2.45498 17.2801
1.7866 2.4704 17.2676
1.70922 2.54778 17.3806
1.69367 2.56333 17.368
1.70922 2.54778 17.3554
1.70924 2.54776 17.4308
1.6937 2.5633 17.4434
1.69369 2.56331 17.4182
1.63134 2.62566 17.5945
1.61564 2.64136 17.5819
1.63132 2.62568 17.5692
1.63135 2.62565 17.6197
1.61565 2.64135 17.6071
1.63134 2.62566 17.5945
1.69376 2.56324 17.5441
1.69378 2.56322 17.5693
1.6782 2.5788 17.5567
1.59983 2.65717 17.4936
1.61554 2.64146 17.481
1.61557 2.64143 17.5062
1.59973 2.65727 17.393
1.58397 2.67303 17.4056
1.58396 2.67304 17.3805
1.61564 2.64136 17.6844
1.63134 2.62566 17.6925
1.5999 2.6571 17.6925
1.63134 2.62566 17.6694
1.63134 2.62566 17.6925
1.61564 2.64136 17.6844
1.647 2.61 17.6845
1.63134 2.62566 17.6925
1.63134 2.62566 17.6694
1.59993 2.65707 17.6196
1.59992 2.65708 17.6447
1.58418 2.67282 17.6325
1.84822 2.40878 17.6925
1.81747 2.43953 17.6925
1.83285 2.42415 17.6847
1.83285 2.42415 17.6584
1.84822 2.40878 17.6695
1.83285 2.42415 17.6847
1.83285 2.42415 17.6847
1.84822 2.40878 17.6695
1.84822 2.40878 17.6925
1.81747 2.43953 17.6695
1.81747 2.43953 17.6449
1.83285 2.42415 17.6584
1.83285 2.42415 17.6584
1.83285 2.42415 17.6847
1.81747 2.43953 17.6695
1.81747 2.43953 17.6695
1.83285 2.42415 17.6847
1.81747 2.43953 17.6925
1.70931 2.54769 17.5568
1.69378 2.56322 17.5693
1.69376 2.56324 17.5441
1.7712 2.4858 17.4812
1.78663 2.47037 17.4686
1.78664 2.47036 17.4938
1.78664 2.47036 17.4938
1.77121 2.48579 17.5064
1.7712 2.4858 17.4812
1.77122 2.48578 17.5316
1.77121 2.48579 17.5064
1.78664 2.47036 17.519
1.77122 2.48578 17.5316
1.78664 2.47036 17.519
1.78665 2.47035 17.5442
1.78665 2.47035 17.5442
1.77123 2.48577 17.5568
1.77122 2.48578 17.5316
1.77122 2.48578 17.5316
1.77123 2.48577 17.5568
1.75578 2.50122 17.5442
1.78666 2.47034 17.5694
1.77123 2.48577 17.5568
1.78665 2.47035 17.5442
1.78666 2.47034 17.5946
1.77124 2.48576 17.6073
1.77124 2.48576 17.5821
1.77124 2.48576 17.5821
1.78666 2.47034 17.5694
1.78666 2.47034 17.5946
1.77123 2.48577 17.5568
1.78666 2.47034 17.5694
1.77124 2.48576 17.5821
2.07809 2.17891 16.8274
2.07833 2.17867 16.8012
2.0934 2.1636 16.8164
2.06287 2.19413 16.8157
2.07833 2.17867 16.8012
2.07809 2.17891 16.8274
1.94028 2.31672 16.8155
1.94028 2.31672 16.7925
1.95561 2.30139 16.8002
2.00164 2.25536 16.7925
1.98629 2.27071 16.8002
1.97095 2.28605 16.7925
1.97095 2.28605 16.7925
1.95561 2.30139 16.8002
1.94028 2.31672 16.7925
1.48928 2.76772 16.829
1.48919 2.76781 16.8029
1.50509 2.75191 16.8164
1.50509 2.75191 16.8164
1.5206 2.7364 16.801
1.52092 2.73608 16.8275
1.47362 2.78338 16.8178
1.48919 2.76781 16.8029
1.48928 2.76772 16.829
1.47362 2.78338 16.8178
1.47412 2.78288 16.7925
1.48919 2.76781 16.8029
1.56833 2.68867 16.8157
[...]
<PointData Scalars="View Factor" >
<DataArray type="Float64" Name="View Factor" NumberOfComponents="1" format="ascii">
4.31344e-05
4.31344e-05
4.31344e-05
4.36553e-05
4.36553e-05
4.36553e-05
4.34814e-05
4.34814e-05
4.34814e-05
4.30492e-05
4.30492e-05
4.30492e-05
4.30121e-05
4.30121e-05
4.30121e-05
4.26817e-05
4.26817e-05
4.26817e-05
4.29569e-05
4.29569e-05
4.29569e-05
4.2887e-05
4.2887e-05
4.2887e-05
4.29316e-05
4.29316e-05
4.29316e-05
4.28352e-05
4.28352e-05
4.28352e-05
4.26448e-05
4.26448e-05
4.26448e-05
4.32232e-05
4.32232e-05
4.32232e-05
4.33953e-05
4.33953e-05
4.33953e-05
4.28131e-05
4.28131e-05
4.28131e-05
4.25799e-05
4.25799e-05
4.25799e-05
4.37428e-05
4.37428e-05
4.37428e-05
4.34479e-05
4.34479e-05
4.34479e-05
4.33609e-05
4.33609e-05
4.33609e-05
5.05534e-05
5.05534e-05
5.05534e-05
4.45535e-05
4.45535e-05
4.45535e-05
4.46434e-05
4.46434e-05
4.46434e-05
4.61015e-05
4.61015e-05
4.61015e-05
9.73718e-05
9.73718e-05
9.73718e-05
8.33275e-05
8.33275e-05
8.33275e-05
4.31853e-05
4.31853e-05
4.31853e-05
4.31028e-05
4.31028e-05
4.31028e-05
4.2898e-05
4.2898e-05
4.2898e-05
4.27807e-05
4.27807e-05
4.27807e-05
4.22959e-05
4.22959e-05
4.22959e-05
4.24865e-05
4.24865e-05
4.24865e-05
4.23214e-05
4.23214e-05
4.23214e-05
4.25279e-05
4.25279e-05
4.25279e-05
4.26023e-05
4.26023e-05
4.26023e-05
4.43406e-05
4.43406e-05
4.43406e-05
4.31557e-05
4.31557e-05
4.31557e-05
4.28665e-05
4.28665e-05
4.28665e-05
4.30664e-05
4.30664e-05
4.30664e-05
4.61955e-05
4.61955e-05
4.61955e-05
5.04469e-05
5.04469e-05
5.04469e-05
4.53296e-05
4.53296e-05
4.53296e-05
4.39521e-05
4.39521e-05
4.39521e-05
4.40404e-05
4.40404e-05
4.40404e-05
4.43754e-05
4.43754e-05
4.43754e-05
4.42515e-05
4.42515e-05
4.42515e-05
4.36902e-05
4.36902e-05
4.36902e-05
4.3777e-05
4.3777e-05
4.3777e-05
4.46681e-05
4.46681e-05
4.46681e-05
5.72307e-05
5.72307e-05
5.72307e-05
6.41296e-05
6.41296e-05
6.41296e-05
5.38674e-05
5.38674e-05
5.38674e-05
8.24556e-05
8.24556e-05
8.24556e-05
7.86392e-05
7.86392e-05
7.86392e-05
8.45221e-05
8.45221e-05
8.45221e-05
4.9925e-05
4.9925e-05
4.9925e-05
4.74845e-05
4.74845e-05
4.74845e-05
4.68346e-05
4.68346e-05
4.68346e-05
4.84598e-05
4.84598e-05
4.84598e-05
4.82203e-05
4.82203e-05
4.82203e-05
4.77519e-05
4.77519e-05
4.77519e-05
4.61771e-05
4.61771e-05
4.61771e-05
4.7042e-05
4.7042e-05
4.7042e-05
4.69502e-05
4.69502e-05
4.69502e-05
4.68149e-05
4.68149e-05
4.68149e-05
4.71804e-05
4.71804e-05
4.71804e-05
4.72767e-05
4.72767e-05
4.72767e-05
4.65137e-05
4.65137e-05
4.65137e-05
4.67388e-05
4.67388e-05
4.67388e-05
4.64188e-05
4.64188e-05
4.64188e-05
4.65492e-05
4.65492e-05
4.65492e-05
4.59945e-05
4.59945e-05
4.59945e-05
4.55497e-05
4.55497e-05
4.55497e-05
4.64012e-05
4.64012e-05
4.64012e-05
4.6264e-05
4.6264e-05
4.6264e-05
4.58799e-05
4.58799e-05
4.58799e-05
4.59534e-05
4.59534e-05
4.59534e-05
4.58621e-05
4.58621e-05
4.58621e-05
4.56402e-05
4.56402e-05
4.56402e-05
4.45892e-05
4.45892e-05
4.45892e-05
4.46783e-05
4.46783e-05
4.46783e-05
4.48939e-05
4.48939e-05
4.48939e-05
4.49734e-05
4.49734e-05
4.49734e-05
4.47557e-05
4.47557e-05
4.47557e-05
4.46274e-05
4.46274e-05
4.46274e-05
4.47158e-05
4.47158e-05
4.47158e-05
4.51046e-05
4.51046e-05
4.51046e-05
4.53692e-05
4.53692e-05
4.53692e-05
4.35173e-05
4.35173e-05
4.35173e-05
4.34326e-05
4.34326e-05
4.34326e-05
4.44521e-05
4.44521e-05
4.44521e-05
4.43651e-05
4.43651e-05
4.43651e-05
4.74361e-05
4.74361e-05
4.74361e-05
4.56853e-05
4.56853e-05
4.56853e-05
4.54592e-05
4.54592e-05
4.54592e-05
4.53251e-05
4.53251e-05
4.53251e-05
4.54134e-05
4.54134e-05
4.54134e-05
5.42216e-05
5.42216e-05
5.42216e-05
5.45394e-05
5.45394e-05
5.45394e-05
5.55386e-05
5.55386e-05
5.55386e-05
5.62271e-05
5.62271e-05
5.62271e-05
5.79298e-05
5.79298e-05
5.79298e-05
6.6794e-05
6.6794e-05
6.6794e-05
7.48139e-05
7.48139e-05
7.48139e-05
7.40789e-05
7.40789e-05
7.40789e-05
7.83851e-05
7.83851e-05
7.83851e-05
7.78566e-05
7.78566e-05
7.78566e-05
7.26182e-05
7.26182e-05
7.26182e-05
8.19148e-05
8.19148e-05
8.19148e-05
8.64313e-05
8.64313e-05
8.64313e-05
7.71575e-05
7.71575e-05
7.71575e-05
7.6294e-05
7.6294e-05
7.6294e-05
7.52733e-05
7.52733e-05
7.52733e-05
8.04324e-05
8.04324e-05
8.04324e-05
5.60452e-05
5.60452e-05
5.60452e-05
5.5845e-05
5.5845e-05
5.5845e-05
5.51748e-05
5.51748e-05
5.51748e-05
5.75429e-05
5.75429e-05
5.75429e-05
5.68422e-05
5.68422e-05
5.68422e-05
5.71646e-05
5.71646e-05
5.71646e-05
7.15721e-05
7.15721e-05
7.15721e-05
6.45769e-05
6.45769e-05
6.45769e-05
6.48763e-05
6.48763e-05
6.48763e-05
6.44377e-05
6.44377e-05
6.44377e-05
6.36907e-05
6.36907e-05
6.36907e-05
6.39934e-05
6.39934e-05
6.39934e-05
6.50324e-05
6.50324e-05
6.50324e-05
6.32593e-05
6.32593e-05
6.32593e-05
6.31251e-05
6.31251e-05
6.31251e-05
6.28264e-05
6.28264e-05
6.28264e-05
6.35531e-05
6.35531e-05
6.35531e-05
5.37653e-05
5.37653e-05
5.37653e-05
5.39205e-05
5.39205e-05
5.39205e-05
5.77296e-05
5.77296e-05
5.77296e-05
5.56044e-05
5.56044e-05
5.56044e-05
5.65922e-05
5.65922e-05
5.65922e-05
0.000113397
0.000113397
0.000113397
0.000110814
0.000110814
0.000110814
0.000114689
0.000114689
0.000114689
0.000115715
0.000115715
0.000115715
0.000103932
0.000103932
0.000103932
9.8897e-05
9.8897e-05
9.8897e-05
0.000102847
0.000102847
0.000102847
0.000110162
0.000110162
0.000110162
0.000109144
0.000109144
0.000109144
7.83349e-05
7.83349e-05
7.83349e-05
8.06755e-05
8.06755e-05
8.06755e-05
7.98949e-05
7.98949e-05
7.98949e-05
8.84062e-05
8.84062e-05
8.84062e-05
8.75439e-05
8.75439e-05
8.75439e-05
8.29252e-05
8.29252e-05
8.29252e-05
5.08023e-05
5.08023e-05
5.08023e-05
4.81456e-05
4.81456e-05
4.81456e-05
4.9234e-05
4.9234e-05
4.9234e-05
4.91311e-05
4.91311e-05
4.91311e-05
4.9578e-05
4.9578e-05
4.9578e-05
4.94768e-05
4.94768e-05
4.94768e-05
4.96204e-05
4.96204e-05
4.96204e-05
4.98663e-05
4.98663e-05
4.98663e-05
4.99675e-05
4.99675e-05
4.99675e-05
4.98228e-05
4.98228e-05
4.98228e-05
7.03736e-05
7.03736e-05
7.03736e-05
7.07751e-05
7.07751e-05
7.07751e-05
7.18103e-05
7.18103e-05
7.18103e-05
5.02155e-05
5.02155e-05
5.02155e-05
5.02001e-05
5.02001e-05
5.02001e-05
4.87749e-05
4.87749e-05
4.87749e-05
5.09242e-05
5.09242e-05
5.09242e-05
4.73255e-05
4.73255e-05
4.73255e-05
5.12595e-05
5.12595e-05
5.12595e-05
4.88521e-05
4.88521e-05
4.88521e-05
4.91003e-05
4.91003e-05
4.91003e-05
5.01417e-05
5.01417e-05
5.01417e-05
5.05186e-05
5.05186e-05
5.05186e-05
4.86002e-05
4.86002e-05
4.86002e-05
4.78136e-05
4.78136e-05
4.78136e-05
4.77151e-05
4.77151e-05
4.77151e-05
4.78493e-05
4.78493e-05
4.78493e-05
4.8083e-05
4.8083e-05
4.8083e-05
4.81813e-05
4.81813e-05
4.81813e-05
4.80462e-05
4.80462e-05
4.80462e-05
5.7533e-05
5.7533e-05
5.7533e-05
5.71713e-05
5.71713e-05
5.71713e-05
5.12229e-05
5.12229e-05
5.12229e-05
5.04884e-05
5.04884e-05
5.04884e-05
5.08663e-05
5.08663e-05
5.08663e-05
5.19747e-05
5.19747e-05
5.19747e-05
5.75694e-05
5.75694e-05
5.75694e-05
5.83375e-05
5.83375e-05
5.83375e-05
5.90484e-05
5.90484e-05
5.90484e-05
5.7927e-05
5.7927e-05
5.7927e-05
5.23391e-05
5.23391e-05
5.23391e-05
5.27129e-05
5.27129e-05
5.27129e-05
4.61378e-05
4.61378e-05
4.61378e-05
4.62692e-05
4.62692e-05
4.62692e-05
4.64947e-05
4.64947e-05
4.64947e-05
4.62309e-05
4.62309e-05
4.62309e-05
4.64553e-05
4.64553e-05
4.64553e-05
4.65876e-05
4.65876e-05
4.65876e-05
4.69027e-05
4.69027e-05
4.69027e-05
4.6629e-05
4.6629e-05
4.6629e-05
4.68573e-05
4.68573e-05
4.68573e-05
4.69947e-05
4.69947e-05
4.69947e-05
4.79784e-05
4.79784e-05
4.79784e-05
4.79322e-05
4.79322e-05
4.79322e-05
4.80763e-05
4.80763e-05
4.80763e-05
4.68701e-05
4.68701e-05
4.68701e-05
4.72326e-05
4.72326e-05
4.72326e-05
4.70981e-05
4.70981e-05
4.70981e-05
4.71405e-05
4.71405e-05
4.71405e-05
4.69087e-05
4.69087e-05
4.69087e-05
4.67754e-05
4.67754e-05
4.67754e-05
4.62192e-05
4.62192e-05
4.62192e-05
4.63545e-05
4.63545e-05
4.63545e-05
4.65821e-05
4.65821e-05
4.65821e-05
4.63104e-05
4.63104e-05
4.63104e-05
4.66733e-05
4.66733e-05
4.66733e-05
4.6537e-05
4.6537e-05
4.6537e-05
4.67205e-05
4.67205e-05
4.67205e-05
4.69482e-05
4.69482e-05
4.69482e-05
4.70893e-05
4.70893e-05
4.70893e-05
4.66327e-05
4.66327e-05
4.66327e-05
4.5904e-05
4.5904e-05
4.5904e-05
4.60382e-05
4.60382e-05
4.60382e-05
4.56811e-05
4.56811e-05
4.56811e-05
4.55913e-05
4.55913e-05
4.55913e-05
4.63116e-05
4.63116e-05
4.63116e-05
4.59126e-05
4.59126e-05
4.59126e-05
4.57842e-05
4.57842e-05
4.57842e-05
4.55671e-05
4.55671e-05
4.55671e-05
4.58229e-05
4.58229e-05
4.58229e-05
4.49487e-05
4.49487e-05
4.49487e-05
4.5201e-05
4.5201e-05
4.5201e-05
4.4858e-05
4.4858e-05
4.4858e-05
4.49837e-05
4.49837e-05
4.49837e-05
4.52565e-05
4.52565e-05
4.52565e-05
4.54773e-05
4.54773e-05
4.54773e-05
4.56047e-05
4.56047e-05
4.56047e-05
4.55107e-05
4.55107e-05
4.55107e-05
4.52917e-05
4.52917e-05
4.52917e-05
4.5165e-05
4.5165e-05
4.5165e-05
4.52812e-05
4.52812e-05
4.52812e-05
4.50214e-05
4.50214e-05
4.50214e-05
4.50617e-05
4.50617e-05
4.50617e-05
4.49324e-05
4.49324e-05
4.49324e-05
4.53702e-05
4.53702e-05
4.53702e-05
4.52398e-05
4.52398e-05
4.52398e-05
4.47982e-05
4.47982e-05
4.47982e-05
4.5017e-05
4.5017e-05
4.5017e-05
4.51502e-05
4.51502e-05
4.51502e-05
4.38134e-05
4.38134e-05
4.38134e-05
4.40619e-05
4.40619e-05
4.40619e-05
4.40246e-05
4.40246e-05
4.40246e-05
4.41507e-05
4.41507e-05
4.41507e-05
4.37241e-05
4.37241e-05
4.37241e-05
4.3849e-05
4.3849e-05
4.3849e-05
4.31759e-05
4.31759e-05
4.31759e-05
4.32569e-05
4.32569e-05
4.32569e-05
4.32095e-05
4.32095e-05
4.32095e-05
4.3301e-05
4.3301e-05
4.3301e-05
4.35078e-05
4.35078e-05
4.35078e-05
4.37683e-05
4.37683e-05
4.37683e-05
4.35952e-05
4.35952e-05
4.35952e-05
4.35562e-05
4.35562e-05
4.35562e-05
4.34694e-05
4.34694e-05
4.34694e-05
4.43249e-05
4.43249e-05
4.43249e-05
4.4075e-05
4.4075e-05
4.4075e-05
4.39874e-05
4.39874e-05
4.39874e-05
4.41118e-05
4.41118e-05
4.41118e-05
4.42871e-05
4.42871e-05
4.42871e-05
4.44126e-05
4.44126e-05
4.44126e-05
5.52295e-05
5.52295e-05
5.52295e-05
5.59644e-05
5.59644e-05
5.59644e-05
5.19991e-05
5.19991e-05
5.19991e-05
5.41519e-05
5.41519e-05
5.41519e-05
4.72004e-05
4.72004e-05
4.72004e-05
5.30792e-05
5.30792e-05
5.30792e-05
5.41825e-05
5.41825e-05
5.41825e-05
5.38508e-05
5.38508e-05
5.38508e-05
6.71185e-05
6.71185e-05
6.71185e-05
6.56764e-05
6.56764e-05
6.56764e-05
5.9406e-05
5.9406e-05
5.9406e-05
5.86466e-05
5.86466e-05
5.86466e-05
7.56343e-05
7.56343e-05
7.56343e-05
7.78829e-05
7.78829e-05
7.78829e-05
7.51045e-05
7.51045e-05
7.51045e-05
8.14668e-05
8.14668e-05
8.14668e-05
8.28664e-05
8.28664e-05
8.28664e-05
8.25927e-05
8.25927e-05
8.25927e-05
7.91834e-05
7.91834e-05
7.91834e-05
7.81089e-05
7.81089e-05
7.81089e-05
7.91488e-05
7.91488e-05
7.91488e-05
7.93936e-05
7.93936e-05
7.93936e-05
7.7337e-05
7.7337e-05
7.7337e-05
7.70838e-05
7.70838e-05
7.70838e-05
7.5247e-05
7.5247e-05
7.5247e-05
7.60342e-05
7.60342e-05
7.60342e-05
7.68158e-05
7.68158e-05
7.68158e-05
7.57503e-05
7.57503e-05
7.57503e-05
7.89503e-05
7.89503e-05
7.89503e-05
8.00209e-05
8.00209e-05
8.00209e-05
8.08376e-05
8.08376e-05
8.08376e-05
7.68021e-05
7.68021e-05
7.68021e-05
7.47126e-05
7.47126e-05
7.47126e-05
7.57636e-05
7.57636e-05
7.57636e-05
8.27368e-05
8.27368e-05
8.27368e-05
8.24824e-05
8.24824e-05
8.24824e-05
8.19621e-05
8.19621e-05
8.19621e-05
8.61709e-05
8.61709e-05
8.61709e-05
7.40959e-05
7.40959e-05
7.40959e-05
7.10597e-05
7.10597e-05
7.10597e-05
7.96862e-05
7.96862e-05
7.96862e-05
7.9939e-05
7.9939e-05
7.9939e-05
5.90383e-05
5.90383e-05
5.90383e-05
5.816e-05
5.816e-05
5.816e-05
6.73066e-05
6.73066e-05
6.73066e-05
6.76079e-05
6.76079e-05
6.76079e-05
6.39563e-05
6.39563e-05
6.39563e-05
6.48547e-05
6.48547e-05
6.48547e-05
6.57814e-05
6.57814e-05
6.57814e-05
6.5484e-05
6.5484e-05
6.5484e-05
6.41494e-05
6.41494e-05
6.41494e-05
6.62041e-05
6.62041e-05
6.62041e-05
5.41389e-05
5.41389e-05
5.41389e-05
5.41732e-05
5.41732e-05
5.41732e-05
5.47224e-05
5.47224e-05
5.47224e-05
5.48193e-05
5.48193e-05
5.48193e-05
5.51047e-05
5.51047e-05
5.51047e-05
0.000109225
0.000109225
0.000109225
0.00010951
0.00010951
0.00010951
0.000106805
0.000106805
0.000106805
0.000107901
0.000107901
0.000107901
0.000106885
0.000106885
0.000106885
0.000105252
0.000105252
0.000105252
0.00010557
0.00010557
0.00010557
0.000104503
0.000104503
0.000104503
0.000111028
0.000111028
0.000111028
0.000112566
0.000112566
0.000112566
0.000112321
0.000112321
0.000112321
0.00011315
0.00011315
0.00011315
0.000111861
0.000111861
0.000111861
0.000114699
0.000114699
0.000114699
0.0001108
0.0001108
0.0001108
9.92828e-05
9.92828e-05
9.92828e-05
9.56667e-05
9.56667e-05
9.56667e-05
9.73343e-05
9.73343e-05
9.73343e-05
0.000106307
0.000106307
0.000106307
0.000107054
0.000107054
0.000107054
0.000106076
0.000106076
0.000106076
0.000104645
0.000104645
0.000104645
0.000104876
0.000104876
0.000104876
0.000110104
0.000110104
0.000110104
0.000104166
0.000104166
0.000104166
0.000102445
0.000102445
0.000102445
9.77653e-05
9.77653e-05
9.77653e-05
9.68369e-05
9.68369e-05
9.68369e-05
0.000103871
0.000103871
0.000103871
0.000102617
0.000102617
0.000102617
0.000106383
0.000106383
0.000106383
0.000107641
0.000107641
0.000107641
0.000107888
0.000107888
0.000107888
9.87055e-05
9.87055e-05
9.87055e-05
0.000111665
0.000111665
0.000111665
0.000112453
0.000112453
0.000112453
0.000111426
0.000111426
0.000111426
8.08572e-05
8.08572e-05
8.08572e-05
8.00028e-05
8.00028e-05
8.00028e-05
8.57562e-05
8.57562e-05
8.57562e-05
7.82993e-05
7.82993e-05
7.82993e-05
7.80003e-05
7.80003e-05
7.80003e-05
7.88488e-05
7.88488e-05
7.88488e-05
7.24076e-05
7.24076e-05
7.24076e-05
7.40445e-05
7.40445e-05
7.40445e-05
8.92961e-05
8.92961e-05
8.92961e-05
8.90217e-05
8.90217e-05
8.90217e-05
7.70397e-05
7.70397e-05
7.70397e-05
7.80658e-05
7.80658e-05
7.80658e-05
7.88623e-05
7.88623e-05
7.88623e-05
7.86e-05
7.86e-05
7.86e-05
7.93608e-05
7.93608e-05
7.93608e-05
8.01261e-05
8.01261e-05
8.01261e-05
8.02252e-05
8.02252e-05
8.02252e-05
8.14231e-05
8.14231e-05
8.14231e-05
8.11575e-05
8.11575e-05
8.11575e-05
0.000101255
0.000101255
0.000101255
0.000100558
0.000100558
0.000100558
0.000100337
0.000100337
0.000100337
8.77989e-05
8.77989e-05
8.77989e-05
8.82897e-05
8.82897e-05
8.82897e-05
8.91548e-05
8.91548e-05
8.91548e-05
8.89101e-05
8.89101e-05
8.89101e-05
9.11366e-05
9.11366e-05
9.11366e-05
9.05033e-05
9.05033e-05
9.05033e-05
9.02641e-05
9.02641e-05
9.02641e-05
9.16109e-05
9.16109e-05
9.16109e-05
8.26773e-05
8.26773e-05
8.26773e-05
8.21697e-05
8.21697e-05
8.21697e-05
8.73238e-05
8.73238e-05
8.73238e-05
8.70793e-05
8.70793e-05
8.70793e-05
8.39918e-05
8.39918e-05
8.39918e-05
8.5562e-05
8.5562e-05
8.5562e-05
8.64341e-05
8.64341e-05
8.64341e-05
8.76382e-05
8.76382e-05
8.76382e-05
8.17131e-05
8.17131e-05
8.17131e-05
8.19643e-05
8.19643e-05
8.19643e-05
8.32196e-05
8.32196e-05
8.32196e-05
8.42557e-05
8.42557e-05
8.42557e-05
8.30013e-05
8.30013e-05
8.30013e-05
8.37951e-05
8.37951e-05
8.37951e-05
5.48872e-05
5.48872e-05
5.48872e-05
5.51473e-05
5.51473e-05
5.51473e-05
5.53157e-05
5.53157e-05
5.53157e-05
5.52226e-05
5.52226e-05
5.52226e-05
5.58299e-05
5.58299e-05
5.58299e-05
5.56554e-05
5.56554e-05
5.56554e-05
5.53936e-05
5.53936e-05
5.53936e-05
6.37187e-05
6.37187e-05
6.37187e-05
5.37988e-05
5.37988e-05
5.37988e-05
5.39565e-05
5.39565e-05
5.39565e-05
5.44356e-05
5.44356e-05
5.44356e-05
5.42742e-05
5.42742e-05
5.42742e-05
4.88933e-05
4.88933e-05
4.88933e-05
4.8794e-05
4.8794e-05
4.8794e-05
4.85554e-05
4.85554e-05
4.85554e-05
4.84169e-05
4.84169e-05
4.84169e-05
4.88183e-05
4.88183e-05
4.88183e-05
4.90937e-05
4.90937e-05
4.90937e-05
4.92735e-05
4.92735e-05
4.92735e-05
4.95668e-05
4.95668e-05
4.95668e-05
4.96659e-05
4.96659e-05
4.96659e-05
4.95202e-05
4.95202e-05
4.95202e-05
6.67261e-05
6.67261e-05
6.67261e-05
6.60397e-05
6.60397e-05
6.60397e-05
6.83995e-05
6.83995e-05
6.83995e-05
6.99424e-05
6.99424e-05
6.99424e-05
7.11334e-05
7.11334e-05
7.11334e-05
7.19828e-05
7.19828e-05
7.19828e-05
6.95925e-05
6.95925e-05
6.95925e-05
7.16391e-05
7.16391e-05
7.16391e-05
7.04398e-05
7.04398e-05
7.04398e-05
6.91036e-05
6.91036e-05
6.91036e-05
7.14789e-05
7.14789e-05
7.14789e-05
7.2156e-05
7.2156e-05
7.2156e-05
8.27069e-05
8.27069e-05
8.27069e-05
7.31796e-05
7.31796e-05
7.31796e-05
8.14658e-05
8.14658e-05
8.14658e-05
5.88627e-05
5.88627e-05
5.88627e-05
6.56899e-05
6.56899e-05
6.56899e-05
6.65034e-05
6.65034e-05
6.65034e-05
6.50916e-05
6.50916e-05
6.50916e-05
6.35595e-05
6.35595e-05
6.35595e-05
6.39191e-05
6.39191e-05
6.39191e-05
6.98857e-05
6.98857e-05
6.98857e-05
5.89896e-05
5.89896e-05
5.89896e-05
6.23393e-05
6.23393e-05
6.23393e-05
6.32013e-05
6.32013e-05
6.32013e-05
6.4461e-05
6.4461e-05
6.4461e-05
6.53058e-05
6.53058e-05
6.53058e-05
6.8045e-05
6.8045e-05
6.8045e-05
6.49193e-05
6.49193e-05
6.49193e-05
6.73219e-05
6.73219e-05
6.73219e-05
5.01719e-05
5.01719e-05
5.01719e-05
5.03178e-05
5.03178e-05
5.03178e-05
5.84507e-05
5.84507e-05
5.84507e-05
5.61242e-05
5.61242e-05
5.61242e-05
5.69061e-05
5.69061e-05
5.69061e-05
5.80725e-05
5.80725e-05
5.80725e-05
5.26683e-05
5.26683e-05
5.26683e-05
5.53345e-05
5.53345e-05
5.53345e-05
5.08386e-05
5.08386e-05
5.08386e-05
5.00919e-05
5.00919e-05
5.00919e-05
4.98502e-05
4.98502e-05
4.98502e-05
4.9503e-05
4.9503e-05
4.9503e-05
4.97825e-05
4.97825e-05
4.97825e-05
4.98886e-05
4.98886e-05
4.98886e-05
4.97485e-05
4.97485e-05
4.97485e-05
4.91592e-05
4.91592e-05
4.91592e-05
4.90568e-05
4.90568e-05
4.90568e-05
4.9195e-05
4.9195e-05
4.9195e-05
4.94366e-05
4.94366e-05
4.94366e-05
4.95389e-05
4.95389e-05
4.95389e-05
4.93996e-05
4.93996e-05
4.93996e-05
4.70615e-05
4.70615e-05
4.70615e-05
4.71938e-05
4.71938e-05
4.71938e-05
4.74236e-05
4.74236e-05
4.74236e-05
4.71581e-05
4.71581e-05
4.71581e-05
4.75201e-05
4.75201e-05
4.75201e-05
4.73869e-05
4.73869e-05
4.73869e-05
4.91131e-05
4.91131e-05
4.91131e-05
5.05606e-05
5.05606e-05
5.05606e-05
4.94829e-05
4.94829e-05
4.94829e-05
4.98262e-05
4.98262e-05
4.98262e-05
4.74697e-05
4.74697e-05
4.74697e-05
4.77619e-05
4.77619e-05
4.77619e-05
4.75243e-05
4.75243e-05
4.75243e-05
4.73781e-05
4.73781e-05
4.73781e-05
4.80929e-05
4.80929e-05
4.80929e-05
4.78535e-05
4.78535e-05
4.78535e-05
4.77062e-05
4.77062e-05
4.77062e-05
4.77986e-05
4.77986e-05
4.77986e-05
4.84038e-05
4.84038e-05
4.84038e-05
4.87015e-05
4.87015e-05
4.87015e-05
4.83141e-05
4.83141e-05
4.83141e-05
4.84621e-05
4.84621e-05
4.84621e-05
4.80232e-05
4.80232e-05
4.80232e-05
4.82584e-05
4.82584e-05
4.82584e-05
4.94401e-05
4.94401e-05
4.94401e-05
4.91913e-05
4.91913e-05
4.91913e-05
5.01666e-05
5.01666e-05
5.01666e-05
4.94541e-05
4.94541e-05
4.94541e-05
4.87593e-05
4.87593e-05
4.87593e-05
4.97934e-05
4.97934e-05
4.97934e-05
4.97147e-05
4.97147e-05
4.97147e-05
4.96138e-05
4.96138e-05
4.96138e-05
4.90807e-05
4.90807e-05
4.90807e-05
4.88343e-05
4.88343e-05
4.88343e-05
4.89352e-05
4.89352e-05
4.89352e-05
4.93218e-05
4.93218e-05
4.93218e-05
4.9177e-05
4.9177e-05
4.9177e-05
5.1276e-05
5.1276e-05
5.1276e-05
5.09115e-05
5.09115e-05
5.09115e-05
5.16291e-05
5.16291e-05
5.16291e-05
5.27191e-05
5.27191e-05
5.27191e-05
5.30811e-05
5.30811e-05
5.30811e-05
5.23584e-05
5.23584e-05
5.23584e-05
5.27181e-05
5.27181e-05
5.27181e-05
5.37984e-05
5.37984e-05
5.37984e-05
5.19884e-05
5.19884e-05
5.19884e-05
5.16192e-05
5.16192e-05
5.16192e-05
5.2349e-05
5.2349e-05
5.2349e-05
5.34546e-05
5.34546e-05
5.34546e-05
5.67762e-05
5.67762e-05
5.67762e-05
5.56682e-05
5.56682e-05
5.56682e-05
5.30798e-05
5.30798e-05
5.30798e-05
5.4579e-05
5.4579e-05
5.4579e-05
5.60554e-05
5.60554e-05
5.60554e-05
5.38262e-05
5.38262e-05
5.38262e-05
5.53057e-05
5.53057e-05
5.53057e-05
5.41951e-05
5.41951e-05
5.41951e-05
5.68674e-05
5.68674e-05
5.68674e-05
6.5238e-05
6.5238e-05
6.5238e-05
6.55822e-05
6.55822e-05
6.55822e-05
5.94669e-05
5.94669e-05
5.94669e-05
5.98203e-05
5.98203e-05
5.98203e-05
4.77439e-05
4.77439e-05
4.77439e-05
4.76533e-05
4.76533e-05
4.76533e-05
4.72743e-05
4.72743e-05
4.72743e-05
4.74166e-05
4.74166e-05
4.74166e-05
4.75519e-05
4.75519e-05
4.75519e-05
4.76932e-05
4.76932e-05
4.76932e-05
4.73187e-05
4.73187e-05
4.73187e-05
4.76005e-05
4.76005e-05
4.76005e-05
4.72259e-05
4.72259e-05
4.72259e-05
4.73663e-05
4.73663e-05
4.73663e-05
4.61313e-05
4.61313e-05
4.61313e-05
4.5946e-05
4.5946e-05
4.5946e-05
4.6082e-05
4.6082e-05
4.6082e-05
4.57247e-05
4.57247e-05
4.57247e-05
4.59932e-05
4.59932e-05