<VTKFile type="UnstructuredGrid" version="1.0">
<UnstructuredGrid>
<Piece NumberOfPoints="8859" NumberOfCells="2953">
<Points>
<DataArray type="Float64" NumberOfComponents="3" format="ascii">
3.01 0.5 6.175
3.01 0.487476 6.1975
3.01 0.512524 6.1975
3.01 0.17352 5.2975
3.01 0.148445 5.2975
3.01 0.160827 5.31922
3.01 0.122979 5.34089
3.01 0.135644 5.31922
3.01 0.110383 5.31921
3.01 0.135644 5.31922
3.01 0.123433 5.2975
3.01 0.110383 5.31921
3.01 0.123433 5.2975
3.01 0.135644 5.31922
3.01 0.148445 5.2975
3.01 0.135644 5.31922
3.01 0.160827 5.31922
3.01 0.148445 5.2975
3.01 0.17352 5.2975
3.01 0.185985 5.3192
3.01 0.198629 5.2975
3.01 0.185985 5.3192
3.01 0.17352 5.2975
3.01 0.160827 5.31922
3.01 0.0732297 5.34067
3.01 0.0848754 5.31914
3.01 0.0586606 5.31881
3.01 0.05 6.13027
3.01 0.058509 6.10756
3.01 0.05 6.0851
3.01 0.324276 5.2975
3.01 0.336827 5.31916
3.01 0.349395 5.2975
3.01 0.148138 5.3409
3.01 0.160827 5.31922
3.01 0.135644 5.31922
3.01 0.122979 5.34089
3.01 0.148138 5.3409
3.01 0.135644 5.31922
3.01 0.160827 5.31922
3.01 0.173316 5.34089
3.01 0.185985 5.3192
3.01 0.185806 5.36255
3.01 0.173316 5.34089
3.01 0.160572 5.36255
3.01 0.173316 5.34089
3.01 0.160827 5.31922
3.01 0.148138 5.3409
3.01 0.160572 5.36255
3.01 0.173316 5.34089
3.01 0.148138 5.3409
3.01 0.211137 5.31919
3.01 0.198629 5.2975
3.01 0.185985 5.3192
3.01 0.0979162 5.34084
3.01 0.122979 5.34089
3.01 0.110383 5.31921
3.01 0.122979 5.34089
3.01 0.0979162 5.34084
3.01 0.109875 5.36249
3.01 0.0732297 5.34067
3.01 0.0979162 5.34084
3.01 0.0848754 5.31914
3.01 0.0979162 5.34084
3.01 0.110383 5.31921
3.01 0.0848754 5.31914
3.01 0.0975729 5.38404
3.01 0.122678 5.38414
3.01 0.109875 5.36249
3.01 0.0841718 5.36235
3.01 0.0732297 5.34067
3.01 0.0577122 5.36202
3.01 0.0729308 5.38388
3.01 0.0841718 5.36235
3.01 0.0577122 5.36202
3.01 0.0732297 5.34067
3.01 0.0841718 5.36235
3.01 0.0979162 5.34084
3.01 0.0841718 5.36235
3.01 0.109875 5.36249
3.01 0.0979162 5.34084
3.01 0.0975729 5.38404
3.01 0.0841718 5.36235
3.01 0.0729308 5.38388
3.01 0.0841718 5.36235
3.01 0.0975729 5.38404
3.01 0.109875 5.36249
3.01 0.073948 5.2975
3.01 0.05 5.2975
3.01 0.0586606 5.31881
3.01 0.073948 5.2975
3.01 0.0586606 5.31881
3.01 0.0848754 5.31914
3.01 0.05 6.17329
3.01 0.0603641 6.15197
3.01 0.05 6.13027
3.01 0.0603641 6.15197
3.01 0.05 6.17329
3.01 0.0753197 6.17399
3.01 0.0709395 6.1975
3.01 0.05 6.17329
3.01 0.05 6.1975
3.01 0.05 6.17329
3.01 0.0709395 6.1975
3.01 0.0753197 6.17399
3.01 0.0579641 5.88463
3.01 0.05 5.86261
3.01 0.05 5.90669
3.01 0.0841948 5.79679
3.01 0.109814 5.7968
3.01 0.097638 5.77493
3.01 0.0841948 5.79679
3.01 0.0578646 5.7968
3.01 0.0730539 5.8187
3.01 0.0580261 5.9288
3.01 0.05 5.90669
3.01 0.05 5.95095
3.01 0.942292 5.49236
3.01 0.95 5.51404
3.01 0.95 5.47067
3.01 0.95 5.42726
3.01 0.942332 5.44897
3.01 0.95 5.47067
3.01 0.73872 5.70953
3.01 0.75132 5.68775
3.01 0.726137 5.68776
3.01 0.751305 5.73132
3.01 0.73872 5.70953
3.01 0.726124 5.73133
3.01 0.713546 5.70954
3.01 0.73872 5.70953
3.01 0.726137 5.68776
3.01 0.73872 5.70953
3.01 0.713546 5.70954
3.01 0.726124 5.73133
3.01 0.814318 5.75311
3.01 0.801709 5.7313
3.01 0.789096 5.75312
3.01 0.7765 5.73131
3.01 0.801709 5.7313
3.01 0.789115 5.70951
3.01 0.801709 5.7313
3.01 0.7765 5.73131
3.01 0.789096 5.75312
3.01 0.7765 5.73131
3.01 0.763892 5.75314
3.01 0.789096 5.75312
3.01 0.763892 5.75314
3.01 0.7765 5.73131
3.01 0.751305 5.73132
3.01 0.95 6.1975
3.01 0.95 6.17329
3.01 0.929061 6.1975
3.01 0.95 5.9954
3.01 0.941913 5.97315
3.01 0.926844 5.9954
3.01 0.941913 5.97315
3.01 0.95 5.9954
3.01 0.95 5.95095
3.01 0.926866 5.95094
3.01 0.941913 5.97315
3.01 0.95 5.95095
3.01 0.941974 5.9288
3.01 0.926866 5.95094
3.01 0.95 5.95095
3.01 0.95 5.90669
3.01 0.941974 5.9288
3.01 0.95 5.95095
3.01 0.941974 5.9288
3.01 0.95 5.90669
3.01 0.926895 5.90669
3.01 0.6127 6.1975
3.01 0.637734 6.1975
3.01 0.625238 6.17498
3.01 0.662757 6.1975
3.01 0.650275 6.17497
3.01 0.637734 6.1975
3.01 0.650275 6.17497
3.01 0.625238 6.17498
3.01 0.637734 6.1975
3.01 0.600415 5.73137
3.01 0.575304 5.73137
3.01 0.587856 5.7532
3.01 0.575304 5.73137
3.01 0.562749 5.7532
3.01 0.587856 5.7532
3.01 0.336827 5.31916
3.01 0.361946 5.31916
3.01 0.349395 5.2975
3.01 0.223755 5.2975
3.01 0.198629 5.2975
3.01 0.211137 5.31919
3.01 0.185985 5.3192
3.01 0.198492 5.34088
3.01 0.211137 5.31919
3.01 0.185806 5.36255
3.01 0.198492 5.34088
3.01 0.173316 5.34089
3.01 0.198492 5.34088
3.01 0.185985 5.3192
3.01 0.173316 5.34089
3.01 0.0576202 5.40553
3.01 0.05 5.38374
3.01 0.05 5.42726
3.01 0.05 5.38374
3.01 0.0576202 5.40553
3.01 0.0729308 5.38388
3.01 0.05 5.38374
3.01 0.0729308 5.38388
3.01 0.0577122 5.36202
3.01 0.135283 5.36254
3.01 0.122979 5.34089
3.01 0.109875 5.36249
3.01 0.135283 5.36254
3.01 0.109875 5.36249
3.01 0.122678 5.38414
3.01 0.122979 5.34089
3.01 0.135283 5.36254
3.01 0.148138 5.3409
3.01 0.135283 5.36254
3.01 0.160572 5.36255
3.01 0.148138 5.3409
3.01 0.123433 5.2975
3.01 0.0985513 5.2975
3.01 0.110383 5.31921
3.01 0.110383 5.31921
3.01 0.0985513 5.2975
3.01 0.0848754 5.31914
3.01 0.0848754 5.31914
3.01 0.0985513 5.2975
3.01 0.073948 5.2975
3.01 0.0603641 6.15197
3.01 0.0739464 6.12949
3.01 0.05 6.13027
3.01 0.0739464 6.12949
3.01 0.058509 6.10756
3.01 0.05 6.13027
3.01 0.058509 6.10756
3.01 0.0739464 6.12949
3.01 0.0849548 6.10711
3.01 0.058509 6.10756
3.01 0.0732725 6.08488
3.01 0.05 6.0851
3.01 0.0732725 6.08488
3.01 0.058509 6.10756
3.01 0.0849548 6.10711
3.01 0.5 6.175
3.01 0.47495 6.175
3.01 0.487476 6.1975
3.01 0.097663 5.8187
3.01 0.109814 5.7968
3.01 0.0841948 5.79679
3.01 0.0730539 5.8187
3.01 0.097663 5.8187
3.01 0.0841948 5.79679
3.01 0.0578646 5.7968
3.01 0.05 5.8187
3.01 0.0730539 5.8187
3.01 0.05 5.8187
3.01 0.0578646 5.7968
3.01 0.05 5.77492
3.01 0.05 5.9954
3.01 0.0580869 5.97315
3.01 0.05 5.95095
3.01 0.05 5.95095
3.01 0.073134 5.95094
3.01 0.0580261 5.9288
3.01 0.073134 5.95094
3.01 0.05 5.95095
3.01 0.0580869 5.97315
3.01 0.942268 5.53573
3.01 0.95 5.55741
3.01 0.95 5.51404
3.01 0.942292 5.49236
3.01 0.927025 5.51404
3.01 0.95 5.51404
3.01 0.927025 5.51404
3.01 0.915919 5.53572
3.01 0.942268 5.53573
3.01 0.95 5.51404
3.01 0.927025 5.51404
3.01 0.942268 5.53573
3.01 0.927013 5.55741
3.01 0.95 5.55741
3.01 0.942268 5.53573
3.01 0.915919 5.53572
3.01 0.927013 5.55741
3.01 0.942268 5.53573
3.01 0.801738 5.64425
3.01 0.826957 5.64425
3.01 0.814364 5.62253
3.01 0.852174 5.64424
3.01 0.839609 5.62252
3.01 0.826957 5.64425
3.01 0.839609 5.62252
3.01 0.814364 5.62253
3.01 0.826957 5.64425
3.01 0.776516 5.68775
3.01 0.763923 5.666
3.01 0.75132 5.68775
3.01 0.776516 5.68775
3.01 0.789115 5.70951
3.01 0.801725 5.68774
3.01 0.738704 5.75315
3.01 0.763892 5.75314
3.01 0.751305 5.73132
3.01 0.726124 5.73133
3.01 0.738704 5.75315
3.01 0.751305 5.73132
3.01 0.915617 5.97314
3.01 0.926866 5.95094
3.01 0.902228 5.95094
3.01 0.926866 5.95094
3.01 0.915617 5.97314
3.01 0.941913 5.97315
3.01 0.915617 5.97314
3.01 0.926844 5.9954
3.01 0.941913 5.97315
3.01 0.915617 5.97314
3.01 0.902193 5.99538
3.01 0.926844 5.9954
3.01 0.926866 5.95094
3.01 0.915668 5.92879
3.01 0.902228 5.95094
3.01 0.902267 5.90668
3.01 0.915668 5.92879
3.01 0.926895 5.90669
3.01 0.915668 5.92879
3.01 0.926866 5.95094
3.01 0.941974 5.9288
3.01 0.926895 5.90669
3.01 0.915668 5.92879
3.01 0.941974 5.9288
3.01 0.902267 5.90668
3.01 0.890059 5.92879
3.01 0.915668 5.92879
3.01 0.890059 5.92879
3.01 0.902228 5.95094
3.01 0.915668 5.92879
3.01 0.826927 5.73129
3.01 0.801709 5.7313
3.01 0.814318 5.75311
3.01 0.864816 5.7968
3.01 0.890186 5.7968
3.01 0.877308 5.77493
3.01 0.877308 5.77493
3.01 0.852122 5.77494
3.01 0.864816 5.7968
3.01 0.890186 5.7968
3.01 0.902362 5.77493
3.01 0.877308 5.77493
3.01 0.902362 5.77493
3.01 0.890186 5.7968
3.01 0.915805 5.79679
3.01 0.902362 5.77493
3.01 0.915805 5.79679
3.01 0.926964 5.77492
3.01 0.915835 5.75309
3.01 0.902362 5.77493
3.01 0.926964 5.77492
3.01 0.942171 5.75309
3.01 0.915835 5.75309
3.01 0.926964 5.77492
3.01 0.915835 5.75309
3.01 0.942171 5.75309
3.01 0.926978 5.73127
3.01 0.942171 5.75309
3.01 0.95 5.73127
3.01 0.926978 5.73127
3.01 0.87737 5.60081
3.01 0.902417 5.6008
3.01 0.890277 5.57911
3.01 0.852144 5.73128
3.01 0.864842 5.75309
3.01 0.877329 5.73128
3.01 0.877308 5.77493
3.01 0.864842 5.75309
3.01 0.852122 5.77494
3.01 0.902396 5.68772
3.01 0.890234 5.70949
3.01 0.915858 5.70948
3.01 0.926997 5.64423
3.01 0.95 5.64423
3.01 0.942237 5.62251
3.01 0.91589 5.62251
3.01 0.926997 5.64423
3.01 0.942237 5.62251
3.01 0.942199 5.70948
3.01 0.95 5.73127
3.01 0.95 5.68771
3.01 0.95 5.73127
3.01 0.942199 5.70948
3.01 0.926978 5.73127
3.01 0.942199 5.70948
3.01 0.915858 5.70948
3.01 0.926978 5.73127
3.01 0.95 5.64423
3.01 0.942221 5.66597
3.01 0.95 5.68771
3.01 0.942221 5.66597
3.01 0.95 5.64423
3.01 0.926997 5.64423
3.01 0.915876 5.66597
3.01 0.942221 5.66597
3.01 0.926997 5.64423
3.01 0.926989 5.68771
3.01 0.902396 5.68772
3.01 0.915858 5.70948
3.01 0.902396 5.68772
3.01 0.926989 5.68771
3.01 0.915876 5.66597
3.01 0.926989 5.68771
3.01 0.915858 5.70948
3.01 0.942199 5.70948
3.01 0.95 5.68771
3.01 0.926989 5.68771
3.01 0.942199 5.70948
3.01 0.915876 5.66597
3.01 0.926989 5.68771
3.01 0.942221 5.66597
3.01 0.926989 5.68771
3.01 0.95 5.68771
3.01 0.942221 5.66597
3.01 0.91353 6.15185
3.01 0.939636 6.15197
3.01 0.926054 6.12949
3.01 0.926728 6.08488
3.01 0.941491 6.10756
3.01 0.95 6.0851
3.01 0.926728 6.08488
3.01 0.95 6.0851
3.01 0.941822 6.06254
3.01 0.95 6.13027
3.01 0.939636 6.15197
3.01 0.95 6.17329
3.01 0.95 6.13027
3.01 0.941491 6.10756
3.01 0.926054 6.12949
3.01 0.939636 6.15197
3.01 0.95 6.13027
3.01 0.926054 6.12949
3.01 0.941491 6.10756
3.01 0.95 6.13027
3.01 0.95 6.0851
3.01 0.941869 6.01772
3.01 0.95 5.9954
3.01 0.926844 5.9954
3.01 0.762942 6.15228
3.01 0.737933 6.15234
3.01 0.75028 6.17489
3.01 0.71291 6.15239
3.01 0.737933 6.15234
3.01 0.725533 6.12985
3.01 0.71291 6.15239
3.01 0.725313 6.17492
3.01 0.737933 6.15234
3.01 0.725313 6.17492
3.01 0.75028 6.17489
3.01 0.737933 6.15234
3.01 0.737693 6.1975
[...]
<PointData Scalars="View Factor" >
<DataArray type="Float64" Name="View Factor" NumberOfComponents="1" format="ascii">
1.75335e-05
1.75335e-05
1.75335e-05
2.10779e-05
2.10779e-05
2.10779e-05
2.09827e-05
2.09827e-05
2.09827e-05
2.10469e-05
2.10469e-05
2.10469e-05
2.10787e-05
2.10787e-05
2.10787e-05
2.10461e-05
2.10461e-05
2.10461e-05
2.10769e-05
2.10769e-05
2.10769e-05
2.10452e-05
2.10452e-05
2.10452e-05
2.09848e-05
2.09848e-05
2.09848e-05
1.78506e-05
1.78506e-05
1.78506e-05
2.10678e-05
2.10678e-05
2.10678e-05
2.09818e-05
2.09818e-05
2.09818e-05
2.09503e-05
2.09503e-05
2.09503e-05
2.0981e-05
2.0981e-05
2.0981e-05
2.08534e-05
2.08534e-05
2.08534e-05
2.09494e-05
2.09494e-05
2.09494e-05
2.08856e-05
2.08856e-05
2.08856e-05
2.10441e-05
2.10441e-05
2.10441e-05
2.09511e-05
2.09511e-05
2.09511e-05
2.08874e-05
2.08874e-05
2.08874e-05
2.09521e-05
2.09521e-05
2.09521e-05
2.09835e-05
2.09835e-05
2.09835e-05
2.07609e-05
2.07609e-05
2.07609e-05
2.08576e-05
2.08576e-05
2.08576e-05
2.07944e-05
2.07944e-05
2.07944e-05
2.08885e-05
2.08885e-05
2.08885e-05
2.08562e-05
2.08562e-05
2.08562e-05
2.0762e-05
2.0762e-05
2.0762e-05
2.0793e-05
2.0793e-05
2.0793e-05
2.10811e-05
2.10811e-05
2.10811e-05
2.10488e-05
2.10488e-05
2.10488e-05
1.76914e-05
1.76914e-05
1.76914e-05
1.76392e-05
1.76392e-05
1.76392e-05
1.75574e-05
1.75574e-05
1.75574e-05
1.75852e-05
1.75852e-05
1.75852e-05
1.86817e-05
1.86817e-05
1.86817e-05
1.90502e-05
1.90502e-05
1.90502e-05
1.89934e-05
1.89934e-05
1.89934e-05
1.85133e-05
1.85133e-05
1.85133e-05
2.01665e-05
2.01665e-05
2.01665e-05
2.03503e-05
2.03503e-05
2.03503e-05
1.93708e-05
1.93708e-05
1.93708e-05
1.92548e-05
1.92548e-05
1.92548e-05
1.93436e-05
1.93436e-05
1.93436e-05
1.92856e-05
1.92856e-05
1.92856e-05
1.91586e-05
1.91586e-05
1.91586e-05
1.92471e-05
1.92471e-05
1.92471e-05
1.91894e-05
1.91894e-05
1.91894e-05
1.91626e-05
1.91626e-05
1.91626e-05
1.91933e-05
1.91933e-05
1.91933e-05
1.74791e-05
1.74791e-05
1.74791e-05
1.8208e-05
1.8208e-05
1.8208e-05
1.82617e-05
1.82617e-05
1.82617e-05
1.83183e-05
1.83183e-05
1.83183e-05
1.83737e-05
1.83737e-05
1.83737e-05
1.84277e-05
1.84277e-05
1.84277e-05
1.84848e-05
1.84848e-05
1.84848e-05
1.75211e-05
1.75211e-05
1.75211e-05
1.75183e-05
1.75183e-05
1.75183e-05
1.75463e-05
1.75463e-05
1.75463e-05
1.92172e-05
1.92172e-05
1.92172e-05
1.91898e-05
1.91898e-05
1.91898e-05
2.10346e-05
2.10346e-05
2.10346e-05
2.10757e-05
2.10757e-05
2.10757e-05
2.09799e-05
2.09799e-05
2.09799e-05
2.08847e-05
2.08847e-05
2.08847e-05
2.09485e-05
2.09485e-05
2.09485e-05
2.06372e-05
2.06372e-05
2.06372e-05
2.07e-05
2.07e-05
2.07e-05
2.07633e-05
2.07633e-05
2.07633e-05
2.08552e-05
2.08552e-05
2.08552e-05
2.07919e-05
2.07919e-05
2.07919e-05
2.08865e-05
2.08865e-05
2.08865e-05
2.08543e-05
2.08543e-05
2.08543e-05
2.10795e-05
2.10795e-05
2.10795e-05
2.10477e-05
2.10477e-05
2.10477e-05
2.10802e-05
2.10802e-05
2.10802e-05
1.77437e-05
1.77437e-05
1.77437e-05
1.77971e-05
1.77971e-05
1.77971e-05
1.78248e-05
1.78248e-05
1.78248e-05
1.79055e-05
1.79055e-05
1.79055e-05
1.78787e-05
1.78787e-05
1.78787e-05
1.75612e-05
1.75612e-05
1.75612e-05
1.8993e-05
1.8993e-05
1.8993e-05
1.89647e-05
1.89647e-05
1.89647e-05
1.8965e-05
1.8965e-05
1.8965e-05
1.90222e-05
1.90222e-05
1.90222e-05
1.83461e-05
1.83461e-05
1.83461e-05
1.84574e-05
1.84574e-05
1.84574e-05
1.84017e-05
1.84017e-05
1.84017e-05
1.99848e-05
1.99848e-05
1.99848e-05
2.01073e-05
2.01073e-05
2.01073e-05
2.00188e-05
2.00188e-05
2.00188e-05
2.00467e-05
2.00467e-05
2.00467e-05
1.99262e-05
1.99262e-05
1.99262e-05
1.99585e-05
1.99585e-05
1.99585e-05
1.95928e-05
1.95928e-05
1.95928e-05
1.95885e-05
1.95885e-05
1.95885e-05
1.96201e-05
1.96201e-05
1.96201e-05
1.94252e-05
1.94252e-05
1.94252e-05
1.9363e-05
1.9363e-05
1.9363e-05
1.91664e-05
1.91664e-05
1.91664e-05
1.91971e-05
1.91971e-05
1.91971e-05
1.83227e-05
1.83227e-05
1.83227e-05
1.82927e-05
1.82927e-05
1.82927e-05
1.82376e-05
1.82376e-05
1.82376e-05
1.82124e-05
1.82124e-05
1.82124e-05
1.83781e-05
1.83781e-05
1.83781e-05
1.84892e-05
1.84892e-05
1.84892e-05
1.84034e-05
1.84034e-05
1.84034e-05
1.8459e-05
1.8459e-05
1.8459e-05
1.84635e-05
1.84635e-05
1.84635e-05
1.84079e-05
1.84079e-05
1.84079e-05
1.91853e-05
1.91853e-05
1.91853e-05
1.89743e-05
1.89743e-05
1.89743e-05
1.9005e-05
1.9005e-05
1.9005e-05
1.90006e-05
1.90006e-05
1.90006e-05
1.89698e-05
1.89698e-05
1.89698e-05
1.89961e-05
1.89961e-05
1.89961e-05
1.90531e-05
1.90531e-05
1.90531e-05
1.90793e-05
1.90793e-05
1.90793e-05
1.91366e-05
1.91366e-05
1.91366e-05
1.91632e-05
1.91632e-05
1.91632e-05
1.97568e-05
1.97568e-05
1.97568e-05
1.91768e-05
1.91768e-05
1.91768e-05
1.90621e-05
1.90621e-05
1.90621e-05
1.93144e-05
1.93144e-05
1.93144e-05
1.95699e-05
1.95699e-05
1.95699e-05
1.96016e-05
1.96016e-05
1.96016e-05
1.9277e-05
1.9277e-05
1.9277e-05
1.92207e-05
1.92207e-05
1.92207e-05
1.92518e-05
1.92518e-05
1.92518e-05
1.94513e-05
1.94513e-05
1.94513e-05
1.95113e-05
1.95113e-05
1.95113e-05
1.94842e-05
1.94842e-05
1.94842e-05
1.93411e-05
1.93411e-05
1.93411e-05
1.93992e-05
1.93992e-05
1.93992e-05
1.93096e-05
1.93096e-05
1.93096e-05
1.93364e-05
1.93364e-05
1.93364e-05
1.94258e-05
1.94258e-05
1.94258e-05
1.93945e-05
1.93945e-05
1.93945e-05
1.76414e-05
1.76414e-05
1.76414e-05
1.78255e-05
1.78255e-05
1.78255e-05
1.78798e-05
1.78798e-05
1.78798e-05
1.76116e-05
1.76116e-05
1.76116e-05
1.77179e-05
1.77179e-05
1.77179e-05
1.7665e-05
1.7665e-05
1.7665e-05
1.77696e-05
1.77696e-05
1.77696e-05
1.8153e-05
1.8153e-05
1.8153e-05
1.76128e-05
1.76128e-05
1.76128e-05
1.76695e-05
1.76695e-05
1.76695e-05
1.76159e-05
1.76159e-05
1.76159e-05
1.75876e-05
1.75876e-05
1.75876e-05
1.75092e-05
1.75092e-05
1.75092e-05
1.75343e-05
1.75343e-05
1.75343e-05
1.7506e-05
1.7506e-05
1.7506e-05
1.78657e-05
1.78657e-05
1.78657e-05
1.77771e-05
1.77771e-05
1.77771e-05
1.76979e-05
1.76979e-05
1.76979e-05
1.77517e-05
1.77517e-05
1.77517e-05
1.77038e-05
1.77038e-05
1.77038e-05
1.77576e-05
1.77576e-05
1.77576e-05
1.76023e-05
1.76023e-05
1.76023e-05
1.7549e-05
1.7549e-05
1.7549e-05
1.75238e-05
1.75238e-05
1.75238e-05
1.93187e-05
1.93187e-05
1.93187e-05
1.91868e-05
1.91868e-05
1.91868e-05
1.90203e-05
1.90203e-05
1.90203e-05
1.89604e-05
1.89604e-05
1.89604e-05
1.90175e-05
1.90175e-05
1.90175e-05
1.90476e-05
1.90476e-05
1.90476e-05
1.91322e-05
1.91322e-05
1.91322e-05
1.91049e-05
1.91049e-05
1.91049e-05
1.89632e-05
1.89632e-05
1.89632e-05
1.89333e-05
1.89333e-05
1.89333e-05
1.86236e-05
1.86236e-05
1.86236e-05
1.90051e-05
1.90051e-05
1.90051e-05
1.90353e-05
1.90353e-05
1.90353e-05
1.91012e-05
1.91012e-05
1.91012e-05
1.89868e-05
1.89868e-05
1.89868e-05
2.10714e-05
2.10714e-05
2.10714e-05
2.1073e-05
2.1073e-05
2.1073e-05
2.10401e-05
2.10401e-05
2.10401e-05
2.09759e-05
2.09759e-05
2.09759e-05
2.09918e-05
2.09918e-05
2.09918e-05
1.95382e-05
1.95382e-05
1.95382e-05
1.94212e-05
1.94212e-05
1.94212e-05
1.95109e-05
1.95109e-05
1.95109e-05
1.94524e-05
1.94524e-05
1.94524e-05
1.94564e-05
1.94564e-05
1.94564e-05
1.94291e-05
1.94291e-05
1.94291e-05
2.09432e-05
2.09432e-05
2.09432e-05
2.10657e-05
2.10657e-05
2.10657e-05
2.10336e-05
2.10336e-05
2.10336e-05
2.01004e-05
2.01004e-05
2.01004e-05
2.01316e-05
2.01316e-05
2.01316e-05
2.08274e-05
2.08274e-05
2.08274e-05
2.1018e-05
2.1018e-05
2.1018e-05
2.0954e-05
2.0954e-05
2.0954e-05
2.08904e-05
2.08904e-05
2.08904e-05
1.77983e-05
1.77983e-05
1.77983e-05
1.75357e-05
1.75357e-05
1.75357e-05
1.86254e-05
1.86254e-05
1.86254e-05
1.85692e-05
1.85692e-05
1.85692e-05
1.89077e-05
1.89077e-05
1.89077e-05
2.05686e-05
2.05686e-05
2.05686e-05
1.86245e-05
1.86245e-05
1.86245e-05
1.85684e-05
1.85684e-05
1.85684e-05
1.90786e-05
1.90786e-05
1.90786e-05
1.90496e-05
1.90496e-05
1.90496e-05
1.91366e-05
1.91366e-05
1.91366e-05
1.90791e-05
1.90791e-05
1.90791e-05
1.90795e-05
1.90795e-05
1.90795e-05
1.90507e-05
1.90507e-05
1.90507e-05
1.91946e-05
1.91946e-05
1.91946e-05
1.91369e-05
1.91369e-05
1.91369e-05
1.91656e-05
1.91656e-05
1.91656e-05
1.92233e-05
1.92233e-05
1.92233e-05
1.92523e-05
1.92523e-05
1.92523e-05
1.92344e-05
1.92344e-05
1.92344e-05
1.92611e-05
1.92611e-05
1.92611e-05
1.99311e-05
1.99311e-05
1.99311e-05
1.9534e-05
1.9534e-05
1.9534e-05
1.95068e-05
1.95068e-05
1.95068e-05
1.94483e-05
1.94483e-05
1.94483e-05
1.96157e-05
1.96157e-05
1.96157e-05
1.9584e-05
1.9584e-05
1.9584e-05
1.97888e-05
1.97888e-05
1.97888e-05
2.014e-05
2.014e-05
2.014e-05
1.99622e-05
1.99622e-05
1.99622e-05
1.9367e-05
1.9367e-05
1.9367e-05
1.9251e-05
1.9251e-05
1.9251e-05
1.9278e-05
1.9278e-05
1.9278e-05
1.93359e-05
1.93359e-05
1.93359e-05
1.93398e-05
1.93398e-05
1.93398e-05
1.92819e-05
1.92819e-05
1.92819e-05
1.91089e-05
1.91089e-05
1.91089e-05
1.90821e-05
1.90821e-05
1.90821e-05
1.91701e-05
1.91701e-05
1.91701e-05
1.91126e-05
1.91126e-05
1.91126e-05
1.89447e-05
1.89447e-05
1.89447e-05
1.89145e-05
1.89145e-05
1.89145e-05
1.90926e-05
1.90926e-05
1.90926e-05
1.8913e-05
1.8913e-05
1.8913e-05
1.84935e-05
1.84935e-05
1.84935e-05
1.85535e-05
1.85535e-05
1.85535e-05
1.85493e-05
1.85493e-05
1.85493e-05
1.85793e-05
1.85793e-05
1.85793e-05
1.76917e-05
1.76917e-05
1.76917e-05
1.76664e-05
1.76664e-05
1.76664e-05
1.76948e-05
1.76948e-05
1.76948e-05
1.77486e-05
1.77486e-05
1.77486e-05
1.79908e-05
1.79908e-05
1.79908e-05
1.7818e-05
1.7818e-05
1.7818e-05
1.77641e-05
1.77641e-05
1.77641e-05
1.80603e-05
1.80603e-05
1.80603e-05
1.80095e-05
1.80095e-05
1.80095e-05
1.80857e-05
1.80857e-05
1.80857e-05
1.94171e-05
1.94171e-05
1.94171e-05
1.91545e-05
1.91545e-05
1.91545e-05
1.91811e-05
1.91811e-05
1.91811e-05
1.91502e-05
1.91502e-05
1.91502e-05
1.90929e-05
1.90929e-05
1.90929e-05
1.89217e-05
1.89217e-05
1.89217e-05
1.89786e-05
1.89786e-05
1.89786e-05
1.91678e-05
1.91678e-05
1.91678e-05
1.923e-05
1.923e-05
1.923e-05
1.92254e-05
1.92254e-05
1.92254e-05
1.92565e-05
1.92565e-05
1.92565e-05
1.90486e-05
1.90486e-05
1.90486e-05
1.91043e-05
1.91043e-05
1.91043e-05
1.94306e-05
1.94306e-05
1.94306e-05
1.95253e-05
1.95253e-05
1.95253e-05
1.94937e-05
1.94937e-05
1.94937e-05
1.96654e-05
1.96654e-05
1.96654e-05
1.96111e-05
1.96111e-05
1.96111e-05
1.96974e-05
1.96974e-05
1.96974e-05
1.96702e-05
1.96702e-05
1.96702e-05
1.97841e-05
1.97841e-05
1.97841e-05
1.98437e-05
1.98437e-05
1.98437e-05
1.98712e-05
1.98712e-05
1.98712e-05
1.75997e-05
1.75997e-05
1.75997e-05
1.76567e-05
1.76567e-05
1.76567e-05
1.75613e-05
1.75613e-05
1.75613e-05
1.75886e-05
1.75886e-05
1.75886e-05
1.75082e-05
1.75082e-05
1.75082e-05
1.76703e-05
1.76703e-05
1.76703e-05
1.78307e-05
1.78307e-05
1.78307e-05
1.77236e-05
1.77236e-05
1.77236e-05
1.77475e-05
1.77475e-05
1.77475e-05
1.7801e-05
1.7801e-05
1.7801e-05
1.79262e-05
1.79262e-05
1.79262e-05
1.80058e-05
1.80058e-05
1.80058e-05
1.79805e-05
1.79805e-05
1.79805e-05
1.79767e-05
1.79767e-05
1.79767e-05
1.81574e-05
1.81574e-05
1.81574e-05
1.81276e-05
1.81276e-05
1.81276e-05
1.79092e-05
1.79092e-05
1.79092e-05
1.78847e-05
1.78847e-05
1.78847e-05
1.76755e-05
1.76755e-05
1.76755e-05
1.76726e-05
1.76726e-05
1.76726e-05
1.77009e-05
1.77009e-05
1.77009e-05
1.75124e-05
1.75124e-05
1.75124e-05
1.75374e-05
1.75374e-05
1.75374e-05
1.75908e-05
1.75908e-05
1.75908e-05
1.7619e-05
1.7619e-05
1.7619e-05
1.7521e-05
1.7521e-05
1.7521e-05
1.76031e-05
1.76031e-05
1.76031e-05
1.75746e-05
1.75746e-05
1.75746e-05
1.74959e-05
1.74959e-05
1.74959e-05
1.75845e-05
1.75845e-05
1.75845e-05
1.75311e-05
1.75311e-05
1.75311e-05
1.78311e-05
1.78311e-05
1.78311e-05
1.78597e-05
1.78597e-05
1.78597e-05
1.82456e-05
1.82456e-05
1.82456e-05
1.82716e-05
1.82716e-05
1.82716e-05
1.81001e-05
1.81001e-05
1.81001e-05
1.79139e-05
1.79139e-05
1.79139e-05
1.79396e-05
1.79396e-05
1.79396e-05
1.792e-05
1.792e-05
1.792e-05
1.80743e-05
1.80743e-05
1.80743e-05
1.80197e-05
1.80197e-05
1.80197e-05
1.7994e-05
1.7994e-05
1.7994e-05
1.80229e-05
1.80229e-05
1.80229e-05
1.77801e-05
1.77801e-05
1.77801e-05
1.78372e-05
1.78372e-05
1.78372e-05
1.77831e-05
1.77831e-05
1.77831e-05
1.77547e-05
1.77547e-05
1.77547e-05
1.78627e-05
1.78627e-05
1.78627e-05
1.78342e-05
1.78342e-05
1.78342e-05
1.76784e-05
1.76784e-05
1.76784e-05
1.76249e-05
1.76249e-05
1.76249e-05
1.75996e-05
1.75996e-05
1.75996e-05
1.76277e-05
1.76277e-05
1.76277e-05
1.7786e-05
1.7786e-05
1.7786e-05
1.78401e-05
1.78401e-05
1.78401e-05
1.78686e-05
1.78686e-05
1.78686e-05
1.83681e-05
1.83681e-05
1.83681e-05
1.84237e-05
1.84237e-05
1.84237e-05
1.94784e-05
1.94784e-05
1.94784e-05
1.92455e-05
1.92455e-05
1.92455e-05
1.95084e-05
1.95084e-05
1.95084e-05
1.94797e-05
1.94797e-05
1.94797e-05
1.92159e-05
1.92159e-05
1.92159e-05
1.92908e-05
1.92908e-05
1.92908e-05
1.93209e-05
1.93209e-05
1.93209e-05
1.90326e-05
1.90326e-05
1.90326e-05
1.90601e-05
1.90601e-05
1.90601e-05
1.91153e-05
1.91153e-05
1.91153e-05
1.89754e-05
1.89754e-05
1.89754e-05
1.89479e-05
1.89479e-05
1.89479e-05
1.88909e-05
1.88909e-05
1.88909e-05
1.88615e-05
1.88615e-05
1.88615e-05
1.92142e-05
1.92142e-05
1.92142e-05
1.91293e-05
1.91293e-05
1.91293e-05
1.9102e-05
1.9102e-05
1.9102e-05
1.90447e-05
1.90447e-05
1.90447e-05
1.90146e-05
1.90146e-05
1.90146e-05
1.87775e-05
1.87775e-05
1.87775e-05
1.88047e-05
1.88047e-05
1.88047e-05
1.8936e-05
1.8936e-05
1.8936e-05
1.88764e-05
1.88764e-05
1.88764e-05
1.90304e-05
1.90304e-05
1.90304e-05
1.90578e-05
1.90578e-05
1.90578e-05
1.87708e-05
1.87708e-05
1.87708e-05
1.87979e-05
1.87979e-05
1.87979e-05
1.89513e-05
1.89513e-05
1.89513e-05
1.90084e-05
1.90084e-05
1.90084e-05
1.89299e-05
1.89299e-05
1.89299e-05
1.84834e-05
1.84834e-05
1.84834e-05
2.10744e-05
2.10744e-05
2.10744e-05
2.10416e-05
2.10416e-05
2.10416e-05
2.10429e-05
2.10429e-05
2.10429e-05
2.04137e-05
2.04137e-05
2.04137e-05
2.05366e-05
2.05366e-05
2.05366e-05
2.04758e-05
2.04758e-05
2.04758e-05
2.09997e-05
2.09997e-05
2.09997e-05
2.10086e-05
2.10086e-05
2.10086e-05
2.10218e-05
2.10218e-05
2.10218e-05
1.95423e-05
1.95423e-05
1.95423e-05
1.95149e-05
1.95149e-05
1.95149e-05
1.95462e-05
1.95462e-05
1.95462e-05
1.9605e-05
1.9605e-05
1.9605e-05
1.94602e-05
1.94602e-05
1.94602e-05
1.95187e-05
1.95187e-05
1.95187e-05
2.10384e-05
2.10384e-05
2.10384e-05
2.09743e-05
2.09743e-05
2.09743e-05
2.10697e-05
2.10697e-05
2.10697e-05
2.10366e-05
2.10366e-05
2.10366e-05
2.09706e-05
2.09706e-05
2.09706e-05
2.09376e-05
2.09376e-05
2.09376e-05
2.08739e-05
2.08739e-05
2.08739e-05
2.08717e-05
2.08717e-05
2.08717e-05
2.08411e-05
2.08411e-05
2.08411e-05
2.07472e-05
2.07472e-05
2.07472e-05
2.07777e-05
2.07777e-05
2.07777e-05
2.10587e-05
2.10587e-05
2.10587e-05
2.10034e-05
2.10034e-05
2.10034e-05
2.00398e-05
2.00398e-05
2.00398e-05
1.99193e-05
1.99193e-05
1.99193e-05
2.09224e-05
2.09224e-05
2.09224e-05
2.09447e-05
2.09447e-05
2.09447e-05
2.0881e-05
2.0881e-05
2.0881e-05
2.09774e-05
2.09774e-05
2.09774e-05
1.8148e-05
1.8148e-05
1.8148e-05
1.80356e-05
1.80356e-05
1.80356e-05
1.78762e-05
1.78762e-05
1.78762e-05
1.78773e-05
1.78773e-05
1.78773e-05
1.79039e-05
1.79039e-05
1.79039e-05
1.80406e-05
1.80406e-05
1.80406e-05
1.79583e-05
1.79583e-05
1.79583e-05
1.7986e-05
1.7986e-05
1.7986e-05
1.79027e-05
1.79027e-05
1.79027e-05
1.78252e-05
1.78252e-05
1.78252e-05
1.79601e-05
1.79601e-05
1.79601e-05
1.80148e-05
1.80148e-05
1.80148e-05
1.75633e-05
1.75633e-05
1.75633e-05
1.7698e-05
1.7698e-05
1.7698e-05
1.76444e-05
1.76444e-05
1.76444e-05
1.76167e-05
1.76167e-05
1.76167e-05
1.78058e-05
1.78058e-05
1.78058e-05
1.77019e-05
1.77019e-05
1.77019e-05
1.76483e-05
1.76483e-05
1.76483e-05
1.86529e-05
1.86529e-05
1.86529e-05
1.8625e-05
1.8625e-05
1.8625e-05
1.86533e-05
1.86533e-05
1.86533e-05
1.84852e-05
1.84852e-05
1.84852e-05
1.85411e-05
1.85411e-05
1.85411e-05
1.84571e-05
1.84571e-05
1.84571e-05
1.84848e-05
1.84848e-05
1.84848e-05
1.85689e-05
1.85689e-05
1.85689e-05
1.85407e-05
1.85407e-05
1.85407e-05
1.88791e-05
1.88791e-05
1.88791e-05
1.88217e-05
1.88217e-05
1.88217e-05
1.88513e-05
1.88513e-05
1.88513e-05
1.89081e-05
1.89081e-05
1.89081e-05
1.88795e-05
1.88795e-05
1.88795e-05
2.05742e-05
2.05742e-05
2.05742e-05
2.01096e-05
2.01096e-05
2.01096e-05
2.02315e-05
2.02315e-05
2.02315e-05
1.99225e-05
1.99225e-05
1.99225e-05
1.98625e-05
1.98625e-05
1.98625e-05
1.99004e-05
1.99004e-05
1.99004e-05
1.97213e-05
1.97213e-05
1.97213e-05
1.96619e-05
1.96619e-05
1.96619e-05
2.00814e-05
2.00814e-05
2.00814e-05
2.01417e-05
2.01417e-05
2.01417e-05
2.02027e-05
2.02027e-05
2.02027e-05
2.01421e-05
2.01421e-05
2.01421e-05
2.01115e-05
2.01115e-05
2.01115e-05
2.01404e-05
2.01404e-05
2.01404e-05
2.02014e-05
2.02014e-05
2.02014e-05
2.02944e-05
2.02944e-05
2.02944e-05
2.0233e-05
2.0233e-05
2.0233e-05
2.02021e-05
2.02021e-05
2.02021e-05
2.02324e-05
2.02324e-05
2.02324e-05
2.05063e-05
2.05063e-05
2.05063e-05
1.84566e-05
1.84566e-05
1.84566e-05
1.84009e-05
1.84009e-05
1.84009e-05
1.89642e-05
1.89642e-05
1.89642e-05
1.89924e-05
1.89924e-05
1.89924e-05
1.89072e-05
1.89072e-05
1.89072e-05
1.88785e-05
1.88785e-05
1.88785e-05
1.9078e-05
1.9078e-05
1.9078e-05
1.95441e-05
1.95441e-05
1.95441e-05
1.95732e-05
1.95732e-05
1.95732e-05
1.96029e-05
1.96029e-05
1.96029e-05
1.96025e-05
1.96025e-05
1.96025e-05
1.95728e-05
1.95728e-05
1.95728e-05
1.9252e-05
1.9252e-05
1.9252e-05
1.93099e-05
1.93099e-05
1.93099e-05
1.95127e-05
1.95127e-05
1.95127e-05
1.91361e-05
1.91361e-05
1.91361e-05
1.92515e-05
1.92515e-05
1.92515e-05
1.91651e-05
1.91651e-05
1.91651e-05
1.92228e-05
1.92228e-05
1.92228e-05
2.00547e-05
2.00547e-05
2.00547e-05
1.99943e-05
1.99943e-05
1.99943e-05
1.96792e-05
1.96792e-05
1.96792e-05
1.9876e-05
1.9876e-05
1.9876e-05
1.98485e-05
1.98485e-05
1.98485e-05
1.97021e-05
1.97021e-05
1.97021e-05
1.97614e-05
1.97614e-05
1.97614e-05
1.96747e-05
1.96747e-05
1.96747e-05
1.97066e-05
1.97066e-05
1.97066e-05
1.97109e-05
1.97109e-05
1.97109e-05
1.97703e-05
1.97703e-05
1.97703e-05
2.00516e-05
2.00516e-05
2.00516e-05
2.01122e-05
2.01122e-05
2.01122e-05
1.90784e-05
1.90784e-05
1.90784e-05
1.91051e-05
1.91051e-05
1.91051e-05
1.90745e-05
1.90745e-05
1.90745e-05
1.90173e-05
1.90173e-05
1.90173e-05
1.89907e-05
1.89907e-05
1.89907e-05
1.90212e-05
1.90212e-05
1.90212e-05
1.90857e-05
1.90857e-05
1.90857e-05
1.90285e-05
1.90285e-05
1.90285e-05
1.9032e-05
1.9032e-05
1.9032e-05
1.90017e-05
1.90017e-05
1.90017e-05
1.92008e-05
1.92008e-05
1.92008e-05
1.92892e-05
1.92892e-05
1.92892e-05
1.92585e-05
1.92585e-05
1.92585e-05
1.8948e-05
1.8948e-05
1.8948e-05
1.89179e-05
1.89179e-05
1.89179e-05
1.89212e-05
1.89212e-05
1.89212e-05
1.8569e-05
1.8569e-05
1.8569e-05
1.85131e-05
1.85131e-05
1.85131e-05
1.88084e-05
1.88084e-05
1.88084e-05
1.88824e-05
1.88824e-05
1.88824e-05
1.89174e-05
1.89174e-05
1.89174e-05
1.88869e-05
1.88869e-05
1.88869e-05
1.88912e-05
1.88912e-05
1.88912e-05
1.88345e-05
1.88345e-05
1.88345e-05
1.8631e-05
1.8631e-05
1.8631e-05
1.85449e-05
1.85449e-05
1.85449e-05
1.8575e-05
1.8575e-05
1.8575e-05
1.83824e-05
1.83824e-05
1.83824e-05
1.8242e-05
1.8242e-05
1.8242e-05
1.82972e-05
1.82972e-05
1.82972e-05
1.8327e-05
1.8327e-05
1.8327e-05
1.83014e-05
1.83014e-05
1.83014e-05
1.81404e-05
1.81404e-05
1.81404e-05
1.77422e-05
1.77422e-05
1.77422e-05
1.76852e-05
1.76852e-05
1.76852e-05
1.77389e-05
1.77389e-05
1.77389e-05
1.77675e-05
1.77675e-05
1.77675e-05
1.77708e-05
1.77708e-05
1.77708e-05
1.7774e-05
1.7774e-05
1.7774e-05
1.77455e-05
1.77455e-05
1.77455e-05
1.78248e-05
1.78248e-05
1.78248e-05
1.77355e-05
1.77355e-05
1.77355e-05
1.76533e-05
1.76533e-05
1.76533e-05
1.76818e-05
1.76818e-05
1.76818e-05
1.77606e-05
1.77606e-05
1.77606e-05
1.79009e-05
1.79009e-05
1.79009e-05
1.78468e-05
1.78468e-05
1.78468e-05
1.78215e-05
1.78215e-05
1.78215e-05
1.78502e-05
1.78502e-05
1.78502e-05
1.81321e-05
1.81321e-05
1.81321e-05
1.80773e-05
1.80773e-05
1.80773e-05
1.80564e-05
1.80564e-05
1.80564e-05
1.80019e-05
1.80019e-05
1.80019e-05
1.80522e-05
1.80522e-05
1.80522e-05
1.80816e-05
1.80816e-05
1.80816e-05
1.93589e-05
1.93589e-05
1.93589e-05
1.9243e-05
1.9243e-05
1.9243e-05
1.92739e-05
1.92739e-05
1.92739e-05
1.93319e-05
1.93319e-05
1.93319e-05
1.92388e-05
1.92388e-05
1.92388e-05
1.93546e-05
1.93546e-05
1.93546e-05
1.92698e-05
1.92698e-05
1.92698e-05
1.93277e-05
1.93277e-05
1.93277e-05
1.92655e-05
1.92655e-05
1.92655e-05
1.93234e-05
1.93234e-05
1.93234e-05
1.95026e-05
1.95026e-05
1.95026e-05
1.94441e-05
1.94441e-05
1.94441e-05
1.94128e-05
1.94128e-05
1.94128e-05