<VTKFile type="UnstructuredGrid" version="1.0">
<UnstructuredGrid>
<Piece NumberOfPoints="8859" NumberOfCells="2953">
<Points>
<DataArray type="Float64" NumberOfComponents="3" format="ascii">
2.04744 2.20956 13.4526
2.06275 2.19425 13.4646
2.04754 2.20946 13.4783
2.07804 2.17896 13.4017
2.07805 2.17895 13.3765
2.0934 2.1636 13.389
2.06271 2.19429 13.4144
2.07804 2.17896 13.4017
2.07804 2.17896 13.4269
2.01701 2.23999 13.5049
2.03242 2.22458 13.5125
2.00164 2.25536 13.5125
2.01701 2.23999 13.5049
2.03232 2.22468 13.4896
2.03242 2.22458 13.5125
2.04777 2.20923 13.5048
2.06326 2.19374 13.5125
2.03242 2.22458 13.5125
2.04777 2.20923 13.5048
2.03232 2.22468 13.4896
2.04754 2.20946 13.4783
2.03242 2.22458 13.5125
2.03232 2.22468 13.4896
2.04777 2.20923 13.5048
2.04754 2.20946 13.4783
2.06275 2.19425 13.4646
2.06287 2.19413 13.4893
2.06287 2.19413 13.4893
2.04777 2.20923 13.5048
2.04754 2.20946 13.4783
2.06326 2.19374 13.5125
2.04777 2.20923 13.5048
2.06287 2.19413 13.4893
2.06275 2.19425 13.4646
2.04744 2.20956 13.4526
2.06271 2.19429 13.4395
2.06271 2.19429 13.4144
2.07804 2.17896 13.4269
2.06271 2.19429 13.4395
2.07809 2.17891 13.4776
2.06287 2.19413 13.4893
2.06275 2.19425 13.4646
2.0934 2.1636 13.4639
2.0934 2.1636 13.4886
2.07809 2.17891 13.4776
2.0934 2.1636 13.3639
2.0934 2.1636 13.389
2.07805 2.17895 13.3765
2.07804 2.17896 13.4017
2.0934 2.1636 13.389
2.0934 2.1636 13.4141
2.0934 2.1636 13.4141
2.07804 2.17896 13.4269
2.07804 2.17896 13.4017
2.0934 2.1636 12.8365
2.0934 2.1636 12.8617
2.07807 2.17893 12.8491
2.07807 2.17893 13.3011
2.0934 2.1636 13.3136
2.07806 2.17894 13.3262
2.0934 2.1636 13.2885
2.0934 2.1636 13.3136
2.07807 2.17893 13.3011
2.07808 2.17892 13.1754
2.0934 2.1636 13.188
2.07808 2.17892 13.2006
1.61564 2.64136 12.6206
1.63134 2.62566 12.6125
1.63134 2.62566 12.6356
1.5683 2.6887 13.5125
1.53648 2.72052 13.5125
1.55243 2.70457 13.5043
2.07804 2.17896 13.4521
2.06271 2.19429 13.4395
2.07804 2.17896 13.4269
2.06275 2.19425 13.4646
2.06271 2.19429 13.4395
2.07804 2.17896 13.4521
2.07804 2.17896 13.4521
2.07809 2.17891 13.4776
2.06275 2.19425 13.4646
2.0934 2.1636 13.4639
2.07809 2.17891 13.4776
2.07804 2.17896 13.4521
2.07833 2.17867 13.5038
2.0934 2.1636 13.4886
2.0934 2.1636 13.5125
2.07833 2.17867 13.5038
2.07809 2.17891 13.4776
2.0934 2.1636 13.4886
2.0934 2.1636 13.5125
2.06326 2.19374 13.5125
2.07833 2.17867 13.5038
2.06326 2.19374 13.5125
2.06287 2.19413 13.4893
2.07833 2.17867 13.5038
2.06287 2.19413 13.4893
2.07809 2.17891 13.4776
2.07833 2.17867 13.5038
2.07806 2.17894 13.3262
2.0934 2.1636 13.3136
2.0934 2.1636 13.3387
2.07804 2.17896 13.4269
2.0934 2.1636 13.4141
2.0934 2.1636 13.4391
2.0934 2.1636 13.4639
2.07804 2.17896 13.4521
2.0934 2.1636 13.4391
2.0934 2.1636 13.4391
2.07804 2.17896 13.4521
2.07804 2.17896 13.4269
2.0934 2.1636 13.1629
2.0934 2.1636 13.188
2.07808 2.17892 13.1754
2.07807 2.17893 12.8491
2.0934 2.1636 12.8617
2.07807 2.17893 12.8742
2.06275 2.19425 13.2885
2.04743 2.20957 13.276
2.06275 2.19425 13.2634
2.07806 2.17894 13.3514
2.0934 2.1636 13.3639
2.07805 2.17895 13.3765
2.07806 2.17894 13.3514
2.0934 2.1636 13.3387
2.0934 2.1636 13.3639
2.07806 2.17894 13.3514
2.06273 2.19427 13.3388
2.07806 2.17894 13.3262
2.07806 2.17894 13.3262
2.0934 2.1636 13.3387
2.07806 2.17894 13.3514
2.06271 2.19429 13.3892
2.07804 2.17896 13.4017
2.06271 2.19429 13.4144
2.06271 2.19429 13.3892
2.07805 2.17895 13.3765
2.07804 2.17896 13.4017
2.04741 2.20959 13.3515
2.03209 2.22491 13.3641
2.0321 2.2249 13.3389
1.83285 2.42415 13.4784
1.81747 2.43953 13.4649
1.83285 2.42415 13.4528
1.78664 2.47036 13.3138
1.78664 2.47036 13.339
1.77121 2.48579 13.3264
2.0934 2.1636 12.6125
2.0934 2.1636 12.6364
2.07833 2.17867 12.6212
1.56833 2.68867 13.4893
1.5683 2.6887 13.5125
1.55243 2.70457 13.5043
1.63134 2.62566 13.4145
1.61565 2.64135 13.4271
1.61564 2.64136 13.4019
1.55243 2.70457 13.5043
1.53648 2.72052 13.5125
1.53664 2.72036 13.4892
2.06276 2.19424 12.937
2.04745 2.20955 12.9244
2.06276 2.19424 12.9119
2.0934 2.1636 13.0876
2.07808 2.17892 13.075
2.0934 2.1636 13.0625
2.07808 2.17892 13.1252
2.0934 2.1636 13.1127
2.0934 2.1636 13.1378
2.06277 2.19423 13.0374
2.04745 2.20955 13.05
2.04745 2.20955 13.0249
2.06277 2.19423 13.0625
2.04745 2.20955 13.05
2.06277 2.19423 13.0374
2.07808 2.17892 13.075
2.06277 2.19423 13.0876
2.06277 2.19423 13.0625
2.04745 2.20955 13.2006
2.06276 2.19424 13.2131
2.04744 2.20956 13.2257
2.01682 2.24018 13.1755
2.01682 2.24018 13.2006
2.0015 2.2555 13.188
2.04745 2.20955 13.1755
2.03214 2.22486 13.1629
2.04745 2.20955 13.1503
2.04745 2.20955 13.1503
2.06277 2.19423 13.1629
2.04745 2.20955 13.1755
2.03214 2.22486 13.1629
2.03214 2.22486 13.1378
2.04745 2.20955 13.1503
2.04745 2.20955 13.1503
2.03214 2.22486 13.1378
2.04745 2.20955 13.1252
2.0934 2.1636 13.1378
2.0934 2.1636 13.1629
2.07808 2.17892 13.1503
2.07808 2.17892 13.1503
2.07808 2.17892 13.1252
2.0934 2.1636 13.1378
2.07808 2.17892 13.1503
2.0934 2.1636 13.1629
2.07808 2.17892 13.1754
2.07808 2.17892 13.1754
2.06277 2.19423 13.1629
2.07808 2.17892 13.1503
2.04744 2.20956 13.2508
2.03213 2.22487 13.2383
2.04744 2.20956 13.2257
2.04744 2.20956 13.2508
2.06275 2.19425 13.2634
2.04743 2.20957 13.276
2.0015 2.2555 13.2383
2.01681 2.24019 13.2257
2.01681 2.24019 13.2509
2.01681 2.24019 13.2509
2.01681 2.24019 13.2257
2.03213 2.22487 13.2383
2.0934 2.1636 13.2131
2.07808 2.17892 13.2006
2.0934 2.1636 13.188
2.04744 2.20956 13.2257
2.06276 2.19424 13.2131
2.06276 2.19424 13.2382
2.06276 2.19424 13.2382
2.04744 2.20956 13.2508
2.04744 2.20956 13.2257
2.06275 2.19425 13.2634
2.04744 2.20956 13.2508
2.06276 2.19424 13.2382
2.07806 2.17894 13.3262
2.06273 2.19427 13.3388
2.06274 2.19426 13.3137
2.06274 2.19426 13.3137
2.07807 2.17893 13.3011
2.07806 2.17894 13.3262
2.06275 2.19425 13.2885
2.07807 2.17893 13.3011
2.06274 2.19426 13.3137
2.0321 2.2249 13.3389
2.03211 2.22489 13.3138
2.04742 2.20958 13.3263
2.04742 2.20958 13.3263
2.04741 2.20959 13.3515
2.0321 2.2249 13.3389
2.06273 2.19427 13.3388
2.04741 2.20959 13.3515
2.04742 2.20958 13.3263
2.04742 2.20958 13.3263
2.06274 2.19426 13.3137
2.06273 2.19427 13.3388
2.01679 2.24021 13.3264
2.03211 2.22489 13.3138
2.0321 2.2249 13.3389
2.01679 2.24021 13.3264
2.00148 2.25552 13.339
2.00148 2.25552 13.3138
2.06271 2.19429 13.4144
2.06271 2.19429 13.4395
2.04741 2.20959 13.4272
2.04741 2.20959 13.4272
2.06271 2.19429 13.4395
2.04744 2.20956 13.4526
2.03209 2.22491 13.3641
2.04741 2.20959 13.3515
2.0474 2.2096 13.3767
2.0474 2.2096 13.3767
2.03209 2.22491 13.3894
2.03209 2.22491 13.3641
1.97087 2.28613 13.2132
1.95555 2.30145 13.2257
1.95555 2.30145 13.2006
2.00148 2.25552 13.3138
2.00149 2.25551 13.2886
2.0168 2.2402 13.3012
2.0168 2.2402 13.3012
2.01679 2.24021 13.3264
2.00148 2.25552 13.3138
2.03211 2.22489 13.3138
2.01679 2.24021 13.3264
2.0168 2.2402 13.3012
2.03211 2.22489 13.2886
2.03211 2.22489 13.3138
2.0168 2.2402 13.3012
1.86358 2.39342 13.4528
1.86358 2.39342 13.4784
1.84822 2.40878 13.4649
1.84822 2.40878 13.4649
1.86358 2.39342 13.4784
1.84822 2.40878 13.4895
1.84822 2.40878 13.4649
1.84822 2.40878 13.4895
1.83285 2.42415 13.4784
1.83285 2.42415 13.4784
1.83285 2.42415 13.4528
1.84822 2.40878 13.4649
1.81747 2.43953 13.4398
1.83285 2.42415 13.4528
1.81747 2.43953 13.4649
1.80202 2.45498 13.075
1.80202 2.45498 13.1002
1.7866 2.4704 13.0876
1.70922 2.54778 13.2006
1.69367 2.56333 13.188
1.70922 2.54778 13.1754
1.70924 2.54776 13.2508
1.6937 2.5633 13.2634
1.69369 2.56331 13.2382
1.63134 2.62566 13.4145
1.61564 2.64136 13.4019
1.63132 2.62568 13.3892
1.63135 2.62565 13.4397
1.61565 2.64135 13.4271
1.63134 2.62566 13.4145
1.69376 2.56324 13.3641
1.69378 2.56322 13.3893
1.6782 2.5788 13.3767
1.59983 2.65717 13.3136
1.61554 2.64146 13.301
1.61557 2.64143 13.3262
1.59973 2.65727 13.213
1.58397 2.67303 13.2256
1.58396 2.67304 13.2005
1.61564 2.64136 13.5044
1.63134 2.62566 13.5125
1.5999 2.6571 13.5125
1.63134 2.62566 13.4894
1.63134 2.62566 13.5125
1.61564 2.64136 13.5044
1.647 2.61 13.5045
1.63134 2.62566 13.5125
1.63134 2.62566 13.4894
1.59993 2.65707 13.4396
1.59992 2.65708 13.4647
1.58418 2.67282 13.4525
1.84822 2.40878 13.5125
1.81747 2.43953 13.5125
1.83285 2.42415 13.5047
1.83285 2.42415 13.4784
1.84822 2.40878 13.4895
1.83285 2.42415 13.5047
1.83285 2.42415 13.5047
1.84822 2.40878 13.4895
1.84822 2.40878 13.5125
1.81747 2.43953 13.4895
1.81747 2.43953 13.4649
1.83285 2.42415 13.4784
1.83285 2.42415 13.4784
1.83285 2.42415 13.5047
1.81747 2.43953 13.4895
1.81747 2.43953 13.4895
1.83285 2.42415 13.5047
1.81747 2.43953 13.5125
1.70931 2.54769 13.3768
1.69378 2.56322 13.3893
1.69376 2.56324 13.3641
1.7712 2.4858 13.3012
1.78663 2.47037 13.2886
1.78664 2.47036 13.3138
1.78664 2.47036 13.3138
1.77121 2.48579 13.3264
1.7712 2.4858 13.3012
1.77122 2.48578 13.3516
1.77121 2.48579 13.3264
1.78664 2.47036 13.339
1.77122 2.48578 13.3516
1.78664 2.47036 13.339
1.78665 2.47035 13.3642
1.78665 2.47035 13.3642
1.77123 2.48577 13.3768
1.77122 2.48578 13.3516
1.77122 2.48578 13.3516
1.77123 2.48577 13.3768
1.75578 2.50122 13.3642
1.78666 2.47034 13.3894
1.77123 2.48577 13.3768
1.78665 2.47035 13.3642
1.78666 2.47034 13.4146
1.77124 2.48576 13.4273
1.77124 2.48576 13.4021
1.77124 2.48576 13.4021
1.78666 2.47034 13.3894
1.78666 2.47034 13.4146
1.77123 2.48577 13.3768
1.78666 2.47034 13.3894
1.77124 2.48576 13.4021
2.07809 2.17891 12.6474
2.07833 2.17867 12.6212
2.0934 2.1636 12.6364
2.06287 2.19413 12.6357
2.07833 2.17867 12.6212
2.07809 2.17891 12.6474
1.94028 2.31672 12.6355
1.94028 2.31672 12.6125
1.95561 2.30139 12.6202
2.00164 2.25536 12.6125
1.98629 2.27071 12.6202
1.97095 2.28605 12.6125
1.97095 2.28605 12.6125
1.95561 2.30139 12.6202
1.94028 2.31672 12.6125
1.48928 2.76772 12.649
1.48919 2.76781 12.6229
1.50509 2.75191 12.6364
1.50509 2.75191 12.6364
1.5206 2.7364 12.621
1.52092 2.73608 12.6475
1.47362 2.78338 12.6378
1.48919 2.76781 12.6229
1.48928 2.76772 12.649
1.47362 2.78338 12.6378
1.47412 2.78288 12.6125
1.48919 2.76781 12.6229
1.56833 2.68867 12.6357
[...]
<PointData Scalars="View Factor" >
<DataArray type="Float64" Name="View Factor" NumberOfComponents="1" format="ascii">
3.71521e-06
3.71521e-06
3.71521e-06
3.72743e-06
3.72743e-06
3.72743e-06
3.72344e-06
3.72344e-06
3.72344e-06
3.72441e-06
3.72441e-06
3.72441e-06
3.71892e-06
3.71892e-06
3.71892e-06
3.69613e-06
3.69613e-06
3.69613e-06
3.71047e-06
3.71047e-06
3.71047e-06
3.70907e-06
3.70907e-06
3.70907e-06
3.70363e-06
3.70363e-06
3.70363e-06
3.70077e-06
3.70077e-06
3.70077e-06
3.68997e-06
3.68997e-06
3.68997e-06
3.7174e-06
3.7174e-06
3.7174e-06
3.72145e-06
3.72145e-06
3.72145e-06
3.69403e-06
3.69403e-06
3.69403e-06
3.6749e-06
3.6749e-06
3.6749e-06
3.72942e-06
3.72942e-06
3.72942e-06
3.71567e-06
3.71567e-06
3.71567e-06
3.71368e-06
3.71368e-06
3.71368e-06
4.03335e-06
4.03335e-06
4.03335e-06
3.76904e-06
3.76904e-06
3.76904e-06
3.77107e-06
3.77107e-06
3.77107e-06
3.83968e-06
3.83968e-06
3.83968e-06
7.45013e-06
7.45013e-06
7.45013e-06
7.13636e-06
7.13636e-06
7.13636e-06
3.70928e-06
3.70928e-06
3.70928e-06
3.7077e-06
3.7077e-06
3.7077e-06
3.6963e-06
3.6963e-06
3.6963e-06
3.6867e-06
3.6867e-06
3.6867e-06
3.66143e-06
3.66143e-06
3.66143e-06
3.67249e-06
3.67249e-06
3.67249e-06
3.66663e-06
3.66663e-06
3.66663e-06
3.68044e-06
3.68044e-06
3.68044e-06
3.68201e-06
3.68201e-06
3.68201e-06
3.75712e-06
3.75712e-06
3.75712e-06
3.702e-06
3.702e-06
3.702e-06
3.68842e-06
3.68842e-06
3.68842e-06
3.6996e-06
3.6996e-06
3.6996e-06
3.84177e-06
3.84177e-06
3.84177e-06
4.03107e-06
4.03107e-06
4.03107e-06
3.81512e-06
3.81512e-06
3.81512e-06
3.74123e-06
3.74123e-06
3.74123e-06
3.74324e-06
3.74324e-06
3.74324e-06
3.765e-06
3.765e-06
3.765e-06
3.75511e-06
3.75511e-06
3.75511e-06
3.73524e-06
3.73524e-06
3.73524e-06
3.73723e-06
3.73723e-06
3.73723e-06
3.79286e-06
3.79286e-06
3.79286e-06
4.89947e-06
4.89947e-06
4.89947e-06
5.39112e-06
5.39112e-06
5.39112e-06
4.17276e-06
4.17276e-06
4.17276e-06
7.05554e-06
7.05554e-06
7.05554e-06
6.6627e-06
6.6627e-06
6.6627e-06
7.22982e-06
7.22982e-06
7.22982e-06
4.01976e-06
4.01976e-06
4.01976e-06
3.89947e-06
3.89947e-06
3.89947e-06
3.87049e-06
3.87049e-06
3.87049e-06
3.95817e-06
3.95817e-06
3.95817e-06
3.94514e-06
3.94514e-06
3.94514e-06
3.92007e-06
3.92007e-06
3.92007e-06
3.85581e-06
3.85581e-06
3.85581e-06
3.9114e-06
3.9114e-06
3.9114e-06
3.89489e-06
3.89489e-06
3.89489e-06
3.88461e-06
3.88461e-06
3.88461e-06
3.90732e-06
3.90732e-06
3.90732e-06
3.90984e-06
3.90984e-06
3.90984e-06
3.8561e-06
3.8561e-06
3.8561e-06
3.86837e-06
3.86837e-06
3.86837e-06
3.85399e-06
3.85399e-06
3.85399e-06
3.86416e-06
3.86416e-06
3.86416e-06
3.85167e-06
3.85167e-06
3.85167e-06
3.82726e-06
3.82726e-06
3.82726e-06
3.8824e-06
3.8824e-06
3.8824e-06
3.87212e-06
3.87212e-06
3.87212e-06
3.82751e-06
3.82751e-06
3.82751e-06
3.84357e-06
3.84357e-06
3.84357e-06
3.8415e-06
3.8415e-06
3.8415e-06
3.82932e-06
3.82932e-06
3.82932e-06
3.77695e-06
3.77695e-06
3.77695e-06
3.77898e-06
3.77898e-06
3.77898e-06
3.79098e-06
3.79098e-06
3.79098e-06
3.80696e-06
3.80696e-06
3.80696e-06
3.79489e-06
3.79489e-06
3.79489e-06
3.78489e-06
3.78489e-06
3.78489e-06
3.78692e-06
3.78692e-06
3.78692e-06
3.81704e-06
3.81704e-06
3.81704e-06
3.83692e-06
3.83692e-06
3.83692e-06
3.73122e-06
3.73122e-06
3.73122e-06
3.72953e-06
3.72953e-06
3.72953e-06
3.78084e-06
3.78084e-06
3.78084e-06
3.77882e-06
3.77882e-06
3.77882e-06
3.9491e-06
3.9491e-06
3.9491e-06
3.85202e-06
3.85202e-06
3.85202e-06
3.83936e-06
3.83936e-06
3.83936e-06
3.8292e-06
3.8292e-06
3.8292e-06
3.83124e-06
3.83124e-06
3.83124e-06
4.64512e-06
4.64512e-06
4.64512e-06
4.67856e-06
4.67856e-06
4.67856e-06
4.76316e-06
4.76316e-06
4.76316e-06
4.81466e-06
4.81466e-06
4.81466e-06
4.95071e-06
4.95071e-06
4.95071e-06
5.45073e-06
5.45073e-06
5.45073e-06
6.17099e-06
6.17099e-06
6.17099e-06
6.15858e-06
6.15858e-06
6.15858e-06
6.63139e-06
6.63139e-06
6.63139e-06
6.60776e-06
6.60776e-06
6.60776e-06
6.13153e-06
6.13153e-06
6.13153e-06
6.8526e-06
6.8526e-06
6.8526e-06
7.13701e-06
7.13701e-06
7.13701e-06
6.61416e-06
6.61416e-06
6.61416e-06
6.53505e-06
6.53505e-06
6.53505e-06
6.4488e-06
6.4488e-06
6.4488e-06
6.84348e-06
6.84348e-06
6.84348e-06
4.82416e-06
4.82416e-06
4.82416e-06
4.79712e-06
4.79712e-06
4.79712e-06
4.74646e-06
4.74646e-06
4.74646e-06
4.93302e-06
4.93302e-06
4.93302e-06
4.88165e-06
4.88165e-06
4.88165e-06
4.91551e-06
4.91551e-06
4.91551e-06
6.04442e-06
6.04442e-06
6.04442e-06
5.41212e-06
5.41212e-06
5.41212e-06
5.44475e-06
5.44475e-06
5.44475e-06
5.42531e-06
5.42531e-06
5.42531e-06
5.37101e-06
5.37101e-06
5.37101e-06
5.40451e-06
5.40451e-06
5.40451e-06
5.49105e-06
5.49105e-06
5.49105e-06
5.35159e-06
5.35159e-06
5.35159e-06
5.36467e-06
5.36467e-06
5.36467e-06
5.33142e-06
5.33142e-06
5.33142e-06
5.38385e-06
5.38385e-06
5.38385e-06
4.17091e-06
4.17091e-06
4.17091e-06
4.18204e-06
4.18204e-06
4.18204e-06
4.45132e-06
4.45132e-06
4.45132e-06
4.28991e-06
4.28991e-06
4.28991e-06
4.36036e-06
4.36036e-06
4.36036e-06
8.6719e-06
8.6719e-06
8.6719e-06
8.47591e-06
8.47591e-06
8.47591e-06
8.76983e-06
8.76983e-06
8.76983e-06
8.83265e-06
8.83265e-06
8.83265e-06
7.94424e-06
7.94424e-06
7.94424e-06
7.55736e-06
7.55736e-06
7.55736e-06
7.85482e-06
7.85482e-06
7.85482e-06
8.60802e-06
8.60802e-06
8.60802e-06
8.54297e-06
8.54297e-06
8.54297e-06
6.70713e-06
6.70713e-06
6.70713e-06
6.8746e-06
6.8746e-06
6.8746e-06
6.81914e-06
6.81914e-06
6.81914e-06
7.28656e-06
7.28656e-06
7.28656e-06
7.22759e-06
7.22759e-06
7.22759e-06
6.9787e-06
6.9787e-06
6.9787e-06
4.0463e-06
4.0463e-06
4.0463e-06
3.92872e-06
3.92872e-06
3.92872e-06
3.98969e-06
3.98969e-06
3.98969e-06
3.98707e-06
3.98707e-06
3.98707e-06
4.00469e-06
4.00469e-06
4.00469e-06
4.00247e-06
4.00247e-06
4.00247e-06
4.01307e-06
4.01307e-06
4.01307e-06
4.02594e-06
4.02594e-06
4.02594e-06
4.02817e-06
4.02817e-06
4.02817e-06
4.01752e-06
4.01752e-06
4.01752e-06
5.41127e-06
5.41127e-06
5.41127e-06
5.44944e-06
5.44944e-06
5.44944e-06
5.51528e-06
5.51528e-06
5.51528e-06
4.0411e-06
4.0411e-06
4.0411e-06
4.01818e-06
4.01818e-06
4.01818e-06
4.04654e-06
4.04654e-06
4.04654e-06
4.22268e-06
4.22268e-06
4.22268e-06
3.93225e-06
3.93225e-06
3.93225e-06
4.21736e-06
4.21736e-06
4.21736e-06
4.01032e-06
4.01032e-06
4.01032e-06
4.02362e-06
4.02362e-06
4.02362e-06
4.10777e-06
4.10777e-06
4.10777e-06
4.14466e-06
4.14466e-06
4.14466e-06
3.96866e-06
3.96866e-06
3.96866e-06
3.91406e-06
3.91406e-06
3.91406e-06
3.9119e-06
3.9119e-06
3.9119e-06
3.92222e-06
3.92222e-06
3.92222e-06
3.93474e-06
3.93474e-06
3.93474e-06
3.9369e-06
3.9369e-06
3.9369e-06
3.92654e-06
3.92654e-06
3.92654e-06
4.6977e-06
4.6977e-06
4.6977e-06
4.6611e-06
4.6611e-06
4.6611e-06
4.17574e-06
4.17574e-06
4.17574e-06
4.12292e-06
4.12292e-06
4.12292e-06
4.15972e-06
4.15972e-06
4.15972e-06
4.2492e-06
4.2492e-06
4.2492e-06
4.67855e-06
4.67855e-06
4.67855e-06
4.73299e-06
4.73299e-06
4.73299e-06
4.80433e-06
4.80433e-06
4.80433e-06
4.71431e-06
4.71431e-06
4.71431e-06
4.26556e-06
4.26556e-06
4.26556e-06
4.3022e-06
4.3022e-06
4.3022e-06
3.84772e-06
3.84772e-06
3.84772e-06
3.85789e-06
3.85789e-06
3.85789e-06
3.87018e-06
3.87018e-06
3.87018e-06
3.84981e-06
3.84981e-06
3.84981e-06
3.86206e-06
3.86206e-06
3.86206e-06
3.87227e-06
3.87227e-06
3.87227e-06
3.90103e-06
3.90103e-06
3.90103e-06
3.88042e-06
3.88042e-06
3.88042e-06
3.8928e-06
3.8928e-06
3.8928e-06
3.90312e-06
3.90312e-06
3.90312e-06
3.96124e-06
3.96124e-06
3.96124e-06
3.95367e-06
3.95367e-06
3.95367e-06
3.96417e-06
3.96417e-06
3.96417e-06
3.87858e-06
3.87858e-06
3.87858e-06
3.90123e-06
3.90123e-06
3.90123e-06
3.89094e-06
3.89094e-06
3.89094e-06
3.89952e-06
3.89952e-06
3.89952e-06
3.88671e-06
3.88671e-06
3.88671e-06
3.87647e-06
3.87647e-06
3.87647e-06
3.86394e-06
3.86394e-06
3.86394e-06
3.87419e-06
3.87419e-06
3.87419e-06
3.88654e-06
3.88654e-06
3.88654e-06
3.86602e-06
3.86602e-06
3.86602e-06
3.88862e-06
3.88862e-06
3.88862e-06
3.87834e-06
3.87834e-06
3.87834e-06
3.89688e-06
3.89688e-06
3.89688e-06
3.90891e-06
3.90891e-06
3.90891e-06
3.9193e-06
3.9193e-06
3.9193e-06
3.89522e-06
3.89522e-06
3.89522e-06
3.84961e-06
3.84961e-06
3.84961e-06
3.85981e-06
3.85981e-06
3.85981e-06
3.83739e-06
3.83739e-06
3.83739e-06
3.83533e-06
3.83533e-06
3.83533e-06
3.88034e-06
3.88034e-06
3.88034e-06
3.8351e-06
3.8351e-06
3.8351e-06
3.82502e-06
3.82502e-06
3.82502e-06
3.81332e-06
3.81332e-06
3.81332e-06
3.83343e-06
3.83343e-06
3.83343e-06
3.78509e-06
3.78509e-06
3.78509e-06
3.80507e-06
3.80507e-06
3.80507e-06
3.78305e-06
3.78305e-06
3.78305e-06
3.79302e-06
3.79302e-06
3.79302e-06
3.79917e-06
3.79917e-06
3.79917e-06
3.81165e-06
3.81165e-06
3.81165e-06
3.82169e-06
3.82169e-06
3.82169e-06
3.81923e-06
3.81923e-06
3.81923e-06
3.80712e-06
3.80712e-06
3.80712e-06
3.79711e-06
3.79711e-06
3.79711e-06
3.82112e-06
3.82112e-06
3.82112e-06
3.80099e-06
3.80099e-06
3.80099e-06
3.809e-06
3.809e-06
3.809e-06
3.79896e-06
3.79896e-06
3.79896e-06
3.82316e-06
3.82316e-06
3.82316e-06
3.81308e-06
3.81308e-06
3.81308e-06
3.8029e-06
3.8029e-06
3.8029e-06
3.81501e-06
3.81501e-06
3.81501e-06
3.82514e-06
3.82514e-06
3.82514e-06
3.74506e-06
3.74506e-06
3.74506e-06
3.76442e-06
3.76442e-06
3.76442e-06
3.75694e-06
3.75694e-06
3.75694e-06
3.76684e-06
3.76684e-06
3.76684e-06
3.74263e-06
3.74263e-06
3.74263e-06
3.75249e-06
3.75249e-06
3.75249e-06
3.72309e-06
3.72309e-06
3.72309e-06
3.72495e-06
3.72495e-06
3.72495e-06
3.73053e-06
3.73053e-06
3.73053e-06
3.73291e-06
3.73291e-06
3.73291e-06
3.74463e-06
3.74463e-06
3.74463e-06
3.75126e-06
3.75126e-06
3.75126e-06
3.74679e-06
3.74679e-06
3.74679e-06
3.73932e-06
3.73932e-06
3.73932e-06
3.73694e-06
3.73694e-06
3.73694e-06
3.77089e-06
3.77089e-06
3.77089e-06
3.75109e-06
3.75109e-06
3.75109e-06
3.74908e-06
3.74908e-06
3.74908e-06
3.75896e-06
3.75896e-06
3.75896e-06
3.76299e-06
3.76299e-06
3.76299e-06
3.77291e-06
3.77291e-06
3.77291e-06
4.57489e-06
4.57489e-06
4.57489e-06
4.62808e-06
4.62808e-06
4.62808e-06
4.31067e-06
4.31067e-06
4.31067e-06
4.48679e-06
4.48679e-06
4.48679e-06
3.93649e-06
3.93649e-06
3.93649e-06
4.57242e-06
4.57242e-06
4.57242e-06
4.66219e-06
4.66219e-06
4.66219e-06
4.62777e-06
4.62777e-06
4.62777e-06
5.48518e-06
5.48518e-06
5.48518e-06
5.36079e-06
5.36079e-06
5.36079e-06
4.84078e-06
4.84078e-06
4.84078e-06
4.7874e-06
4.7874e-06
4.7874e-06
6.22872e-06
6.22872e-06
6.22872e-06
6.49009e-06
6.49009e-06
6.49009e-06
6.20415e-06
6.20415e-06
6.20415e-06
6.67082e-06
6.67082e-06
6.67082e-06
6.79411e-06
6.79411e-06
6.79411e-06
6.76169e-06
6.76169e-06
6.76169e-06
6.68801e-06
6.68801e-06
6.68801e-06
6.63896e-06
6.63896e-06
6.63896e-06
6.72614e-06
6.72614e-06
6.72614e-06
6.75628e-06
6.75628e-06
6.75628e-06
6.54393e-06
6.54393e-06
6.54393e-06
6.51341e-06
6.51341e-06
6.51341e-06
6.36965e-06
6.36965e-06
6.36965e-06
6.42593e-06
6.42593e-06
6.42593e-06
6.44161e-06
6.44161e-06
6.44161e-06
6.3535e-06
6.3535e-06
6.3535e-06
6.61791e-06
6.61791e-06
6.61791e-06
6.70639e-06
6.70639e-06
6.70639e-06
6.76373e-06
6.76373e-06
6.76373e-06
6.40129e-06
6.40129e-06
6.40129e-06
6.30573e-06
6.30573e-06
6.30573e-06
6.3932e-06
6.3932e-06
6.3932e-06
6.90967e-06
6.90967e-06
6.90967e-06
6.87837e-06
6.87837e-06
6.87837e-06
6.8147e-06
6.8147e-06
6.8147e-06
7.10468e-06
7.10468e-06
7.10468e-06
6.35468e-06
6.35468e-06
6.35468e-06
6.09796e-06
6.09796e-06
6.09796e-06
6.75018e-06
6.75018e-06
6.75018e-06
6.78171e-06
6.78171e-06
6.78171e-06
5.07935e-06
5.07935e-06
5.07935e-06
4.99996e-06
4.99996e-06
4.99996e-06
5.59452e-06
5.59452e-06
5.59452e-06
5.62754e-06
5.62754e-06
5.62754e-06
5.34424e-06
5.34424e-06
5.34424e-06
5.55987e-06
5.55987e-06
5.55987e-06
5.54528e-06
5.54528e-06
5.54528e-06
5.51218e-06
5.51218e-06
5.51218e-06
5.45053e-06
5.45053e-06
5.45053e-06
5.62284e-06
5.62284e-06
5.62284e-06
4.18865e-06
4.18865e-06
4.18865e-06
4.19476e-06
4.19476e-06
4.19476e-06
4.23821e-06
4.23821e-06
4.23821e-06
4.24027e-06
4.24027e-06
4.24027e-06
4.25674e-06
4.25674e-06
4.25674e-06
8.343e-06
8.343e-06
8.343e-06
8.37741e-06
8.37741e-06
8.37741e-06
8.15159e-06
8.15159e-06
8.15159e-06
8.24326e-06
8.24326e-06
8.24326e-06
8.17943e-06
8.17943e-06
8.17943e-06
8.04363e-06
8.04363e-06
8.04363e-06
8.08023e-06
8.08023e-06
8.08023e-06
8.01299e-06
8.01299e-06
8.01299e-06
8.50694e-06
8.50694e-06
8.50694e-06
8.63763e-06
8.63763e-06
8.63763e-06
8.60517e-06
8.60517e-06
8.60517e-06
8.63913e-06
8.63913e-06
8.63913e-06
8.54142e-06
8.54142e-06
8.54142e-06
8.74625e-06
8.74625e-06
8.74625e-06
8.45236e-06
8.45236e-06
8.45236e-06
7.7307e-06
7.7307e-06
7.7307e-06
7.73082e-06
7.73082e-06
7.73082e-06
7.60606e-06
7.60606e-06
7.60606e-06
8.51151e-06
8.51151e-06
8.51151e-06
8.54349e-06
8.54349e-06
8.54349e-06
8.47969e-06
8.47969e-06
8.47969e-06
8.35376e-06
8.35376e-06
8.35376e-06
8.38502e-06
8.38502e-06
8.38502e-06
8.6727e-06
8.6727e-06
8.6727e-06
8.28953e-06
8.28953e-06
8.28953e-06
8.32297e-06
8.32297e-06
8.32297e-06
7.88588e-06
7.88588e-06
7.88588e-06
7.82407e-06
7.82407e-06
7.82407e-06
8.12258e-06
8.12258e-06
8.12258e-06
8.02585e-06
8.02585e-06
8.02585e-06
8.3164e-06
8.3164e-06
8.3164e-06
8.41347e-06
8.41347e-06
8.41347e-06
8.44589e-06
8.44589e-06
8.44589e-06
7.77348e-06
7.77348e-06
7.77348e-06
8.73798e-06
8.73798e-06
8.73798e-06
8.77072e-06
8.77072e-06
8.77072e-06
8.70553e-06
8.70553e-06
8.70553e-06
6.51909e-06
6.51909e-06
6.51909e-06
6.46161e-06
6.46161e-06
6.46161e-06
6.96233e-06
6.96233e-06
6.96233e-06
6.34562e-06
6.34562e-06
6.34562e-06
6.31204e-06
6.31204e-06
6.31204e-06
6.36975e-06
6.36975e-06
6.36975e-06
5.90235e-06
5.90235e-06
5.90235e-06
6.01499e-06
6.01499e-06
6.01499e-06
7.20061e-06
7.20061e-06
7.20061e-06
7.16757e-06
7.16757e-06
7.16757e-06
6.58889e-06
6.58889e-06
6.58889e-06
6.67546e-06
6.67546e-06
6.67546e-06
6.73219e-06
6.73219e-06
6.73219e-06
6.69977e-06
6.69977e-06
6.69977e-06
6.79379e-06
6.79379e-06
6.79379e-06
6.8494e-06
6.8494e-06
6.8494e-06
6.8733e-06
6.8733e-06
6.8733e-06
6.96835e-06
6.96835e-06
6.96835e-06
6.9364e-06
6.9364e-06
6.9364e-06
8.29176e-06
8.29176e-06
8.29176e-06
8.26095e-06
8.26095e-06
8.26095e-06
8.23036e-06
8.23036e-06
8.23036e-06
7.25969e-06
7.25969e-06
7.25969e-06
7.32162e-06
7.32162e-06
7.32162e-06
7.3814e-06
7.3814e-06
7.3814e-06
7.3503e-06
7.3503e-06
7.3503e-06
7.53179e-06
7.53179e-06
7.53179e-06
7.50281e-06
7.50281e-06
7.50281e-06
7.47196e-06
7.47196e-06
7.47196e-06
7.59337e-06
7.59337e-06
7.59337e-06
6.94753e-06
6.94753e-06
6.94753e-06
6.88412e-06
6.88412e-06
6.88412e-06
7.29862e-06
7.29862e-06
7.29862e-06
7.26718e-06
7.26718e-06
7.26718e-06
7.06721e-06
7.06721e-06
7.06721e-06
7.31752e-06
7.31752e-06
7.31752e-06
7.39853e-06
7.39853e-06
7.39853e-06
7.49279e-06
7.49279e-06
7.49279e-06
6.96182e-06
6.96182e-06
6.96182e-06
6.99339e-06
6.99339e-06
6.99339e-06
7.10976e-06
7.10976e-06
7.10976e-06
7.1971e-06
7.1971e-06
7.1971e-06
7.08067e-06
7.08067e-06
7.08067e-06
7.13695e-06
7.13695e-06
7.13695e-06
4.24952e-06
4.24952e-06
4.24952e-06
4.26248e-06
4.26248e-06
4.26248e-06
4.27388e-06
4.27388e-06
4.27388e-06
4.27226e-06
4.27226e-06
4.27226e-06
4.30784e-06
4.30784e-06
4.30784e-06
4.29631e-06
4.29631e-06
4.29631e-06
4.2837e-06
4.2837e-06
4.2837e-06
5.02655e-06
5.02655e-06
5.02655e-06
4.17938e-06
4.17938e-06
4.17938e-06
4.19056e-06
4.19056e-06
4.19056e-06
4.22412e-06
4.22412e-06
4.22412e-06
4.2129e-06
4.2129e-06
4.2129e-06
3.97478e-06
3.97478e-06
3.97478e-06
3.9726e-06
3.9726e-06
3.9726e-06
3.95993e-06
3.95993e-06
3.95993e-06
3.94948e-06
3.94948e-06
3.94948e-06
3.95825e-06
3.95825e-06
3.95825e-06
3.97917e-06
3.97917e-06
3.97917e-06
3.99763e-06
3.99763e-06
3.99763e-06
4.01931e-06
4.01931e-06
4.01931e-06
4.02151e-06
4.02151e-06
4.02151e-06
4.01086e-06
4.01086e-06
4.01086e-06
5.38652e-06
5.38652e-06
5.38652e-06
5.31509e-06
5.31509e-06
5.31509e-06
5.41605e-06
5.41605e-06
5.41605e-06
5.54525e-06
5.54525e-06
5.54525e-06
5.63829e-06
5.63829e-06
5.63829e-06
5.69556e-06
5.69556e-06
5.69556e-06
5.50914e-06
5.50914e-06
5.50914e-06
5.65989e-06
5.65989e-06
5.65989e-06
5.5665e-06
5.5665e-06
5.5665e-06
5.4884e-06
5.4884e-06
5.4884e-06
5.67442e-06
5.67442e-06
5.67442e-06
5.74543e-06
5.74543e-06
5.74543e-06
6.44741e-06
6.44741e-06
6.44741e-06
5.78886e-06
5.78886e-06
5.78886e-06
6.35211e-06
6.35211e-06
6.35211e-06
4.69303e-06
4.69303e-06
4.69303e-06
5.27879e-06
5.27879e-06
5.27879e-06
5.33511e-06
5.33511e-06
5.33511e-06
5.19047e-06
5.19047e-06
5.19047e-06
5.06224e-06
5.06224e-06
5.06224e-06
5.09829e-06
5.09829e-06
5.09829e-06
5.39171e-06
5.39171e-06
5.39171e-06
4.54713e-06
4.54713e-06
4.54713e-06
4.81719e-06
4.81719e-06
4.81719e-06
4.87427e-06
4.87427e-06
4.87427e-06
4.97003e-06
4.97003e-06
4.97003e-06
5.02707e-06
5.02707e-06
5.02707e-06
5.37995e-06
5.37995e-06
5.37995e-06
5.11991e-06
5.11991e-06
5.11991e-06
5.3065e-06
5.3065e-06
5.3065e-06
4.03265e-06
4.03265e-06
4.03265e-06
4.04334e-06
4.04334e-06
4.04334e-06
4.67538e-06
4.67538e-06
4.67538e-06
4.49164e-06
4.49164e-06
4.49164e-06
4.5463e-06
4.5463e-06
4.5463e-06
4.63821e-06
4.63821e-06
4.63821e-06
4.23865e-06
4.23865e-06
4.23865e-06
4.4782e-06
4.4782e-06
4.4782e-06
4.13817e-06
4.13817e-06
4.13817e-06
4.01549e-06
4.01549e-06
4.01549e-06
4.0031e-06
4.0031e-06
4.0031e-06
3.98806e-06
3.98806e-06
3.98806e-06
4.00915e-06
4.00915e-06
4.00915e-06
4.01181e-06
4.01181e-06
4.01181e-06
4.00126e-06
4.00126e-06
4.00126e-06
3.97312e-06
3.97312e-06
3.97312e-06
3.9709e-06
3.9709e-06
3.9709e-06
3.98138e-06
3.98138e-06
3.98138e-06
3.99412e-06
3.99412e-06
3.99412e-06
3.99635e-06
3.99635e-06
3.99635e-06
3.98583e-06
3.98583e-06
3.98583e-06
3.88282e-06
3.88282e-06
3.88282e-06
3.89306e-06
3.89306e-06
3.89306e-06
3.90547e-06
3.90547e-06
3.90547e-06
3.88495e-06
3.88495e-06
3.88495e-06
3.90761e-06
3.90761e-06
3.90761e-06
3.89732e-06
3.89732e-06
3.89732e-06
4.06186e-06
4.06186e-06
4.06186e-06
4.18648e-06
4.18648e-06
4.18648e-06
4.09835e-06
4.09835e-06
4.09835e-06
4.11387e-06
4.11387e-06
4.11387e-06
3.94273e-06
3.94273e-06
3.94273e-06
3.96362e-06
3.96362e-06
3.96362e-06
3.95097e-06
3.95097e-06
3.95097e-06
3.94044e-06
3.94044e-06
3.94044e-06
3.97862e-06
3.97862e-06
3.97862e-06
3.96592e-06
3.96592e-06
3.96592e-06
3.95535e-06
3.95535e-06
3.95535e-06
3.95765e-06
3.95765e-06
3.95765e-06
3.97816e-06
3.97816e-06
3.97816e-06
3.99964e-06
3.99964e-06
3.99964e-06
3.97665e-06
3.97665e-06
3.97665e-06
3.98729e-06
3.98729e-06
3.98729e-06
3.95538e-06
3.95538e-06
3.95538e-06
3.96761e-06
3.96761e-06
3.96761e-06
4.03849e-06
4.03849e-06
4.03849e-06
4.02535e-06
4.02535e-06
4.02535e-06
4.12857e-06
4.12857e-06
4.12857e-06
4.07724e-06
4.07724e-06
4.07724e-06
4.00819e-06
4.00819e-06
4.00819e-06
4.09202e-06
4.09202e-06
4.09202e-06
4.03e-06
4.03e-06
4.03e-06
4.02739e-06
4.02739e-06
4.02739e-06
4.00842e-06
4.00842e-06
4.00842e-06
3.9805e-06
3.9805e-06
3.9805e-06
3.98309e-06
3.98309e-06
3.98309e-06
4.00647e-06
4.00647e-06
4.00647e-06
3.99585e-06
3.99585e-06
3.99585e-06
4.23845e-06
4.23845e-06
4.23845e-06
4.20233e-06
4.20233e-06
4.20233e-06
4.25404e-06
4.25404e-06
4.25404e-06
4.34269e-06
4.34269e-06
4.34269e-06
4.37886e-06
4.37886e-06
4.37886e-06
4.32676e-06
4.32676e-06
4.32676e-06
4.3628e-06
4.3628e-06
4.3628e-06
4.45103e-06
4.45103e-06
4.45103e-06
4.27018e-06
4.27018e-06
4.27018e-06
4.2338e-06
4.2338e-06
4.2338e-06
4.28614e-06
4.28614e-06
4.28614e-06
4.37549e-06
4.37549e-06
4.37549e-06
4.64369e-06
4.64369e-06
4.64369e-06
4.55426e-06
4.55426e-06
4.55426e-06
4.31832e-06
4.31832e-06
4.31832e-06
4.42487e-06
4.42487e-06
4.42487e-06
4.57132e-06
4.57132e-06
4.57132e-06
4.39187e-06
4.39187e-06
4.39187e-06
4.51799e-06
4.51799e-06
4.51799e-06
4.42844e-06
4.42844e-06
4.42844e-06
4.58644e-06
4.58644e-06
4.58644e-06
5.25984e-06
5.25984e-06
5.25984e-06
5.29548e-06
5.29548e-06
5.29548e-06
4.82336e-06
4.82336e-06
4.82336e-06
4.85895e-06
4.85895e-06
4.85895e-06
3.94903e-06
3.94903e-06
3.94903e-06
3.94713e-06
3.94713e-06
3.94713e-06
3.92389e-06
3.92389e-06
3.92389e-06
3.93434e-06
3.93434e-06
3.93434e-06
3.9302e-06
3.9302e-06
3.9302e-06
3.94064e-06
3.94064e-06
3.94064e-06
3.91768e-06
3.91768e-06
3.91768e-06
3.93853e-06
3.93853e-06
3.93853e-06
3.91558e-06
3.91558e-06
3.91558e-06
3.92599e-06
3.92599e-06
3.92599e-06
3.87581e-06
3.87581e-06
3.87581e-06
3.85735e-06
3.85735e-06
3.85735e-06
3.86758e-06
3.86758e-06
3.86758e-06
3.84551e-06
3.84551e-06
3.84551e-06
3.86553e-06
3.86553e-06
3.86553e-06
3.84386e-06
3.84386e-06