<VTKFile type="UnstructuredGrid" version="1.0">
<UnstructuredGrid>
<Piece NumberOfPoints="8859" NumberOfCells="2953">
<Points>
<DataArray type="Float64" NumberOfComponents="3" format="ascii">
3.01 0.5 1.995
3.01 0.487476 2.0175
3.01 0.512524 2.0175
3.01 0.17352 1.1175
3.01 0.148445 1.1175
3.01 0.160827 1.13922
3.01 0.122979 1.16089
3.01 0.135644 1.13922
3.01 0.110383 1.13921
3.01 0.135644 1.13922
3.01 0.123433 1.1175
3.01 0.110383 1.13921
3.01 0.123433 1.1175
3.01 0.135644 1.13922
3.01 0.148445 1.1175
3.01 0.135644 1.13922
3.01 0.160827 1.13922
3.01 0.148445 1.1175
3.01 0.17352 1.1175
3.01 0.185985 1.1392
3.01 0.198629 1.1175
3.01 0.185985 1.1392
3.01 0.17352 1.1175
3.01 0.160827 1.13922
3.01 0.0732297 1.16067
3.01 0.0848754 1.13914
3.01 0.0586606 1.13881
3.01 0.05 1.95027
3.01 0.058509 1.92756
3.01 0.05 1.9051
3.01 0.324276 1.1175
3.01 0.336827 1.13916
3.01 0.349395 1.1175
3.01 0.148138 1.1609
3.01 0.160827 1.13922
3.01 0.135644 1.13922
3.01 0.122979 1.16089
3.01 0.148138 1.1609
3.01 0.135644 1.13922
3.01 0.160827 1.13922
3.01 0.173316 1.16089
3.01 0.185985 1.1392
3.01 0.185806 1.18255
3.01 0.173316 1.16089
3.01 0.160572 1.18255
3.01 0.173316 1.16089
3.01 0.160827 1.13922
3.01 0.148138 1.1609
3.01 0.160572 1.18255
3.01 0.173316 1.16089
3.01 0.148138 1.1609
3.01 0.211137 1.13919
3.01 0.198629 1.1175
3.01 0.185985 1.1392
3.01 0.0979162 1.16084
3.01 0.122979 1.16089
3.01 0.110383 1.13921
3.01 0.122979 1.16089
3.01 0.0979162 1.16084
3.01 0.109875 1.18249
3.01 0.0732297 1.16067
3.01 0.0979162 1.16084
3.01 0.0848754 1.13914
3.01 0.0979162 1.16084
3.01 0.110383 1.13921
3.01 0.0848754 1.13914
3.01 0.0975729 1.20404
3.01 0.122678 1.20414
3.01 0.109875 1.18249
3.01 0.0841718 1.18235
3.01 0.0732297 1.16067
3.01 0.0577122 1.18202
3.01 0.0729308 1.20388
3.01 0.0841718 1.18235
3.01 0.0577122 1.18202
3.01 0.0732297 1.16067
3.01 0.0841718 1.18235
3.01 0.0979162 1.16084
3.01 0.0841718 1.18235
3.01 0.109875 1.18249
3.01 0.0979162 1.16084
3.01 0.0975729 1.20404
3.01 0.0841718 1.18235
3.01 0.0729308 1.20388
3.01 0.0841718 1.18235
3.01 0.0975729 1.20404
3.01 0.109875 1.18249
3.01 0.073948 1.1175
3.01 0.05 1.1175
3.01 0.0586606 1.13881
3.01 0.073948 1.1175
3.01 0.0586606 1.13881
3.01 0.0848754 1.13914
3.01 0.05 1.99329
3.01 0.0603641 1.97197
3.01 0.05 1.95027
3.01 0.0603641 1.97197
3.01 0.05 1.99329
3.01 0.0753197 1.99399
3.01 0.0709395 2.0175
3.01 0.05 1.99329
3.01 0.05 2.0175
3.01 0.05 1.99329
3.01 0.0709395 2.0175
3.01 0.0753197 1.99399
3.01 0.0579641 1.70463
3.01 0.05 1.68261
3.01 0.05 1.72669
3.01 0.0841948 1.6168
3.01 0.109814 1.6168
3.01 0.097638 1.59493
3.01 0.0841948 1.6168
3.01 0.0578646 1.6168
3.01 0.0730539 1.6387
3.01 0.0580261 1.7488
3.01 0.05 1.72669
3.01 0.05 1.77095
3.01 0.942292 1.31236
3.01 0.95 1.33404
3.01 0.95 1.29067
3.01 0.95 1.24726
3.01 0.942332 1.26897
3.01 0.95 1.29067
3.01 0.73872 1.52953
3.01 0.75132 1.50775
3.01 0.726137 1.50776
3.01 0.751305 1.55132
3.01 0.73872 1.52953
3.01 0.726124 1.55133
3.01 0.713546 1.52954
3.01 0.73872 1.52953
3.01 0.726137 1.50776
3.01 0.73872 1.52953
3.01 0.713546 1.52954
3.01 0.726124 1.55133
3.01 0.814318 1.57311
3.01 0.801709 1.5513
3.01 0.789096 1.57312
3.01 0.7765 1.55131
3.01 0.801709 1.5513
3.01 0.789115 1.52951
3.01 0.801709 1.5513
3.01 0.7765 1.55131
3.01 0.789096 1.57312
3.01 0.7765 1.55131
3.01 0.763892 1.57314
3.01 0.789096 1.57312
3.01 0.763892 1.57314
3.01 0.7765 1.55131
3.01 0.751305 1.55132
3.01 0.95 2.0175
3.01 0.95 1.99329
3.01 0.929061 2.0175
3.01 0.95 1.8154
3.01 0.941913 1.79315
3.01 0.926844 1.8154
3.01 0.941913 1.79315
3.01 0.95 1.8154
3.01 0.95 1.77095
3.01 0.926866 1.77094
3.01 0.941913 1.79315
3.01 0.95 1.77095
3.01 0.941974 1.7488
3.01 0.926866 1.77094
3.01 0.95 1.77095
3.01 0.95 1.72669
3.01 0.941974 1.7488
3.01 0.95 1.77095
3.01 0.941974 1.7488
3.01 0.95 1.72669
3.01 0.926895 1.72669
3.01 0.6127 2.0175
3.01 0.637734 2.0175
3.01 0.625238 1.99498
3.01 0.662757 2.0175
3.01 0.650275 1.99497
3.01 0.637734 2.0175
3.01 0.650275 1.99497
3.01 0.625238 1.99498
3.01 0.637734 2.0175
3.01 0.600415 1.55137
3.01 0.575304 1.55137
3.01 0.587856 1.5732
3.01 0.575304 1.55137
3.01 0.562749 1.5732
3.01 0.587856 1.5732
3.01 0.336827 1.13916
3.01 0.361946 1.13916
3.01 0.349395 1.1175
3.01 0.223755 1.1175
3.01 0.198629 1.1175
3.01 0.211137 1.13919
3.01 0.185985 1.1392
3.01 0.198492 1.16088
3.01 0.211137 1.13919
3.01 0.185806 1.18255
3.01 0.198492 1.16088
3.01 0.173316 1.16089
3.01 0.198492 1.16088
3.01 0.185985 1.1392
3.01 0.173316 1.16089
3.01 0.0576202 1.22553
3.01 0.05 1.20374
3.01 0.05 1.24726
3.01 0.05 1.20374
3.01 0.0576202 1.22553
3.01 0.0729308 1.20388
3.01 0.05 1.20374
3.01 0.0729308 1.20388
3.01 0.0577122 1.18202
3.01 0.135283 1.18254
3.01 0.122979 1.16089
3.01 0.109875 1.18249
3.01 0.135283 1.18254
3.01 0.109875 1.18249
3.01 0.122678 1.20414
3.01 0.122979 1.16089
3.01 0.135283 1.18254
3.01 0.148138 1.1609
3.01 0.135283 1.18254
3.01 0.160572 1.18255
3.01 0.148138 1.1609
3.01 0.123433 1.1175
3.01 0.0985513 1.1175
3.01 0.110383 1.13921
3.01 0.110383 1.13921
3.01 0.0985513 1.1175
3.01 0.0848754 1.13914
3.01 0.0848754 1.13914
3.01 0.0985513 1.1175
3.01 0.073948 1.1175
3.01 0.0603641 1.97197
3.01 0.0739464 1.94949
3.01 0.05 1.95027
3.01 0.0739464 1.94949
3.01 0.058509 1.92756
3.01 0.05 1.95027
3.01 0.058509 1.92756
3.01 0.0739464 1.94949
3.01 0.0849548 1.92711
3.01 0.058509 1.92756
3.01 0.0732725 1.90488
3.01 0.05 1.9051
3.01 0.0732725 1.90488
3.01 0.058509 1.92756
3.01 0.0849548 1.92711
3.01 0.5 1.995
3.01 0.47495 1.995
3.01 0.487476 2.0175
3.01 0.097663 1.6387
3.01 0.109814 1.6168
3.01 0.0841948 1.6168
3.01 0.0730539 1.6387
3.01 0.097663 1.6387
3.01 0.0841948 1.6168
3.01 0.0578646 1.6168
3.01 0.05 1.6387
3.01 0.0730539 1.6387
3.01 0.05 1.6387
3.01 0.0578646 1.6168
3.01 0.05 1.59492
3.01 0.05 1.8154
3.01 0.0580869 1.79315
3.01 0.05 1.77095
3.01 0.05 1.77095
3.01 0.073134 1.77094
3.01 0.0580261 1.7488
3.01 0.073134 1.77094
3.01 0.05 1.77095
3.01 0.0580869 1.79315
3.01 0.942268 1.35573
3.01 0.95 1.37741
3.01 0.95 1.33404
3.01 0.942292 1.31236
3.01 0.927025 1.33404
3.01 0.95 1.33404
3.01 0.927025 1.33404
3.01 0.915919 1.35572
3.01 0.942268 1.35573
3.01 0.95 1.33404
3.01 0.927025 1.33404
3.01 0.942268 1.35573
3.01 0.927013 1.37741
3.01 0.95 1.37741
3.01 0.942268 1.35573
3.01 0.915919 1.35572
3.01 0.927013 1.37741
3.01 0.942268 1.35573
3.01 0.801738 1.46425
3.01 0.826957 1.46425
3.01 0.814364 1.44253
3.01 0.852174 1.46424
3.01 0.839609 1.44252
3.01 0.826957 1.46425
3.01 0.839609 1.44252
3.01 0.814364 1.44253
3.01 0.826957 1.46425
3.01 0.776516 1.50775
3.01 0.763923 1.486
3.01 0.75132 1.50775
3.01 0.776516 1.50775
3.01 0.789115 1.52951
3.01 0.801725 1.50774
3.01 0.738704 1.57315
3.01 0.763892 1.57314
3.01 0.751305 1.55132
3.01 0.726124 1.55133
3.01 0.738704 1.57315
3.01 0.751305 1.55132
3.01 0.915617 1.79314
3.01 0.926866 1.77094
3.01 0.902228 1.77094
3.01 0.926866 1.77094
3.01 0.915617 1.79314
3.01 0.941913 1.79315
3.01 0.915617 1.79314
3.01 0.926844 1.8154
3.01 0.941913 1.79315
3.01 0.915617 1.79314
3.01 0.902193 1.81538
3.01 0.926844 1.8154
3.01 0.926866 1.77094
3.01 0.915668 1.74879
3.01 0.902228 1.77094
3.01 0.902267 1.72668
3.01 0.915668 1.74879
3.01 0.926895 1.72669
3.01 0.915668 1.74879
3.01 0.926866 1.77094
3.01 0.941974 1.7488
3.01 0.926895 1.72669
3.01 0.915668 1.74879
3.01 0.941974 1.7488
3.01 0.902267 1.72668
3.01 0.890059 1.74879
3.01 0.915668 1.74879
3.01 0.890059 1.74879
3.01 0.902228 1.77094
3.01 0.915668 1.74879
3.01 0.826927 1.55129
3.01 0.801709 1.5513
3.01 0.814318 1.57311
3.01 0.864816 1.6168
3.01 0.890186 1.6168
3.01 0.877308 1.59493
3.01 0.877308 1.59493
3.01 0.852122 1.59494
3.01 0.864816 1.6168
3.01 0.890186 1.6168
3.01 0.902362 1.59493
3.01 0.877308 1.59493
3.01 0.902362 1.59493
3.01 0.890186 1.6168
3.01 0.915805 1.6168
3.01 0.902362 1.59493
3.01 0.915805 1.6168
3.01 0.926964 1.59492
3.01 0.915835 1.57309
3.01 0.902362 1.59493
3.01 0.926964 1.59492
3.01 0.942171 1.57309
3.01 0.915835 1.57309
3.01 0.926964 1.59492
3.01 0.915835 1.57309
3.01 0.942171 1.57309
3.01 0.926978 1.55127
3.01 0.942171 1.57309
3.01 0.95 1.55127
3.01 0.926978 1.55127
3.01 0.87737 1.42081
3.01 0.902417 1.4208
3.01 0.890277 1.39911
3.01 0.852144 1.55128
3.01 0.864842 1.57309
3.01 0.877329 1.55128
3.01 0.877308 1.59493
3.01 0.864842 1.57309
3.01 0.852122 1.59494
3.01 0.902396 1.50772
3.01 0.890234 1.52949
3.01 0.915858 1.52948
3.01 0.926997 1.46423
3.01 0.95 1.46423
3.01 0.942237 1.44251
3.01 0.91589 1.44251
3.01 0.926997 1.46423
3.01 0.942237 1.44251
3.01 0.942199 1.52948
3.01 0.95 1.55127
3.01 0.95 1.50771
3.01 0.95 1.55127
3.01 0.942199 1.52948
3.01 0.926978 1.55127
3.01 0.942199 1.52948
3.01 0.915858 1.52948
3.01 0.926978 1.55127
3.01 0.95 1.46423
3.01 0.942221 1.48597
3.01 0.95 1.50771
3.01 0.942221 1.48597
3.01 0.95 1.46423
3.01 0.926997 1.46423
3.01 0.915876 1.48597
3.01 0.942221 1.48597
3.01 0.926997 1.46423
3.01 0.926989 1.50771
3.01 0.902396 1.50772
3.01 0.915858 1.52948
3.01 0.902396 1.50772
3.01 0.926989 1.50771
3.01 0.915876 1.48597
3.01 0.926989 1.50771
3.01 0.915858 1.52948
3.01 0.942199 1.52948
3.01 0.95 1.50771
3.01 0.926989 1.50771
3.01 0.942199 1.52948
3.01 0.915876 1.48597
3.01 0.926989 1.50771
3.01 0.942221 1.48597
3.01 0.926989 1.50771
3.01 0.95 1.50771
3.01 0.942221 1.48597
3.01 0.91353 1.97185
3.01 0.939636 1.97197
3.01 0.926054 1.94949
3.01 0.926728 1.90488
3.01 0.941491 1.92756
3.01 0.95 1.9051
3.01 0.926728 1.90488
3.01 0.95 1.9051
3.01 0.941822 1.88254
3.01 0.95 1.95027
3.01 0.939636 1.97197
3.01 0.95 1.99329
3.01 0.95 1.95027
3.01 0.941491 1.92756
3.01 0.926054 1.94949
3.01 0.939636 1.97197
3.01 0.95 1.95027
3.01 0.926054 1.94949
3.01 0.941491 1.92756
3.01 0.95 1.95027
3.01 0.95 1.9051
3.01 0.941869 1.83772
3.01 0.95 1.8154
3.01 0.926844 1.8154
3.01 0.762942 1.97228
3.01 0.737933 1.97234
3.01 0.75028 1.99489
3.01 0.71291 1.97239
3.01 0.737933 1.97234
3.01 0.725533 1.94985
3.01 0.71291 1.97239
3.01 0.725313 1.99492
3.01 0.737933 1.97234
3.01 0.725313 1.99492
3.01 0.75028 1.99489
3.01 0.737933 1.97234
3.01 0.737693 2.0175
3.01 0.725313 1.99492
[...]
<PointData Scalars="View Factor" >
<DataArray type="Float64" Name="View Factor" NumberOfComponents="1" format="ascii">
0.00322481
0.00322481
0.00322481
0.00178301
0.00178301
0.00178301
0.00180872
0.00180872
0.00180872
0.00179211
0.00179211
0.00179211
0.00178361
0.00178361
0.00178361
0.00179156
0.00179156
0.00179156
0.0017823
0.0017823
0.0017823
0.0017909
0.0017909
0.0017909
0.00180925
0.00180925
0.00180925
0.0030798
0.0030798
0.0030798
0.00177598
0.00177598
0.00177598
0.00180816
0.00180816
0.00180816
0.00181682
0.00181682
0.00181682
0.00180749
0.00180749
0.00180749
0.0018412
0.0018412
0.0018412
0.0018162
0.0018162
0.0018162
0.00183306
0.00183306
0.00183306
0.00179013
0.00179013
0.00179013
0.0018173
0.0018173
0.0018173
0.00183415
0.00183415
0.00183415
0.00181759
0.00181759
0.00181759
0.00180912
0.00180912
0.00180912
0.0018684
0.0018684
0.0018684
0.00184292
0.00184292
0.00184292
0.00186004
0.00186004
0.00186004
0.00183442
0.00183442
0.00183442
0.0018428
0.0018428
0.0018428
0.00186866
0.00186866
0.00186866
0.00185992
0.00185992
0.00185992
0.00178463
0.00178463
0.00178463
0.00179272
0.00179272
0.00179272
0.00318067
0.00318067
0.00318067
0.00321464
0.00321464
0.00321464
0.00326961
0.00326961
0.00326961
0.00325061
0.00325061
0.00325061
0.00262735
0.00262735
0.00262735
0.00245876
0.00245876
0.00245876
0.00248415
0.00248415
0.00248415
0.00271004
0.00271004
0.00271004
0.00193165
0.00193165
0.00193165
0.00187861
0.00187861
0.00187861
0.00224432
0.00224432
0.00224432
0.00228851
0.00228851
0.00228851
0.00225734
0.00225734
0.00225734
0.00227946
0.00227946
0.00227946
0.00231103
0.00231103
0.00231103
0.00227967
0.00227967
0.00227967
0.00230206
0.00230206
0.00230206
0.00231568
0.00231568
0.00231568
0.00230662
0.00230662
0.00230662
0.0031076
0.0031076
0.0031076
0.00269454
0.00269454
0.00269454
0.00266478
0.00266478
0.00266478
0.00263952
0.00263952
0.00263952
0.00261259
0.00261259
0.00261259
0.00258408
0.00258408
0.00258408
0.00255987
0.00255987
0.00255987
0.00319879
0.00319879
0.00319879
0.00319292
0.00319292
0.00319292
0.00317842
0.00317842
0.00317842
0.00233453
0.00233453
0.00233453
0.00234781
0.00234781
0.00234781
0.00178345
0.00178345
0.00178345
0.0017815
0.0017815
0.0017815
0.00180671
0.00180671
0.00180671
0.00183232
0.00183232
0.00183232
0.00181547
0.00181547
0.00181547
0.00190402
0.00190402
0.00190402
0.00188625
0.00188625
0.00188625
0.00186872
0.00186872
0.00186872
0.00184243
0.00184243
0.00184243
0.00185956
0.00185956
0.00185956
0.00183368
0.00183368
0.00183368
0.00184188
0.00184188
0.00184188
0.0017841
0.0017841
0.0017841
0.00179253
0.00179253
0.00179253
0.00178447
0.00178447
0.00178447
0.00314673
0.00314673
0.00314673
0.00311296
0.00311296
0.00311296
0.00309524
0.00309524
0.00309524
0.00304603
0.00304603
0.00304603
0.003062
0.003062
0.003062
0.00320942
0.00320942
0.00320942
0.00248359
0.00248359
0.00248359
0.00249642
0.00249642
0.00249642
0.00249689
0.00249689
0.00249689
0.002472
0.002472
0.002472
0.00279637
0.00279637
0.00279637
0.00273825
0.00273825
0.00273825
0.00276702
0.00276702
0.00276702
0.00198654
0.00198654
0.00198654
0.00195105
0.00195105
0.00195105
0.00198058
0.00198058
0.00198058
0.00196937
0.00196937
0.00196937
0.00200664
0.00200664
0.00200664
0.00199925
0.00199925
0.00199925
0.00214684
0.00214684
0.00214684
0.00214246
0.00214246
0.00214246
0.00213443
0.00213443
0.00213443
0.00221847
0.00221847
0.00221847
0.00223572
0.00223572
0.00223572
0.0023202
0.0023202
0.0023202
0.00231103
0.00231103
0.00231103
0.00264596
0.00264596
0.00264596
0.00265616
0.00265616
0.00265616
0.00268371
0.00268371
0.00268371
0.00270116
0.00270116
0.00270116
0.00261894
0.00261894
0.00261894
0.00256604
0.00256604
0.00256604
0.00260222
0.00260222
0.00260222
0.00257581
0.00257581
0.00257581
0.00258216
0.00258216
0.00258216
0.00260866
0.00260866
0.00260866
0.00229737
0.00229737
0.00229737
0.00236491
0.00236491
0.00236491
0.00235593
0.00235593
0.00235593
0.00235063
0.00235063
0.00235063
0.00235948
0.00235948
0.00235948
0.00234523
0.00234523
0.00234523
0.0023223
0.0023223
0.0023223
0.0023081
0.0023081
0.0023081
0.00228566
0.00228566
0.00228566
0.00227212
0.00227212
0.00227212
0.00207328
0.00207328
0.00207328
0.00228759
0.00228759
0.00228759
0.00233285
0.00233285
0.00233285
0.00222518
0.00222518
0.00222518
0.00212392
0.00212392
0.00212392
0.002116
0.002116
0.002116
0.00222684
0.00222684
0.00222684
0.00225014
0.00225014
0.00225014
0.00224163
0.00224163
0.00224163
0.00216341
0.00216341
0.00216341
0.0021443
0.0021443
0.0021443
0.00215684
0.00215684
0.00215684
0.00221201
0.00221201
0.00221201
0.00219078
0.00219078
0.00219078
0.00222003
0.00222003
0.00222003
0.00220701
0.00220701
0.00220701
0.00217764
0.00217764
0.00217764
0.00218584
0.00218584
0.00218584
0.00301391
0.00301391
0.00301391
0.00290034
0.00290034
0.00290034
0.0028696
0.0028696
0.0028696
0.00302353
0.00302353
0.00302353
0.00296288
0.00296288
0.00296288
0.0029946
0.0029946
0.0029946
0.00292933
0.00292933
0.00292933
0.00272265
0.00272265
0.00272265
0.0030988
0.0030988
0.0030988
0.00307182
0.00307182
0.00307182
0.0031054
0.0031054
0.0031054
0.00311909
0.00311909
0.00311909
0.00317405
0.00317405
0.00317405
0.00315338
0.00315338
0.00315338
0.00316734
0.00316734
0.00316734
0.00297268
0.00297268
0.00297268
0.0030061
0.0030061
0.0030061
0.00305837
0.00305837
0.00305837
0.00302547
0.00302547
0.00302547
0.00307046
0.00307046
0.00307046
0.0030374
0.0030374
0.0030374
0.0031495
0.0031495
0.0031495
0.00318414
0.00318414
0.00318414
0.00320443
0.00320443
0.00320443
0.00231698
0.00231698
0.00231698
0.0023443
0.0023443
0.0023443
0.00242225
0.00242225
0.00242225
0.00244302
0.00244302
0.00244302
0.00241874
0.00241874
0.00241874
0.00240848
0.00240848
0.00240848
0.00237114
0.00237114
0.00237114
0.00238466
0.00238466
0.00238466
0.00244658
0.00244658
0.00244658
0.0024571
0.0024571
0.0024571
0.00259976
0.00259976
0.00259976
0.00240318
0.00240318
0.00240318
0.00239333
0.00239333
0.00239333
0.00233383
0.00233383
0.00233383
0.00238034
0.00238034
0.00238034
0.00177849
0.00177849
0.00177849
0.00177959
0.00177959
0.00177959
0.00178724
0.00178724
0.00178724
0.00180376
0.00180376
0.00180376
0.00175414
0.00175414
0.00175414
0.00217186
0.00217186
0.00217186
0.00221417
0.00221417
0.00221417
0.00218446
0.00218446
0.00218446
0.00220564
0.00220564
0.00220564
0.00220985
0.00220985
0.00220985
0.00222264
0.00222264
0.00222264
0.00181151
0.00181151
0.00181151
0.00177458
0.00177458
0.00177458
0.00175274
0.00175274
0.00175274
0.0020532
0.0020532
0.0020532
0.00204425
0.00204425
0.00204425
0.00185136
0.00185136
0.00185136
0.00180093
0.00180093
0.00180093
0.00181748
0.00181748
0.00181748
0.00183432
0.00183432
0.00183432
0.00311131
0.00311131
0.00311131
0.00322934
0.00322934
0.00322934
0.00265438
0.00265438
0.00265438
0.00268194
0.00268194
0.00268194
0.00252177
0.00252177
0.00252177
0.00191858
0.00191858
0.00191858
0.00265318
0.00265318
0.00265318
0.00268072
0.00268072
0.00268072
0.00244614
0.00244614
0.00244614
0.00245807
0.00245807
0.00245807
0.00242241
0.00242241
0.00242241
0.00244675
0.00244675
0.00244675
0.0024472
0.0024472
0.0024472
0.00245931
0.00245931
0.00245931
0.00239895
0.00239895
0.00239895
0.00242286
0.00242286
0.00242286
0.00241062
0.00241062
0.00241062
0.00238676
0.00238676
0.00238676
0.00237512
0.00237512
0.00237512
0.0022654
0.0022654
0.0022654
0.00225192
0.00225192
0.00225192
0.002011
0.002011
0.002011
0.00216755
0.00216755
0.00216755
0.00218018
0.00218018
0.00218018
0.0022013
0.0022013
0.0022013
0.00213001
0.00213001
0.00213001
0.00213797
0.00213797
0.00213797
0.00206568
0.00206568
0.00206568
0.00194391
0.00194391
0.00194391
0.00203922
0.00203922
0.00203922
0.00224009
0.00224009
0.00224009
0.00228415
0.00228415
0.00228415
0.00227082
0.00227082
0.00227082
0.00224882
0.00224882
0.00224882
0.00225315
0.00225315
0.00225315
0.00227521
0.00227521
0.00227521
0.00234313
0.00234313
0.00234313
0.00235697
0.00235697
0.00235697
0.00232457
0.00232457
0.00232457
0.00234757
0.00234757
0.00234757
0.0024229
0.0024229
0.0024229
0.00243278
0.00243278
0.00243278
0.00236972
0.00236972
0.00236972
0.00238291
0.00238291
0.00238291
0.00257217
0.00257217
0.00257217
0.00255212
0.00255212
0.00255212
0.00254619
0.00254619
0.00254619
0.00253627
0.00253627
0.00253627
0.00304538
0.00304538
0.00304538
0.00306529
0.00306529
0.00306529
0.00305199
0.00305199
0.00305199
0.00301917
0.00301917
0.00301917
0.00287424
0.00287424
0.00287424
0.00294757
0.00294757
0.00294757
0.00297932
0.00297932
0.00297932
0.00280707
0.00280707
0.00280707
0.00284334
0.00284334
0.00284334
0.00278912
0.00278912
0.00278912
0.00220973
0.00220973
0.00220973
0.00230623
0.00230623
0.00230623
0.00229255
0.00229255
0.00229255
0.0023013
0.0023013
0.0023013
0.00232397
0.00232397
0.00232397
0.00239377
0.00239377
0.00239377
0.0023702
0.0023702
0.0023702
0.00227733
0.00227733
0.00227733
0.00226039
0.00226039
0.00226039
0.00225528
0.00225528
0.00225528
0.00224685
0.00224685
0.00224685
0.00231694
0.00231694
0.00231694
0.00229273
0.00229273
0.00229273
0.00218265
0.00218265
0.00218265
0.00215855
0.00215855
0.00215855
0.00216658
0.00216658
0.00216658
0.0021007
0.0021007
0.0021007
0.00212548
0.00212548
0.00212548
0.00209306
0.00209306
0.00209306
0.0021053
0.0021053
0.0021053
0.0020612
0.0020612
0.0020612
0.0020418
0.0020418
0.0020418
0.00203002
0.00203002
0.00203002
0.00307016
0.00307016
0.00307016
0.00304433
0.00304433
0.00304433
0.00305809
0.00305809
0.00305809
0.00304632
0.00304632
0.00304632
0.00309286
0.00309286
0.00309286
0.00300167
0.00300167
0.00300167
0.00290715
0.00290715
0.00290715
0.00296966
0.00296966
0.00296966
0.00295018
0.00295018
0.00295018
0.00291903
0.00291903
0.00291903
0.00288547
0.00288547
0.00288547
0.00283675
0.00283675
0.00283675
0.00285509
0.00285509
0.00285509
0.00284838
0.00284838
0.00284838
0.00272936
0.00272936
0.00272936
0.00274002
0.00274002
0.00274002
0.00285764
0.00285764
0.00285764
0.0028765
0.0028765
0.0028765
0.00308421
0.00308421
0.00308421
0.00307812
0.00307812
0.00307812
0.00306453
0.00306453
0.00306453
0.00318055
0.00318055
0.00318055
0.00315996
0.00315996
0.00315996
0.00312561
0.00312561
0.00312561
0.00311178
0.00311178
0.00311178
0.00312499
0.00312499
0.00312499
0.00307765
0.00307765
0.00307765
0.00309078
0.00309078
0.00309078
0.00314606
0.00314606
0.00314606
0.00311235
0.00311235
0.00311235
0.00314659
0.00314659
0.00314659
0.00297395
0.00297395
0.00297395
0.00296108
0.00296108
0.00296108
0.00275506
0.00275506
0.00275506
0.00273811
0.00273811
0.00273811
0.00281416
0.00281416
0.00281416
0.00292958
0.00292958
0.00292958
0.00291103
0.00291103
0.00291103
0.002941
0.002941
0.002941
0.00283197
0.00283197
0.00283197
0.00286206
0.00286206
0.00286206
0.00288024
0.00288024
0.00288024
0.00286791
0.00286791
0.00286791
0.00301224
0.00301224
0.00301224
0.00298585
0.00298585
0.00298585
0.00301817
0.00301817
0.00301817
0.00303155
0.00303155
0.00303155
0.00296699
0.00296699
0.00296699
0.00298001
0.00298001
0.00298001
0.00309007
0.00309007
0.00309007
0.00312387
0.00312387
0.00312387
0.00314386
0.00314386
0.00314386
0.00312959
0.00312959
0.00312959
0.00302387
0.00302387
0.00302387
0.00299147
0.00299147
0.00299147
0.00297815
0.00297815
0.00297815
0.00271707
0.00271707
0.00271707
0.00268901
0.00268901
0.00268901
0.00227602
0.00227602
0.00227602
0.00236744
0.00236744
0.00236744
0.00226563
0.00226563
0.00226563
0.00227743
0.00227743
0.00227743
0.0023784
0.0023784
0.0023784
0.00232972
0.00232972
0.00232972
0.00231954
0.00231954
0.00231954
0.00243749
0.00243749
0.00243749
0.002424
0.002424
0.002424
0.0023972
0.0023972
0.0023972
0.00246204
0.00246204
0.00246204
0.00247578
0.00247578
0.00247578
0.00250085
0.00250085
0.00250085
0.00251215
0.00251215
0.00251215
0.00233097
0.00233097
0.00233097
0.00236758
0.00236758
0.00236758
0.00238115
0.00238115
0.00238115
0.00240492
0.00240492
0.00240492
0.00241508
0.00241508
0.00241508
0.00255203
0.00255203
0.00255203
0.00253772
0.00253772
0.00253772
0.00246061
0.00246061
0.00246061
0.0024819
0.0024819
0.0024819
0.00243475
0.00243475
0.00243475
0.0024212
0.0024212
0.0024212
0.00254303
0.00254303
0.00254303
0.00252853
0.00252853
0.00252853
0.00243141
0.00243141
0.00243141
0.00240729
0.00240729
0.00240729
0.00240407
0.00240407
0.00240407
0.00261146
0.00261146
0.00261146
0.0017806
0.0017806
0.0017806
0.00178831
0.00178831
0.00178831
0.00178927
0.00178927
0.00178927
0.00186256
0.00186256
0.00186256
0.00182729
0.00182729
0.00182729
0.00184545
0.00184545
0.00184545
0.00175948
0.00175948
0.00175948
0.00173599
0.00173599
0.00173599
0.00174478
0.00174478
0.00174478
0.00217605
0.00217605
0.00217605
0.00218861
0.00218861
0.00218861
0.0021801
0.0021801
0.0021801
0.00215923
0.00215923
0.00215923
0.00221393
0.00221393
0.00221393
0.00219263
0.00219263
0.00219263
0.00178608
0.00178608
0.00178608
0.00180258
0.00180258
0.00180258
0.00177728
0.00177728
0.00177728
0.00178482
0.00178482
0.00178482
0.00179992
0.00179992
0.00179992
0.00180749
0.00180749
0.00180749
0.00182423
0.00182423
0.00182423
0.00182266
0.00182266
0.00182266
0.00183189
0.00183189
0.00183189
0.00185828
0.00185828
0.00185828
0.00184891
0.00184891
0.00184891
0.00176979
0.00176979
0.00176979
0.00176201
0.00176201
0.00176201
0.00207284
0.00207284
0.00207284
0.00211282
0.00211282
0.00211282
0.00179674
0.00179674
0.00179674
0.00181265
0.00181265
0.00181265
0.00182947
0.00182947
0.00182947
0.00180485
0.00180485
0.00180485
0.00289444
0.00289444
0.00289444
0.00295305
0.00295305
0.00295305
0.00305571
0.00305571
0.00305571
0.00305715
0.00305715
0.00305715
0.00303996
0.00303996
0.00303996
0.00295995
0.00295995
0.00295995
0.00300732
0.00300732
0.00300732
0.00299188
0.00299188
0.00299188
0.00303842
0.00303842
0.00303842
0.00309398
0.00309398
0.00309398
0.00301314
0.00301314
0.00301314
0.002981
0.002981
0.002981
0.00321381
0.00321381
0.00321381
0.00312907
0.00312907
0.00312907
0.00316344
0.00316344
0.00316344
0.00317874
0.00317874
0.00317874
0.00306175
0.00306175
0.00306175
0.00313662
0.00313662
0.00313662
0.00317111
0.00317111
0.00317111
0.00263993
0.00263993
0.00263993
0.00265387
0.00265387
0.00265387
0.00264054
0.00264054
0.00264054
0.0027238
0.0027238
0.0027238
0.00269565
0.00269565
0.00269565
0.00273771
0.00273771
0.00273771
0.00272316
0.00272316
0.00272316
0.00268142
0.00268142
0.00268142
0.00269502
0.00269502
0.00269502
0.00253428
0.00253428
0.00253428
0.0025594
0.0025594
0.0025594
0.00254807
0.00254807
0.00254807
0.00252224
0.00252224
0.00252224
0.00253485
0.00253485
0.00253485
0.00192191
0.00192191
0.00192191
0.00206133
0.00206133
0.00206133
0.00202255
0.00202255
0.00202255
0.0021159
0.0021159
0.0021159
0.0021363
0.0021363
0.0021363
0.00213347
0.00213347
0.00213347
0.00219614
0.00219614
0.00219614
0.00221745
0.00221745
0.00221745
0.00207305
0.00207305
0.00207305
0.00205295
0.00205295
0.00205295
0.00203352
0.00203352
0.00203352
0.0020533
0.0020533
0.0020533
0.00206295
0.00206295
0.00206295
0.00205189
0.00205189
0.00205189
0.00203249
0.00203249
0.00203249
0.00200461
0.00200461
0.00200461
0.00202369
0.00202369
0.00202369
0.00203306
0.00203306
0.00203306
0.00202317
0.00202317
0.00202317
0.00193661
0.00193661
0.00193661
0.00273698
0.00273698
0.00273698
0.00276572
0.00276572
0.00276572
0.0024958
0.0024958
0.0024958
0.00248289
0.00248289
0.00248289
0.00252113
0.00252113
0.00252113
0.00253355
0.00253355
0.00253355
0.00244538
0.00244538
0.00244538
0.00226117
0.00226117
0.00226117
0.0022499
0.0022499
0.0022499
0.00223912
0.00223912
0.00223912
0.00223873
0.00223873
0.00223873
0.00224942
0.00224942
0.00224942
0.00237469
0.00237469
0.00237469
0.00235129
0.00235129
0.00235129
0.00227011
0.00227011
0.00227011
0.00242181
0.00242181
0.00242181
0.00237411
0.00237411
0.00237411
0.00241009
0.00241009
0.00241009
0.00238623
0.00238623
0.00238623
0.00201232
0.00201232
0.00201232
0.00203139
0.00203139
0.00203139
0.00211413
0.00211413
0.00211413
0.00203442
0.00203442
0.00203442
0.00204622
0.00204622
0.00204622
0.00209755
0.00209755
0.00209755
0.00207771
0.00207771
0.00207771
0.00210978
0.00210978
0.00210978
0.00210193
0.00210193
0.00210193
0.00210619
0.00210619
0.00210619
0.00208623
0.00208623
0.00208623
0.00197361
0.00197361
0.00197361
0.00195524
0.00195524
0.00195524
0.00235242
0.00235242
0.00235242
0.00233855
0.00233855
0.00233855
0.00234774
0.00234774
0.00234774
0.00237103
0.00237103
0.00237103
0.0023852
0.0023852
0.0023852
0.00237578
0.00237578
0.00237578
0.00236136
0.00236136
0.00236136
0.00238485
0.00238485
0.00238485
0.00238917
0.00238917
0.00238917
0.00239891
0.00239891
0.00239891
0.0023153
0.0023153
0.0023153
0.00228358
0.00228358
0.00228358
0.00229272
0.00229272
0.00229272
0.00242723
0.00242723
0.00242723
0.00243722
0.00243722
0.00243722
0.00244151
0.00244151
0.00244151
0.00257443
0.00257443
0.00257443
0.00260084
0.00260084
0.00260084
0.00244188
0.00244188
0.00244188
0.00239201
0.00239201
0.00239201
0.00238842
0.00238842
0.00238842
0.00239756
0.00239756
0.00239756
0.00240301
0.00240301
0.00240301
0.00242703
0.00242703
0.00242703
0.00250487
0.00250487
0.00250487
0.00254014
0.00254014
0.00254014
0.00253028
0.00253028
0.00253028
0.00262525
0.00262525
0.00262525
0.00269042
0.00269042
0.00269042
0.00266278
0.00266278
0.00266278
0.00265235
0.00265235
0.00265235
0.00266921
0.00266921
0.00266921
0.00276011
0.00276011
0.00276011
0.0030059
0.0030059
0.0030059
0.00303149
0.00303149
0.00303149
0.00299893
0.00299893
0.00299893
0.00298633
0.00298633
0.00298633
0.00299314
0.00299314
0.00299314
0.00299973
0.00299973
0.00299973
0.00301264
0.00301264
0.00301264
0.00296117
0.00296117
0.00296117
0.00299178
0.00299178
0.00299178
0.00303693
0.00303693
0.00303693
0.00302423
0.00302423
0.00302423
0.00297214
0.00297214
0.00297214
0.00290421
0.00290421
0.00290421
0.00293531
0.00293531
0.00293531
0.00295446
0.00295446
0.00295446
0.00294206
0.00294206
0.00294206
0.0027469
0.0027469
0.0027469
0.00277574
0.00277574
0.00277574
0.00280047
0.00280047
0.00280047
0.00283004
0.00283004
0.00283004
0.00279376
0.00279376
0.00279376
0.00278249
0.00278249
0.00278249
0.00223123
0.00223123
0.00223123
0.00227504
0.00227504
0.00227504
0.0022663
0.0022663
0.0022663
0.00224436
0.00224436
0.00224436
0.00227028
0.00227028
0.00227028
0.0022266
0.0022266
0.0022266
0.00226164
0.00226164
0.00226164
0.00223976
0.00223976
0.00223976
0.00225684
0.00225684
0.00225684
0.00223504
0.00223504
0.00223504
0.00217577
0.00217577
0.00217577
0.00219684
0.00219684
0.00219684
0.00220517
0.00220517
0.00220517
0.00216311
0.00216311
0.00216311
0.00217124
0.00217124
0.00217124
0.00219224
0.00219224
0.00219224
0.0023611
0.0023611
0.0023611
0.00234291
0.00234291
0.00234291
0.00236614
0.00236614
0.00236614
0.00237534
0.00237534
0.00237534
0.00232897
0.00232897
0.00232897
0.00233795
0.00233795
0.00233795
0.00232763
0.00232763
0.00232763
0.00231883
0.00231883
0.00231883
0.00231355
0.00231355
0.00231355
0.00229103
0.00229103
0.00229103
0.00229624
0.00229624
0.00229624
0.00228252
0.00228252
0.00228252
0.00235388
0.00235388
0.00235388
0.0023398
0.0023398
0.0023398
0.00236122
0.00236122
0.00236122
0.00238642
0.00238642
0.00238642
0.00237723
0.00237723
0.00237723
0.00222185
0.00222185
0.00222185
0.00220048
0.00220048
0.00220048
0.00221698
0.00221698
0.00221698
0.00223018
0.00223018
0.00223018
0.00219568
0.00219568
0.00219568
0.00218751
0.00218751
0.00218751
0.00212865
0.00212865
0.00212865
0.00212081
0.00212081
0.00212081
0.0021491
0.0021491
0.0021491
0.00216178
0.00216178
0.00216178
0.00215387
0.00215387
0.00215387
0.00213335
0.00213335
0.00213335
0.0020256
0.0020256
0.0020256
0.00203724
0.00203724
0.00203724
0.0021023
0.0021023
0.0021023
0.00204338
0.00204338
0.00204338
0.00311561
0.00311561
0.00311561
0.00301681
0.00301681
0.00301681
0.00298448
0.00298448
0.00298448
0.00292611
0.00292611
0.00292611
0.00295746
0.00295746
0.00295746
0.00293334
0.00293334
0.00293334
0.00291422
0.00291422
0.00291422
0.00296484
0.00296484
0.00296484
0.00297708
0.00297708
0.00297708
0.0028974
0.0028974
0.0028974
0.00292134
0.00292134
0.00292134
0.00289047
0.00289047
0.00289047
0.00287865
0.00287865
0.00287865
0.00294051
0.00294051
0.00294051
0.00292839
0.00292839
0.00292839
0.00286471
0.00286471
0.00286471