<VTKFile type="UnstructuredGrid" version="1.0">
<UnstructuredGrid>
<Piece NumberOfPoints="8859" NumberOfCells="2953">
<Points>
<DataArray type="Float64" NumberOfComponents="3" format="ascii">
2.75455 1.50245 7.18263
2.76986 1.48714 7.19458
2.75465 1.50235 7.20833
2.78515 1.47185 7.13167
2.78516 1.47184 7.10651
2.8005 1.4565 7.11898
2.76981 1.48719 7.14436
2.78515 1.47185 7.13167
2.78514 1.47186 7.15686
2.72412 1.53288 7.23488
2.73952 1.51748 7.2425
2.70875 1.54825 7.2425
2.72412 1.53288 7.23488
2.73943 1.51757 7.21957
2.73952 1.51748 7.2425
2.75488 1.50212 7.23479
2.77036 1.48664 7.2425
2.73952 1.51748 7.2425
2.75488 1.50212 7.23479
2.73943 1.51757 7.21957
2.75465 1.50235 7.20833
2.73952 1.51748 7.2425
2.73943 1.51757 7.21957
2.75488 1.50212 7.23479
2.75465 1.50235 7.20833
2.76986 1.48714 7.19458
2.76997 1.48703 7.21927
2.76997 1.48703 7.21927
2.75488 1.50212 7.23479
2.75465 1.50235 7.20833
2.77036 1.48664 7.2425
2.75488 1.50212 7.23479
2.76997 1.48703 7.21927
2.76986 1.48714 7.19458
2.75455 1.50245 7.18263
2.76982 1.48718 7.16952
2.76981 1.48719 7.14436
2.78514 1.47186 7.15686
2.76982 1.48718 7.16952
2.7852 1.4718 7.20762
2.76997 1.48703 7.21927
2.76986 1.48714 7.19458
2.8005 1.4565 7.19395
2.8005 1.4565 7.21855
2.7852 1.4718 7.20762
2.8005 1.4565 7.09387
2.8005 1.4565 7.11898
2.78516 1.47184 7.10651
2.78515 1.47185 7.13167
2.8005 1.4565 7.11898
2.8005 1.4565 7.14406
2.8005 1.4565 7.14406
2.78514 1.47186 7.15686
2.78515 1.47185 7.13167
2.8005 1.4565 6.56652
2.8005 1.4565 6.59165
2.78518 1.47182 6.57907
2.78517 1.47183 7.03107
2.8005 1.4565 7.04361
2.78517 1.47183 7.05621
2.8005 1.4565 7.01848
2.8005 1.4565 7.04361
2.78517 1.47183 7.03107
2.78519 1.47181 6.90544
2.8005 1.4565 6.91799
2.78519 1.47181 6.93055
2.32274 1.93426 6.35059
2.33845 1.91855 6.3425
2.33845 1.91855 6.36563
2.27541 1.98159 7.2425
2.24359 2.01341 7.2425
2.25954 1.99746 7.23432
2.78515 1.47185 7.18212
2.76982 1.48718 7.16952
2.78514 1.47186 7.15686
2.76986 1.48714 7.19458
2.76982 1.48718 7.16952
2.78515 1.47185 7.18212
2.78515 1.47185 7.18212
2.7852 1.4718 7.20762
2.76986 1.48714 7.19458
2.8005 1.4565 7.19395
2.7852 1.4718 7.20762
2.78515 1.47185 7.18212
2.78544 1.47156 7.23384
2.8005 1.4565 7.21855
2.8005 1.4565 7.2425
2.78544 1.47156 7.23384
2.7852 1.4718 7.20762
2.8005 1.4565 7.21855
2.8005 1.4565 7.2425
2.77036 1.48664 7.2425
2.78544 1.47156 7.23384
2.77036 1.48664 7.2425
2.76997 1.48703 7.21927
2.78544 1.47156 7.23384
2.76997 1.48703 7.21927
2.7852 1.4718 7.20762
2.78544 1.47156 7.23384
2.78517 1.47183 7.05621
2.8005 1.4565 7.04361
2.8005 1.4565 7.06875
2.78514 1.47186 7.15686
2.8005 1.4565 7.14406
2.8005 1.4565 7.16907
2.8005 1.4565 7.19395
2.78515 1.47185 7.18212
2.8005 1.4565 7.16907
2.8005 1.4565 7.16907
2.78515 1.47185 7.18212
2.78514 1.47186 7.15686
2.8005 1.4565 6.89288
2.8005 1.4565 6.91799
2.78519 1.47181 6.90544
2.78518 1.47182 6.57907
2.8005 1.4565 6.59165
2.78518 1.47182 6.6042
2.76985 1.48715 7.01853
2.75454 1.50246 7.00598
2.76986 1.48714 6.99338
2.78516 1.47184 7.08136
2.8005 1.4565 7.09387
2.78516 1.47184 7.10651
2.78516 1.47184 7.08136
2.8005 1.4565 7.06875
2.8005 1.4565 7.09387
2.78516 1.47184 7.08136
2.76984 1.48716 7.06884
2.78517 1.47183 7.05621
2.78517 1.47183 7.05621
2.8005 1.4565 7.06875
2.78516 1.47184 7.08136
2.76982 1.48718 7.11918
2.78515 1.47185 7.13167
2.76981 1.48719 7.14436
2.76982 1.48718 7.11918
2.78516 1.47184 7.10651
2.78515 1.47185 7.13167
2.75451 1.50249 7.08149
2.7392 1.5178 7.09415
2.73921 1.51779 7.06894
2.53996 1.71704 7.20838
2.52458 1.73242 7.1949
2.53996 1.71704 7.18275
2.49374 1.76326 7.0438
2.49375 1.76325 7.069
2.47832 1.77868 7.05639
2.8005 1.4565 6.3425
2.8005 1.4565 6.36645
2.78544 1.47156 6.35116
2.27543 1.98157 7.21933
2.27541 1.98159 7.2425
2.25954 1.99746 7.23432
2.33845 1.91855 7.14446
2.32276 1.93424 7.15714
2.32275 1.93425 7.13185
2.25954 1.99746 7.23432
2.24359 2.01341 7.2425
2.24374 2.01326 7.21923
2.76987 1.48713 6.667
2.75455 1.50245 6.65443
2.76987 1.48713 6.64188
2.8005 1.4565 6.81759
2.78519 1.47181 6.80505
2.8005 1.4565 6.7925
2.78519 1.47181 6.85524
2.8005 1.4565 6.84269
2.8005 1.4565 6.86778
2.76988 1.48712 6.76741
2.75456 1.50244 6.77995
2.75456 1.50244 6.75486
2.76988 1.48712 6.7925
2.75456 1.50244 6.77995
2.76988 1.48712 6.76741
2.78519 1.47181 6.80505
2.76988 1.48712 6.81759
2.76988 1.48712 6.7925
2.75455 1.50245 6.93057
2.76987 1.48713 6.94312
2.75455 1.50245 6.9557
2.72393 1.53307 6.90547
2.72392 1.53308 6.93059
2.70861 1.54839 6.91803
2.75456 1.50244 6.90545
2.73924 1.51776 6.8929
2.75456 1.50244 6.88035
2.75456 1.50244 6.88035
2.76987 1.48713 6.89289
2.75456 1.50244 6.90545
2.73924 1.51776 6.8929
2.73925 1.51775 6.8678
2.75456 1.50244 6.88035
2.75456 1.50244 6.88035
2.73925 1.51775 6.8678
2.75456 1.50244 6.85524
2.8005 1.4565 6.86778
2.8005 1.4565 6.89288
2.78519 1.47181 6.88034
2.78519 1.47181 6.88034
2.78519 1.47181 6.85524
2.8005 1.4565 6.86778
2.78519 1.47181 6.88034
2.8005 1.4565 6.89288
2.78519 1.47181 6.90544
2.78519 1.47181 6.90544
2.76987 1.48713 6.89289
2.78519 1.47181 6.88034
2.75454 1.50246 6.98083
2.73923 1.51777 6.96828
2.75455 1.50245 6.9557
2.75454 1.50246 6.98083
2.76986 1.48714 6.99338
2.75454 1.50246 7.00598
2.7086 1.5484 6.9683
2.72392 1.53308 6.95572
2.72392 1.53308 6.98086
2.72392 1.53308 6.98086
2.72392 1.53308 6.95572
2.73923 1.51777 6.96828
2.8005 1.4565 6.9431
2.78519 1.47181 6.93055
2.8005 1.4565 6.91799
2.75455 1.50245 6.9557
2.76987 1.48713 6.94312
2.76986 1.48714 6.96825
2.76986 1.48714 6.96825
2.75454 1.50246 6.98083
2.75455 1.50245 6.9557
2.76986 1.48714 6.99338
2.75454 1.50246 6.98083
2.76986 1.48714 6.96825
2.78517 1.47183 7.05621
2.76984 1.48716 7.06884
2.76985 1.48715 7.04368
2.76985 1.48715 7.04368
2.78517 1.47183 7.03107
2.78517 1.47183 7.05621
2.76985 1.48715 7.01853
2.78517 1.47183 7.03107
2.76985 1.48715 7.04368
2.73921 1.51779 7.06894
2.73921 1.51779 7.04375
2.75452 1.50248 7.0563
2.75452 1.50248 7.0563
2.75451 1.50249 7.08149
2.73921 1.51779 7.06894
2.76984 1.48716 7.06884
2.75451 1.50249 7.08149
2.75452 1.50248 7.0563
2.75452 1.50248 7.0563
2.76985 1.48715 7.04368
2.76984 1.48716 7.06884
2.7239 1.5331 7.05638
2.73921 1.51779 7.04375
2.73921 1.51779 7.06894
2.7239 1.5331 7.05638
2.70859 1.54841 7.06901
2.70859 1.54841 7.04381
2.76981 1.48719 7.14436
2.76982 1.48718 7.16952
2.75451 1.50249 7.15722
2.75451 1.50249 7.15722
2.76982 1.48718 7.16952
2.75455 1.50245 7.18263
2.7392 1.5178 7.09415
2.75451 1.50249 7.08149
2.75451 1.50249 7.10669
2.75451 1.50249 7.10669
2.7392 1.5178 7.11937
2.7392 1.5178 7.09415
2.67798 1.57902 6.94317
2.66266 1.59434 6.95575
2.66266 1.59434 6.93061
2.70859 1.54841 7.04381
2.70859 1.54841 7.01862
2.7239 1.5331 7.03119
2.7239 1.5331 7.03119
2.7239 1.5331 7.05638
2.70859 1.54841 7.04381
2.73921 1.51779 7.04375
2.7239 1.5331 7.05638
2.7239 1.5331 7.03119
2.73922 1.51778 7.01858
2.73921 1.51779 7.04375
2.7239 1.5331 7.03119
2.57068 1.68632 7.18276
2.57068 1.68632 7.20839
2.55533 1.70167 7.19491
2.55533 1.70167 7.19491
2.57068 1.68632 7.20839
2.55533 1.70167 7.2195
2.55533 1.70167 7.19491
2.55533 1.70167 7.2195
2.53996 1.71704 7.20838
2.53996 1.71704 7.20838
2.53996 1.71704 7.18275
2.55533 1.70167 7.19491
2.52458 1.73242 7.16985
2.53996 1.71704 7.18275
2.52458 1.73242 7.1949
2.50912 1.74788 6.80505
2.50912 1.74788 6.83015
2.49371 1.76329 6.8176
2.41633 1.84067 6.93056
2.40077 1.85623 6.918
2.41632 1.84068 6.90545
2.41635 1.84065 6.98083
2.40081 1.85619 6.99339
2.40079 1.85621 6.96825
2.33845 1.91855 7.14446
2.32275 1.93425 7.13185
2.33843 1.91857 7.11924
2.33845 1.91855 7.16966
2.32276 1.93424 7.15714
2.33845 1.91855 7.14446
2.40087 1.85613 7.09412
2.40088 1.85612 7.11934
2.38531 1.87169 7.10672
2.30693 1.95007 7.04358
2.32265 1.93435 7.03103
2.32267 1.93433 7.0562
2.30684 1.95016 6.94303
2.29108 1.96592 6.95556
2.29106 1.96594 6.93046
2.32274 1.93426 7.23441
2.33845 1.91855 7.2425
2.30701 1.94999 7.2425
2.33845 1.91855 7.21937
2.33845 1.91855 7.2425
2.32274 1.93426 7.23441
2.35411 1.90289 7.23447
2.33845 1.91855 7.2425
2.33845 1.91855 7.21937
2.30704 1.94996 7.16961
2.30703 1.94997 7.19469
2.29128 1.96572 7.18246
2.55533 1.70167 7.2425
2.52458 1.73242 7.2425
2.53996 1.71704 7.23472
2.53996 1.71704 7.20838
2.55533 1.70167 7.2195
2.53996 1.71704 7.23472
2.53996 1.71704 7.23472
2.55533 1.70167 7.2195
2.55533 1.70167 7.2425
2.52458 1.73242 7.21949
2.52458 1.73242 7.1949
2.53996 1.71704 7.20838
2.53996 1.71704 7.20838
2.53996 1.71704 7.23472
2.52458 1.73242 7.21949
2.52458 1.73242 7.21949
2.53996 1.71704 7.23472
2.52458 1.73242 7.2425
2.41642 1.84058 7.10676
2.40088 1.85612 7.11934
2.40087 1.85613 7.09412
2.47831 1.77869 7.0312
2.49374 1.76326 7.01862
2.49374 1.76326 7.0438
2.49374 1.76326 7.0438
2.47832 1.77868 7.05639
2.47831 1.77869 7.0312
2.47833 1.77867 7.0816
2.47832 1.77868 7.05639
2.49375 1.76325 7.069
2.47833 1.77867 7.0816
2.49375 1.76325 7.069
2.49376 1.76324 7.09421
2.49376 1.76324 7.09421
2.47834 1.77866 7.10682
2.47833 1.77867 7.0816
2.47833 1.77867 7.0816
2.47834 1.77866 7.10682
2.46289 1.79411 7.09419
2.49377 1.76323 7.11943
2.47834 1.77866 7.10682
2.49376 1.76324 7.09421
2.49377 1.76323 7.14464
2.47835 1.77865 7.15734
2.47834 1.77866 7.13206
2.47834 1.77866 7.13206
2.49377 1.76323 7.11943
2.49377 1.76323 7.14464
2.47834 1.77866 7.10682
2.49377 1.76323 7.11943
2.47834 1.77866 7.13206
2.7852 1.4718 6.37738
2.78544 1.47156 6.35116
2.8005 1.4565 6.36645
2.76997 1.48703 6.36573
2.78544 1.47156 6.35116
2.7852 1.4718 6.37738
2.64739 1.60961 6.36548
2.64738 1.60962 6.3425
2.66272 1.59428 6.35021
2.70875 1.54825 6.3425
2.6934 1.5636 6.35017
2.67805 1.57895 6.3425
2.67805 1.57895 6.3425
2.66272 1.59428 6.35021
2.64738 1.60962 6.3425
2.19638 2.06062 6.37897
2.1963 2.0607 6.35286
2.2122 2.0448 6.36645
2.2122 2.0448 6.36645
2.22771 2.02929 6.35101
2.22802 2.02898 6.37745
2.18073 2.07627 6.36782
2.1963 2.0607 6.35286
2.19638 2.06062 6.37897
2.18073 2.07627 6.36782
2.18123 2.07577 6.3425
2.1963 2.0607 6.35286
2.27543 1.98157 6.36567
2.27541 1.98159 6.3425
2.29123 1.96577 6.35063
2.30701 1.94999 6.3425
[...]
<PointData Scalars="View Factor" >
<DataArray type="Float64" Name="View Factor" NumberOfComponents="1" format="ascii">
8.07173e-06
8.07173e-06
8.07173e-06
8.4843e-06
8.4843e-06
8.4843e-06
8.34496e-06
8.34496e-06
8.34496e-06
7.65556e-06
7.65556e-06
7.65556e-06
7.76895e-06
7.76895e-06
7.76895e-06
7.966e-06
7.966e-06
7.966e-06
7.93645e-06
7.93645e-06
7.93645e-06
7.87249e-06
7.87249e-06
7.87249e-06
8.10774e-06
8.10774e-06
8.10774e-06
8.03957e-06
8.03957e-06
8.03957e-06
8.07782e-06
8.07782e-06
8.07782e-06
8.13942e-06
8.13942e-06
8.13942e-06
8.27683e-06
8.27683e-06
8.27683e-06
8.21124e-06
8.21124e-06
8.21124e-06
8.41851e-06
8.41851e-06
8.41851e-06
8.55413e-06
8.55413e-06
8.55413e-06
8.51983e-06
8.51983e-06
8.51983e-06
8.44981e-06
8.44981e-06
8.44981e-06
9.31524e-06
9.31524e-06
9.31524e-06
8.58749e-06
8.58749e-06
8.58749e-06
8.65812e-06
8.65812e-06
8.65812e-06
8.76229e-06
8.76229e-06
8.76229e-06
5.4543e-06
5.4543e-06
5.4543e-06
4.81306e-06
4.81306e-06
4.81306e-06
8.31235e-06
8.31235e-06
8.31235e-06
8.24342e-06
8.24342e-06
8.24342e-06
8.27882e-06
8.27882e-06
8.27882e-06
8.38283e-06
8.38283e-06
8.38283e-06
8.38598e-06
8.38598e-06
8.38598e-06
8.35032e-06
8.35032e-06
8.35032e-06
8.27278e-06
8.27278e-06
8.27278e-06
8.18101e-06
8.18101e-06
8.18101e-06
8.24708e-06
8.24708e-06
8.24708e-06
8.62328e-06
8.62328e-06
8.62328e-06
8.48574e-06
8.48574e-06
8.48574e-06
8.45193e-06
8.45193e-06
8.45193e-06
8.41683e-06
8.41683e-06
8.41683e-06
8.83481e-06
8.83481e-06
8.83481e-06
9.2385e-06
9.2385e-06
9.2385e-06
8.37144e-06
8.37144e-06
8.37144e-06
8.51896e-06
8.51896e-06
8.51896e-06
8.58861e-06
8.58861e-06
8.58861e-06
8.44654e-06
8.44654e-06
8.44654e-06
8.55249e-06
8.55249e-06
8.55249e-06
8.30932e-06
8.30932e-06
8.30932e-06
8.37908e-06
8.37908e-06
8.37908e-06
8.06054e-06
8.06054e-06
8.06054e-06
5.79006e-06
5.79006e-06
5.79006e-06
5.44113e-06
5.44113e-06
5.44113e-06
9.66772e-06
9.66772e-06
9.66772e-06
4.80635e-06
4.80635e-06
4.80635e-06
4.80506e-06
4.80506e-06
4.80506e-06
4.83207e-06
4.83207e-06
4.83207e-06
8.86249e-06
8.86249e-06
8.86249e-06
8.97925e-06
8.97925e-06
8.97925e-06
8.90667e-06
8.90667e-06
8.90667e-06
8.64543e-06
8.64543e-06
8.64543e-06
8.68286e-06
8.68286e-06
8.68286e-06
8.75891e-06
8.75891e-06
8.75891e-06
8.40343e-06
8.40343e-06
8.40343e-06
8.00441e-06
8.00441e-06
8.00441e-06
8.36293e-06
8.36293e-06
8.36293e-06
8.47177e-06
8.47177e-06
8.47177e-06
8.32495e-06
8.32495e-06
8.32495e-06
8.3969e-06
8.3969e-06
8.3969e-06
8.87066e-06
8.87066e-06
8.87066e-06
8.83445e-06
8.83445e-06
8.83445e-06
8.79829e-06
8.79829e-06
8.79829e-06
8.68945e-06
8.68945e-06
8.68945e-06
8.26239e-06
8.26239e-06
8.26239e-06
8.33525e-06
8.33525e-06
8.33525e-06
7.93902e-06
7.93902e-06
7.93902e-06
8.04652e-06
8.04652e-06
8.04652e-06
8.79913e-06
8.79913e-06
8.79913e-06
8.44075e-06
8.44075e-06
8.44075e-06
8.36991e-06
8.36991e-06
8.36991e-06
8.40667e-06
8.40667e-06
8.40667e-06
8.41054e-06
8.41054e-06
8.41054e-06
8.48115e-06
8.48115e-06
8.48115e-06
8.44546e-06
8.44546e-06
8.44546e-06
8.09235e-06
8.09235e-06
8.09235e-06
8.12891e-06
8.12891e-06
8.12891e-06
8.23475e-06
8.23475e-06
8.23475e-06
8.30445e-06
8.30445e-06
8.30445e-06
7.98637e-06
7.98637e-06
7.98637e-06
7.77524e-06
7.77524e-06
7.77524e-06
8.17237e-06
8.17237e-06
8.17237e-06
8.10305e-06
8.10305e-06
8.10305e-06
8.09655e-06
8.09655e-06
8.09655e-06
8.02765e-06
8.02765e-06
8.02765e-06
7.43205e-06
7.43205e-06
7.43205e-06
7.80634e-06
7.80634e-06
7.80634e-06
7.84406e-06
7.84406e-06
7.84406e-06
7.95024e-06
7.95024e-06
7.95024e-06
8.01955e-06
8.01955e-06
8.01955e-06
6.10183e-06
6.10183e-06
6.10183e-06
6.03752e-06
6.03752e-06
6.03752e-06
5.93392e-06
5.93392e-06
5.93392e-06
5.89389e-06
5.89389e-06
5.89389e-06
5.75044e-06
5.75044e-06
5.75044e-06
5.81989e-06
5.81989e-06
5.81989e-06
4.88316e-06
4.88316e-06
4.88316e-06
4.83985e-06
4.83985e-06
4.83985e-06
4.80859e-06
4.80859e-06
4.80859e-06
4.7893e-06
4.7893e-06
4.7893e-06
4.75507e-06
4.75507e-06
4.75507e-06
4.89542e-06
4.89542e-06
4.89542e-06
5.00102e-06
5.00102e-06
5.00102e-06
4.73833e-06
4.73833e-06
4.73833e-06
4.73208e-06
4.73208e-06
4.73208e-06
4.71999e-06
4.71999e-06
4.71999e-06
4.80691e-06
4.80691e-06
4.80691e-06
5.80168e-06
5.80168e-06
5.80168e-06
5.86973e-06
5.86973e-06
5.86973e-06
5.91102e-06
5.91102e-06
5.91102e-06
5.72664e-06
5.72664e-06
5.72664e-06
5.76631e-06
5.76631e-06
5.76631e-06
5.70455e-06
5.70455e-06
5.70455e-06
4.74324e-06
4.74324e-06
4.74324e-06
5.46273e-06
5.46273e-06
5.46273e-06
5.39899e-06
5.39899e-06
5.39899e-06
5.37736e-06
5.37736e-06
5.37736e-06
5.4196e-06
5.4196e-06
5.4196e-06
5.35553e-06
5.35553e-06
5.35553e-06
5.24964e-06
5.24964e-06
5.24964e-06
5.39733e-06
5.39733e-06
5.39733e-06
5.31243e-06
5.31243e-06
5.31243e-06
5.37598e-06
5.37598e-06
5.37598e-06
5.33381e-06
5.33381e-06
5.33381e-06
9.58948e-06
9.58948e-06
9.58948e-06
9.4716e-06
9.4716e-06
9.4716e-06
8.00387e-06
8.00387e-06
8.00387e-06
8.49102e-06
8.49102e-06
8.49102e-06
8.13216e-06
8.13216e-06
8.13216e-06
5.62252e-06
5.62252e-06
5.62252e-06
5.59392e-06
5.59392e-06
5.59392e-06
5.63701e-06
5.63701e-06
5.63701e-06
5.65549e-06
5.65549e-06
5.65549e-06
5.5249e-06
5.5249e-06
5.5249e-06
5.47529e-06
5.47529e-06
5.47529e-06
5.51686e-06
5.51686e-06
5.51686e-06
5.49657e-06
5.49657e-06
5.49657e-06
5.4781e-06
5.4781e-06
5.4781e-06
4.75674e-06
4.75674e-06
4.75674e-06
4.80336e-06
4.80336e-06
4.80336e-06
4.78779e-06
4.78779e-06
4.78779e-06
5.03046e-06
5.03046e-06
5.03046e-06
5.01404e-06
5.01404e-06
5.01404e-06
4.88107e-06
4.88107e-06
4.88107e-06
9.27695e-06
9.27695e-06
9.27695e-06
9.05256e-06
9.05256e-06
9.05256e-06
8.78999e-06
8.78999e-06
8.78999e-06
8.71611e-06
8.71611e-06
8.71611e-06
8.82592e-06
8.82592e-06
8.82592e-06
8.75172e-06
8.75172e-06
8.75172e-06
8.63928e-06
8.63928e-06
8.63928e-06
8.60017e-06
8.60017e-06
8.60017e-06
8.67507e-06
8.67507e-06
8.67507e-06
8.78795e-06
8.78795e-06
8.78795e-06
6.81478e-06
6.81478e-06
6.81478e-06
6.74294e-06
6.74294e-06
6.74294e-06
6.70308e-06
6.70308e-06
6.70308e-06
8.63538e-06
8.63538e-06
8.63538e-06
9.27711e-06
9.27711e-06
9.27711e-06
7.3542e-06
7.3542e-06
7.3542e-06
7.1371e-06
7.1371e-06
7.1371e-06
7.78766e-06
7.78766e-06
7.78766e-06
7.26483e-06
7.26483e-06
7.26483e-06
7.62414e-06
7.62414e-06
7.62414e-06
7.58379e-06
7.58379e-06
7.58379e-06
7.47365e-06
7.47365e-06
7.47365e-06
7.40354e-06
7.40354e-06
7.40354e-06
8.53438e-06
8.53438e-06
8.53438e-06
9.01581e-06
9.01581e-06
9.01581e-06
8.9422e-06
8.9422e-06
8.9422e-06
8.83158e-06
8.83158e-06
8.83158e-06
8.79368e-06
8.79368e-06
8.79368e-06
8.86756e-06
8.86756e-06
8.86756e-06
8.97862e-06
8.97862e-06
8.97862e-06
6.77123e-06
6.77123e-06
6.77123e-06
6.84068e-06
6.84068e-06
6.84068e-06
7.4639e-06
7.4639e-06
7.4639e-06
7.50442e-06
7.50442e-06
7.50442e-06
7.4344e-06
7.4344e-06
7.4344e-06
7.32402e-06
7.32402e-06
7.32402e-06
6.86852e-06
6.86852e-06
6.86852e-06
6.82614e-06
6.82614e-06
6.82614e-06
6.68854e-06
6.68854e-06
6.68854e-06
6.79947e-06
6.79947e-06
6.79947e-06
7.35308e-06
7.35308e-06
7.35308e-06
7.28323e-06
7.28323e-06
7.28323e-06
8.58231e-06
8.58231e-06
8.58231e-06
8.47411e-06
8.47411e-06
8.47411e-06
8.43709e-06
8.43709e-06
8.43709e-06
8.6539e-06
8.6539e-06
8.6539e-06
8.61756e-06
8.61756e-06
8.61756e-06
8.50893e-06
8.50893e-06
8.50893e-06
8.11278e-06
8.11278e-06
8.11278e-06
8.32871e-06
8.32871e-06
8.32871e-06
8.29213e-06
8.29213e-06
8.29213e-06
8.18353e-06
8.18353e-06
8.18353e-06
7.85104e-06
7.85104e-06
7.85104e-06
8.03035e-06
8.03035e-06
8.03035e-06
7.92089e-06
7.92089e-06
7.92089e-06
8.72518e-06
8.72518e-06
8.72518e-06
8.57862e-06
8.57862e-06
8.57862e-06
8.68813e-06
8.68813e-06
8.68813e-06
8.50617e-06
8.50617e-06
8.50617e-06
8.54348e-06
8.54348e-06
8.54348e-06
8.65253e-06
8.65253e-06
8.65253e-06
8.22442e-06
8.22442e-06
8.22442e-06
8.11668e-06
8.11668e-06
8.11668e-06
8.07957e-06
8.07957e-06
8.07957e-06
8.29549e-06
8.29549e-06
8.29549e-06
8.15044e-06
8.15044e-06
8.15044e-06
8.25863e-06
8.25863e-06
8.25863e-06
7.97164e-06
7.97164e-06
7.97164e-06
7.93373e-06
7.93373e-06
7.93373e-06
7.82558e-06
7.82558e-06
7.82558e-06
7.90126e-06
7.90126e-06
7.90126e-06
8.1916e-06
8.1916e-06
8.1916e-06
8.0843e-06
8.0843e-06
8.0843e-06
8.22817e-06
8.22817e-06
8.22817e-06
8.15811e-06
8.15811e-06
8.15811e-06
7.87016e-06
7.87016e-06
7.87016e-06
8.62026e-06
8.62026e-06
8.62026e-06
8.72826e-06
8.72826e-06
8.72826e-06
8.76364e-06
8.76364e-06
8.76364e-06
8.54851e-06
8.54851e-06
8.54851e-06
8.69312e-06
8.69312e-06
8.69312e-06
8.47836e-06
8.47836e-06
8.47836e-06
8.62222e-06
8.62222e-06
8.62222e-06
8.51547e-06
8.51547e-06
8.51547e-06
8.72828e-06
8.72828e-06
8.72828e-06
8.69126e-06
8.69126e-06
8.69126e-06
8.58371e-06
8.58371e-06
8.58371e-06
8.51403e-06
8.51403e-06
8.51403e-06
8.55041e-06
8.55041e-06
8.55041e-06
8.65754e-06
8.65754e-06
8.65754e-06
8.12599e-06
8.12599e-06
8.12599e-06
8.33895e-06
8.33895e-06
8.33895e-06
8.16227e-06
8.16227e-06
8.16227e-06
8.26854e-06
8.26854e-06
8.26854e-06
8.19578e-06
8.19578e-06
8.19578e-06
8.30248e-06
8.30248e-06
8.30248e-06
7.95496e-06
7.95496e-06
7.95496e-06
7.91736e-06
7.91736e-06
7.91736e-06
7.81163e-06
7.81163e-06
7.81163e-06
8.20444e-06
8.20444e-06
8.20444e-06
7.99578e-06
7.99578e-06
7.99578e-06
8.16931e-06
8.16931e-06
8.16931e-06
8.06434e-06
8.06434e-06
8.06434e-06
8.13647e-06
8.13647e-06
8.13647e-06
8.03193e-06
8.03193e-06
8.03193e-06
7.90105e-06
7.90105e-06
7.90105e-06
7.96816e-06
7.96816e-06
7.96816e-06
7.72998e-06
7.72998e-06
7.72998e-06
7.79769e-06
7.79769e-06
7.79769e-06
7.76064e-06
7.76064e-06
7.76064e-06
7.96295e-06
7.96295e-06
7.96295e-06
7.82768e-06
7.82768e-06
7.82768e-06
7.999e-06
7.999e-06
7.999e-06
7.93142e-06
7.93142e-06
7.93142e-06
8.20194e-06
8.20194e-06
8.20194e-06
8.41339e-06
8.41339e-06
8.41339e-06
8.34333e-06
8.34333e-06
8.34333e-06
8.23802e-06
8.23802e-06
8.23802e-06
8.37751e-06
8.37751e-06
8.37751e-06
8.2718e-06
8.2718e-06
8.2718e-06
6.7035e-06
6.7035e-06
6.7035e-06
6.66307e-06
6.66307e-06
6.66307e-06
7.0287e-06
7.0287e-06
7.0287e-06
6.81191e-06
6.81191e-06
6.81191e-06
7.47088e-06
7.47088e-06
7.47088e-06
6.11094e-06
6.11094e-06
6.11094e-06
6.01423e-06
6.01423e-06
6.01423e-06
6.07649e-06
6.07649e-06
6.07649e-06
5.75231e-06
5.75231e-06
5.75231e-06
5.93043e-06
5.93043e-06
5.93043e-06
6.61927e-06
6.61927e-06
6.61927e-06
6.66076e-06
6.66076e-06
6.66076e-06
4.8991e-06
4.8991e-06
4.8991e-06
4.86888e-06
4.86888e-06
4.86888e-06
4.87883e-06
4.87883e-06
4.87883e-06
4.98446e-06
4.98446e-06
4.98446e-06
4.99362e-06
4.99362e-06
4.99362e-06
4.9971e-06
4.9971e-06
4.9971e-06
4.8242e-06
4.8242e-06
4.8242e-06
4.78527e-06
4.78527e-06
4.78527e-06
4.79761e-06
4.79761e-06
4.79761e-06
4.79449e-06
4.79449e-06
4.79449e-06
4.79632e-06
4.79632e-06
4.79632e-06
4.79936e-06
4.79936e-06
4.79936e-06
4.77178e-06
4.77178e-06
4.77178e-06
4.7872e-06
4.7872e-06
4.7872e-06
4.82978e-06
4.82978e-06
4.82978e-06
4.81762e-06
4.81762e-06
4.81762e-06
4.85437e-06
4.85437e-06
4.85437e-06
4.86678e-06
4.86678e-06
4.86678e-06
4.88284e-06
4.88284e-06
4.88284e-06
4.85661e-06
4.85661e-06
4.85661e-06
4.77895e-06
4.77895e-06
4.77895e-06
4.79104e-06
4.79104e-06
4.79104e-06
4.91162e-06
4.91162e-06
4.91162e-06
4.91519e-06
4.91519e-06
4.91519e-06
4.92235e-06
4.92235e-06
4.92235e-06
5.00462e-06
5.00462e-06
5.00462e-06
4.70325e-06
4.70325e-06
4.70325e-06
4.66741e-06
4.66741e-06
4.66741e-06
4.81744e-06
4.81744e-06
4.81744e-06
4.81374e-06
4.81374e-06
4.81374e-06
5.4907e-06
5.4907e-06
5.4907e-06
5.60124e-06
5.60124e-06
5.60124e-06
5.35643e-06
5.35643e-06
5.35643e-06
5.29115e-06
5.29115e-06
5.29115e-06
5.59234e-06
5.59234e-06
5.59234e-06
4.93781e-06
4.93781e-06
4.93781e-06
5.20737e-06
5.20737e-06
5.20737e-06
5.27101e-06
5.27101e-06
5.27101e-06
5.2074e-06
5.2074e-06
5.2074e-06
4.9977e-06
4.9977e-06
4.9977e-06
9.56469e-06
9.56469e-06
9.56469e-06
9.43314e-06
9.43314e-06
9.43314e-06
8.88045e-06
8.88045e-06
8.88045e-06
8.95608e-06
8.95608e-06
8.95608e-06
8.84916e-06
8.84916e-06
8.84916e-06
5.58285e-06
5.58285e-06
5.58285e-06
5.57941e-06
5.57941e-06
5.57941e-06
5.5611e-06
5.5611e-06
5.5611e-06
5.56819e-06
5.56819e-06
5.56819e-06
5.55055e-06
5.55055e-06
5.55055e-06
5.53933e-06
5.53933e-06
5.53933e-06
5.53605e-06
5.53605e-06
5.53605e-06
5.51652e-06
5.51652e-06
5.51652e-06
5.58881e-06
5.58881e-06
5.58881e-06
5.59902e-06
5.59902e-06
5.59902e-06
5.60319e-06
5.60319e-06
5.60319e-06
5.62653e-06
5.62653e-06
5.62653e-06
5.61231e-06
5.61231e-06
5.61231e-06
5.6486e-06
5.6486e-06
5.6486e-06
5.60494e-06
5.60494e-06
5.60494e-06
5.39421e-06
5.39421e-06
5.39421e-06
5.1945e-06
5.1945e-06
5.1945e-06
5.35799e-06
5.35799e-06
5.35799e-06
5.35337e-06
5.35337e-06
5.35337e-06
5.3751e-06
5.3751e-06
5.3751e-06
5.357e-06
5.357e-06
5.357e-06
5.34627e-06
5.34627e-06
5.34627e-06
5.34261e-06
5.34261e-06
5.34261e-06
5.46307e-06
5.46307e-06
5.46307e-06
5.35417e-06
5.35417e-06
5.35417e-06
5.2498e-06
5.2498e-06
5.2498e-06
5.22569e-06
5.22569e-06
5.22569e-06
5.20823e-06
5.20823e-06
5.20823e-06
5.42419e-06
5.42419e-06
5.42419e-06
5.40996e-06
5.40996e-06
5.40996e-06
5.45288e-06
5.45288e-06
5.45288e-06
5.46735e-06
5.46735e-06
5.46735e-06
5.4635e-06
5.4635e-06
5.4635e-06
5.3377e-06
5.3377e-06
5.3377e-06
5.50759e-06
5.50759e-06
5.50759e-06
5.52995e-06
5.52995e-06
5.52995e-06
5.51134e-06
5.51134e-06
5.51134e-06
5.04829e-06
5.04829e-06
5.04829e-06
5.03179e-06
5.03179e-06
5.03179e-06
5.0672e-06
5.0672e-06
5.0672e-06
4.99875e-06
4.99875e-06
4.99875e-06
5.00271e-06
5.00271e-06
5.00271e-06
5.01933e-06
5.01933e-06
5.01933e-06
5.2654e-06
5.2654e-06
5.2654e-06
5.17557e-06
5.17557e-06
5.17557e-06
5.13467e-06
5.13467e-06
5.13467e-06
5.13822e-06
5.13822e-06
5.13822e-06
4.74703e-06
4.74703e-06
4.74703e-06
4.75926e-06
4.75926e-06
4.75926e-06
4.77541e-06
4.77541e-06
4.77541e-06
4.7788e-06
4.7788e-06
4.7788e-06
4.76908e-06
4.76908e-06
4.76908e-06
4.78374e-06
4.78374e-06
4.78374e-06
4.77604e-06
4.77604e-06
4.77604e-06
4.79374e-06
4.79374e-06
4.79374e-06
4.79622e-06
4.79622e-06
4.79622e-06
5.20422e-06
5.20422e-06
5.20422e-06
5.18334e-06
5.18334e-06
5.18334e-06
5.18676e-06
5.18676e-06
5.18676e-06
5.01047e-06
5.01047e-06
5.01047e-06
5.0029e-06
5.0029e-06
5.0029e-06
5.01957e-06
5.01957e-06
5.01957e-06
5.0236e-06
5.0236e-06
5.0236e-06
5.04986e-06
5.04986e-06
5.04986e-06
5.02957e-06
5.02957e-06
5.02957e-06
5.03281e-06
5.03281e-06
5.03281e-06
5.04291e-06
5.04291e-06
5.04291e-06
4.88457e-06
4.88457e-06
4.88457e-06
4.89187e-06
4.89187e-06
4.89187e-06
4.95955e-06
4.95955e-06
4.95955e-06
4.96252e-06
4.96252e-06
4.96252e-06
4.8938e-06
4.8938e-06
4.8938e-06
4.84501e-06
4.84501e-06
4.84501e-06
4.85206e-06
4.85206e-06
4.85206e-06
4.871e-06
4.871e-06
4.871e-06
4.81588e-06
4.81588e-06
4.81588e-06
4.81279e-06
4.81279e-06
4.81279e-06
4.82145e-06
4.82145e-06
4.82145e-06
4.83419e-06
4.83419e-06
4.83419e-06
4.82543e-06
4.82543e-06
4.82543e-06
4.84167e-06
4.84167e-06
4.84167e-06
8.7616e-06
8.7616e-06
8.7616e-06
8.71859e-06
8.71859e-06
8.71859e-06
8.59941e-06
8.59941e-06
8.59941e-06
8.52347e-06
8.52347e-06
8.52347e-06
8.24176e-06
8.24176e-06
8.24176e-06
8.3608e-06
8.3608e-06
8.3608e-06
8.40464e-06
8.40464e-06
8.40464e-06
6.89524e-06
6.89524e-06
6.89524e-06
9.39143e-06
9.39143e-06
9.39143e-06
9.27371e-06
9.27371e-06
9.27371e-06
8.91971e-06
8.91971e-06
8.91971e-06
9.03785e-06
9.03785e-06
9.03785e-06
8.7538e-06
8.7538e-06
8.7538e-06
8.68069e-06
8.68069e-06
8.68069e-06
8.71913e-06
8.71913e-06
8.71913e-06
8.83041e-06
8.83041e-06
8.83041e-06
9.12662e-06
9.12662e-06
9.12662e-06
8.9022e-06
8.9022e-06
8.9022e-06
8.60414e-06
8.60414e-06
8.60414e-06
8.38064e-06
8.38064e-06
8.38064e-06
8.45383e-06
8.45383e-06
8.45383e-06
8.56603e-06
8.56603e-06
8.56603e-06
6.07082e-06
6.07082e-06
6.07082e-06
6.20876e-06
6.20876e-06
6.20876e-06
6.33691e-06
6.33691e-06
6.33691e-06
6.15199e-06
6.15199e-06
6.15199e-06
6.03729e-06
6.03729e-06
6.03729e-06
5.99223e-06
5.99223e-06
5.99223e-06
6.22209e-06
6.22209e-06
6.22209e-06
6.06219e-06
6.06219e-06
6.06219e-06
6.17735e-06
6.17735e-06
6.17735e-06
6.19687e-06
6.19687e-06
6.19687e-06
5.96764e-06
5.96764e-06
5.96764e-06
5.82909e-06
5.82909e-06
5.82909e-06
5.27199e-06
5.27199e-06
5.27199e-06
5.87721e-06
5.87721e-06
5.87721e-06
5.38941e-06
5.38941e-06
5.38941e-06
7.15268e-06
7.15268e-06
7.15268e-06
6.27715e-06
6.27715e-06
6.27715e-06
6.23351e-06
6.23351e-06
6.23351e-06
6.51308e-06
6.51308e-06
6.51308e-06
6.69673e-06
6.69673e-06
6.69673e-06
6.62684e-06
6.62684e-06
6.62684e-06
6.78754e-06
6.78754e-06
6.78754e-06
7.88492e-06
7.88492e-06
7.88492e-06
7.49852e-06
7.49852e-06
7.49852e-06
7.45554e-06
7.45554e-06
7.45554e-06
7.33681e-06
7.33681e-06
7.33681e-06
7.29035e-06
7.29035e-06
7.29035e-06
6.40748e-06
6.40748e-06
6.40748e-06
6.77987e-06
6.77987e-06
6.77987e-06
6.54939e-06
6.54939e-06
6.54939e-06
8.82349e-06
8.82349e-06
8.82349e-06
8.71016e-06
8.71016e-06
8.71016e-06
7.12306e-06
7.12306e-06
7.12306e-06
7.35019e-06
7.35019e-06
7.35019e-06
7.30882e-06
7.30882e-06
7.30882e-06
7.1952e-06
7.1952e-06
7.1952e-06
7.58689e-06
7.58689e-06
7.58689e-06
7.18969e-06
7.18969e-06
7.18969e-06
7.53539e-06
7.53539e-06
7.53539e-06
9.20212e-06
9.20212e-06
9.20212e-06
9.2392e-06
9.2392e-06
9.2392e-06
9.20146e-06
9.20146e-06
9.20146e-06
8.97564e-06
8.97564e-06
8.97564e-06
9.04931e-06
9.04931e-06
9.04931e-06
9.16268e-06
9.16268e-06
9.16268e-06
9.16395e-06
9.16395e-06
9.16395e-06
9.08903e-06
9.08903e-06
9.08903e-06
8.97659e-06
8.97659e-06
8.97659e-06
8.93859e-06
8.93859e-06
8.93859e-06
9.01378e-06
9.01378e-06
9.01378e-06
9.12668e-06
9.12668e-06
9.12668e-06
8.86943e-06
8.86943e-06
8.86943e-06
8.75972e-06
8.75972e-06
8.75972e-06
8.72254e-06
8.72254e-06
8.72254e-06
8.94288e-06
8.94288e-06
8.94288e-06
8.79579e-06
8.79579e-06
8.79579e-06
8.90595e-06
8.90595e-06
8.90595e-06
7.38329e-06
7.38329e-06
7.38329e-06
7.20586e-06
7.20586e-06
7.20586e-06
7.31444e-06
7.31444e-06
7.31444e-06
7.34374e-06
7.34374e-06
7.34374e-06
7.6793e-06
7.6793e-06
7.6793e-06
7.46258e-06
7.46258e-06
7.46258e-06
7.50156e-06
7.50156e-06
7.50156e-06
7.60969e-06
7.60969e-06
7.60969e-06
7.4921e-06
7.4921e-06
7.4921e-06
7.53161e-06
7.53161e-06
7.53161e-06
7.64019e-06
7.64019e-06
7.64019e-06
7.70968e-06
7.70968e-06
7.70968e-06
7.9539e-06
7.9539e-06
7.9539e-06
7.73407e-06
7.73407e-06
7.73407e-06
7.88252e-06
7.88252e-06
7.88252e-06
7.77285e-06
7.77285e-06
7.77285e-06
8.10234e-06
8.10234e-06
8.10234e-06
8.06383e-06
8.06383e-06
8.06383e-06
7.61504e-06
7.61504e-06
7.61504e-06
7.65477e-06
7.65477e-06
7.65477e-06
7.37432e-06
7.37432e-06
7.37432e-06
7.41365e-06
7.41365e-06
7.41365e-06
7.55384e-06
7.55384e-06
7.55384e-06
7.44414e-06
7.44414e-06
7.44414e-06
8.26869e-06
8.26869e-06
8.26869e-06
8.196e-06
8.196e-06
8.196e-06
8.01836e-06
8.01836e-06
8.01836e-06
8.49611e-06
8.49611e-06
8.49611e-06
8.56917e-06
8.56917e-06
8.56917e-06
8.41904e-06
8.41904e-06
8.41904e-06
8.53077e-06
8.53077e-06
8.53077e-06
7.16605e-06
7.16605e-06
7.16605e-06
7.23472e-06
7.23472e-06
7.23472e-06
7.19549e-06
7.19549e-06
7.19549e-06
7.08623e-06
7.08623e-06
7.08623e-06
7.01664e-06
7.01664e-06
7.01664e-06
7.05721e-06
7.05721e-06
7.05721e-06
6.98828e-06
6.98828e-06
6.98828e-06
6.87966e-06
6.87966e-06
6.87966e-06
7.22399e-06
7.22399e-06
7.22399e-06
7.29362e-06
7.29362e-06
7.29362e-06
7.25408e-06
7.25408e-06
7.25408e-06
7.14392e-06
7.14392e-06
7.14392e-06
6.81295e-06
6.81295e-06
6.81295e-06
6.92318e-06
6.92318e-06
6.92318e-06
7.31251e-06
7.31251e-06
7.31251e-06
7.23155e-06
7.23155e-06
7.23155e-06
6.95134e-06
6.95134e-06
6.95134e-06
7.17262e-06
7.17262e-06
7.17262e-06
6.99245e-06
6.99245e-06
6.99245e-06
7.10288e-06
7.10288e-06
7.10288e-06
7.10754e-06
7.10754e-06
7.10754e-06
6.25162e-06
6.25162e-06
6.25162e-06
6.18289e-06
6.18289e-06
6.18289e-06
6.71476e-06
6.71476e-06
6.71476e-06
6.64623e-06
6.64623e-06
6.64623e-06
7.88966e-06
7.88966e-06
7.88966e-06
7.81847e-06
7.81847e-06
7.81847e-06
7.96594e-06
7.96594e-06
7.96594e-06
7.85733e-06
7.85733e-06
7.85733e-06
8.17796e-06
8.17796e-06
8.17796e-06
8.06871e-06
8.06871e-06
8.06871e-06
8.21591e-06
8.21591e-06
8.21591e-06
7.99869e-06
7.99869e-06
7.99869e-06
8.1453e-06
8.1453e-06
8.1453e-06
8.0365e-06
8.0365e-06
8.0365e-06
7.73114e-06
7.73114e-06
7.73114e-06
8.01525e-06
8.01525e-06
8.01525e-06
7.90818e-06
7.90818e-06
7.90818e-06
8.05126e-06
8.05126e-06
8.05126e-06
7.83796e-06
7.83796e-06
7.83796e-06
7.98125e-06