<VTKFile type="UnstructuredGrid" version="1.0">
<UnstructuredGrid>
<Piece NumberOfPoints="8859" NumberOfCells="2953">
<Points>
<DataArray type="Float64" NumberOfComponents="3" format="ascii">
3.01 0.5 3.04
3.01 0.487476 3.0625
3.01 0.512524 3.0625
3.01 0.17352 2.1625
3.01 0.148445 2.1625
3.01 0.160827 2.18422
3.01 0.122979 2.20589
3.01 0.135644 2.18422
3.01 0.110383 2.18421
3.01 0.135644 2.18422
3.01 0.123433 2.1625
3.01 0.110383 2.18421
3.01 0.123433 2.1625
3.01 0.135644 2.18422
3.01 0.148445 2.1625
3.01 0.135644 2.18422
3.01 0.160827 2.18422
3.01 0.148445 2.1625
3.01 0.17352 2.1625
3.01 0.185985 2.1842
3.01 0.198629 2.1625
3.01 0.185985 2.1842
3.01 0.17352 2.1625
3.01 0.160827 2.18422
3.01 0.0732297 2.20567
3.01 0.0848754 2.18414
3.01 0.0586606 2.18381
3.01 0.05 2.99527
3.01 0.058509 2.97256
3.01 0.05 2.9501
3.01 0.324276 2.1625
3.01 0.336827 2.18416
3.01 0.349395 2.1625
3.01 0.148138 2.2059
3.01 0.160827 2.18422
3.01 0.135644 2.18422
3.01 0.122979 2.20589
3.01 0.148138 2.2059
3.01 0.135644 2.18422
3.01 0.160827 2.18422
3.01 0.173316 2.20589
3.01 0.185985 2.1842
3.01 0.185806 2.22755
3.01 0.173316 2.20589
3.01 0.160572 2.22755
3.01 0.173316 2.20589
3.01 0.160827 2.18422
3.01 0.148138 2.2059
3.01 0.160572 2.22755
3.01 0.173316 2.20589
3.01 0.148138 2.2059
3.01 0.211137 2.18419
3.01 0.198629 2.1625
3.01 0.185985 2.1842
3.01 0.0979162 2.20584
3.01 0.122979 2.20589
3.01 0.110383 2.18421
3.01 0.122979 2.20589
3.01 0.0979162 2.20584
3.01 0.109875 2.22749
3.01 0.0732297 2.20567
3.01 0.0979162 2.20584
3.01 0.0848754 2.18414
3.01 0.0979162 2.20584
3.01 0.110383 2.18421
3.01 0.0848754 2.18414
3.01 0.0975729 2.24904
3.01 0.122678 2.24914
3.01 0.109875 2.22749
3.01 0.0841718 2.22735
3.01 0.0732297 2.20567
3.01 0.0577122 2.22702
3.01 0.0729308 2.24888
3.01 0.0841718 2.22735
3.01 0.0577122 2.22702
3.01 0.0732297 2.20567
3.01 0.0841718 2.22735
3.01 0.0979162 2.20584
3.01 0.0841718 2.22735
3.01 0.109875 2.22749
3.01 0.0979162 2.20584
3.01 0.0975729 2.24904
3.01 0.0841718 2.22735
3.01 0.0729308 2.24888
3.01 0.0841718 2.22735
3.01 0.0975729 2.24904
3.01 0.109875 2.22749
3.01 0.073948 2.1625
3.01 0.05 2.1625
3.01 0.0586606 2.18381
3.01 0.073948 2.1625
3.01 0.0586606 2.18381
3.01 0.0848754 2.18414
3.01 0.05 3.03829
3.01 0.0603641 3.01697
3.01 0.05 2.99527
3.01 0.0603641 3.01697
3.01 0.05 3.03829
3.01 0.0753197 3.03899
3.01 0.0709395 3.0625
3.01 0.05 3.03829
3.01 0.05 3.0625
3.01 0.05 3.03829
3.01 0.0709395 3.0625
3.01 0.0753197 3.03899
3.01 0.0579641 2.74963
3.01 0.05 2.72761
3.01 0.05 2.77169
3.01 0.0841948 2.6618
3.01 0.109814 2.6618
3.01 0.097638 2.63993
3.01 0.0841948 2.6618
3.01 0.0578646 2.6618
3.01 0.0730539 2.6837
3.01 0.0580261 2.7938
3.01 0.05 2.77169
3.01 0.05 2.81595
3.01 0.942292 2.35736
3.01 0.95 2.37904
3.01 0.95 2.33567
3.01 0.95 2.29226
3.01 0.942332 2.31397
3.01 0.95 2.33567
3.01 0.73872 2.57453
3.01 0.75132 2.55275
3.01 0.726137 2.55276
3.01 0.751305 2.59632
3.01 0.73872 2.57453
3.01 0.726124 2.59633
3.01 0.713546 2.57454
3.01 0.73872 2.57453
3.01 0.726137 2.55276
3.01 0.73872 2.57453
3.01 0.713546 2.57454
3.01 0.726124 2.59633
3.01 0.814318 2.61811
3.01 0.801709 2.5963
3.01 0.789096 2.61812
3.01 0.7765 2.59631
3.01 0.801709 2.5963
3.01 0.789115 2.57451
3.01 0.801709 2.5963
3.01 0.7765 2.59631
3.01 0.789096 2.61812
3.01 0.7765 2.59631
3.01 0.763892 2.61814
3.01 0.789096 2.61812
3.01 0.763892 2.61814
3.01 0.7765 2.59631
3.01 0.751305 2.59632
3.01 0.95 3.0625
3.01 0.95 3.03829
3.01 0.929061 3.0625
3.01 0.95 2.8604
3.01 0.941913 2.83815
3.01 0.926844 2.8604
3.01 0.941913 2.83815
3.01 0.95 2.8604
3.01 0.95 2.81595
3.01 0.926866 2.81594
3.01 0.941913 2.83815
3.01 0.95 2.81595
3.01 0.941974 2.7938
3.01 0.926866 2.81594
3.01 0.95 2.81595
3.01 0.95 2.77169
3.01 0.941974 2.7938
3.01 0.95 2.81595
3.01 0.941974 2.7938
3.01 0.95 2.77169
3.01 0.926895 2.77169
3.01 0.6127 3.0625
3.01 0.637734 3.0625
3.01 0.625238 3.03998
3.01 0.662757 3.0625
3.01 0.650275 3.03997
3.01 0.637734 3.0625
3.01 0.650275 3.03997
3.01 0.625238 3.03998
3.01 0.637734 3.0625
3.01 0.600415 2.59637
3.01 0.575304 2.59637
3.01 0.587856 2.6182
3.01 0.575304 2.59637
3.01 0.562749 2.6182
3.01 0.587856 2.6182
3.01 0.336827 2.18416
3.01 0.361946 2.18416
3.01 0.349395 2.1625
3.01 0.223755 2.1625
3.01 0.198629 2.1625
3.01 0.211137 2.18419
3.01 0.185985 2.1842
3.01 0.198492 2.20588
3.01 0.211137 2.18419
3.01 0.185806 2.22755
3.01 0.198492 2.20588
3.01 0.173316 2.20589
3.01 0.198492 2.20588
3.01 0.185985 2.1842
3.01 0.173316 2.20589
3.01 0.0576202 2.27053
3.01 0.05 2.24874
3.01 0.05 2.29226
3.01 0.05 2.24874
3.01 0.0576202 2.27053
3.01 0.0729308 2.24888
3.01 0.05 2.24874
3.01 0.0729308 2.24888
3.01 0.0577122 2.22702
3.01 0.135283 2.22754
3.01 0.122979 2.20589
3.01 0.109875 2.22749
3.01 0.135283 2.22754
3.01 0.109875 2.22749
3.01 0.122678 2.24914
3.01 0.122979 2.20589
3.01 0.135283 2.22754
3.01 0.148138 2.2059
3.01 0.135283 2.22754
3.01 0.160572 2.22755
3.01 0.148138 2.2059
3.01 0.123433 2.1625
3.01 0.0985513 2.1625
3.01 0.110383 2.18421
3.01 0.110383 2.18421
3.01 0.0985513 2.1625
3.01 0.0848754 2.18414
3.01 0.0848754 2.18414
3.01 0.0985513 2.1625
3.01 0.073948 2.1625
3.01 0.0603641 3.01697
3.01 0.0739464 2.99449
3.01 0.05 2.99527
3.01 0.0739464 2.99449
3.01 0.058509 2.97256
3.01 0.05 2.99527
3.01 0.058509 2.97256
3.01 0.0739464 2.99449
3.01 0.0849548 2.97211
3.01 0.058509 2.97256
3.01 0.0732725 2.94988
3.01 0.05 2.9501
3.01 0.0732725 2.94988
3.01 0.058509 2.97256
3.01 0.0849548 2.97211
3.01 0.5 3.04
3.01 0.47495 3.04
3.01 0.487476 3.0625
3.01 0.097663 2.6837
3.01 0.109814 2.6618
3.01 0.0841948 2.6618
3.01 0.0730539 2.6837
3.01 0.097663 2.6837
3.01 0.0841948 2.6618
3.01 0.0578646 2.6618
3.01 0.05 2.6837
3.01 0.0730539 2.6837
3.01 0.05 2.6837
3.01 0.0578646 2.6618
3.01 0.05 2.63992
3.01 0.05 2.8604
3.01 0.0580869 2.83815
3.01 0.05 2.81595
3.01 0.05 2.81595
3.01 0.073134 2.81594
3.01 0.0580261 2.7938
3.01 0.073134 2.81594
3.01 0.05 2.81595
3.01 0.0580869 2.83815
3.01 0.942268 2.40073
3.01 0.95 2.42241
3.01 0.95 2.37904
3.01 0.942292 2.35736
3.01 0.927025 2.37904
3.01 0.95 2.37904
3.01 0.927025 2.37904
3.01 0.915919 2.40072
3.01 0.942268 2.40073
3.01 0.95 2.37904
3.01 0.927025 2.37904
3.01 0.942268 2.40073
3.01 0.927013 2.42241
3.01 0.95 2.42241
3.01 0.942268 2.40073
3.01 0.915919 2.40072
3.01 0.927013 2.42241
3.01 0.942268 2.40073
3.01 0.801738 2.50925
3.01 0.826957 2.50925
3.01 0.814364 2.48753
3.01 0.852174 2.50924
3.01 0.839609 2.48752
3.01 0.826957 2.50925
3.01 0.839609 2.48752
3.01 0.814364 2.48753
3.01 0.826957 2.50925
3.01 0.776516 2.55275
3.01 0.763923 2.531
3.01 0.75132 2.55275
3.01 0.776516 2.55275
3.01 0.789115 2.57451
3.01 0.801725 2.55274
3.01 0.738704 2.61815
3.01 0.763892 2.61814
3.01 0.751305 2.59632
3.01 0.726124 2.59633
3.01 0.738704 2.61815
3.01 0.751305 2.59632
3.01 0.915617 2.83814
3.01 0.926866 2.81594
3.01 0.902228 2.81594
3.01 0.926866 2.81594
3.01 0.915617 2.83814
3.01 0.941913 2.83815
3.01 0.915617 2.83814
3.01 0.926844 2.8604
3.01 0.941913 2.83815
3.01 0.915617 2.83814
3.01 0.902193 2.86038
3.01 0.926844 2.8604
3.01 0.926866 2.81594
3.01 0.915668 2.79379
3.01 0.902228 2.81594
3.01 0.902267 2.77168
3.01 0.915668 2.79379
3.01 0.926895 2.77169
3.01 0.915668 2.79379
3.01 0.926866 2.81594
3.01 0.941974 2.7938
3.01 0.926895 2.77169
3.01 0.915668 2.79379
3.01 0.941974 2.7938
3.01 0.902267 2.77168
3.01 0.890059 2.79379
3.01 0.915668 2.79379
3.01 0.890059 2.79379
3.01 0.902228 2.81594
3.01 0.915668 2.79379
3.01 0.826927 2.59629
3.01 0.801709 2.5963
3.01 0.814318 2.61811
3.01 0.864816 2.6618
3.01 0.890186 2.6618
3.01 0.877308 2.63993
3.01 0.877308 2.63993
3.01 0.852122 2.63994
3.01 0.864816 2.6618
3.01 0.890186 2.6618
3.01 0.902362 2.63993
3.01 0.877308 2.63993
3.01 0.902362 2.63993
3.01 0.890186 2.6618
3.01 0.915805 2.6618
3.01 0.902362 2.63993
3.01 0.915805 2.6618
3.01 0.926964 2.63992
3.01 0.915835 2.61809
3.01 0.902362 2.63993
3.01 0.926964 2.63992
3.01 0.942171 2.61809
3.01 0.915835 2.61809
3.01 0.926964 2.63992
3.01 0.915835 2.61809
3.01 0.942171 2.61809
3.01 0.926978 2.59627
3.01 0.942171 2.61809
3.01 0.95 2.59627
3.01 0.926978 2.59627
3.01 0.87737 2.46581
3.01 0.902417 2.4658
3.01 0.890277 2.44411
3.01 0.852144 2.59628
3.01 0.864842 2.61809
3.01 0.877329 2.59628
3.01 0.877308 2.63993
3.01 0.864842 2.61809
3.01 0.852122 2.63994
3.01 0.902396 2.55272
3.01 0.890234 2.57449
3.01 0.915858 2.57448
3.01 0.926997 2.50923
3.01 0.95 2.50923
3.01 0.942237 2.48751
3.01 0.91589 2.48751
3.01 0.926997 2.50923
3.01 0.942237 2.48751
3.01 0.942199 2.57448
3.01 0.95 2.59627
3.01 0.95 2.55271
3.01 0.95 2.59627
3.01 0.942199 2.57448
3.01 0.926978 2.59627
3.01 0.942199 2.57448
3.01 0.915858 2.57448
3.01 0.926978 2.59627
3.01 0.95 2.50923
3.01 0.942221 2.53097
3.01 0.95 2.55271
3.01 0.942221 2.53097
3.01 0.95 2.50923
3.01 0.926997 2.50923
3.01 0.915876 2.53097
3.01 0.942221 2.53097
3.01 0.926997 2.50923
3.01 0.926989 2.55271
3.01 0.902396 2.55272
3.01 0.915858 2.57448
3.01 0.902396 2.55272
3.01 0.926989 2.55271
3.01 0.915876 2.53097
3.01 0.926989 2.55271
3.01 0.915858 2.57448
3.01 0.942199 2.57448
3.01 0.95 2.55271
3.01 0.926989 2.55271
3.01 0.942199 2.57448
3.01 0.915876 2.53097
3.01 0.926989 2.55271
3.01 0.942221 2.53097
3.01 0.926989 2.55271
3.01 0.95 2.55271
3.01 0.942221 2.53097
3.01 0.91353 3.01685
3.01 0.939636 3.01697
3.01 0.926054 2.99449
3.01 0.926728 2.94988
3.01 0.941491 2.97256
3.01 0.95 2.9501
3.01 0.926728 2.94988
3.01 0.95 2.9501
3.01 0.941822 2.92754
3.01 0.95 2.99527
3.01 0.939636 3.01697
3.01 0.95 3.03829
3.01 0.95 2.99527
3.01 0.941491 2.97256
3.01 0.926054 2.99449
3.01 0.939636 3.01697
3.01 0.95 2.99527
3.01 0.926054 2.99449
3.01 0.941491 2.97256
3.01 0.95 2.99527
3.01 0.95 2.9501
3.01 0.941869 2.88272
3.01 0.95 2.8604
3.01 0.926844 2.8604
3.01 0.762942 3.01728
3.01 0.737933 3.01734
3.01 0.75028 3.03989
3.01 0.71291 3.01739
3.01 0.737933 3.01734
3.01 0.725533 2.99485
3.01 0.71291 3.01739
3.01 0.725313 3.03992
3.01 0.737933 3.01734
3.01 0.725313 3.03992
3.01 0.75028 3.03989
3.01 0.737933 3.01734
3.01 0.737693 3.0625
3.01 0.725313 3.03992
[...]
<PointData Scalars="View Factor" >
<DataArray type="Float64" Name="View Factor" NumberOfComponents="1" format="ascii">
5.71055e-05
5.71055e-05
5.71055e-05
4.53149e-05
4.53149e-05
4.53149e-05
4.55715e-05
4.55715e-05
4.55715e-05
4.54029e-05
4.54029e-05
4.54029e-05
4.53176e-05
4.53176e-05
4.53176e-05
4.54004e-05
4.54004e-05
4.54004e-05
4.53117e-05
4.53117e-05
4.53117e-05
4.53974e-05
4.53974e-05
4.53974e-05
4.55724e-05
4.55724e-05
4.55724e-05
5.59716e-05
5.59716e-05
5.59716e-05
4.52828e-05
4.52828e-05
4.52828e-05
4.55691e-05
4.55691e-05
4.55691e-05
4.56549e-05
4.56549e-05
4.56549e-05
4.5566e-05
4.5566e-05
4.5566e-05
4.59051e-05
4.59051e-05
4.59051e-05
4.56521e-05
4.56521e-05
4.56521e-05
4.58216e-05
4.58216e-05
4.58216e-05
4.53939e-05
4.53939e-05
4.53939e-05
4.56569e-05
4.56569e-05
4.56569e-05
4.58262e-05
4.58262e-05
4.58262e-05
4.56576e-05
4.56576e-05
4.56576e-05
4.55731e-05
4.55731e-05
4.55731e-05
4.61668e-05
4.61668e-05
4.61668e-05
4.59106e-05
4.59106e-05
4.59106e-05
4.60808e-05
4.60808e-05
4.60808e-05
4.58266e-05
4.58266e-05
4.58266e-05
4.59114e-05
4.59114e-05
4.59114e-05
4.61671e-05
4.61671e-05
4.61671e-05
4.60817e-05
4.60817e-05
4.60817e-05
4.53214e-05
4.53214e-05
4.53214e-05
4.54046e-05
4.54046e-05
4.54046e-05
5.66442e-05
5.66442e-05
5.66442e-05
5.68676e-05
5.68676e-05
5.68676e-05
5.72239e-05
5.72239e-05
5.72239e-05
5.71018e-05
5.71018e-05
5.71018e-05
5.27262e-05
5.27262e-05
5.27262e-05
5.14103e-05
5.14103e-05
5.14103e-05
5.16109e-05
5.16109e-05
5.16109e-05
5.33499e-05
5.33499e-05
5.33499e-05
4.72183e-05
4.72183e-05
4.72183e-05
4.66929e-05
4.66929e-05
4.66929e-05
4.99199e-05
4.99199e-05
4.99199e-05
5.03016e-05
5.03016e-05
5.03016e-05
5.00228e-05
5.00228e-05
5.00228e-05
5.02137e-05
5.02137e-05
5.02137e-05
5.05485e-05
5.05485e-05
5.05485e-05
5.02685e-05
5.02685e-05
5.02685e-05
5.04607e-05
5.04607e-05
5.04607e-05
5.05658e-05
5.05658e-05
5.05658e-05
5.04776e-05
5.04776e-05
5.04776e-05
5.67689e-05
5.67689e-05
5.67689e-05
5.37831e-05
5.37831e-05
5.37831e-05
5.35643e-05
5.35643e-05
5.35643e-05
5.33601e-05
5.33601e-05
5.33601e-05
5.31506e-05
5.31506e-05
5.31506e-05
5.2936e-05
5.2936e-05
5.2936e-05
5.27357e-05
5.27357e-05
5.27357e-05
5.70329e-05
5.70329e-05
5.70329e-05
5.70164e-05
5.70164e-05
5.70164e-05
5.69089e-05
5.69089e-05
5.69089e-05
5.05805e-05
5.05805e-05
5.05805e-05
5.06837e-05
5.06837e-05
5.06837e-05
4.53634e-05
4.53634e-05
4.53634e-05
4.5308e-05
4.5308e-05
4.5308e-05
4.55624e-05
4.55624e-05
4.55624e-05
4.58183e-05
4.58183e-05
4.58183e-05
4.56487e-05
4.56487e-05
4.56487e-05
4.65117e-05
4.65117e-05
4.65117e-05
4.63385e-05
4.63385e-05
4.63385e-05
4.61659e-05
4.61659e-05
4.61659e-05
4.59103e-05
4.59103e-05
4.59103e-05
4.60807e-05
4.60807e-05
4.60807e-05
4.58244e-05
4.58244e-05
4.58244e-05
4.59081e-05
4.59081e-05
4.59081e-05
4.53199e-05
4.53199e-05
4.53199e-05
4.54046e-05
4.54046e-05
4.54046e-05
4.53214e-05
4.53214e-05
4.53214e-05
5.64204e-05
5.64204e-05
5.64204e-05
5.61951e-05
5.61951e-05
5.61951e-05
5.60773e-05
5.60773e-05
5.60773e-05
5.57431e-05
5.57431e-05
5.57431e-05
5.58527e-05
5.58527e-05
5.58527e-05
5.69958e-05
5.69958e-05
5.69958e-05
5.1609e-05
5.1609e-05
5.1609e-05
5.17097e-05
5.17097e-05
5.17097e-05
5.17113e-05
5.17113e-05
5.17113e-05
5.15126e-05
5.15126e-05
5.15126e-05
5.39856e-05
5.39856e-05
5.39856e-05
5.35598e-05
5.35598e-05
5.35598e-05
5.37717e-05
5.37717e-05
5.37717e-05
4.77508e-05
4.77508e-05
4.77508e-05
4.74006e-05
4.74006e-05
4.74006e-05
4.76755e-05
4.76755e-05
4.76755e-05
4.75781e-05
4.75781e-05
4.75781e-05
4.79356e-05
4.79356e-05
4.79356e-05
4.78543e-05
4.78543e-05
4.78543e-05
4.91201e-05
4.91201e-05
4.91201e-05
4.91028e-05
4.91028e-05
4.91028e-05
4.90189e-05
4.90189e-05
4.90189e-05
4.97146e-05
4.97146e-05
4.97146e-05
4.98873e-05
4.98873e-05
4.98873e-05
5.05825e-05
5.05825e-05
5.05825e-05
5.0494e-05
5.0494e-05
5.0494e-05
5.33813e-05
5.33813e-05
5.33813e-05
5.34753e-05
5.34753e-05
5.34753e-05
5.36869e-05
5.36869e-05
5.36869e-05
5.38045e-05
5.38045e-05
5.38045e-05
5.31717e-05
5.31717e-05
5.31717e-05
5.27565e-05
5.27565e-05
5.27565e-05
5.30562e-05
5.30562e-05
5.30562e-05
5.28487e-05
5.28487e-05
5.28487e-05
5.28701e-05
5.28701e-05
5.28701e-05
5.30777e-05
5.30777e-05
5.30777e-05
5.04433e-05
5.04433e-05
5.04433e-05
5.10771e-05
5.10771e-05
5.10771e-05
5.09889e-05
5.09889e-05
5.09889e-05
5.09695e-05
5.09695e-05
5.09695e-05
5.10574e-05
5.10574e-05
5.10574e-05
5.09498e-05
5.09498e-05
5.09498e-05
5.07549e-05
5.07549e-05
5.07549e-05
5.06473e-05
5.06473e-05
5.06473e-05
5.04542e-05
5.04542e-05
5.04542e-05
5.03489e-05
5.03489e-05
5.03489e-05
4.85152e-05
4.85152e-05
4.85152e-05
5.04068e-05
5.04068e-05
5.04068e-05
5.07937e-05
5.07937e-05
5.07937e-05
4.99007e-05
4.99007e-05
4.99007e-05
4.90295e-05
4.90295e-05
4.90295e-05
4.89457e-05
4.89457e-05
4.89457e-05
4.99608e-05
4.99608e-05
4.99608e-05
5.01573e-05
5.01573e-05
5.01573e-05
5.0071e-05
5.0071e-05
5.0071e-05
4.93955e-05
4.93955e-05
4.93955e-05
4.9215e-05
4.9215e-05
4.9215e-05
4.93169e-05
4.93169e-05
4.93169e-05
4.97966e-05
4.97966e-05
4.97966e-05
4.9608e-05
4.9608e-05
4.9608e-05
4.9881e-05
4.9881e-05
4.9881e-05
4.97774e-05
4.97774e-05
4.97774e-05
4.95039e-05
4.95039e-05
4.95039e-05
4.95889e-05
4.95889e-05
4.95889e-05
5.60993e-05
5.60993e-05
5.60993e-05
5.53091e-05
5.53091e-05
5.53091e-05
5.50866e-05
5.50866e-05
5.50866e-05
5.61925e-05
5.61925e-05
5.61925e-05
5.57561e-05
5.57561e-05
5.57561e-05
5.59793e-05
5.59793e-05
5.59793e-05
5.55272e-05
5.55272e-05
5.55272e-05
5.39968e-05
5.39968e-05
5.39968e-05
5.6482e-05
5.6482e-05
5.6482e-05
5.62726e-05
5.62726e-05
5.62726e-05
5.65014e-05
5.65014e-05
5.65014e-05
5.66068e-05
5.66068e-05
5.66068e-05
5.69632e-05
5.69632e-05
5.69632e-05
5.68377e-05
5.68377e-05
5.68377e-05
5.69441e-05
5.69441e-05
5.69441e-05
5.55274e-05
5.55274e-05
5.55274e-05
5.58192e-05
5.58192e-05
5.58192e-05
5.61681e-05
5.61681e-05
5.61681e-05
5.59414e-05
5.59414e-05
5.59414e-05
5.62039e-05
5.62039e-05
5.62039e-05
5.5977e-05
5.5977e-05
5.5977e-05
5.66943e-05
5.66943e-05
5.66943e-05
5.6925e-05
5.6925e-05
5.6925e-05
5.70487e-05
5.70487e-05
5.70487e-05
5.03526e-05
5.03526e-05
5.03526e-05
5.06709e-05
5.06709e-05
5.06709e-05
5.12834e-05
5.12834e-05
5.12834e-05
5.1469e-05
5.1469e-05
5.1469e-05
5.12709e-05
5.12709e-05
5.12709e-05
5.11786e-05
5.11786e-05
5.11786e-05
5.08783e-05
5.08783e-05
5.08783e-05
5.09823e-05
5.09823e-05
5.09823e-05
5.14815e-05
5.14815e-05
5.14815e-05
5.15748e-05
5.15748e-05
5.15748e-05
5.26953e-05
5.26953e-05
5.26953e-05
5.12154e-05
5.12154e-05
5.12154e-05
5.11244e-05
5.11244e-05
5.11244e-05
5.07423e-05
5.07423e-05
5.07423e-05
5.11331e-05
5.11331e-05
5.11331e-05
4.52942e-05
4.52942e-05
4.52942e-05
4.52993e-05
4.52993e-05
4.52993e-05
4.53807e-05
4.53807e-05
4.53807e-05
4.55489e-05
4.55489e-05
4.55489e-05
4.52288e-05
4.52288e-05
4.52288e-05
4.93229e-05
4.93229e-05
4.93229e-05
4.96982e-05
4.96982e-05
4.96982e-05
4.94246e-05
4.94246e-05
4.94246e-05
4.96123e-05
4.96123e-05
4.96123e-05
4.96284e-05
4.96284e-05
4.96284e-05
4.97306e-05
4.97306e-05
4.97306e-05
4.56307e-05
4.56307e-05
4.56307e-05
4.52764e-05
4.52764e-05
4.52764e-05
4.51759e-05
4.51759e-05
4.51759e-05
4.79756e-05
4.79756e-05
4.79756e-05
4.78889e-05
4.78889e-05
4.78889e-05
4.59935e-05
4.59935e-05
4.59935e-05
4.5487e-05
4.5487e-05
4.5487e-05
4.56548e-05
4.56548e-05
4.56548e-05
4.58239e-05
4.58239e-05
4.58239e-05
5.61866e-05
5.61866e-05
5.61866e-05
5.7118e-05
5.7118e-05
5.7118e-05
5.29322e-05
5.29322e-05
5.29322e-05
5.31401e-05
5.31401e-05
5.31401e-05
5.19101e-05
5.19101e-05
5.19101e-05
4.66732e-05
4.66732e-05
4.66732e-05
5.29283e-05
5.29283e-05
5.29283e-05
5.31361e-05
5.31361e-05
5.31361e-05
5.13103e-05
5.13103e-05
5.13103e-05
5.1408e-05
5.1408e-05
5.1408e-05
5.11155e-05
5.11155e-05
5.11155e-05
5.13124e-05
5.13124e-05
5.13124e-05
5.1314e-05
5.1314e-05
5.1314e-05
5.14122e-05
5.14122e-05
5.14122e-05
5.09216e-05
5.09216e-05
5.09216e-05
5.1117e-05
5.1117e-05
5.1117e-05
5.10183e-05
5.10183e-05
5.10183e-05
5.0823e-05
5.0823e-05
5.0823e-05
5.07264e-05
5.07264e-05
5.07264e-05
5.02149e-05
5.02149e-05
5.02149e-05
5.011e-05
5.011e-05
5.011e-05
4.79538e-05
4.79538e-05
4.79538e-05
4.93061e-05
4.93061e-05
4.93061e-05
4.9408e-05
4.9408e-05
4.9408e-05
4.95956e-05
4.95956e-05
4.95956e-05
4.90014e-05
4.90014e-05
4.90014e-05
4.90851e-05
4.90851e-05
4.90851e-05
4.8433e-05
4.8433e-05
4.8433e-05
4.73203e-05
4.73203e-05
4.73203e-05
4.80704e-05
4.80704e-05
4.80704e-05
4.99038e-05
4.99038e-05
4.99038e-05
5.02853e-05
5.02853e-05
5.02853e-05
5.01813e-05
5.01813e-05
5.01813e-05
4.99906e-05
4.99906e-05
4.99906e-05
5.00069e-05
5.00069e-05
5.00069e-05
5.01977e-05
5.01977e-05
5.01977e-05
5.07764e-05
5.07764e-05
5.07764e-05
5.08821e-05
5.08821e-05
5.08821e-05
5.05986e-05
5.05986e-05
5.05986e-05
5.07927e-05
5.07927e-05
5.07927e-05
5.13977e-05
5.13977e-05
5.13977e-05
5.14889e-05
5.14889e-05
5.14889e-05
5.09284e-05
5.09284e-05
5.09284e-05
5.1254e-05
5.1254e-05
5.1254e-05
5.27773e-05
5.27773e-05
5.27773e-05
5.25918e-05
5.25918e-05
5.25918e-05
5.25715e-05
5.25715e-05
5.25715e-05
5.24792e-05
5.24792e-05
5.24792e-05
5.61292e-05
5.61292e-05
5.61292e-05
5.62531e-05
5.62531e-05
5.62531e-05
5.61491e-05
5.61491e-05
5.61491e-05
5.59224e-05
5.59224e-05
5.59224e-05
5.49101e-05
5.49101e-05
5.49101e-05
5.5513e-05
5.5513e-05
5.5513e-05
5.5737e-05
5.5737e-05
5.5737e-05
5.45121e-05
5.45121e-05
5.45121e-05
5.47506e-05
5.47506e-05
5.47506e-05
5.43934e-05
5.43934e-05
5.43934e-05
4.96811e-05
4.96811e-05
4.96811e-05
5.05308e-05
5.05308e-05
5.05308e-05
5.04253e-05
5.04253e-05
5.04253e-05
5.05124e-05
5.05124e-05
5.05124e-05
5.0706e-05
5.0706e-05
5.0706e-05
5.12932e-05
5.12932e-05
5.12932e-05
5.10963e-05
5.10963e-05
5.10963e-05
5.03684e-05
5.03684e-05
5.03684e-05
5.0196e-05
5.0196e-05
5.0196e-05
5.01768e-05
5.01768e-05
5.01768e-05
5.00908e-05
5.00908e-05
5.00908e-05
5.07351e-05
5.07351e-05
5.07351e-05
5.05353e-05
5.05353e-05
5.05353e-05
4.95234e-05
4.95234e-05
4.95234e-05
4.92709e-05
4.92709e-05
4.92709e-05
4.9355e-05
4.9355e-05
4.9355e-05
4.87806e-05
4.87806e-05
4.87806e-05
4.89834e-05
4.89834e-05
4.89834e-05
4.86982e-05
4.86982e-05
4.86982e-05
4.8799e-05
4.8799e-05
4.8799e-05
4.84148e-05
4.84148e-05
4.84148e-05
4.82333e-05
4.82333e-05
4.82333e-05
4.81339e-05
4.81339e-05
4.81339e-05
5.63964e-05
5.63964e-05
5.63964e-05
5.61899e-05
5.61899e-05
5.61899e-05
5.64218e-05
5.64218e-05
5.64218e-05
5.63246e-05
5.63246e-05
5.63246e-05
5.66569e-05
5.66569e-05
5.66569e-05
5.59975e-05
5.59975e-05
5.59975e-05
5.53273e-05
5.53273e-05
5.53273e-05
5.57725e-05
5.57725e-05
5.57725e-05
5.56511e-05
5.56511e-05
5.56511e-05
5.54289e-05
5.54289e-05
5.54289e-05
5.50694e-05
5.50694e-05
5.50694e-05
5.47298e-05
5.47298e-05
5.47298e-05
5.48496e-05
5.48496e-05
5.48496e-05
5.48286e-05
5.48286e-05
5.48286e-05
5.40182e-05
5.40182e-05
5.40182e-05
5.41142e-05
5.41142e-05
5.41142e-05
5.49854e-05
5.49854e-05
5.49854e-05
5.51063e-05
5.51063e-05
5.51063e-05
5.63091e-05
5.63091e-05
5.63091e-05
5.62912e-05
5.62912e-05
5.62912e-05
5.61864e-05
5.61864e-05
5.61864e-05
5.69816e-05
5.69816e-05
5.69816e-05
5.68565e-05
5.68565e-05
5.68565e-05
5.66257e-05
5.66257e-05
5.66257e-05
5.652e-05
5.652e-05
5.652e-05
5.67554e-05
5.67554e-05
5.67554e-05
5.64189e-05
5.64189e-05
5.64189e-05
5.6523e-05
5.6523e-05
5.6523e-05
5.68833e-05
5.68833e-05
5.68833e-05
5.6587e-05
5.6587e-05
5.6587e-05
5.68182e-05
5.68182e-05
5.68182e-05
5.55946e-05
5.55946e-05
5.55946e-05
5.54921e-05
5.54921e-05
5.54921e-05
5.39794e-05
5.39794e-05
5.39794e-05
5.38641e-05
5.38641e-05
5.38641e-05
5.44735e-05
5.44735e-05
5.44735e-05
5.52695e-05
5.52695e-05
5.52695e-05
5.51495e-05
5.51495e-05
5.51495e-05
5.53046e-05
5.53046e-05
5.53046e-05
5.45915e-05
5.45915e-05
5.45915e-05
5.48099e-05
5.48099e-05
5.48099e-05
5.4929e-05
5.4929e-05
5.4929e-05
5.48283e-05
5.48283e-05
5.48283e-05
5.58377e-05
5.58377e-05
5.58377e-05
5.56308e-05
5.56308e-05
5.56308e-05
5.58555e-05
5.58555e-05
5.58555e-05
5.59596e-05
5.59596e-05
5.59596e-05
5.55101e-05
5.55101e-05
5.55101e-05
5.5613e-05
5.5613e-05
5.5613e-05
5.63262e-05
5.63262e-05
5.63262e-05
5.6555e-05
5.6555e-05
5.6555e-05
5.66782e-05
5.66782e-05
5.66782e-05
5.65714e-05
5.65714e-05
5.65714e-05
5.58725e-05
5.58725e-05
5.58725e-05
5.56477e-05
5.56477e-05
5.56477e-05
5.55439e-05
5.55439e-05
5.55439e-05
5.36152e-05
5.36152e-05
5.36152e-05
5.34041e-05
5.34041e-05
5.34041e-05
4.99313e-05
4.99313e-05
4.99313e-05
5.06993e-05
5.06993e-05
5.06993e-05
4.98391e-05
4.98391e-05
4.98391e-05
4.99365e-05
4.99365e-05
4.99365e-05
5.07937e-05
5.07937e-05
5.07937e-05
5.04536e-05
5.04536e-05
5.04536e-05
5.0362e-05
5.0362e-05
5.0362e-05
5.13371e-05
5.13371e-05
5.13371e-05
5.12336e-05
5.12336e-05
5.12336e-05
5.10271e-05
5.10271e-05
5.10271e-05
5.15355e-05
5.15355e-05
5.15355e-05
5.16397e-05
5.16397e-05
5.16397e-05
5.18399e-05
5.18399e-05
5.18399e-05
5.19358e-05
5.19358e-05
5.19358e-05
5.05675e-05
5.05675e-05
5.05675e-05
5.08655e-05
5.08655e-05
5.08655e-05
5.09697e-05
5.09697e-05
5.09697e-05
5.11659e-05
5.11659e-05
5.11659e-05
5.12579e-05
5.12579e-05
5.12579e-05
5.22439e-05
5.22439e-05
5.22439e-05
5.21378e-05
5.21378e-05
5.21378e-05
5.1587e-05
5.1587e-05
5.1587e-05
5.17746e-05
5.17746e-05
5.17746e-05
5.13275e-05
5.13275e-05
5.13275e-05
5.12237e-05
5.12237e-05
5.12237e-05
5.22135e-05
5.22135e-05
5.22135e-05
5.21066e-05
5.21066e-05
5.21066e-05
5.14279e-05
5.14279e-05
5.14279e-05
5.12302e-05
5.12302e-05
5.12302e-05
5.13302e-05
5.13302e-05
5.13302e-05
5.29689e-05
5.29689e-05
5.29689e-05
4.53039e-05
4.53039e-05
4.53039e-05
4.53855e-05
4.53855e-05
4.53855e-05
4.53899e-05
4.53899e-05
4.53899e-05
4.65249e-05
4.65249e-05
4.65249e-05
4.61741e-05
4.61741e-05
4.61741e-05
4.63519e-05
4.63519e-05
4.63519e-05
4.52535e-05
4.52535e-05
4.52535e-05
4.5098e-05
4.5098e-05
4.5098e-05
4.5139e-05
4.5139e-05
4.5139e-05
4.93392e-05
4.93392e-05
4.93392e-05
4.94407e-05
4.94407e-05
4.94407e-05
4.9355e-05
4.9355e-05
4.9355e-05
4.91687e-05
4.91687e-05
4.91687e-05
4.96441e-05
4.96441e-05
4.96441e-05
4.94562e-05
4.94562e-05
4.94562e-05
4.53754e-05
4.53754e-05
4.53754e-05
4.55436e-05
4.55436e-05
4.55436e-05
4.52887e-05
4.52887e-05
4.52887e-05
4.53696e-05
4.53696e-05
4.53696e-05
4.55315e-05
4.55315e-05
4.55315e-05
4.56125e-05
4.56125e-05
4.56125e-05
4.57818e-05
4.57818e-05
4.57818e-05
4.57748e-05
4.57748e-05
4.57748e-05
4.58632e-05
4.58632e-05
4.58632e-05
4.61226e-05
4.61226e-05
4.61226e-05
4.60336e-05
4.60336e-05
4.60336e-05
4.52544e-05
4.52544e-05
4.52544e-05
4.52652e-05
4.52652e-05
4.52652e-05
4.8156e-05
4.8156e-05
4.8156e-05
4.85195e-05
4.85195e-05
4.85195e-05
4.5564e-05
4.5564e-05
4.5564e-05
4.56359e-05
4.56359e-05
4.56359e-05
4.58053e-05
4.58053e-05
4.58053e-05
4.55539e-05
4.55539e-05
4.55539e-05
5.47202e-05
5.47202e-05
5.47202e-05
5.51491e-05
5.51491e-05
5.51491e-05
5.5833e-05
5.5833e-05
5.5833e-05
5.58365e-05
5.58365e-05
5.58365e-05
5.57225e-05
5.57225e-05
5.57225e-05
5.51677e-05
5.51677e-05
5.51677e-05
5.54988e-05
5.54988e-05
5.54988e-05
5.53893e-05
5.53893e-05
5.53893e-05
5.57187e-05
5.57187e-05
5.57187e-05
5.60718e-05
5.60718e-05
5.60718e-05
5.55182e-05
5.55182e-05
5.55182e-05
5.5296e-05
5.5296e-05
5.5296e-05
5.70081e-05
5.70081e-05
5.70081e-05
5.64383e-05
5.64383e-05
5.64383e-05
5.66676e-05
5.66676e-05
5.66676e-05
5.67769e-05
5.67769e-05
5.67769e-05
5.59836e-05
5.59836e-05
5.59836e-05
5.64597e-05
5.64597e-05
5.64597e-05
5.66891e-05
5.66891e-05
5.66891e-05
5.2826e-05
5.2826e-05
5.2826e-05
5.29305e-05
5.29305e-05
5.29305e-05
5.28281e-05
5.28281e-05
5.28281e-05
5.34537e-05
5.34537e-05
5.34537e-05
5.32438e-05
5.32438e-05
5.32438e-05
5.35581e-05
5.35581e-05
5.35581e-05
5.34516e-05
5.34516e-05
5.34516e-05
5.31384e-05
5.31384e-05
5.31384e-05
5.32418e-05
5.32418e-05
5.32418e-05
5.20098e-05
5.20098e-05
5.20098e-05
5.22096e-05
5.22096e-05
5.22096e-05
5.21139e-05
5.21139e-05
5.21139e-05
5.19118e-05
5.19118e-05
5.19118e-05
5.20118e-05
5.20118e-05
5.20118e-05
4.66857e-05
4.66857e-05
4.66857e-05
4.80081e-05
4.80081e-05
4.80081e-05
4.76495e-05
4.76495e-05
4.76495e-05
4.85316e-05
4.85316e-05
4.85316e-05
4.87148e-05
4.87148e-05
4.87148e-05
4.86519e-05
4.86519e-05
4.86519e-05
4.92061e-05
4.92061e-05
4.92061e-05
4.93924e-05
4.93924e-05
4.93924e-05
4.81058e-05
4.81058e-05
4.81058e-05
4.79236e-05
4.79236e-05
4.79236e-05
4.77442e-05
4.77442e-05
4.77442e-05
4.79251e-05
4.79251e-05
4.79251e-05
4.80145e-05
4.80145e-05
4.80145e-05
4.79195e-05
4.79195e-05
4.79195e-05
4.77401e-05
4.77401e-05
4.77401e-05
4.74758e-05
4.74758e-05
4.74758e-05
4.7654e-05
4.7654e-05
4.7654e-05
4.77424e-05
4.77424e-05
4.77424e-05
4.7652e-05
4.7652e-05
4.7652e-05
4.68473e-05
4.68473e-05
4.68473e-05
5.35557e-05
5.35557e-05
5.35557e-05
5.37675e-05
5.37675e-05
5.37675e-05
5.17076e-05
5.17076e-05
5.17076e-05
5.16066e-05
5.16066e-05
5.16066e-05
5.1908e-05
5.1908e-05
5.1908e-05
5.20074e-05
5.20074e-05
5.20074e-05
5.13077e-05
5.13077e-05
5.13077e-05
4.97689e-05
4.97689e-05
4.97689e-05
4.96735e-05
4.96735e-05
4.96735e-05
4.95799e-05
4.95799e-05
4.95799e-05
4.95784e-05
4.95784e-05
4.95784e-05
4.96717e-05
4.96717e-05
4.96717e-05
5.07249e-05
5.07249e-05
5.07249e-05
5.05312e-05
5.05312e-05
5.05312e-05
4.98556e-05
4.98556e-05
4.98556e-05
5.11134e-05
5.11134e-05
5.11134e-05
5.07228e-05
5.07228e-05
5.07228e-05
5.10164e-05
5.10164e-05
5.10164e-05
5.08212e-05
5.08212e-05
5.08212e-05
4.78083e-05
4.78083e-05
4.78083e-05
4.79877e-05
4.79877e-05
4.79877e-05
4.88343e-05
4.88343e-05
4.88343e-05
4.81521e-05
4.81521e-05
4.81521e-05
4.82514e-05
4.82514e-05
4.82514e-05
4.87162e-05
4.87162e-05
4.87162e-05
4.85332e-05
4.85332e-05
4.85332e-05
4.88169e-05
4.88169e-05
4.88169e-05
4.87338e-05
4.87338e-05
4.87338e-05
4.87508e-05
4.87508e-05
4.87508e-05
4.85676e-05
4.85676e-05
4.85676e-05
4.7596e-05
4.7596e-05
4.7596e-05
4.74184e-05
4.74184e-05
4.74184e-05
5.08655e-05
5.08655e-05
5.08655e-05
5.07596e-05
5.07596e-05
5.07596e-05
5.08484e-05
5.08484e-05
5.08484e-05
5.10438e-05
5.10438e-05
5.10438e-05
5.11507e-05
5.11507e-05
5.11507e-05
5.10611e-05
5.10611e-05
5.10611e-05
5.08981e-05
5.08981e-05
5.08981e-05
5.10939e-05
5.10939e-05
5.10939e-05
5.11095e-05
5.11095e-05
5.11095e-05
5.12001e-05
5.12001e-05
5.12001e-05
5.05098e-05
5.05098e-05
5.05098e-05
5.02291e-05
5.02291e-05
5.02291e-05
5.03173e-05
5.03173e-05
5.03173e-05
5.14131e-05
5.14131e-05
5.14131e-05
5.15047e-05
5.15047e-05
5.15047e-05
5.15199e-05
5.15199e-05
5.15199e-05
5.2668e-05
5.2668e-05
5.2668e-05
5.28744e-05
5.28744e-05
5.28744e-05
5.16904e-05
5.16904e-05
5.16904e-05
5.1343e-05
5.1343e-05
5.1343e-05
5.12739e-05
5.12739e-05
5.12739e-05
5.13629e-05
5.13629e-05
5.13629e-05
5.13825e-05
5.13825e-05
5.13825e-05
5.1581e-05
5.1581e-05
5.1581e-05
5.22548e-05
5.22548e-05
5.22548e-05
5.25509e-05
5.25509e-05
5.25509e-05
5.24586e-05
5.24586e-05
5.24586e-05
5.31927e-05
5.31927e-05
5.31927e-05
5.37086e-05
5.37086e-05
5.37086e-05
5.3497e-05
5.3497e-05
5.3497e-05
5.34024e-05
5.34024e-05
5.34024e-05
5.3518e-05
5.3518e-05
5.3518e-05
5.41778e-05
5.41778e-05
5.41778e-05
5.58819e-05
5.58819e-05
5.58819e-05
5.6087e-05
5.6087e-05
5.6087e-05
5.58605e-05
5.58605e-05
5.58605e-05
5.57586e-05
5.57586e-05
5.57586e-05
5.57796e-05
5.57796e-05
5.57796e-05
5.57998e-05
5.57998e-05
5.57998e-05
5.59026e-05
5.59026e-05
5.59026e-05
5.55552e-05
5.55552e-05
5.55552e-05
5.58386e-05
5.58386e-05
5.58386e-05
5.61674e-05
5.61674e-05
5.61674e-05
5.60649e-05
5.60649e-05
5.60649e-05
5.5715e-05
5.5715e-05
5.5715e-05
5.51903e-05
5.51903e-05
5.51903e-05
5.54123e-05
5.54123e-05
5.54123e-05
5.55344e-05
5.55344e-05
5.55344e-05
5.54333e-05
5.54333e-05
5.54333e-05
5.41359e-05
5.41359e-05
5.41359e-05
5.43515e-05
5.43515e-05
5.43515e-05
5.44913e-05
5.44913e-05
5.44913e-05
5.47088e-05
5.47088e-05
5.47088e-05
5.44705e-05
5.44705e-05
5.44705e-05
5.43726e-05
5.43726e-05
5.43726e-05
4.98701e-05
4.98701e-05
4.98701e-05
5.02512e-05
5.02512e-05
5.02512e-05
5.01642e-05
5.01642e-05
5.01642e-05
4.99737e-05
4.99737e-05
4.99737e-05
5.02333e-05
5.02333e-05
5.02333e-05
4.98525e-05
4.98525e-05
4.98525e-05
5.01467e-05
5.01467e-05
5.01467e-05
4.99562e-05
4.99562e-05
4.99562e-05
5.01286e-05
5.01286e-05
5.01286e-05
4.99382e-05
4.99382e-05
4.99382e-05
4.93909e-05
4.93909e-05
4.93909e-05
4.95783e-05
4.95783e-05
4.95783e-05
4.96636e-05
4.96636e-05
4.96636e-05