<VTKFile type="UnstructuredGrid" version="1.0">
<UnstructuredGrid>
<Piece NumberOfPoints="8859" NumberOfCells="2953">
<Points>
<DataArray type="Float64" NumberOfComponents="3" format="ascii">
2.04744 2.20956 12.4076
2.06275 2.19425 12.4196
2.04754 2.20946 12.4333
2.07804 2.17896 12.3567
2.07805 2.17895 12.3315
2.0934 2.1636 12.344
2.06271 2.19429 12.3694
2.07804 2.17896 12.3567
2.07804 2.17896 12.3819
2.01701 2.23999 12.4599
2.03242 2.22458 12.4675
2.00164 2.25536 12.4675
2.01701 2.23999 12.4599
2.03232 2.22468 12.4446
2.03242 2.22458 12.4675
2.04777 2.20923 12.4598
2.06326 2.19374 12.4675
2.03242 2.22458 12.4675
2.04777 2.20923 12.4598
2.03232 2.22468 12.4446
2.04754 2.20946 12.4333
2.03242 2.22458 12.4675
2.03232 2.22468 12.4446
2.04777 2.20923 12.4598
2.04754 2.20946 12.4333
2.06275 2.19425 12.4196
2.06287 2.19413 12.4443
2.06287 2.19413 12.4443
2.04777 2.20923 12.4598
2.04754 2.20946 12.4333
2.06326 2.19374 12.4675
2.04777 2.20923 12.4598
2.06287 2.19413 12.4443
2.06275 2.19425 12.4196
2.04744 2.20956 12.4076
2.06271 2.19429 12.3945
2.06271 2.19429 12.3694
2.07804 2.17896 12.3819
2.06271 2.19429 12.3945
2.07809 2.17891 12.4326
2.06287 2.19413 12.4443
2.06275 2.19425 12.4196
2.0934 2.1636 12.4189
2.0934 2.1636 12.4436
2.07809 2.17891 12.4326
2.0934 2.1636 12.3189
2.0934 2.1636 12.344
2.07805 2.17895 12.3315
2.07804 2.17896 12.3567
2.0934 2.1636 12.344
2.0934 2.1636 12.3691
2.0934 2.1636 12.3691
2.07804 2.17896 12.3819
2.07804 2.17896 12.3567
2.0934 2.1636 11.7915
2.0934 2.1636 11.8167
2.07807 2.17893 11.8041
2.07807 2.17893 12.2561
2.0934 2.1636 12.2686
2.07806 2.17894 12.2812
2.0934 2.1636 12.2435
2.0934 2.1636 12.2686
2.07807 2.17893 12.2561
2.07808 2.17892 12.1304
2.0934 2.1636 12.143
2.07808 2.17892 12.1556
1.61564 2.64136 11.5756
1.63134 2.62566 11.5675
1.63134 2.62566 11.5906
1.5683 2.6887 12.4675
1.53648 2.72052 12.4675
1.55243 2.70457 12.4593
2.07804 2.17896 12.4071
2.06271 2.19429 12.3945
2.07804 2.17896 12.3819
2.06275 2.19425 12.4196
2.06271 2.19429 12.3945
2.07804 2.17896 12.4071
2.07804 2.17896 12.4071
2.07809 2.17891 12.4326
2.06275 2.19425 12.4196
2.0934 2.1636 12.4189
2.07809 2.17891 12.4326
2.07804 2.17896 12.4071
2.07833 2.17867 12.4588
2.0934 2.1636 12.4436
2.0934 2.1636 12.4675
2.07833 2.17867 12.4588
2.07809 2.17891 12.4326
2.0934 2.1636 12.4436
2.0934 2.1636 12.4675
2.06326 2.19374 12.4675
2.07833 2.17867 12.4588
2.06326 2.19374 12.4675
2.06287 2.19413 12.4443
2.07833 2.17867 12.4588
2.06287 2.19413 12.4443
2.07809 2.17891 12.4326
2.07833 2.17867 12.4588
2.07806 2.17894 12.2812
2.0934 2.1636 12.2686
2.0934 2.1636 12.2937
2.07804 2.17896 12.3819
2.0934 2.1636 12.3691
2.0934 2.1636 12.3941
2.0934 2.1636 12.4189
2.07804 2.17896 12.4071
2.0934 2.1636 12.3941
2.0934 2.1636 12.3941
2.07804 2.17896 12.4071
2.07804 2.17896 12.3819
2.0934 2.1636 12.1179
2.0934 2.1636 12.143
2.07808 2.17892 12.1304
2.07807 2.17893 11.8041
2.0934 2.1636 11.8167
2.07807 2.17893 11.8292
2.06275 2.19425 12.2435
2.04743 2.20957 12.231
2.06275 2.19425 12.2184
2.07806 2.17894 12.3064
2.0934 2.1636 12.3189
2.07805 2.17895 12.3315
2.07806 2.17894 12.3064
2.0934 2.1636 12.2937
2.0934 2.1636 12.3189
2.07806 2.17894 12.3064
2.06273 2.19427 12.2938
2.07806 2.17894 12.2812
2.07806 2.17894 12.2812
2.0934 2.1636 12.2937
2.07806 2.17894 12.3064
2.06271 2.19429 12.3442
2.07804 2.17896 12.3567
2.06271 2.19429 12.3694
2.06271 2.19429 12.3442
2.07805 2.17895 12.3315
2.07804 2.17896 12.3567
2.04741 2.20959 12.3065
2.03209 2.22491 12.3191
2.0321 2.2249 12.2939
1.83285 2.42415 12.4334
1.81747 2.43953 12.4199
1.83285 2.42415 12.4078
1.78664 2.47036 12.2688
1.78664 2.47036 12.294
1.77121 2.48579 12.2814
2.0934 2.1636 11.5675
2.0934 2.1636 11.5914
2.07833 2.17867 11.5762
1.56833 2.68867 12.4443
1.5683 2.6887 12.4675
1.55243 2.70457 12.4593
1.63134 2.62566 12.3695
1.61565 2.64135 12.3821
1.61564 2.64136 12.3569
1.55243 2.70457 12.4593
1.53648 2.72052 12.4675
1.53664 2.72036 12.4442
2.06276 2.19424 11.892
2.04745 2.20955 11.8794
2.06276 2.19424 11.8669
2.0934 2.1636 12.0426
2.07808 2.17892 12.03
2.0934 2.1636 12.0175
2.07808 2.17892 12.0802
2.0934 2.1636 12.0677
2.0934 2.1636 12.0928
2.06277 2.19423 11.9924
2.04745 2.20955 12.005
2.04745 2.20955 11.9799
2.06277 2.19423 12.0175
2.04745 2.20955 12.005
2.06277 2.19423 11.9924
2.07808 2.17892 12.03
2.06277 2.19423 12.0426
2.06277 2.19423 12.0175
2.04745 2.20955 12.1556
2.06276 2.19424 12.1681
2.04744 2.20956 12.1807
2.01682 2.24018 12.1305
2.01682 2.24018 12.1556
2.0015 2.2555 12.143
2.04745 2.20955 12.1305
2.03214 2.22486 12.1179
2.04745 2.20955 12.1053
2.04745 2.20955 12.1053
2.06277 2.19423 12.1179
2.04745 2.20955 12.1305
2.03214 2.22486 12.1179
2.03214 2.22486 12.0928
2.04745 2.20955 12.1053
2.04745 2.20955 12.1053
2.03214 2.22486 12.0928
2.04745 2.20955 12.0802
2.0934 2.1636 12.0928
2.0934 2.1636 12.1179
2.07808 2.17892 12.1053
2.07808 2.17892 12.1053
2.07808 2.17892 12.0802
2.0934 2.1636 12.0928
2.07808 2.17892 12.1053
2.0934 2.1636 12.1179
2.07808 2.17892 12.1304
2.07808 2.17892 12.1304
2.06277 2.19423 12.1179
2.07808 2.17892 12.1053
2.04744 2.20956 12.2058
2.03213 2.22487 12.1933
2.04744 2.20956 12.1807
2.04744 2.20956 12.2058
2.06275 2.19425 12.2184
2.04743 2.20957 12.231
2.0015 2.2555 12.1933
2.01681 2.24019 12.1807
2.01681 2.24019 12.2059
2.01681 2.24019 12.2059
2.01681 2.24019 12.1807
2.03213 2.22487 12.1933
2.0934 2.1636 12.1681
2.07808 2.17892 12.1556
2.0934 2.1636 12.143
2.04744 2.20956 12.1807
2.06276 2.19424 12.1681
2.06276 2.19424 12.1932
2.06276 2.19424 12.1932
2.04744 2.20956 12.2058
2.04744 2.20956 12.1807
2.06275 2.19425 12.2184
2.04744 2.20956 12.2058
2.06276 2.19424 12.1932
2.07806 2.17894 12.2812
2.06273 2.19427 12.2938
2.06274 2.19426 12.2687
2.06274 2.19426 12.2687
2.07807 2.17893 12.2561
2.07806 2.17894 12.2812
2.06275 2.19425 12.2435
2.07807 2.17893 12.2561
2.06274 2.19426 12.2687
2.0321 2.2249 12.2939
2.03211 2.22489 12.2688
2.04742 2.20958 12.2813
2.04742 2.20958 12.2813
2.04741 2.20959 12.3065
2.0321 2.2249 12.2939
2.06273 2.19427 12.2938
2.04741 2.20959 12.3065
2.04742 2.20958 12.2813
2.04742 2.20958 12.2813
2.06274 2.19426 12.2687
2.06273 2.19427 12.2938
2.01679 2.24021 12.2814
2.03211 2.22489 12.2688
2.0321 2.2249 12.2939
2.01679 2.24021 12.2814
2.00148 2.25552 12.294
2.00148 2.25552 12.2688
2.06271 2.19429 12.3694
2.06271 2.19429 12.3945
2.04741 2.20959 12.3822
2.04741 2.20959 12.3822
2.06271 2.19429 12.3945
2.04744 2.20956 12.4076
2.03209 2.22491 12.3191
2.04741 2.20959 12.3065
2.0474 2.2096 12.3317
2.0474 2.2096 12.3317
2.03209 2.22491 12.3444
2.03209 2.22491 12.3191
1.97087 2.28613 12.1682
1.95555 2.30145 12.1807
1.95555 2.30145 12.1556
2.00148 2.25552 12.2688
2.00149 2.25551 12.2436
2.0168 2.2402 12.2562
2.0168 2.2402 12.2562
2.01679 2.24021 12.2814
2.00148 2.25552 12.2688
2.03211 2.22489 12.2688
2.01679 2.24021 12.2814
2.0168 2.2402 12.2562
2.03211 2.22489 12.2436
2.03211 2.22489 12.2688
2.0168 2.2402 12.2562
1.86358 2.39342 12.4078
1.86358 2.39342 12.4334
1.84822 2.40878 12.4199
1.84822 2.40878 12.4199
1.86358 2.39342 12.4334
1.84822 2.40878 12.4445
1.84822 2.40878 12.4199
1.84822 2.40878 12.4445
1.83285 2.42415 12.4334
1.83285 2.42415 12.4334
1.83285 2.42415 12.4078
1.84822 2.40878 12.4199
1.81747 2.43953 12.3948
1.83285 2.42415 12.4078
1.81747 2.43953 12.4199
1.80202 2.45498 12.03
1.80202 2.45498 12.0552
1.7866 2.4704 12.0426
1.70922 2.54778 12.1556
1.69367 2.56333 12.143
1.70922 2.54778 12.1304
1.70924 2.54776 12.2058
1.6937 2.5633 12.2184
1.69369 2.56331 12.1932
1.63134 2.62566 12.3695
1.61564 2.64136 12.3569
1.63132 2.62568 12.3442
1.63135 2.62565 12.3947
1.61565 2.64135 12.3821
1.63134 2.62566 12.3695
1.69376 2.56324 12.3191
1.69378 2.56322 12.3443
1.6782 2.5788 12.3317
1.59983 2.65717 12.2686
1.61554 2.64146 12.256
1.61557 2.64143 12.2812
1.59973 2.65727 12.168
1.58397 2.67303 12.1806
1.58396 2.67304 12.1555
1.61564 2.64136 12.4594
1.63134 2.62566 12.4675
1.5999 2.6571 12.4675
1.63134 2.62566 12.4444
1.63134 2.62566 12.4675
1.61564 2.64136 12.4594
1.647 2.61 12.4595
1.63134 2.62566 12.4675
1.63134 2.62566 12.4444
1.59993 2.65707 12.3946
1.59992 2.65708 12.4197
1.58418 2.67282 12.4075
1.84822 2.40878 12.4675
1.81747 2.43953 12.4675
1.83285 2.42415 12.4597
1.83285 2.42415 12.4334
1.84822 2.40878 12.4445
1.83285 2.42415 12.4597
1.83285 2.42415 12.4597
1.84822 2.40878 12.4445
1.84822 2.40878 12.4675
1.81747 2.43953 12.4445
1.81747 2.43953 12.4199
1.83285 2.42415 12.4334
1.83285 2.42415 12.4334
1.83285 2.42415 12.4597
1.81747 2.43953 12.4445
1.81747 2.43953 12.4445
1.83285 2.42415 12.4597
1.81747 2.43953 12.4675
1.70931 2.54769 12.3318
1.69378 2.56322 12.3443
1.69376 2.56324 12.3191
1.7712 2.4858 12.2562
1.78663 2.47037 12.2436
1.78664 2.47036 12.2688
1.78664 2.47036 12.2688
1.77121 2.48579 12.2814
1.7712 2.4858 12.2562
1.77122 2.48578 12.3066
1.77121 2.48579 12.2814
1.78664 2.47036 12.294
1.77122 2.48578 12.3066
1.78664 2.47036 12.294
1.78665 2.47035 12.3192
1.78665 2.47035 12.3192
1.77123 2.48577 12.3318
1.77122 2.48578 12.3066
1.77122 2.48578 12.3066
1.77123 2.48577 12.3318
1.75578 2.50122 12.3192
1.78666 2.47034 12.3444
1.77123 2.48577 12.3318
1.78665 2.47035 12.3192
1.78666 2.47034 12.3696
1.77124 2.48576 12.3823
1.77124 2.48576 12.3571
1.77124 2.48576 12.3571
1.78666 2.47034 12.3444
1.78666 2.47034 12.3696
1.77123 2.48577 12.3318
1.78666 2.47034 12.3444
1.77124 2.48576 12.3571
2.07809 2.17891 11.6024
2.07833 2.17867 11.5762
2.0934 2.1636 11.5914
2.06287 2.19413 11.5907
2.07833 2.17867 11.5762
2.07809 2.17891 11.6024
1.94028 2.31672 11.5905
1.94028 2.31672 11.5675
1.95561 2.30139 11.5752
2.00164 2.25536 11.5675
1.98629 2.27071 11.5752
1.97095 2.28605 11.5675
1.97095 2.28605 11.5675
1.95561 2.30139 11.5752
1.94028 2.31672 11.5675
1.48928 2.76772 11.604
1.48919 2.76781 11.5779
1.50509 2.75191 11.5914
1.50509 2.75191 11.5914
1.5206 2.7364 11.576
1.52092 2.73608 11.6025
1.47362 2.78338 11.5928
1.48919 2.76781 11.5779
1.48928 2.76772 11.604
1.47362 2.78338 11.5928
1.47412 2.78288 11.5675
1.48919 2.76781 11.5779
1.56833 2.68867 11.5907
[...]
<PointData Scalars="View Factor" >
<DataArray type="Float64" Name="View Factor" NumberOfComponents="1" format="ascii">
4.34356e-06
4.34356e-06
4.34356e-06
4.35969e-06
4.35969e-06
4.35969e-06
4.35441e-06
4.35441e-06
4.35441e-06
4.35335e-06
4.35335e-06
4.35335e-06
4.34707e-06
4.34707e-06
4.34707e-06
4.32012e-06
4.32012e-06
4.32012e-06
4.33743e-06
4.33743e-06
4.33743e-06
4.33552e-06
4.33552e-06
4.33552e-06
4.3297e-06
4.3297e-06
4.3297e-06
4.32605e-06
4.32605e-06
4.32605e-06
4.31311e-06
4.31311e-06
4.31311e-06
4.34643e-06
4.34643e-06
4.34643e-06
4.35177e-06
4.35177e-06
4.35177e-06
4.31845e-06
4.31845e-06
4.31845e-06
4.29605e-06
4.29605e-06
4.29605e-06
4.36233e-06
4.36233e-06
4.36233e-06
4.34561e-06
4.34561e-06
4.34561e-06
4.34298e-06
4.34298e-06
4.34298e-06
4.73265e-06
4.73265e-06
4.73265e-06
4.41031e-06
4.41031e-06
4.41031e-06
4.413e-06
4.413e-06
4.413e-06
4.49628e-06
4.49628e-06
4.49628e-06
8.75747e-06
8.75747e-06
8.75747e-06
8.34431e-06
8.34431e-06
8.34431e-06
4.33723e-06
4.33723e-06
4.33723e-06
4.33507e-06
4.33507e-06
4.33507e-06
4.32139e-06
4.32139e-06
4.32139e-06
4.31015e-06
4.31015e-06
4.31015e-06
4.27969e-06
4.27969e-06
4.27969e-06
4.29292e-06
4.29292e-06
4.29292e-06
4.2856e-06
4.2856e-06
4.2856e-06
4.30196e-06
4.30196e-06
4.30196e-06
4.30407e-06
4.30407e-06
4.30407e-06
4.39602e-06
4.39602e-06
4.39602e-06
4.32899e-06
4.32899e-06
4.32899e-06
4.31249e-06
4.31249e-06
4.31249e-06
4.32589e-06
4.32589e-06
4.32589e-06
4.49905e-06
4.49905e-06
4.49905e-06
4.72962e-06
4.72962e-06
4.72962e-06
4.46528e-06
4.46528e-06
4.46528e-06
4.37648e-06
4.37648e-06
4.37648e-06
4.37913e-06
4.37913e-06
4.37913e-06
4.40495e-06
4.40495e-06
4.40495e-06
4.39335e-06
4.39335e-06
4.39335e-06
4.36854e-06
4.36854e-06
4.36854e-06
4.37118e-06
4.37118e-06
4.37118e-06
4.43734e-06
4.43734e-06
4.43734e-06
5.72931e-06
5.72931e-06
5.72931e-06
6.30958e-06
6.30958e-06
6.30958e-06
4.90299e-06
4.90299e-06
4.90299e-06
8.25019e-06
8.25019e-06
8.25019e-06
7.79459e-06
7.79459e-06
7.79459e-06
8.45409e-06
8.45409e-06
8.45409e-06
4.71464e-06
4.71464e-06
4.71464e-06
4.56935e-06
4.56935e-06
4.56935e-06
4.53404e-06
4.53404e-06
4.53404e-06
4.63926e-06
4.63926e-06
4.63926e-06
4.62364e-06
4.62364e-06
4.62364e-06
4.59354e-06
4.59354e-06
4.59354e-06
4.51459e-06
4.51459e-06
4.51459e-06
4.58052e-06
4.58052e-06
4.58052e-06
4.56174e-06
4.56174e-06
4.56174e-06
4.54966e-06
4.54966e-06
4.54966e-06
4.57666e-06
4.57666e-06
4.57666e-06
4.57991e-06
4.57991e-06
4.57991e-06
4.5165e-06
4.5165e-06
4.5165e-06
4.53123e-06
4.53123e-06
4.53123e-06
4.51372e-06
4.51372e-06
4.51372e-06
4.52565e-06
4.52565e-06
4.52565e-06
4.50911e-06
4.50911e-06
4.50911e-06
4.47984e-06
4.47984e-06
4.47984e-06
4.54522e-06
4.54522e-06
4.54522e-06
4.53313e-06
4.53313e-06
4.53313e-06
4.48168e-06
4.48168e-06
4.48168e-06
4.49991e-06
4.49991e-06
4.49991e-06
4.49717e-06
4.49717e-06
4.49717e-06
4.48256e-06
4.48256e-06
4.48256e-06
4.41927e-06
4.41927e-06
4.41927e-06
4.42196e-06
4.42196e-06
4.42196e-06
4.43634e-06
4.43634e-06
4.43634e-06
4.45449e-06
4.45449e-06
4.45449e-06
4.44002e-06
4.44002e-06
4.44002e-06
4.42828e-06
4.42828e-06
4.42828e-06
4.43097e-06
4.43097e-06
4.43097e-06
4.46632e-06
4.46632e-06
4.46632e-06
4.48969e-06
4.48969e-06
4.48969e-06
4.36323e-06
4.36323e-06
4.36323e-06
4.36093e-06
4.36093e-06
4.36093e-06
4.42293e-06
4.42293e-06
4.42293e-06
4.42025e-06
4.42025e-06
4.42025e-06
4.62428e-06
4.62428e-06
4.62428e-06
4.50799e-06
4.50799e-06
4.50799e-06
4.49283e-06
4.49283e-06
4.49283e-06
4.4809e-06
4.4809e-06
4.4809e-06
4.4836e-06
4.4836e-06
4.4836e-06
5.43175e-06
5.43175e-06
5.43175e-06
5.4705e-06
5.4705e-06
5.4705e-06
5.56947e-06
5.56947e-06
5.56947e-06
5.63009e-06
5.63009e-06
5.63009e-06
5.7897e-06
5.7897e-06
5.7897e-06
6.38831e-06
6.38831e-06
6.38831e-06
7.22863e-06
7.22863e-06
7.22863e-06
7.21141e-06
7.21141e-06
7.21141e-06
7.75851e-06
7.75851e-06
7.75851e-06
7.72968e-06
7.72968e-06
7.72968e-06
7.17446e-06
7.17446e-06
7.17446e-06
8.02154e-06
8.02154e-06
8.02154e-06
8.35955e-06
8.35955e-06
8.35955e-06
7.73349e-06
7.73349e-06
7.73349e-06
7.64129e-06
7.64129e-06
7.64129e-06
7.5404e-06
7.5404e-06
7.5404e-06
8.00443e-06
8.00443e-06
8.00443e-06
5.63981e-06
5.63981e-06
5.63981e-06
5.60871e-06
5.60871e-06
5.60871e-06
5.54912e-06
5.54912e-06
5.54912e-06
5.76815e-06
5.76815e-06
5.76815e-06
5.70759e-06
5.70759e-06
5.70759e-06
5.74683e-06
5.74683e-06
5.74683e-06
7.07248e-06
7.07248e-06
7.07248e-06
6.33506e-06
6.33506e-06
6.33506e-06
6.37284e-06
6.37284e-06
6.37284e-06
6.34911e-06
6.34911e-06
6.34911e-06
6.28512e-06
6.28512e-06
6.28512e-06
6.32386e-06
6.32386e-06
6.32386e-06
6.42517e-06
6.42517e-06
6.42517e-06
6.26143e-06
6.26143e-06
6.26143e-06
6.27537e-06
6.27537e-06
6.27537e-06
6.23693e-06
6.23693e-06
6.23693e-06
6.29877e-06
6.29877e-06
6.29877e-06
4.90048e-06
4.90048e-06
4.90048e-06
4.9136e-06
4.9136e-06
4.9136e-06
5.23111e-06
5.23111e-06
5.23111e-06
5.0414e-06
5.0414e-06
5.0414e-06
5.12442e-06
5.12442e-06
5.12442e-06
1.01935e-05
1.01935e-05
1.01935e-05
9.96313e-06
9.96313e-06
9.96313e-06
1.03087e-05
1.03087e-05
1.03087e-05
1.03834e-05
1.03834e-05
1.03834e-05
9.33859e-06
9.33859e-06
9.33859e-06
8.88401e-06
8.88401e-06
8.88401e-06
9.23385e-06
9.23385e-06
9.23385e-06
1.01083e-05
1.01083e-05
1.01083e-05
1.00312e-05
1.00312e-05
1.00312e-05
7.84264e-06
7.84264e-06
7.84264e-06
8.04024e-06
8.04024e-06
8.04024e-06
7.97477e-06
7.97477e-06
7.97477e-06
8.53543e-06
8.53543e-06
8.53543e-06
8.46569e-06
8.46569e-06
8.46569e-06
8.1668e-06
8.1668e-06
8.1668e-06
4.74822e-06
4.74822e-06
4.74822e-06
4.605e-06
4.605e-06
4.605e-06
4.67796e-06
4.67796e-06
4.67796e-06
4.67458e-06
4.67458e-06
4.67458e-06
4.69626e-06
4.69626e-06
4.69626e-06
4.69332e-06
4.69332e-06
4.69332e-06
4.70579e-06
4.70579e-06
4.70579e-06
4.72126e-06
4.72126e-06
4.72126e-06
4.72421e-06
4.72421e-06
4.72421e-06
4.71168e-06
4.71168e-06
4.71168e-06
6.35979e-06
6.35979e-06
6.35979e-06
6.40425e-06
6.40425e-06
6.40425e-06
6.48233e-06
6.48233e-06
6.48233e-06
4.73975e-06
4.73975e-06
4.73975e-06
4.71413e-06
4.71413e-06
4.71413e-06
4.73914e-06
4.73914e-06
4.73914e-06
4.94552e-06
4.94552e-06
4.94552e-06
4.60505e-06
4.60505e-06
4.60505e-06
4.94112e-06
4.94112e-06
4.94112e-06
4.6991e-06
4.6991e-06
4.6991e-06
4.71505e-06
4.71505e-06
4.71505e-06
4.81371e-06
4.81371e-06
4.81371e-06
4.8566e-06
4.8566e-06
4.8566e-06
4.65159e-06
4.65159e-06
4.65159e-06
4.58713e-06
4.58713e-06
4.58713e-06
4.58427e-06
4.58427e-06
4.58427e-06
4.59639e-06
4.59639e-06
4.59639e-06
4.61142e-06
4.61142e-06
4.61142e-06
4.61429e-06
4.61429e-06
4.61429e-06
4.60212e-06
4.60212e-06
4.60212e-06
5.50574e-06
5.50574e-06
5.50574e-06
5.46326e-06
5.46326e-06
5.46326e-06
4.89449e-06
4.89449e-06
4.89449e-06
4.83219e-06
4.83219e-06
4.83219e-06
4.875e-06
4.875e-06
4.875e-06
4.9799e-06
4.9799e-06
4.9799e-06
5.48454e-06
5.48454e-06
5.48454e-06
5.54877e-06
5.54877e-06
5.54877e-06
5.63166e-06
5.63166e-06
5.63166e-06
5.52609e-06
5.52609e-06
5.52609e-06
4.99981e-06
4.99981e-06
4.99981e-06
5.04241e-06
5.04241e-06
5.04241e-06
4.50541e-06
4.50541e-06
4.50541e-06
4.51734e-06
4.51734e-06
4.51734e-06
4.53208e-06
4.53208e-06
4.53208e-06
4.50817e-06
4.50817e-06
4.50817e-06
4.52287e-06
4.52287e-06
4.52287e-06
4.53485e-06
4.53485e-06
4.53485e-06
4.56834e-06
4.56834e-06
4.56834e-06
4.54412e-06
4.54412e-06
4.54412e-06
4.55897e-06
4.55897e-06
4.55897e-06
4.5711e-06
4.5711e-06
4.5711e-06
4.6404e-06
4.6404e-06
4.6404e-06
4.63176e-06
4.63176e-06
4.63176e-06
4.64412e-06
4.64412e-06
4.64412e-06
4.54321e-06
4.54321e-06
4.54321e-06
4.57013e-06
4.57013e-06
4.57013e-06
4.55804e-06
4.55804e-06
4.55804e-06
4.56779e-06
4.56779e-06
4.56779e-06
4.55244e-06
4.55244e-06
4.55244e-06
4.54041e-06
4.54041e-06
4.54041e-06
4.52383e-06
4.52383e-06
4.52383e-06
4.53587e-06
4.53587e-06
4.53587e-06
4.5507e-06
4.5507e-06
4.5507e-06
4.52657e-06
4.52657e-06
4.52657e-06
4.55344e-06
4.55344e-06
4.55344e-06
4.54136e-06
4.54136e-06
4.54136e-06
4.56285e-06
4.56285e-06
4.56285e-06
4.57731e-06
4.57731e-06
4.57731e-06
4.58953e-06
4.58953e-06
4.58953e-06
4.56056e-06
4.56056e-06
4.56056e-06
4.50638e-06
4.50638e-06
4.50638e-06
4.51837e-06
4.51837e-06
4.51837e-06
4.49172e-06
4.49172e-06
4.49172e-06
4.48901e-06
4.48901e-06
4.48901e-06
4.54249e-06
4.54249e-06
4.54249e-06
4.4903e-06
4.4903e-06
4.4903e-06
4.47848e-06
4.47848e-06
4.47848e-06
4.46441e-06
4.46441e-06
4.46441e-06
4.48801e-06
4.48801e-06
4.48801e-06
4.43005e-06
4.43005e-06
4.43005e-06
4.45349e-06
4.45349e-06
4.45349e-06
4.42734e-06
4.42734e-06
4.42734e-06
4.43904e-06
4.43904e-06
4.43904e-06
4.44718e-06
4.44718e-06
4.44718e-06
4.46212e-06
4.46212e-06
4.46212e-06
4.4739e-06
4.4739e-06
4.4739e-06
4.47072e-06
4.47072e-06
4.47072e-06
4.4562e-06
4.4562e-06
4.4562e-06
4.44446e-06
4.44446e-06
4.44446e-06
4.47171e-06
4.47171e-06
4.47171e-06
4.44809e-06
4.44809e-06
4.44809e-06
4.45718e-06
4.45718e-06
4.45718e-06
4.44539e-06
4.44539e-06
4.44539e-06
4.47441e-06
4.47441e-06
4.47441e-06
4.46258e-06
4.46258e-06
4.46258e-06
4.44912e-06
4.44912e-06
4.44912e-06
4.46363e-06
4.46363e-06
4.46363e-06
4.47553e-06
4.47553e-06
4.47553e-06
4.38006e-06
4.38006e-06
4.38006e-06
4.40279e-06
4.40279e-06
4.40279e-06
4.39428e-06
4.39428e-06
4.39428e-06
4.4059e-06
4.4059e-06
4.4059e-06
4.37693e-06
4.37693e-06
4.37693e-06
4.38848e-06
4.38848e-06
4.38848e-06
4.35251e-06
4.35251e-06
4.35251e-06
4.35498e-06
4.35498e-06
4.35498e-06
4.36093e-06
4.36093e-06
4.36093e-06
4.36403e-06
4.36403e-06
4.36403e-06
4.37806e-06
4.37806e-06
4.37806e-06
4.3867e-06
4.3867e-06
4.3867e-06
4.3809e-06
4.3809e-06
4.3809e-06
4.37241e-06
4.37241e-06
4.37241e-06
4.36934e-06
4.36934e-06
4.36934e-06
4.41125e-06
4.41125e-06
4.41125e-06
4.38803e-06
4.38803e-06
4.38803e-06
4.38537e-06
4.38537e-06
4.38537e-06
4.39695e-06
4.39695e-06
4.39695e-06
4.40228e-06
4.40228e-06
4.40228e-06
4.41392e-06
4.41392e-06
4.41392e-06
5.3582e-06
5.3582e-06
5.3582e-06
5.4209e-06
5.4209e-06
5.4209e-06
5.04861e-06
5.04861e-06
5.04861e-06
5.25497e-06
5.25497e-06
5.25497e-06
4.60915e-06
4.60915e-06
4.60915e-06
5.34534e-06
5.34534e-06
5.34534e-06
5.45055e-06
5.45055e-06
5.45055e-06
5.41065e-06
5.41065e-06
5.41065e-06
6.42825e-06
6.42825e-06
6.42825e-06
6.28285e-06
6.28285e-06
6.28285e-06
5.67397e-06
5.67397e-06
5.67397e-06
5.61092e-06
5.61092e-06
5.61092e-06
7.29677e-06
7.29677e-06
7.29677e-06
7.59867e-06
7.59867e-06
7.59867e-06
7.26696e-06
7.26696e-06
7.26696e-06
7.8167e-06
7.8167e-06
7.8167e-06
7.96066e-06
7.96066e-06
7.96066e-06
7.92323e-06
7.92323e-06
7.92323e-06
7.82535e-06
7.82535e-06
7.82535e-06
7.76562e-06
7.76562e-06
7.76562e-06
7.86764e-06
7.86764e-06
7.86764e-06
7.9024e-06
7.9024e-06
7.9024e-06
7.65614e-06
7.65614e-06
7.65614e-06
7.62092e-06
7.62092e-06
7.62092e-06
7.45213e-06
7.45213e-06
7.45213e-06
7.51853e-06
7.51853e-06
7.51853e-06
7.53967e-06
7.53967e-06
7.53967e-06
7.43648e-06
7.43648e-06
7.43648e-06
7.74613e-06
7.74613e-06
7.74613e-06
7.84975e-06
7.84975e-06
7.84975e-06
7.91747e-06
7.91747e-06
7.91747e-06
7.49465e-06
7.49465e-06
7.49465e-06
7.3784e-06
7.3784e-06
7.3784e-06
7.4808e-06
7.4808e-06
7.4808e-06
8.08899e-06
8.08899e-06
8.08899e-06
8.05291e-06
8.05291e-06
8.05291e-06
7.9795e-06
7.9795e-06
7.9795e-06
8.32229e-06
8.32229e-06
8.32229e-06
7.43e-06
7.43e-06
7.43e-06
7.12969e-06
7.12969e-06
7.12969e-06
7.89699e-06
7.89699e-06
7.89699e-06
7.93329e-06
7.93329e-06
7.93329e-06
5.93819e-06
5.93819e-06
5.93819e-06
5.84562e-06
5.84562e-06
5.84562e-06
6.5511e-06
6.5511e-06
6.5511e-06
6.58933e-06
6.58933e-06
6.58933e-06
6.25651e-06
6.25651e-06
6.25651e-06
6.50097e-06
6.50097e-06
6.50097e-06
6.4891e-06
6.4891e-06
6.4891e-06
6.45082e-06
6.45082e-06
6.45082e-06
6.37586e-06
6.37586e-06
6.37586e-06
6.5775e-06
6.5775e-06
6.5775e-06
4.92193e-06
4.92193e-06
4.92193e-06
4.92891e-06
4.92891e-06
4.92891e-06
4.97983e-06
4.97983e-06
4.97983e-06
4.98254e-06
4.98254e-06
4.98254e-06
5.00218e-06
5.00218e-06
5.00218e-06
9.80755e-06
9.80755e-06
9.80755e-06
9.8473e-06
9.8473e-06
9.8473e-06
9.58298e-06
9.58298e-06
9.58298e-06
9.69025e-06
9.69025e-06
9.69025e-06
9.61447e-06
9.61447e-06
9.61447e-06
9.45549e-06
9.45549e-06
9.45549e-06
9.4978e-06
9.4978e-06
9.4978e-06
9.41802e-06
9.41802e-06
9.41802e-06
9.99879e-06
9.99879e-06
9.99879e-06
1.01517e-05
1.01517e-05
1.01517e-05
1.01143e-05
1.01143e-05
1.01143e-05
1.01558e-05
1.01558e-05
1.01558e-05
1.00409e-05
1.00409e-05
1.00409e-05
1.02823e-05
1.02823e-05
1.02823e-05
9.93671e-06
9.93671e-06
9.93671e-06
9.0798e-06
9.0798e-06
9.0798e-06
9.06417e-06
9.06417e-06
9.06417e-06
8.93194e-06
8.93194e-06
8.93194e-06
9.98366e-06
9.98366e-06
9.98366e-06
1.00227e-05
1.00227e-05
1.00227e-05
9.94709e-06
9.94709e-06
9.94709e-06
9.80002e-06
9.80002e-06
9.80002e-06
9.83599e-06
9.83599e-06
9.83599e-06
1.01805e-05
1.01805e-05
1.01805e-05
9.72611e-06
9.72611e-06
9.72611e-06
9.75586e-06
9.75586e-06
9.75586e-06
9.24674e-06
9.24674e-06
9.24674e-06
9.17355e-06
9.17355e-06
9.17355e-06
9.53806e-06
9.53806e-06
9.53806e-06
9.42442e-06
9.42442e-06
9.42442e-06
9.76575e-06
9.76575e-06
9.76575e-06
9.87979e-06
9.87979e-06
9.87979e-06
9.91714e-06
9.91714e-06
9.91714e-06
9.1252e-06
9.1252e-06
9.1252e-06
1.02602e-05
1.02602e-05
1.02602e-05
1.03002e-05
1.03002e-05
1.03002e-05
1.02229e-05
1.02229e-05
1.02229e-05
7.64453e-06
7.64453e-06
7.64453e-06
7.5765e-06
7.5765e-06
7.5765e-06
8.16151e-06
8.16151e-06
8.16151e-06
7.43933e-06
7.43933e-06
7.43933e-06
7.40048e-06
7.40048e-06
7.40048e-06
7.46873e-06
7.46873e-06
7.46873e-06
6.91786e-06
6.91786e-06
6.91786e-06
7.051e-06
7.051e-06
7.051e-06
8.44347e-06
8.44347e-06
8.44347e-06
8.40533e-06
8.40533e-06
8.40533e-06
7.7048e-06
7.7048e-06
7.7048e-06
7.80608e-06
7.80608e-06
7.80608e-06
7.87303e-06
7.87303e-06
7.87303e-06
7.8357e-06
7.8357e-06
7.8357e-06
7.94402e-06
7.94402e-06
7.94402e-06
8.00957e-06
8.00957e-06
8.00957e-06
8.03666e-06
8.03666e-06
8.03666e-06
8.14818e-06
8.14818e-06
8.14818e-06
8.11135e-06
8.11135e-06
8.11135e-06
9.71566e-06
9.71566e-06
9.71566e-06
9.6781e-06
9.6781e-06
9.6781e-06
9.64297e-06
9.64297e-06
9.64297e-06
8.50267e-06
8.50267e-06
8.50267e-06
8.57403e-06
8.57403e-06
8.57403e-06
8.64466e-06
8.64466e-06
8.64466e-06
8.60884e-06
8.60884e-06
8.60884e-06
8.82152e-06
8.82152e-06
8.82152e-06
8.7863e-06
8.7863e-06
8.7863e-06
8.75078e-06
8.75078e-06
8.75078e-06
8.89239e-06
8.89239e-06
8.89239e-06
8.1309e-06
8.1309e-06
8.1309e-06
8.05786e-06
8.05786e-06
8.05786e-06
8.54391e-06
8.54391e-06
8.54391e-06
8.50772e-06
8.50772e-06
8.50772e-06
8.27043e-06
8.27043e-06
8.27043e-06
8.55669e-06
8.55669e-06
8.55669e-06
8.65103e-06
8.65103e-06
8.65103e-06
8.76172e-06
8.76172e-06
8.76172e-06
8.14231e-06
8.14231e-06
8.14231e-06
8.17864e-06
8.17864e-06
8.17864e-06
8.31422e-06
8.31422e-06
8.31422e-06
8.4164e-06
8.4164e-06
8.4164e-06
8.28077e-06
8.28077e-06
8.28077e-06
8.34721e-06
8.34721e-06
8.34721e-06
4.99317e-06
4.99317e-06
4.99317e-06
5.00878e-06
5.00878e-06
5.00878e-06
5.02224e-06
5.02224e-06
5.02224e-06
5.02002e-06
5.02002e-06
5.02002e-06
5.06238e-06
5.06238e-06
5.06238e-06
5.04876e-06
5.04876e-06
5.04876e-06
5.03353e-06
5.03353e-06
5.03353e-06
5.90065e-06
5.90065e-06
5.90065e-06
4.9101e-06
4.9101e-06
4.9101e-06
4.92327e-06
4.92327e-06
4.92327e-06
4.96284e-06
4.96284e-06
4.96284e-06
4.9496e-06
4.9496e-06
4.9496e-06
4.65978e-06
4.65978e-06
4.65978e-06
4.65689e-06
4.65689e-06
4.65689e-06
4.64167e-06
4.64167e-06
4.64167e-06
4.62939e-06
4.62939e-06
4.62939e-06
4.64101e-06
4.64101e-06
4.64101e-06
4.66559e-06
4.66559e-06
4.66559e-06
4.68699e-06
4.68699e-06
4.68699e-06
4.71248e-06
4.71248e-06
4.71248e-06
4.7154e-06
4.7154e-06
4.7154e-06
4.70287e-06
4.70287e-06
4.70287e-06
6.31629e-06
6.31629e-06
6.31629e-06
6.23344e-06
6.23344e-06
6.23344e-06
6.35668e-06
6.35668e-06
6.35668e-06
6.5079e-06
6.5079e-06
6.5079e-06
6.61714e-06
6.61714e-06
6.61714e-06
6.6849e-06
6.6849e-06
6.6849e-06
6.46599e-06
6.46599e-06
6.46599e-06
6.6435e-06
6.6435e-06
6.6435e-06
6.53383e-06
6.53383e-06
6.53383e-06
6.44067e-06
6.44067e-06
6.44067e-06
6.65905e-06
6.65905e-06
6.65905e-06
6.74142e-06
6.74142e-06
6.74142e-06
7.57243e-06
7.57243e-06
7.57243e-06
6.79446e-06
6.79446e-06
6.79446e-06
7.46044e-06
7.46044e-06
7.46044e-06
5.50647e-06
5.50647e-06
5.50647e-06
6.19133e-06
6.19133e-06
6.19133e-06
6.25786e-06
6.25786e-06
6.25786e-06
6.08997e-06
6.08997e-06
6.08997e-06
5.93987e-06
5.93987e-06
5.93987e-06
5.98176e-06
5.98176e-06
5.98176e-06
6.33581e-06
6.33581e-06
6.33581e-06
5.34376e-06
5.34376e-06
5.34376e-06
5.66041e-06
5.66041e-06
5.66041e-06
5.72799e-06
5.72799e-06
5.72799e-06
5.84058e-06
5.84058e-06
5.84058e-06
5.90803e-06
5.90803e-06
5.90803e-06
6.31475e-06
6.31475e-06
6.31475e-06
6.0103e-06
6.0103e-06
6.0103e-06
6.22946e-06
6.22946e-06
6.22946e-06
4.73014e-06
4.73014e-06
4.73014e-06
4.74272e-06
4.74272e-06
4.74272e-06
5.48492e-06
5.48492e-06
5.48492e-06
5.26928e-06
5.26928e-06
5.26928e-06
5.33382e-06
5.33382e-06
5.33382e-06
5.44171e-06
5.44171e-06
5.44171e-06
4.97123e-06
4.97123e-06
4.97123e-06
5.25075e-06
5.25075e-06
5.25075e-06
4.85081e-06
4.85081e-06
4.85081e-06
4.71065e-06
4.71065e-06
4.71065e-06
4.69572e-06
4.69572e-06
4.69572e-06
4.67738e-06
4.67738e-06
4.67738e-06
4.70217e-06
4.70217e-06
4.70217e-06
4.70561e-06
4.70561e-06
4.70561e-06
4.69321e-06
4.69321e-06
4.69321e-06
4.65915e-06
4.65915e-06
4.65915e-06
4.65621e-06
4.65621e-06
4.65621e-06
4.66852e-06
4.66852e-06
4.66852e-06
4.68383e-06
4.68383e-06
4.68383e-06
4.68679e-06
4.68679e-06
4.68679e-06
4.67442e-06
4.67442e-06
4.67442e-06
4.54883e-06
4.54883e-06
4.54883e-06
4.56085e-06
4.56085e-06
4.56085e-06
4.57575e-06
4.57575e-06
4.57575e-06
4.55165e-06
4.55165e-06
4.55165e-06
4.57858e-06
4.57858e-06
4.57858e-06
4.5665e-06
4.5665e-06
4.5665e-06
4.75778e-06
4.75778e-06
4.75778e-06
4.90346e-06
4.90346e-06
4.90346e-06
4.80019e-06
4.80019e-06
4.80019e-06
4.81907e-06
4.81907e-06
4.81907e-06
4.61739e-06
4.61739e-06
4.61739e-06
4.64199e-06
4.64199e-06
4.64199e-06
4.6268e-06
4.6268e-06
4.6268e-06
4.6144e-06
4.6144e-06
4.6144e-06
4.66024e-06
4.66024e-06
4.66024e-06
4.64498e-06
4.64498e-06
4.64498e-06
4.63254e-06
4.63254e-06
4.63254e-06
4.63554e-06
4.63554e-06
4.63554e-06
4.66124e-06
4.66124e-06
4.66124e-06
4.68652e-06
4.68652e-06
4.68652e-06
4.65912e-06
4.65912e-06
4.65912e-06
4.67165e-06
4.67165e-06
4.67165e-06
4.6341e-06
4.6341e-06
4.6341e-06
4.64882e-06
4.64882e-06
4.64882e-06
4.73319e-06
4.73319e-06
4.73319e-06
4.71741e-06
4.71741e-06
4.71741e-06
4.83705e-06
4.83705e-06
4.83705e-06
4.7765e-06
4.7765e-06
4.7765e-06
4.69629e-06
4.69629e-06
4.69629e-06
4.79456e-06
4.79456e-06
4.79456e-06
4.72507e-06
4.72507e-06
4.72507e-06
4.7217e-06
4.7217e-06
4.7217e-06
4.69808e-06
4.69808e-06
4.69808e-06
4.66588e-06
4.66588e-06
4.66588e-06
4.66923e-06
4.66923e-06
4.66923e-06
4.69705e-06
4.69705e-06
4.69705e-06
4.68455e-06
4.68455e-06
4.68455e-06
4.96472e-06
4.96472e-06
4.96472e-06
4.92275e-06
4.92275e-06
4.92275e-06
4.98373e-06
4.98373e-06
4.98373e-06
5.08764e-06
5.08764e-06
5.08764e-06
5.12966e-06
5.12966e-06
5.12966e-06
5.06821e-06
5.06821e-06
5.06821e-06
5.11007e-06
5.11007e-06
5.11007e-06
5.21346e-06
5.21346e-06
5.21346e-06
5.00338e-06
5.00338e-06
5.00338e-06
4.96109e-06
4.96109e-06
4.96109e-06
5.02284e-06
5.02284e-06
5.02284e-06
5.12759e-06
5.12759e-06
5.12759e-06
5.44203e-06
5.44203e-06
5.44203e-06
5.33718e-06
5.33718e-06
5.33718e-06
5.06206e-06
5.06206e-06
5.06206e-06
5.1878e-06
5.1878e-06
5.1878e-06
5.35798e-06
5.35798e-06
5.35798e-06
5.14756e-06
5.14756e-06
5.14756e-06
5.29505e-06
5.29505e-06
5.29505e-06
5.19005e-06
5.19005e-06
5.19005e-06
5.37851e-06
5.37851e-06
5.37851e-06
6.16813e-06
6.16813e-06
6.16813e-06
6.20948e-06
6.20948e-06
6.20948e-06
5.65477e-06
5.65477e-06
5.65477e-06
5.69612e-06
5.69612e-06
5.69612e-06
4.62571e-06
4.62571e-06
4.62571e-06
4.62316e-06
4.62316e-06
4.62316e-06
4.59552e-06
4.59552e-06
4.59552e-06
4.60781e-06
4.60781e-06
4.60781e-06
4.60386e-06
4.60386e-06
4.60386e-06
4.61615e-06
4.61615e-06
4.61615e-06
4.58884e-06
4.58884e-06
4.58884e-06
4.61336e-06
4.61336e-06
4.61336e-06
4.58606e-06
4.58606e-06
4.58606e-06
4.59829e-06
4.59829e-06
4.59829e-06
4.53659e-06
4.53659e-06
4.53659e-06
4.5152e-06
4.5152e-06
4.5152e-06
4.52721e-06
4.52721e-06
4.52721e-06
4.50096e-06
4.50096e-06
4.50096e-06
4.5245e-06
4.5245e-06
4.5245e-06
4.4987e-06
4.4987e-06
4.4987e-06