<VTKFile type="UnstructuredGrid" version="1.0">
<UnstructuredGrid>
<Piece NumberOfPoints="8859" NumberOfCells="2953">
<Points>
<DataArray type="Float64" NumberOfComponents="3" format="ascii">
2.75455 1.50245 6.13763
2.76986 1.48714 6.14958
2.75465 1.50235 6.16333
2.78515 1.47185 6.08667
2.78516 1.47184 6.06151
2.8005 1.4565 6.07398
2.76981 1.48719 6.09936
2.78515 1.47185 6.08667
2.78514 1.47186 6.11186
2.72412 1.53288 6.18988
2.73952 1.51748 6.1975
2.70875 1.54825 6.1975
2.72412 1.53288 6.18988
2.73943 1.51757 6.17457
2.73952 1.51748 6.1975
2.75488 1.50212 6.18979
2.77036 1.48664 6.1975
2.73952 1.51748 6.1975
2.75488 1.50212 6.18979
2.73943 1.51757 6.17457
2.75465 1.50235 6.16333
2.73952 1.51748 6.1975
2.73943 1.51757 6.17457
2.75488 1.50212 6.18979
2.75465 1.50235 6.16333
2.76986 1.48714 6.14958
2.76997 1.48703 6.17427
2.76997 1.48703 6.17427
2.75488 1.50212 6.18979
2.75465 1.50235 6.16333
2.77036 1.48664 6.1975
2.75488 1.50212 6.18979
2.76997 1.48703 6.17427
2.76986 1.48714 6.14958
2.75455 1.50245 6.13763
2.76982 1.48718 6.12452
2.76981 1.48719 6.09936
2.78514 1.47186 6.11186
2.76982 1.48718 6.12452
2.7852 1.4718 6.16262
2.76997 1.48703 6.17427
2.76986 1.48714 6.14958
2.8005 1.4565 6.14895
2.8005 1.4565 6.17355
2.7852 1.4718 6.16262
2.8005 1.4565 6.04887
2.8005 1.4565 6.07398
2.78516 1.47184 6.06151
2.78515 1.47185 6.08667
2.8005 1.4565 6.07398
2.8005 1.4565 6.09906
2.8005 1.4565 6.09906
2.78514 1.47186 6.11186
2.78515 1.47185 6.08667
2.8005 1.4565 5.52152
2.8005 1.4565 5.54665
2.78518 1.47182 5.53407
2.78517 1.47183 5.98607
2.8005 1.4565 5.99861
2.78517 1.47183 6.01121
2.8005 1.4565 5.97348
2.8005 1.4565 5.99861
2.78517 1.47183 5.98607
2.78519 1.47181 5.86044
2.8005 1.4565 5.87299
2.78519 1.47181 5.88555
2.32274 1.93426 5.30559
2.33845 1.91855 5.2975
2.33845 1.91855 5.32063
2.27541 1.98159 6.1975
2.24359 2.01341 6.1975
2.25954 1.99746 6.18932
2.78515 1.47185 6.13712
2.76982 1.48718 6.12452
2.78514 1.47186 6.11186
2.76986 1.48714 6.14958
2.76982 1.48718 6.12452
2.78515 1.47185 6.13712
2.78515 1.47185 6.13712
2.7852 1.4718 6.16262
2.76986 1.48714 6.14958
2.8005 1.4565 6.14895
2.7852 1.4718 6.16262
2.78515 1.47185 6.13712
2.78544 1.47156 6.18884
2.8005 1.4565 6.17355
2.8005 1.4565 6.1975
2.78544 1.47156 6.18884
2.7852 1.4718 6.16262
2.8005 1.4565 6.17355
2.8005 1.4565 6.1975
2.77036 1.48664 6.1975
2.78544 1.47156 6.18884
2.77036 1.48664 6.1975
2.76997 1.48703 6.17427
2.78544 1.47156 6.18884
2.76997 1.48703 6.17427
2.7852 1.4718 6.16262
2.78544 1.47156 6.18884
2.78517 1.47183 6.01121
2.8005 1.4565 5.99861
2.8005 1.4565 6.02375
2.78514 1.47186 6.11186
2.8005 1.4565 6.09906
2.8005 1.4565 6.12407
2.8005 1.4565 6.14895
2.78515 1.47185 6.13712
2.8005 1.4565 6.12407
2.8005 1.4565 6.12407
2.78515 1.47185 6.13712
2.78514 1.47186 6.11186
2.8005 1.4565 5.84789
2.8005 1.4565 5.87299
2.78519 1.47181 5.86044
2.78518 1.47182 5.53407
2.8005 1.4565 5.54665
2.78518 1.47182 5.5592
2.76985 1.48715 5.97353
2.75454 1.50246 5.96098
2.76986 1.48714 5.94838
2.78516 1.47184 6.03636
2.8005 1.4565 6.04887
2.78516 1.47184 6.06151
2.78516 1.47184 6.03636
2.8005 1.4565 6.02375
2.8005 1.4565 6.04887
2.78516 1.47184 6.03636
2.76984 1.48716 6.02384
2.78517 1.47183 6.01121
2.78517 1.47183 6.01121
2.8005 1.4565 6.02375
2.78516 1.47184 6.03636
2.76982 1.48718 6.07418
2.78515 1.47185 6.08667
2.76981 1.48719 6.09936
2.76982 1.48718 6.07418
2.78516 1.47184 6.06151
2.78515 1.47185 6.08667
2.75451 1.50249 6.03649
2.7392 1.5178 6.04915
2.73921 1.51779 6.02394
2.53996 1.71704 6.16338
2.52458 1.73242 6.1499
2.53996 1.71704 6.13775
2.49374 1.76326 5.9988
2.49375 1.76325 6.024
2.47832 1.77868 6.01139
2.8005 1.4565 5.2975
2.8005 1.4565 5.32145
2.78544 1.47156 5.30616
2.27543 1.98157 6.17433
2.27541 1.98159 6.1975
2.25954 1.99746 6.18932
2.33845 1.91855 6.09946
2.32276 1.93424 6.11214
2.32275 1.93425 6.08685
2.25954 1.99746 6.18932
2.24359 2.01341 6.1975
2.24374 2.01326 6.17423
2.76987 1.48713 5.622
2.75455 1.50245 5.60943
2.76987 1.48713 5.59688
2.8005 1.4565 5.77259
2.78519 1.47181 5.76005
2.8005 1.4565 5.7475
2.78519 1.47181 5.81024
2.8005 1.4565 5.79769
2.8005 1.4565 5.82278
2.76988 1.48712 5.72241
2.75456 1.50244 5.73495
2.75456 1.50244 5.70986
2.76988 1.48712 5.7475
2.75456 1.50244 5.73495
2.76988 1.48712 5.72241
2.78519 1.47181 5.76005
2.76988 1.48712 5.77259
2.76988 1.48712 5.7475
2.75455 1.50245 5.88557
2.76987 1.48713 5.89812
2.75455 1.50245 5.9107
2.72393 1.53307 5.86047
2.72392 1.53308 5.88559
2.70861 1.54839 5.87303
2.75456 1.50244 5.86045
2.73924 1.51776 5.8479
2.75456 1.50244 5.83535
2.75456 1.50244 5.83535
2.76987 1.48713 5.84789
2.75456 1.50244 5.86045
2.73924 1.51776 5.8479
2.73925 1.51775 5.8228
2.75456 1.50244 5.83535
2.75456 1.50244 5.83535
2.73925 1.51775 5.8228
2.75456 1.50244 5.81024
2.8005 1.4565 5.82278
2.8005 1.4565 5.84789
2.78519 1.47181 5.83534
2.78519 1.47181 5.83534
2.78519 1.47181 5.81024
2.8005 1.4565 5.82278
2.78519 1.47181 5.83534
2.8005 1.4565 5.84789
2.78519 1.47181 5.86044
2.78519 1.47181 5.86044
2.76987 1.48713 5.84789
2.78519 1.47181 5.83534
2.75454 1.50246 5.93583
2.73923 1.51777 5.92328
2.75455 1.50245 5.9107
2.75454 1.50246 5.93583
2.76986 1.48714 5.94838
2.75454 1.50246 5.96098
2.7086 1.5484 5.9233
2.72392 1.53308 5.91072
2.72392 1.53308 5.93586
2.72392 1.53308 5.93586
2.72392 1.53308 5.91072
2.73923 1.51777 5.92328
2.8005 1.4565 5.8981
2.78519 1.47181 5.88555
2.8005 1.4565 5.87299
2.75455 1.50245 5.9107
2.76987 1.48713 5.89812
2.76986 1.48714 5.92325
2.76986 1.48714 5.92325
2.75454 1.50246 5.93583
2.75455 1.50245 5.9107
2.76986 1.48714 5.94838
2.75454 1.50246 5.93583
2.76986 1.48714 5.92325
2.78517 1.47183 6.01121
2.76984 1.48716 6.02384
2.76985 1.48715 5.99868
2.76985 1.48715 5.99868
2.78517 1.47183 5.98607
2.78517 1.47183 6.01121
2.76985 1.48715 5.97353
2.78517 1.47183 5.98607
2.76985 1.48715 5.99868
2.73921 1.51779 6.02394
2.73921 1.51779 5.99875
2.75452 1.50248 6.0113
2.75452 1.50248 6.0113
2.75451 1.50249 6.03649
2.73921 1.51779 6.02394
2.76984 1.48716 6.02384
2.75451 1.50249 6.03649
2.75452 1.50248 6.0113
2.75452 1.50248 6.0113
2.76985 1.48715 5.99868
2.76984 1.48716 6.02384
2.7239 1.5331 6.01138
2.73921 1.51779 5.99875
2.73921 1.51779 6.02394
2.7239 1.5331 6.01138
2.70859 1.54841 6.02401
2.70859 1.54841 5.99881
2.76981 1.48719 6.09936
2.76982 1.48718 6.12452
2.75451 1.50249 6.11222
2.75451 1.50249 6.11222
2.76982 1.48718 6.12452
2.75455 1.50245 6.13763
2.7392 1.5178 6.04915
2.75451 1.50249 6.03649
2.75451 1.50249 6.06169
2.75451 1.50249 6.06169
2.7392 1.5178 6.07437
2.7392 1.5178 6.04915
2.67798 1.57902 5.89817
2.66266 1.59434 5.91075
2.66266 1.59434 5.88561
2.70859 1.54841 5.99881
2.70859 1.54841 5.97362
2.7239 1.5331 5.98619
2.7239 1.5331 5.98619
2.7239 1.5331 6.01138
2.70859 1.54841 5.99881
2.73921 1.51779 5.99875
2.7239 1.5331 6.01138
2.7239 1.5331 5.98619
2.73922 1.51778 5.97358
2.73921 1.51779 5.99875
2.7239 1.5331 5.98619
2.57068 1.68632 6.13776
2.57068 1.68632 6.16339
2.55533 1.70167 6.14991
2.55533 1.70167 6.14991
2.57068 1.68632 6.16339
2.55533 1.70167 6.1745
2.55533 1.70167 6.14991
2.55533 1.70167 6.1745
2.53996 1.71704 6.16338
2.53996 1.71704 6.16338
2.53996 1.71704 6.13775
2.55533 1.70167 6.14991
2.52458 1.73242 6.12485
2.53996 1.71704 6.13775
2.52458 1.73242 6.1499
2.50912 1.74788 5.76005
2.50912 1.74788 5.78515
2.49371 1.76329 5.7726
2.41633 1.84067 5.88556
2.40077 1.85623 5.873
2.41632 1.84068 5.86045
2.41635 1.84065 5.93583
2.40081 1.85619 5.94839
2.40079 1.85621 5.92325
2.33845 1.91855 6.09946
2.32275 1.93425 6.08685
2.33843 1.91857 6.07424
2.33845 1.91855 6.12466
2.32276 1.93424 6.11214
2.33845 1.91855 6.09946
2.40087 1.85613 6.04912
2.40088 1.85612 6.07434
2.38531 1.87169 6.06172
2.30693 1.95007 5.99858
2.32265 1.93435 5.98603
2.32267 1.93433 6.0112
2.30684 1.95016 5.89803
2.29108 1.96592 5.91056
2.29106 1.96594 5.88546
2.32274 1.93426 6.18941
2.33845 1.91855 6.1975
2.30701 1.94999 6.1975
2.33845 1.91855 6.17437
2.33845 1.91855 6.1975
2.32274 1.93426 6.18941
2.35411 1.90289 6.18947
2.33845 1.91855 6.1975
2.33845 1.91855 6.17437
2.30704 1.94996 6.12461
2.30703 1.94997 6.14969
2.29128 1.96572 6.13746
2.55533 1.70167 6.1975
2.52458 1.73242 6.1975
2.53996 1.71704 6.18972
2.53996 1.71704 6.16338
2.55533 1.70167 6.1745
2.53996 1.71704 6.18972
2.53996 1.71704 6.18972
2.55533 1.70167 6.1745
2.55533 1.70167 6.1975
2.52458 1.73242 6.17449
2.52458 1.73242 6.1499
2.53996 1.71704 6.16338
2.53996 1.71704 6.16338
2.53996 1.71704 6.18972
2.52458 1.73242 6.17449
2.52458 1.73242 6.17449
2.53996 1.71704 6.18972
2.52458 1.73242 6.1975
2.41642 1.84058 6.06176
2.40088 1.85612 6.07434
2.40087 1.85613 6.04912
2.47831 1.77869 5.9862
2.49374 1.76326 5.97362
2.49374 1.76326 5.9988
2.49374 1.76326 5.9988
2.47832 1.77868 6.01139
2.47831 1.77869 5.9862
2.47833 1.77867 6.0366
2.47832 1.77868 6.01139
2.49375 1.76325 6.024
2.47833 1.77867 6.0366
2.49375 1.76325 6.024
2.49376 1.76324 6.04921
2.49376 1.76324 6.04921
2.47834 1.77866 6.06182
2.47833 1.77867 6.0366
2.47833 1.77867 6.0366
2.47834 1.77866 6.06182
2.46289 1.79411 6.04919
2.49377 1.76323 6.07443
2.47834 1.77866 6.06182
2.49376 1.76324 6.04921
2.49377 1.76323 6.09964
2.47835 1.77865 6.11234
2.47834 1.77866 6.08706
2.47834 1.77866 6.08706
2.49377 1.76323 6.07443
2.49377 1.76323 6.09964
2.47834 1.77866 6.06182
2.49377 1.76323 6.07443
2.47834 1.77866 6.08706
2.7852 1.4718 5.33238
2.78544 1.47156 5.30616
2.8005 1.4565 5.32145
2.76997 1.48703 5.32073
2.78544 1.47156 5.30616
2.7852 1.4718 5.33238
2.64739 1.60961 5.32048
2.64738 1.60962 5.2975
2.66272 1.59428 5.30521
2.70875 1.54825 5.2975
2.6934 1.5636 5.30517
2.67805 1.57895 5.2975
2.67805 1.57895 5.2975
2.66272 1.59428 5.30521
2.64738 1.60962 5.2975
2.19638 2.06062 5.33397
2.1963 2.0607 5.30786
2.2122 2.0448 5.32145
2.2122 2.0448 5.32145
2.22771 2.02929 5.30601
2.22802 2.02898 5.33245
2.18073 2.07627 5.32282
2.1963 2.0607 5.30786
2.19638 2.06062 5.33397
2.18073 2.07627 5.32282
2.18123 2.07577 5.2975
2.1963 2.0607 5.30786
2.27543 1.98157 5.32067
2.27541 1.98159 5.2975
2.29123 1.96577 5.30563
2.30701 1.94999 5.2975
[...]
<PointData Scalars="View Factor" >
<DataArray type="Float64" Name="View Factor" NumberOfComponents="1" format="ascii">
0.00103631
0.00103631
0.00103631
0.0011223
0.0011223
0.0011223
0.001093
0.001093
0.001093
0.000964737
0.000964737
0.000964737
0.000982363
0.000982363
0.000982363
0.00100605
0.00100605
0.00100605
0.00100888
0.00100888
0.00100888
0.000996187
0.000996187
0.000996187
0.00103674
0.00103674
0.00103674
0.00102274
0.00102274
0.00102274
0.00102376
0.00102376
0.00102376
0.00105031
0.00105031
0.00105031
0.00107864
0.00107864
0.00107864
0.00105078
0.00105078
0.00105078
0.00107891
0.00107891
0.00107891
0.00113717
0.00113717
0.00113717
0.00112221
0.00112221
0.00112221
0.00110752
0.00110752
0.00110752
0.00151681
0.00151681
0.00151681
0.00116806
0.00116806
0.00116806
0.00118359
0.00118359
0.00118359
0.00124948
0.00124948
0.00124948
0.00090794
0.00090794
0.00090794
0.000568882
0.000568882
0.000568882
0.00107868
0.00107868
0.00107868
0.00106453
0.00106453
0.00106453
0.00106455
0.00106455
0.00106455
0.00107872
0.00107872
0.00107872
0.00106511
0.00106511
0.00106511
0.00106465
0.00106465
0.00106465
0.00104714
0.00104714
0.00104714
0.00103767
0.00103767
0.00103767
0.00105071
0.00105071
0.00105071
0.00116786
0.00116786
0.00116786
0.0011075
0.0011075
0.0011075
0.00109307
0.00109307
0.00109307
0.00109303
0.00109303
0.00109303
0.00126625
0.00126625
0.00126625
0.00149623
0.00149623
0.00149623
0.00115282
0.00115282
0.00115282
0.00113732
0.00113732
0.00113732
0.00115239
0.00115239
0.00115239
0.00113746
0.00113746
0.00113746
0.00115253
0.00115253
0.00115253
0.00109297
0.00109297
0.00109297
0.0011076
0.0011076
0.0011076
0.0010776
0.0010776
0.0010776
0.000729632
0.000729632
0.000729632
0.000717567
0.000717567
0.000717567
0.00172672
0.00172672
0.00172672
0.000570407
0.000570407
0.000570407
0.000593912
0.000593912
0.000593912
0.000571881
0.000571881
0.000571881
0.00139704
0.00139704
0.00139704
0.00133748
0.00133748
0.00133748
0.00130127
0.00130127
0.00130127
0.00130327
0.00130327
0.00130327
0.0013031
0.0013031
0.0013031
0.0013027
0.0013027
0.0013027
0.00118434
0.00118434
0.00118434
0.00113528
0.00113528
0.00113528
0.00120037
0.00120037
0.00120037
0.00121692
0.00121692
0.00121692
0.00120022
0.00120022
0.00120022
0.00121684
0.00121684
0.00121684
0.00128361
0.00128361
0.00128361
0.00128402
0.00128402
0.00128402
0.00126661
0.00126661
0.00126661
0.00125004
0.00125004
0.00125004
0.00115258
0.00115258
0.00115258
0.00115278
0.00115278
0.00115278
0.00110497
0.00110497
0.00110497
0.00112082
0.00112082
0.00112082
0.00124917
0.00124917
0.00124917
0.00118437
0.00118437
0.00118437
0.00116846
0.00116846
0.00116846
0.0011685
0.0011685
0.0011685
0.0011375
0.0011375
0.0011375
0.00115278
0.00115278
0.00115278
0.00115286
0.00115286
0.00115286
0.00109205
0.00109205
0.00109205
0.0010923
0.0010923
0.0010923
0.00110734
0.00110734
0.00110734
0.00112234
0.00112234
0.00112234
0.00107693
0.00107693
0.00107693
0.00104675
0.00104675
0.00104675
0.00106424
0.00106424
0.00106424
0.00105003
0.00105003
0.00105003
0.00107784
0.00107784
0.00107784
0.00106333
0.00106333
0.00106333
0.00103982
0.00103982
0.00103982
0.00106083
0.00106083
0.00106083
0.00106137
0.00106137
0.00106137
0.00107658
0.00107658
0.00107658
0.00109147
0.00109147
0.00109147
0.000771138
0.000771138
0.000771138
0.000759366
0.000759366
0.000759366
0.000745618
0.000745618
0.000745618
0.000743449
0.000743449
0.000743449
0.000727563
0.000727563
0.000727563
0.000840162
0.000840162
0.000840162
0.000669892
0.000669892
0.000669892
0.00064772
0.00064772
0.00064772
0.000597676
0.000597676
0.000597676
0.000590021
0.000590021
0.000590021
0.00060611
0.00060611
0.00060611
0.000625699
0.000625699
0.000625699
0.000659912
0.000659912
0.000659912
0.00056595
0.00056595
0.00056595
0.000567952
0.000567952
0.000567952
0.000567815
0.000567815
0.000567815
0.000583335
0.000583335
0.000583335
0.000719841
0.000719841
0.000719841
0.000733707
0.000733707
0.000733707
0.000736211
0.000736211
0.000736211
0.000718159
0.000718159
0.000718159
0.000720074
0.000720074
0.000720074
0.000709108
0.000709108
0.000709108
0.000606513
0.000606513
0.000606513
0.000727102
0.000727102
0.000727102
0.000714871
0.000714871
0.000714871
0.0007055
0.0007055
0.0007055
0.000708179
0.000708179
0.000708179
0.000696262
0.000696262
0.000696262
0.000681749
0.000681749
0.000681749
0.000698906
0.000698906
0.000698906
0.00067822
0.00067822
0.00067822
0.000689808
0.000689808
0.000689808
0.000687168
0.000687168
0.000687168
0.00170383
0.00170383
0.00170383
0.00168169
0.00168169
0.00168169
0.00141165
0.00141165
0.00141165
0.00150836
0.00150836
0.00150836
0.00144044
0.00144044
0.00144044
0.000910105
0.000910105
0.000910105
0.000907628
0.000907628
0.000907628
0.000911624
0.000911624
0.000911624
0.000918715
0.000918715
0.000918715
0.000908545
0.000908545
0.000908545
0.00091171
0.00091171
0.00091171
0.000912021
0.000912021
0.000912021
0.000834272
0.000834272
0.000834272
0.000827777
0.000827777
0.000827777
0.000568461
0.000568461
0.000568461
0.000579771
0.000579771
0.000579771
0.000575966
0.000575966
0.000575966
0.000664992
0.000664992
0.000664992
0.000660391
0.000660391
0.000660391
0.00061039
0.00061039
0.00061039
0.00151765
0.00151765
0.00151765
0.00137494
0.00137494
0.00137494
0.00135848
0.00135848
0.00135848
0.00133992
0.00133992
0.00133992
0.00137758
0.00137758
0.00137758
0.00135872
0.00135872
0.00135872
0.0013402
0.0013402
0.0013402
0.00134024
0.00134024
0.00134024
0.00135909
0.00135909
0.00135909
0.00137788
0.00137788
0.00137788
0.00118842
0.00118842
0.00118842
0.00116966
0.00116966
0.00116966
0.00117134
0.00117134
0.00117134
0.00135915
0.00135915
0.00135915
0.00149545
0.00149545
0.00149545
0.00103775
0.00103775
0.00103775
0.00100533
0.00100533
0.00100533
0.00110273
0.00110273
0.00110273
0.00104838
0.00104838
0.00104838
0.00111386
0.00111386
0.00111386
0.00111289
0.00111289
0.00111289
0.00109573
0.00109573
0.00109573
0.00107976
0.00107976
0.00107976
0.00128552
0.00128552
0.00128552
0.00135605
0.00135605
0.00135605
0.00133796
0.00133796
0.00133796
0.00132044
0.00132044
0.00132044
0.00132074
0.00132074
0.00132074
0.0013388
0.0013388
0.0013388
0.00135657
0.00135657
0.00135657
0.00099129
0.00099129
0.00099129
0.00100676
0.00100676
0.00100676
0.00110974
0.00110974
0.00110974
0.00111086
0.00111086
0.00111086
0.00109465
0.00109465
0.00109465
0.0010774
0.0010774
0.0010774
0.00102065
0.00102065
0.00102065
0.00101882
0.00101882
0.00101882
0.000987563
0.000987563
0.000987563
0.00100498
0.00100498
0.00100498
0.00109224
0.00109224
0.00109224
0.0010761
0.0010761
0.0010761
0.00121669
0.00121669
0.00121669
0.00120047
0.00120047
0.00120047
0.00120048
0.00120048
0.00120048
0.00123314
0.00123314
0.00123314
0.00123334
0.00123334
0.00123334
0.00121689
0.00121689
0.00121689
0.00115158
0.00115158
0.00115158
0.00118416
0.00118416
0.00118416
0.00118404
0.00118404
0.00118404
0.00116762
0.00116762
0.00116762
0.00113309
0.00113309
0.00113309
0.00116608
0.00116608
0.00116608
0.00114923
0.00114923
0.00114923
0.00126722
0.00126722
0.00126722
0.00125054
0.00125054
0.00125054
0.00126745
0.00126745
0.00126745
0.00123362
0.00123362
0.00123362
0.00123357
0.00123357
0.00123357
0.00125024
0.00125024
0.00125024
0.00115237
0.00115237
0.00115237
0.00113639
0.00113639
0.00113639
0.00113607
0.00113607
0.00113607
0.00116824
0.00116824
0.00116824
0.0011519
0.0011519
0.0011519
0.00116809
0.00116809
0.00116809
0.00112
0.00112
0.00112
0.00111952
0.00111952
0.00111952
0.00110335
0.00110335
0.00110335
0.00110447
0.00110447
0.00110447
0.00113694
0.00113694
0.00113694
0.00112118
0.00112118
0.00112118
0.00113712
0.00113712
0.00113712
0.00112173
0.00112173
0.00112173
0.00108972
0.00108972
0.00108972
0.00121659
0.00121659
0.00121659
0.00123271
0.00123271
0.00123271
0.00123237
0.00123237
0.00123237
0.00120037
0.00120037
0.00120037
0.00119959
0.00119959
0.00119959
0.00116839
0.00116839
0.00116839
0.00118382
0.00118382
0.00118382
0.00116834
0.00116834
0.00116834
0.00121584
0.00121584
0.00121584
0.00121608
0.00121608
0.00121608
0.00120019
0.00120019
0.00120019
0.00118428
0.00118428
0.00118428
0.00118417
0.00118417
0.00118417
0.00119985
0.00119985
0.00119985
0.0011068
0.0011068
0.0011068
0.0011375
0.0011375
0.0011375
0.00110702
0.00110702
0.00110702
0.00112226
0.00112226
0.00112226
0.00112197
0.00112197
0.00112197
0.00113743
0.00113743
0.00113743
0.00106268
0.00106268
0.00106268
0.00106225
0.00106225
0.00106225
0.00104725
0.00104725
0.00104725
0.00107839
0.00107839
0.00107839
0.00104932
0.00104932
0.00104932
0.00107826
0.00107826
0.00107826
0.00106361
0.00106361
0.00106361
0.00106405
0.00106405
0.00106405
0.0010496
0.0010496
0.0010496
0.00100881
0.00100881
0.00100881
0.00102225
0.00102225
0.00102225
0.000981147
0.000981147
0.000981147
0.00099487
0.00099487
0.00099487
0.00099417
0.00099417
0.00099417
0.0010355
0.0010355
0.0010355
0.00100786
0.00100786
0.00100786
0.00103578
0.00103578
0.00103578
0.00102198
0.00102198
0.00102198
0.00109268
0.00109268
0.00109268
0.00112243
0.00112243
0.00112243
0.00110759
0.00110759
0.00110759
0.00109282
0.00109282
0.00109282
0.00112245
0.00112245
0.00112245
0.00110748
0.00110748
0.00110748
0.000940668
0.000940668
0.000940668
0.000938924
0.000938924
0.000938924
0.000989139
0.000989139
0.000989139
0.000956809
0.000956809
0.000956809
0.00104079
0.00104079
0.00104079
0.000760389
0.000760389
0.000760389
0.000749782
0.000749782
0.000749782
0.000761009
0.000761009
0.000761009
0.000826056
0.000826056
0.000826056
0.000857091
0.000857091
0.000857091
0.000972174
0.000972174
0.000972174
0.000974122
0.000974122
0.000974122
0.000674057
0.000674057
0.000674057
0.000637843
0.000637843
0.000637843
0.00066512
0.00066512
0.00066512
0.000685789
0.000685789
0.000685789
0.000681086
0.000681086
0.000681086
0.000685641
0.000685641
0.000685641
0.000601621
0.000601621
0.000601621
0.000586288
0.000586288
0.000586288
0.00058653
0.00058653
0.00058653
0.00058297
0.00058297
0.00058297
0.000597569
0.000597569
0.000597569
0.000601403
0.000601403
0.000601403
0.000597594
0.000597594
0.000597594
0.000601427
0.000601427
0.000601427
0.000621369
0.000621369
0.000621369
0.00062155
0.00062155
0.00062155
0.000621273
0.000621273
0.000621273
0.000621355
0.000621355
0.000621355
0.000625483
0.000625483
0.000625483
0.000638051
0.000638051
0.000638051
0.00060555
0.00060555
0.00060555
0.000605398
0.000605398
0.000605398
0.000629919
0.000629919
0.000629919
0.000633891
0.000633891
0.000633891
0.000642007
0.000642007
0.000642007
0.000664047
0.000664047
0.000664047
0.000565584
0.000565584
0.000565584
0.000565854
0.000565854
0.000565854
0.000594149
0.000594149
0.000594149
0.000590489
0.000590489
0.000590489
0.000679344
0.000679344
0.000679344
0.000695573
0.000695573
0.000695573
0.000728356
0.000728356
0.000728356
0.000715794
0.000715794
0.000715794
0.000752055
0.000752055
0.000752055
0.000611444
0.000611444
0.000611444
0.000678954
0.000678954
0.000678954
0.000690786
0.000690786
0.000690786
0.000664095
0.000664095
0.000664095
0.000635903
0.000635903
0.000635903
0.00171248
0.00171248
0.00171248
0.00168219
0.00168219
0.00168219
0.00157033
0.00157033
0.00157033
0.00159205
0.00159205
0.00159205
0.00157649
0.00157649
0.00157649
0.000911778
0.000911778
0.000911778
0.000906451
0.000906451
0.000906451
0.000913831
0.000913831
0.000913831
0.000910762
0.000910762
0.000910762
0.000904465
0.000904465
0.000904465
0.00090913
0.00090913
0.00090913
0.000903653
0.000903653
0.000903653
0.000896637
0.000896637
0.000896637
0.000901548
0.000901548
0.000901548
0.00089731
0.00089731
0.00089731
0.000902813
0.000902813
0.000902813
0.000915488
0.000915488
0.000915488
0.000914277
0.000914277
0.000914277
0.000921235
0.000921235
0.000921235
0.000916983
0.000916983
0.000916983
0.000841186
0.000841186
0.000841186
0.000721999
0.000721999
0.000721999
0.000829211
0.000829211
0.000829211
0.000756697
0.000756697
0.000756697
0.000766863
0.000766863
0.000766863
0.000760862
0.000760862
0.000760862
0.000763437
0.000763437
0.000763437
0.000759159
0.000759159
0.000759159
0.000809207
0.000809207
0.000809207
0.000772209
0.000772209
0.000772209
0.000712097
0.000712097
0.000712097
0.000728304
0.000728304
0.000728304
0.000722962
0.000722962
0.000722962
0.00082731
0.00082731
0.00082731
0.000826319
0.000826319
0.000826319
0.000829691
0.000829691
0.000829691
0.000831081
0.000831081
0.000831081
0.000826181
0.000826181
0.000826181
0.000802404
0.000802404
0.000802404
0.000831394
0.000831394
0.000831394
0.000842731
0.000842731
0.000842731
0.000836083
0.000836083
0.000836083
0.000734647
0.000734647
0.000734647
0.000729998
0.000729998
0.000729998
0.000708791
0.000708791
0.000708791
0.000720857
0.000720857
0.000720857
0.000726143
0.000726143
0.000726143
0.000730706
0.000730706
0.000730706
0.000755706
0.000755706
0.000755706
0.000748952
0.000748952
0.000748952
0.00072826
0.00072826
0.00072826
0.000733052
0.000733052
0.000733052
0.000571358
0.000571358
0.000571358
0.000571606
0.000571606
0.000571606
0.000575599
0.000575599
0.000575599
0.000579046
0.000579046
0.000579046
0.000568831
0.000568831
0.000568831
0.000572337
0.000572337
0.000572337
0.000567084
0.000567084
0.000567084
0.000569796
0.000569796
0.000569796
0.000572824
0.000572824
0.000572824
0.000689979
0.000689979
0.000689979
0.000681051
0.000681051
0.000681051
0.00068468
0.00068468
0.00068468
0.000656367
0.000656367
0.000656367
0.000648475
0.000648475
0.000648475
0.00065306
0.00065306
0.00065306
0.000656996
0.000656996
0.000656996
0.000658541
0.000658541
0.000658541
0.000650037
0.000650037
0.000650037
0.000653837
0.000653837
0.000653837
0.000650959
0.000650959
0.000650959
0.000614134
0.000614134
0.000614134
0.000621792
0.000621792
0.000621792
0.000628148
0.000628148
0.000628148
0.000631854
0.000631854
0.000631854
0.000610882
0.000610882
0.000610882
0.000572763
0.000572763
0.000572763
0.000571476
0.000571476
0.000571476
0.000574764
0.000574764
0.000574764
0.00058026
0.00058026
0.00058026
0.000576943
0.000576943
0.000576943
0.00057405
0.00057405
0.00057405
0.000574787
0.000574787
0.000574787
0.000577557
0.000577557
0.000577557
0.000581512
0.000581512
0.000581512
0.00154789
0.00154789
0.00154789
0.00154685
0.00154685
0.00154685
0.00152424
0.00152424
0.00152424
0.00150301
0.00150301
0.00150301
0.00145659
0.00145659
0.00145659
0.00147912
0.00147912
0.00147912
0.00148061
0.00148061
0.00148061
0.00111731
0.00111731
0.00111731
0.00165764
0.00165764
0.00165764
0.00163565
0.00163565
0.00163565
0.00156928
0.00156928
0.00156928
0.00159144
0.00159144
0.00159144
0.00133969
0.00133969
0.00133969
0.00132144
0.00132144
0.00132144
0.00132128
0.00132128
0.00132128
0.00133916
0.00133916
0.00133916
0.00141372
0.00141372
0.00141372
0.00137689
0.00137689
0.00137689
0.00132166
0.00132166
0.00132166
0.00128518
0.00128518
0.00128518
0.00130333
0.00130333
0.00130333
0.00132171
0.00132171
0.00132171
0.00090794
0.00090794
0.00090794
0.00093862
0.00093862
0.00093862
0.00100632
0.00100632
0.00100632
0.000970389
0.000970389
0.000970389
0.000951152
0.000951152
0.000951152
0.000948171
0.000948171
0.000948171
0.00098692
0.00098692
0.00098692
0.000964608
0.000964608
0.000964608
0.000984124
0.000984124
0.000984124
0.000973182
0.000973182
0.000973182
0.000934973
0.000934973
0.000934973
0.00090321
0.00090321
0.00090321
0.000860364
0.000860364
0.000860364
0.000928826
0.000928826
0.000928826
0.000880731
0.000880731
0.000880731
0.00112839
0.00112839
0.00112839
0.0009542
0.0009542
0.0009542
0.00095166
0.00095166
0.00095166
0.00101629
0.00101629
0.00101629
0.00105197
0.00105197
0.00105197
0.0010352
0.0010352
0.0010352
0.00117171
0.00117171
0.00117171
0.00138921
0.00138921
0.00138921
0.00130343
0.00130343
0.00130343
0.00130234
0.00130234
0.00130234
0.00128017
0.00128017
0.00128017
0.0012774
0.0012774
0.0012774
0.00102321
0.00102321
0.00102321
0.00109739
0.00109739
0.00109739
0.00105762
0.00105762
0.00105762
0.00139733
0.00139733
0.00139733
0.00137827
0.00137827
0.00137827
0.00111267
0.00111267
0.00111267
0.00115045
0.00115045
0.00115045
0.00114904
0.00114904
0.00114904
0.00113002
0.00113002
0.00113002
0.00117291
0.00117291
0.00117291
0.0010868
0.0010868
0.0010868
0.00112625
0.00112625
0.00112625
0.00147527
0.00147527
0.00147527
0.00147448
0.00147448
0.00147448
0.00145386
0.00145386
0.00145386
0.00141598
0.00141598
0.00141598
0.00143545
0.00143545
0.00143545
0.00145454
0.00145454
0.00145454
0.00143362
0.00143362
0.00143362
0.00141435
0.00141435
0.00141435
0.0013958
0.0013958
0.0013958
0.00139625
0.00139625
0.00139625
0.00141549
0.00141549
0.00141549
0.0014343
0.0014343
0.0014343
0.00130167
0.00130167
0.00130167
0.00128463
0.00128463
0.00128463
0.00128489
0.00128489
0.00128489
0.00131922
0.00131922
0.00131922
0.00130239
0.00130239
0.00130239
0.00131967
0.00131967
0.00131967
0.00105187
0.00105187
0.00105187
0.0010203
0.0010203
0.0010203
0.00103662
0.00103662
0.00103662
0.00105075
0.00105075
0.00105075
0.00108647
0.00108647
0.00108647
0.00105398
0.00105398
0.00105398
0.00105494
0.00105494
0.00105494
0.00107107
0.00107107
0.00107107
0.00106832
0.00106832
0.00106832
0.00106929
0.00106929
0.00106929
0.00108565
0.00108565
0.00108565
0.00110126
0.00110126
0.00110126
0.00116507
0.00116507
0.00116507
0.00113092
0.00113092
0.00113092
0.00114863
0.00114863
0.00114863
0.00113168
0.00113168
0.00113168
0.0011826
0.0011826
0.0011826
0.00118217
0.00118217
0.00118217
0.00112827
0.00112827
0.00112827
0.0011292
0.0011292
0.0011292
0.00106516
0.00106516
0.00106516
0.00106626
0.00106626
0.00106626
0.00109782
0.00109782
0.00109782
0.0010809
0.0010809
0.0010809
0.00126694
0.00126694
0.00126694
0.00124913
0.00124913
0.00124913
0.00119748
0.00119748
0.00119748
0.0012855
0.0012855
0.0012855
0.00130343
0.00130343
0.00130343
0.00128532
0.00128532
0.00128532
0.00130344
0.00130344
0.00130344
0.00101902
0.00101902
0.00101902
0.0010342
0.0010342
0.0010342
0.00103295
0.00103295
0.00103295
0.00101631
0.00101631
0.00101631
0.00100115
0.00100115
0.00100115
0.0010026
0.0010026
0.0010026
0.000987685
0.000987685
0.000987685
0.000971407
0.000971407
0.000971407
0.00104707
0.00104707
0.00104707
0.00106274
0.00106274
0.00106274
0.00106149
0.00106149
0.00106149
0.00104437
0.00104437
0.00104437
0.000993092
0.000993092
0.000993092
0.00101017
0.00101017
0.00101017
0.00109097
0.00109097
0.00109097
0.00108828
0.00108828
0.00108828
0.00102407
0.00102407
0.00102407
0.00105874
0.00105874
0.00105874
0.00102569
0.00102569
0.00102569
0.00104291
0.00104291
0.00104291
0.00108376
0.00108376
0.00108376
0.00094112
0.00094112
0.00094112
0.000925751
0.000925751
0.000925751
0.00100116
0.00100116
0.00100116
0.000985579
0.000985579
0.000985579
0.00113371
0.00113371
0.00113371
0.00111775
0.00111775
0.00111775
0.00113479
0.00113479
0.00113479
0.0011184
0.0011184
0.0011184
0.00118329
0.00118329
0.00118329
0.00116653
0.00116653
0.00116653
0.00118357
0.00118357
0.00118357
0.00115034
0.00115034
0.00115034
0.0011673
0.0011673
0.0011673
0.00115078
0.00115078
0.00115078
0.00105964
0.00105964
0.00105964
0.00110587
0.00110587
0.00110587
0.00109024
0.00109024
0.00109024
0.00110619
0.00110619
0.00110619
0.00107515
0.00107515
0.00107515
0.00109105
0.00109105
0.00109105
0.00107563
0.00107563
0.00107563
0.000954768
0.000954768
0.000954768
0.000967301
0.000967301
0.000967301
0.00100735
0.00100735
0.00100735
0.00102118
0.00102118
0.00102118
0.000803736
0.000803736
0.000803736
0.000901788
0.000901788
0.000901788
0.000915709
0.000915709
0.000915709
0.000991857
0.000991857
0.000991857
0.00102382
0.00102382
0.00102382
0.0010227
0.0010227
0.0010227
0.00100661
0.00100661
0.00100661
0.000965544
0.000965544
0.000965544
0.00105669
0.00105669
0.00105669
0.00108853
0.00108853
0.00108853
0.00107186
0.00107186
0.00107186
0.0010879
0.0010879
0.0010879
0.00104256
0.00104256
0.00104256
0.00104338
0.00104338
0.00104338
0.00105898
0.00105898
0.00105898
0.00107399
0.00107399
0.00107399
0.00107332
0.00107332
0.00107332
0.0010575
0.0010575
0.0010575
0.00102687
0.00102687
0.00102687
0.00101223
0.00101223
0.00101223
0.000996664
0.000996664
0.000996664
0.00102591
0.00102591
0.00102591
0.00104553
0.00104553
0.00104553
0.00104484
0.00104484
0.00104484
0.000983387
0.000983387
0.000983387
0.000966816