<VTKFile type="UnstructuredGrid" version="1.0">
<UnstructuredGrid>
<Piece NumberOfPoints="8859" NumberOfCells="2953">
<Points>
<DataArray type="Float64" NumberOfComponents="3" format="ascii">
2.75455 1.50245 1.95763
2.76986 1.48714 1.96958
2.75465 1.50235 1.98333
2.78515 1.47185 1.90667
2.78516 1.47184 1.88151
2.8005 1.4565 1.89398
2.76981 1.48719 1.91936
2.78515 1.47185 1.90667
2.78514 1.47186 1.93186
2.72412 1.53288 2.00988
2.73952 1.51748 2.0175
2.70875 1.54825 2.0175
2.72412 1.53288 2.00988
2.73943 1.51757 1.99457
2.73952 1.51748 2.0175
2.75488 1.50212 2.00979
2.77036 1.48664 2.0175
2.73952 1.51748 2.0175
2.75488 1.50212 2.00979
2.73943 1.51757 1.99457
2.75465 1.50235 1.98333
2.73952 1.51748 2.0175
2.73943 1.51757 1.99457
2.75488 1.50212 2.00979
2.75465 1.50235 1.98333
2.76986 1.48714 1.96958
2.76997 1.48703 1.99427
2.76997 1.48703 1.99427
2.75488 1.50212 2.00979
2.75465 1.50235 1.98333
2.77036 1.48664 2.0175
2.75488 1.50212 2.00979
2.76997 1.48703 1.99427
2.76986 1.48714 1.96958
2.75455 1.50245 1.95763
2.76982 1.48718 1.94452
2.76981 1.48719 1.91936
2.78514 1.47186 1.93186
2.76982 1.48718 1.94452
2.7852 1.4718 1.98262
2.76997 1.48703 1.99427
2.76986 1.48714 1.96958
2.8005 1.4565 1.96895
2.8005 1.4565 1.99355
2.7852 1.4718 1.98262
2.8005 1.4565 1.86887
2.8005 1.4565 1.89398
2.78516 1.47184 1.88151
2.78515 1.47185 1.90667
2.8005 1.4565 1.89398
2.8005 1.4565 1.91906
2.8005 1.4565 1.91906
2.78514 1.47186 1.93186
2.78515 1.47185 1.90667
2.8005 1.4565 1.34152
2.8005 1.4565 1.36665
2.78518 1.47182 1.35407
2.78517 1.47183 1.80607
2.8005 1.4565 1.81861
2.78517 1.47183 1.83121
2.8005 1.4565 1.79348
2.8005 1.4565 1.81861
2.78517 1.47183 1.80607
2.78519 1.47181 1.68044
2.8005 1.4565 1.69299
2.78519 1.47181 1.70555
2.32274 1.93426 1.12559
2.33845 1.91855 1.1175
2.33845 1.91855 1.14063
2.27541 1.98159 2.0175
2.24359 2.01341 2.0175
2.25954 1.99746 2.00932
2.78515 1.47185 1.95712
2.76982 1.48718 1.94452
2.78514 1.47186 1.93186
2.76986 1.48714 1.96958
2.76982 1.48718 1.94452
2.78515 1.47185 1.95712
2.78515 1.47185 1.95712
2.7852 1.4718 1.98262
2.76986 1.48714 1.96958
2.8005 1.4565 1.96895
2.7852 1.4718 1.98262
2.78515 1.47185 1.95712
2.78544 1.47156 2.00884
2.8005 1.4565 1.99355
2.8005 1.4565 2.0175
2.78544 1.47156 2.00884
2.7852 1.4718 1.98262
2.8005 1.4565 1.99355
2.8005 1.4565 2.0175
2.77036 1.48664 2.0175
2.78544 1.47156 2.00884
2.77036 1.48664 2.0175
2.76997 1.48703 1.99427
2.78544 1.47156 2.00884
2.76997 1.48703 1.99427
2.7852 1.4718 1.98262
2.78544 1.47156 2.00884
2.78517 1.47183 1.83121
2.8005 1.4565 1.81861
2.8005 1.4565 1.84374
2.78514 1.47186 1.93186
2.8005 1.4565 1.91906
2.8005 1.4565 1.94407
2.8005 1.4565 1.96895
2.78515 1.47185 1.95712
2.8005 1.4565 1.94407
2.8005 1.4565 1.94407
2.78515 1.47185 1.95712
2.78514 1.47186 1.93186
2.8005 1.4565 1.66788
2.8005 1.4565 1.69299
2.78519 1.47181 1.68044
2.78518 1.47182 1.35407
2.8005 1.4565 1.36665
2.78518 1.47182 1.3792
2.76985 1.48715 1.79353
2.75454 1.50246 1.78098
2.76986 1.48714 1.76838
2.78516 1.47184 1.85636
2.8005 1.4565 1.86887
2.78516 1.47184 1.88151
2.78516 1.47184 1.85636
2.8005 1.4565 1.84374
2.8005 1.4565 1.86887
2.78516 1.47184 1.85636
2.76984 1.48716 1.84384
2.78517 1.47183 1.83121
2.78517 1.47183 1.83121
2.8005 1.4565 1.84374
2.78516 1.47184 1.85636
2.76982 1.48718 1.89418
2.78515 1.47185 1.90667
2.76981 1.48719 1.91936
2.76982 1.48718 1.89418
2.78516 1.47184 1.88151
2.78515 1.47185 1.90667
2.75451 1.50249 1.85649
2.7392 1.5178 1.86915
2.73921 1.51779 1.84394
2.53996 1.71704 1.98338
2.52458 1.73242 1.9699
2.53996 1.71704 1.95775
2.49374 1.76326 1.8188
2.49375 1.76325 1.844
2.47832 1.77868 1.83139
2.8005 1.4565 1.1175
2.8005 1.4565 1.14145
2.78544 1.47156 1.12616
2.27543 1.98157 1.99433
2.27541 1.98159 2.0175
2.25954 1.99746 2.00932
2.33845 1.91855 1.91946
2.32276 1.93424 1.93214
2.32275 1.93425 1.90685
2.25954 1.99746 2.00932
2.24359 2.01341 2.0175
2.24374 2.01326 1.99423
2.76987 1.48713 1.442
2.75455 1.50245 1.42943
2.76987 1.48713 1.41688
2.8005 1.4565 1.59259
2.78519 1.47181 1.58005
2.8005 1.4565 1.5675
2.78519 1.47181 1.63024
2.8005 1.4565 1.61769
2.8005 1.4565 1.64278
2.76988 1.48712 1.54241
2.75456 1.50244 1.55495
2.75456 1.50244 1.52986
2.76988 1.48712 1.5675
2.75456 1.50244 1.55495
2.76988 1.48712 1.54241
2.78519 1.47181 1.58005
2.76988 1.48712 1.59259
2.76988 1.48712 1.5675
2.75455 1.50245 1.70557
2.76987 1.48713 1.71812
2.75455 1.50245 1.7307
2.72393 1.53307 1.68047
2.72392 1.53308 1.70559
2.70861 1.54839 1.69303
2.75456 1.50244 1.68045
2.73924 1.51776 1.6679
2.75456 1.50244 1.65535
2.75456 1.50244 1.65535
2.76987 1.48713 1.66789
2.75456 1.50244 1.68045
2.73924 1.51776 1.6679
2.73925 1.51775 1.6428
2.75456 1.50244 1.65535
2.75456 1.50244 1.65535
2.73925 1.51775 1.6428
2.75456 1.50244 1.63024
2.8005 1.4565 1.64278
2.8005 1.4565 1.66788
2.78519 1.47181 1.65534
2.78519 1.47181 1.65534
2.78519 1.47181 1.63024
2.8005 1.4565 1.64278
2.78519 1.47181 1.65534
2.8005 1.4565 1.66788
2.78519 1.47181 1.68044
2.78519 1.47181 1.68044
2.76987 1.48713 1.66789
2.78519 1.47181 1.65534
2.75454 1.50246 1.75583
2.73923 1.51777 1.74328
2.75455 1.50245 1.7307
2.75454 1.50246 1.75583
2.76986 1.48714 1.76838
2.75454 1.50246 1.78098
2.7086 1.5484 1.7433
2.72392 1.53308 1.73072
2.72392 1.53308 1.75586
2.72392 1.53308 1.75586
2.72392 1.53308 1.73072
2.73923 1.51777 1.74328
2.8005 1.4565 1.7181
2.78519 1.47181 1.70555
2.8005 1.4565 1.69299
2.75455 1.50245 1.7307
2.76987 1.48713 1.71812
2.76986 1.48714 1.74325
2.76986 1.48714 1.74325
2.75454 1.50246 1.75583
2.75455 1.50245 1.7307
2.76986 1.48714 1.76838
2.75454 1.50246 1.75583
2.76986 1.48714 1.74325
2.78517 1.47183 1.83121
2.76984 1.48716 1.84384
2.76985 1.48715 1.81868
2.76985 1.48715 1.81868
2.78517 1.47183 1.80607
2.78517 1.47183 1.83121
2.76985 1.48715 1.79353
2.78517 1.47183 1.80607
2.76985 1.48715 1.81868
2.73921 1.51779 1.84394
2.73921 1.51779 1.81875
2.75452 1.50248 1.8313
2.75452 1.50248 1.8313
2.75451 1.50249 1.85649
2.73921 1.51779 1.84394
2.76984 1.48716 1.84384
2.75451 1.50249 1.85649
2.75452 1.50248 1.8313
2.75452 1.50248 1.8313
2.76985 1.48715 1.81868
2.76984 1.48716 1.84384
2.7239 1.5331 1.83138
2.73921 1.51779 1.81875
2.73921 1.51779 1.84394
2.7239 1.5331 1.83138
2.70859 1.54841 1.84401
2.70859 1.54841 1.81881
2.76981 1.48719 1.91936
2.76982 1.48718 1.94452
2.75451 1.50249 1.93222
2.75451 1.50249 1.93222
2.76982 1.48718 1.94452
2.75455 1.50245 1.95763
2.7392 1.5178 1.86915
2.75451 1.50249 1.85649
2.75451 1.50249 1.88169
2.75451 1.50249 1.88169
2.7392 1.5178 1.89437
2.7392 1.5178 1.86915
2.67798 1.57902 1.71817
2.66266 1.59434 1.73075
2.66266 1.59434 1.70561
2.70859 1.54841 1.81881
2.70859 1.54841 1.79362
2.7239 1.5331 1.80619
2.7239 1.5331 1.80619
2.7239 1.5331 1.83138
2.70859 1.54841 1.81881
2.73921 1.51779 1.81875
2.7239 1.5331 1.83138
2.7239 1.5331 1.80619
2.73922 1.51778 1.79358
2.73921 1.51779 1.81875
2.7239 1.5331 1.80619
2.57068 1.68632 1.95776
2.57068 1.68632 1.98339
2.55533 1.70167 1.96991
2.55533 1.70167 1.96991
2.57068 1.68632 1.98339
2.55533 1.70167 1.9945
2.55533 1.70167 1.96991
2.55533 1.70167 1.9945
2.53996 1.71704 1.98338
2.53996 1.71704 1.98338
2.53996 1.71704 1.95775
2.55533 1.70167 1.96991
2.52458 1.73242 1.94484
2.53996 1.71704 1.95775
2.52458 1.73242 1.9699
2.50912 1.74788 1.58005
2.50912 1.74788 1.60515
2.49371 1.76329 1.5926
2.41633 1.84067 1.70556
2.40077 1.85623 1.693
2.41632 1.84068 1.68045
2.41635 1.84065 1.75583
2.40081 1.85619 1.76839
2.40079 1.85621 1.74325
2.33845 1.91855 1.91946
2.32275 1.93425 1.90685
2.33843 1.91857 1.89424
2.33845 1.91855 1.94466
2.32276 1.93424 1.93214
2.33845 1.91855 1.91946
2.40087 1.85613 1.86912
2.40088 1.85612 1.89434
2.38531 1.87169 1.88172
2.30693 1.95007 1.81858
2.32265 1.93435 1.80603
2.32267 1.93433 1.8312
2.30684 1.95016 1.71803
2.29108 1.96592 1.73056
2.29106 1.96594 1.70546
2.32274 1.93426 2.00941
2.33845 1.91855 2.0175
2.30701 1.94999 2.0175
2.33845 1.91855 1.99437
2.33845 1.91855 2.0175
2.32274 1.93426 2.00941
2.35411 1.90289 2.00947
2.33845 1.91855 2.0175
2.33845 1.91855 1.99437
2.30704 1.94996 1.94461
2.30703 1.94997 1.96969
2.29128 1.96572 1.95746
2.55533 1.70167 2.0175
2.52458 1.73242 2.0175
2.53996 1.71704 2.00972
2.53996 1.71704 1.98338
2.55533 1.70167 1.9945
2.53996 1.71704 2.00972
2.53996 1.71704 2.00972
2.55533 1.70167 1.9945
2.55533 1.70167 2.0175
2.52458 1.73242 1.99449
2.52458 1.73242 1.9699
2.53996 1.71704 1.98338
2.53996 1.71704 1.98338
2.53996 1.71704 2.00972
2.52458 1.73242 1.99449
2.52458 1.73242 1.99449
2.53996 1.71704 2.00972
2.52458 1.73242 2.0175
2.41642 1.84058 1.88176
2.40088 1.85612 1.89434
2.40087 1.85613 1.86912
2.47831 1.77869 1.8062
2.49374 1.76326 1.79362
2.49374 1.76326 1.8188
2.49374 1.76326 1.8188
2.47832 1.77868 1.83139
2.47831 1.77869 1.8062
2.47833 1.77867 1.8566
2.47832 1.77868 1.83139
2.49375 1.76325 1.844
2.47833 1.77867 1.8566
2.49375 1.76325 1.844
2.49376 1.76324 1.86921
2.49376 1.76324 1.86921
2.47834 1.77866 1.88182
2.47833 1.77867 1.8566
2.47833 1.77867 1.8566
2.47834 1.77866 1.88182
2.46289 1.79411 1.86919
2.49377 1.76323 1.89443
2.47834 1.77866 1.88182
2.49376 1.76324 1.86921
2.49377 1.76323 1.91964
2.47835 1.77865 1.93234
2.47834 1.77866 1.90706
2.47834 1.77866 1.90706
2.49377 1.76323 1.89443
2.49377 1.76323 1.91964
2.47834 1.77866 1.88182
2.49377 1.76323 1.89443
2.47834 1.77866 1.90706
2.7852 1.4718 1.15238
2.78544 1.47156 1.12616
2.8005 1.4565 1.14145
2.76997 1.48703 1.14073
2.78544 1.47156 1.12616
2.7852 1.4718 1.15238
2.64739 1.60961 1.14048
2.64738 1.60962 1.1175
2.66272 1.59428 1.12521
2.70875 1.54825 1.1175
2.6934 1.5636 1.12517
2.67805 1.57895 1.1175
2.67805 1.57895 1.1175
2.66272 1.59428 1.12521
2.64738 1.60962 1.1175
2.19638 2.06062 1.15397
2.1963 2.0607 1.12786
2.2122 2.0448 1.14145
2.2122 2.0448 1.14145
2.22771 2.02929 1.12601
2.22802 2.02898 1.15245
2.18073 2.07627 1.14282
2.1963 2.0607 1.12786
2.19638 2.06062 1.15397
2.18073 2.07627 1.14282
2.18123 2.07577 1.1175
2.1963 2.0607 1.12786
2.27543 1.98157 1.14067
2.27541 1.98159 1.1175
2.29123 1.96577 1.12563
2.30701 1.94999 1.1175
[...]
<PointData Scalars="View Factor" >
<DataArray type="Float64" Name="View Factor" NumberOfComponents="1" format="ascii">
0.000916152
0.000916152
0.000916152
0.000917304
0.000917304
0.000917304
0.000916957
0.000916957
0.000916957
0.000893183
0.000893183
0.000893183
0.000902301
0.000902301
0.000902301
0.000931325
0.000931325
0.000931325
0.000915892
0.000915892
0.000915892
0.000914943
0.000914943
0.000914943
0.000928129
0.000928129
0.000928129
0.000928349
0.000928349
0.000928349
0.000940216
0.000940216
0.000940216
0.000916271
0.000916271
0.000916271
0.000916707
0.000916707
0.000916707
0.000940439
0.000940439
0.000940439
0.000965102
0.000965102
0.000965102
0.000917449
0.000917449
0.000917449
0.0009291
0.0009291
0.0009291
0.000928993
0.000928993
0.000928993
0.000709753
0.000709753
0.000709753
0.000883349
0.000883349
0.000883349
0.000883535
0.000883535
0.000883535
0.000830171
0.000830171
0.000830171
0.000345098
0.000345098
0.000345098
0.00052788
0.00052788
0.00052788
0.000928668
0.000928668
0.000928668
0.000928473
0.000928473
0.000928473
0.000940681
0.000940681
0.000940681
0.000952964
0.000952964
0.000952964
0.000977514
0.000977514
0.000977514
0.000965463
0.000965463
0.000965463
0.000969071
0.000969071
0.000969071
0.00095265
0.00095265
0.00095265
0.000953077
0.000953077
0.000953077
0.000894666
0.000894666
0.000894666
0.000940924
0.000940924
0.000940924
0.000952923
0.000952923
0.000952923
0.000940835
0.000940835
0.000940835
0.000830404
0.000830404
0.000830404
0.000709409
0.000709409
0.000709409
0.000838898
0.000838898
0.000838898
0.000905796
0.000905796
0.000905796
0.00090597
0.00090597
0.00090597
0.000882906
0.000882906
0.000882906
0.000894507
0.000894507
0.000894507
0.000905184
0.000905184
0.000905184
0.00090541
0.00090541
0.00090541
0.00084765
0.00084765
0.00084765
0.000645869
0.000645869
0.000645869
0.00055162
0.00055162
0.00055162
0.000638927
0.000638927
0.000638927
0.000525203
0.000525203
0.000525203
0.000500708
0.000500708
0.000500708
0.000526585
0.000526585
0.000526585
0.00070725
0.00070725
0.00070725
0.000790758
0.000790758
0.000790758
0.000810278
0.000810278
0.000810278
0.0007416
0.0007416
0.0007416
0.000751128
0.000751128
0.000751128
0.000770424
0.000770424
0.000770424
0.000807823
0.000807823
0.000807823
0.000754993
0.000754993
0.000754993
0.00077757
0.00077757
0.00077757
0.000788174
0.000788174
0.000788174
0.000767565
0.000767565
0.000767565
0.000768103
0.000768103
0.000768103
0.000820264
0.000820264
0.000820264
0.000809996
0.000809996
0.000809996
0.000820006
0.000820006
0.000820006
0.000809392
0.000809392
0.000809392
0.000806855
0.000806855
0.000806855
0.000828104
0.000828104
0.000828104
0.000773881
0.000773881
0.000773881
0.000784876
0.000784876
0.000784876
0.000840702
0.000840702
0.000840702
0.00081829
0.00081829
0.00081829
0.000817865
0.000817865
0.000817865
0.000828493
0.000828493
0.000828493
0.000871625
0.000871625
0.000871625
0.000871895
0.000871895
0.000871895
0.000860758
0.000860758
0.000860758
0.000837097
0.000837097
0.000837097
0.000848151
0.000848151
0.000848151
0.00085973
0.00085973
0.00085973
0.000860109
0.000860109
0.000860109
0.000825601
0.000825601
0.000825601
0.000802599
0.000802599
0.000802599
0.00090463
0.00090463
0.00090463
0.000904416
0.000904416
0.000904416
0.000858878
0.000858878
0.000858878
0.000858419
0.000858419
0.000858419
0.000710165
0.000710165
0.000710165
0.000792632
0.000792632
0.000792632
0.000803295
0.000803295
0.000803295
0.00081471
0.00081471
0.00081471
0.000815308
0.000815308
0.000815308
0.00068248
0.00068248
0.00068248
0.000680573
0.000680573
0.000680573
0.000668282
0.000668282
0.000668282
0.000658064
0.000658064
0.000658064
0.000635643
0.000635643
0.000635643
0.000506174
0.000506174
0.000506174
0.000448214
0.000448214
0.000448214
0.000461995
0.000461995
0.000461995
0.000497498
0.000497498
0.000497498
0.000503699
0.000503699
0.000503699
0.000491193
0.000491193
0.000491193
0.000476968
0.000476968
0.000476968
0.000455179
0.000455179
0.000455179
0.000524968
0.000524968
0.000524968
0.000522721
0.000522721
0.000522721
0.000522556
0.000522556
0.000522556
0.000510931
0.000510931
0.000510931
0.000666731
0.000666731
0.000666731
0.000666582
0.000666582
0.000666582
0.000676626
0.000676626
0.000676626
0.000643735
0.000643735
0.000643735
0.000654225
0.000654225
0.000654225
0.000651768
0.000651768
0.000651768
0.000491373
0.000491373
0.000491373
0.00054482
0.00054482
0.00054482
0.000542569
0.000542569
0.000542569
0.00054936
0.00054936
0.00054936
0.000558528
0.000558528
0.000558528
0.000556268
0.000556268
0.000556268
0.000544733
0.000544733
0.000544733
0.000565574
0.000565574
0.000565574
0.000570412
0.000570412
0.000570412
0.000572704
0.000572704
0.000572704
0.000563288
0.000563288
0.000563288
0.000638262
0.000638262
0.000638262
0.000630001
0.000630001
0.000630001
0.000524607
0.000524607
0.000524607
0.000555209
0.000555209
0.000555209
0.00053089
0.00053089
0.00053089
0.000353698
0.000353698
0.000353698
0.000352072
0.000352072
0.000352072
0.000354551
0.000354551
0.000354551
0.000353018
0.000353018
0.000353018
0.000346987
0.000346987
0.000346987
0.000344201
0.000344201
0.000344201
0.000345351
0.000345351
0.000345351
0.00038209
0.00038209
0.00038209
0.000383817
0.000383817
0.000383817
0.00052326
0.00052326
0.00052326
0.000514381
0.000514381
0.000514381
0.000517288
0.000517288
0.000517288
0.000453194
0.000453194
0.000453194
0.000455651
0.000455651
0.000455651
0.000489555
0.000489555
0.000489555
0.000701028
0.000701028
0.000701028
0.000771818
0.000771818
0.000771818
0.000724419
0.000724419
0.000724419
0.000723925
0.000723925
0.000723925
0.000715779
0.000715779
0.000715779
0.00071528
0.00071528
0.00071528
0.000705675
0.000705675
0.000705675
0.000696699
0.000696699
0.000696699
0.00069726
0.00069726
0.00069726
0.000706747
0.000706747
0.000706747
0.00044359
0.00044359
0.00044359
0.000441837
0.000441837
0.000441837
0.00043402
0.00043402
0.00043402
0.000688414
0.000688414
0.000688414
0.000718237
0.000718237
0.000718237
0.000690784
0.000690784
0.000690784
0.000669445
0.000669445
0.000669445
0.000733566
0.000733566
0.000733566
0.000654462
0.000654462
0.000654462
0.000677234
0.000677234
0.000677234
0.000668073
0.000668073
0.000668073
0.000657906
0.000657906
0.000657906
0.000656797
0.000656797
0.000656797
0.000731636
0.000731636
0.000731636
0.000781217
0.000781217
0.000781217
0.00078092
0.00078092
0.00078092
0.000770822
0.000770822
0.000770822
0.000761159
0.000761159
0.000761159
0.000761539
0.000761539
0.000761539
0.000771512
0.000771512
0.000771512
0.000588412
0.000588412
0.000588412
0.000589862
0.000589862
0.000589862
0.000641085
0.000641085
0.000641085
0.000649976
0.000649976
0.000649976
0.00064886
0.00064886
0.00064886
0.000638766
0.000638766
0.000638766
0.000582798
0.000582798
0.000582798
0.000574418
0.000574418
0.000574418
0.000571407
0.000571407
0.000571407
0.000581339
0.000581339
0.000581339
0.000631115
0.000631115
0.000631115
0.000629913
0.000629913
0.000629913
0.000819082
0.000819082
0.000819082
0.00080827
0.00080827
0.00080827
0.000797935
0.000797935
0.000797935
0.000819423
0.000819423
0.000819423
0.000809042
0.000809042
0.000809042
0.000798366
0.000798366
0.000798366
0.000765714
0.000765714
0.000765714
0.000787199
0.000787199
0.000787199
0.000777014
0.000777014
0.000777014
0.000766352
0.000766352
0.000766352
0.000715809
0.000715809
0.000715809
0.000727051
0.000727051
0.000727051
0.000716666
0.000716666
0.000716666
0.000799515
0.000799515
0.000799515
0.000779021
0.000779021
0.000779021
0.000789433
0.000789433
0.000789433
0.000778574
0.000778574
0.000778574
0.000788625
0.000788625
0.000788625
0.000799168
0.000799168
0.000799168
0.000796436
0.000796436
0.000796436
0.0007855
0.0007855
0.0007855
0.000775219
0.000775219
0.000775219
0.000796952
0.000796952
0.000796952
0.000775839
0.000775839
0.000775839
0.000786637
0.000786637
0.000786637
0.000764363
0.000764363
0.000764363
0.000754274
0.000754274
0.000754274
0.000743493
0.000743493
0.000743493
0.000763649
0.000763649
0.000763649
0.000806347
0.000806347
0.000806347
0.000795275
0.000795275
0.000795275
0.000816956
0.000816956
0.000816956
0.000816444
0.000816444
0.000816444
0.000773136
0.000773136
0.000773136
0.000829554
0.000829554
0.000829554
0.00084044
0.00084044
0.00084044
0.000851162
0.000851162
0.000851162
0.000829237
0.000829237
0.000829237
0.000872575
0.000872575
0.000872575
0.000850128
0.000850128
0.000850128
0.000872377
0.000872377
0.000872377
0.000861067
0.000861067
0.000861067
0.000861784
0.000861784
0.000861784
0.000850966
0.000850966
0.000850966
0.000839941
0.000839941
0.000839941
0.000839583
0.000839583
0.000839583
0.000850396
0.000850396
0.000850396
0.00086156
0.00086156
0.00086156
0.000826661
0.000826661
0.000826661
0.000849387
0.000849387
0.000849387
0.000837573
0.000837573
0.000837573
0.000849007
0.000849007
0.000849007
0.000827162
0.000827162
0.000827162
0.000838454
0.000838454
0.000838454
0.000836009
0.000836009
0.000836009
0.000825016
0.000825016
0.000825016
0.000813456
0.000813456
0.000813456
0.00089324
0.00089324
0.00089324
0.000869347
0.000869347
0.000869347
0.000881647
0.000881647
0.000881647
0.000869785
0.000869785
0.000869785
0.000892907
0.000892907
0.000892907
0.000880903
0.000880903
0.000880903
0.000903394
0.000903394
0.000903394
0.000903866
0.000903866
0.000903866
0.000890828
0.000890828
0.000890828
0.000890996
0.000890996
0.000890996
0.000879252
0.000879252
0.000879252
0.000880513
0.000880513
0.000880513
0.000879636
0.000879636
0.000879636
0.000892273
0.000892273
0.000892273
0.000891862
0.000891862
0.000891862
0.000870597
0.000870597
0.000870597
0.000894048
0.000894048
0.000894048
0.000893806
0.000893806
0.000893806
0.000882001
0.000882001
0.000882001
0.000882608
0.000882608
0.000882608
0.000870946
0.000870946
0.000870946
0.000626825
0.000626825
0.000626825
0.000617703
0.000617703
0.000617703
0.000658777
0.000658777
0.000658777
0.000637467
0.000637467
0.000637467
0.000720005
0.000720005
0.000720005
0.000704216
0.000704216
0.000704216
0.000689076
0.000689076
0.000689076
0.000691332
0.000691332
0.000691332
0.000504189
0.000504189
0.000504189
0.000516241
0.000516241
0.000516241
0.000569875
0.000569875
0.000569875
0.000578357
0.000578357
0.000578357
0.000445436
0.000445436
0.000445436
0.000467475
0.000467475
0.000467475
0.000450882
0.000450882
0.000450882
0.000437465
0.000437465
0.000437465
0.000440325
0.000440325
0.000440325
0.000437612
0.000437612
0.000437612
0.000494561
0.000494561
0.000494561
0.000506983
0.000506983
0.000506983
0.000507263
0.000507263
0.000507263
0.000510554
0.000510554
0.000510554
0.000497313
0.000497313
0.000497313
0.000494192
0.000494192
0.000494192
0.00049714
0.00049714
0.00049714
0.0004941
0.0004941
0.0004941
0.000479059
0.000479059
0.000479059
0.000479041
0.000479041
0.000479041
0.000479277
0.000479277
0.000479277
0.000479475
0.000479475
0.000479475
0.000476676
0.000476676
0.000476676
0.000467441
0.000467441
0.000467441
0.000491013
0.000491013
0.000491013
0.000491018
0.000491018
0.000491018
0.00047424
0.00047424
0.00047424
0.000471197
0.000471197
0.000471197
0.000465216
0.000465216
0.000465216
0.000452242
0.000452242
0.000452242
0.000524425
0.000524425
0.000524425
0.000524554
0.000524554
0.000524554
0.00050099
0.00050099
0.00050099
0.000504266
0.000504266
0.000504266
0.000629384
0.000629384
0.000629384
0.000639349
0.000639349
0.000639349
0.000512008
0.000512008
0.000512008
0.000509733
0.000509733
0.000509733
0.000549158
0.000549158
0.000549158
0.000555664
0.000555664
0.000555664
0.000535605
0.000535605
0.000535605
0.000537969
0.000537969
0.000537969
0.000558579
0.000558579
0.000558579
0.000534923
0.000534923
0.000534923
0.000628537
0.000628537
0.000628537
0.000622656
0.000622656
0.000622656
0.000588783
0.000588783
0.000588783
0.000589862
0.000589862
0.000589862
0.000579634
0.000579634
0.000579634
0.00034923
0.00034923
0.00034923
0.00035137
0.00035137
0.00035137
0.000346815
0.000346815
0.000346815
0.000348601
0.000348601
0.000348601
0.000350099
0.000350099
0.000350099
0.000347483
0.000347483
0.000347483
0.000349541
0.000349541
0.000349541
0.000351362
0.000351362
0.000351362
0.000354541
0.000354541
0.000354541
0.000357753
0.000357753
0.000357753
0.000355351
0.000355351
0.000355351
0.000351418
0.000351418
0.000351418
0.000350603
0.000350603
0.000350603
0.000350912
0.000350912
0.000350912
0.000348676
0.000348676
0.000348676
0.000369082
0.000369082
0.000369082
0.000423844
0.000423844
0.000423844
0.000372898
0.000372898
0.000372898
0.000418001
0.000418001
0.000418001
0.000413179
0.000413179
0.000413179
0.000415072
0.000415072
0.000415072
0.000411225
0.000411225
0.000411225
0.00041409
0.00041409
0.00041409
0.000394578
0.000394578
0.000394578
0.000405581
0.000405581
0.000405581
0.000440045
0.000440045
0.000440045
0.000422431
0.000422431
0.000422431
0.000424544
0.000424544
0.000424544
0.000378102
0.000378102
0.000378102
0.000377445
0.000377445
0.000377445
0.000379557
0.000379557
0.000379557
0.000380355
0.000380355
0.000380355
0.000382949
0.000382949
0.000382949
0.000385036
0.000385036
0.000385036
0.000385688
0.000385688
0.000385688
0.000381348
0.000381348
0.000381348
0.000383025
0.000383025
0.000383025
0.000412006
0.000412006
0.000412006
0.000414464
0.000414464
0.000414464
0.000425104
0.000425104
0.000425104
0.000419488
0.000419488
0.000419488
0.000417042
0.000417042
0.000417042
0.000414516
0.000414516
0.000414516
0.000455928
0.000455928
0.000455928
0.000440565
0.000440565
0.000440565
0.000415803
0.000415803
0.000415803
0.000413197
0.000413197
0.000413197
0.000519864
0.000519864
0.000519864
0.000520138
0.000520138
0.000520138
0.000516911
0.000516911
0.000516911
0.000513618
0.000513618
0.000513618
0.000523635
0.000523635
0.000523635
0.000520899
0.000520899
0.000520899
0.000526076
0.000526076
0.000526076
0.000524614
0.000524614
0.000524614
0.000521383
0.000521383
0.000521383
0.000453775
0.000453775
0.000453775
0.000459187
0.000459187
0.000459187
0.000455916
0.000455916
0.000455916
0.000458652
0.000458652
0.000458652
0.000464777
0.000464777
0.000464777
0.000462293
0.000462293
0.000462293
0.000459212
0.000459212
0.000459212
0.000460512
0.000460512
0.000460512
0.000466069
0.000466069
0.000466069
0.000462942
0.000462942
0.000462942
0.000466806
0.000466806
0.000466806
0.000486352
0.000486352
0.000486352
0.000480056
0.000480056
0.000480056
0.000479332
0.000479332
0.000479332
0.000476147
0.000476147
0.000476147
0.000490027
0.000490027
0.000490027
0.000527366
0.000527366
0.000527366
0.000530274
0.000530274
0.000530274
0.000529133
0.000529133
0.000529133
0.00051486
0.00051486
0.00051486
0.000518252
0.000518252
0.000518252
0.000522554
0.000522554
0.000522554
0.000523241
0.000523241
0.000523241
0.000518834
0.000518834
0.000518834
0.000516
0.000516
0.000516
0.000580571
0.000580571
0.000580571
0.000573482
0.000573482
0.000573482
0.000565318
0.000565318
0.000565318
0.000564175
0.000564175
0.000564175
0.000540875
0.000540875
0.000540875
0.000549019
0.000549019
0.000549019
0.00055598
0.00055598
0.00055598
0.000505964
0.000505964
0.000505964
0.000629599
0.000629599
0.000629599
0.00062129
0.00062129
0.00062129
0.000596497
0.000596497
0.000596497
0.000604754
0.000604754
0.000604754
0.0007332
0.0007332
0.0007332
0.000732698
0.000732698
0.000732698
0.000742073
0.000742073
0.000742073
0.00075198
0.00075198
0.00075198
0.000753433
0.000753433
0.000753433
0.000734088
0.000734088
0.000734088
0.000714203
0.000714203
0.000714203
0.000694759
0.000694759
0.000694759
0.000695426
0.000695426
0.000695426
0.000705082
0.000705082
0.000705082
0.000499857
0.000499857
0.000499857
0.000503451
0.000503451
0.000503451
0.000474521
0.000474521
0.000474521
0.000463783
0.000463783
0.000463783
0.000454762
0.000454762
0.000454762
0.000447614
0.000447614
0.000447614
0.000465548
0.000465548
0.000465548
0.000449448
0.000449448
0.000449448
0.000458362
0.000458362
0.000458362
0.000471054
0.000471054
0.000471054
0.000452911
0.000452911
0.000452911
0.000449103
0.000449103
0.000449103
0.000367475
0.000367475
0.000367475
0.000438655
0.000438655
0.000438655
0.000375988
0.000375988
0.000375988
0.000551702
0.000551702
0.000551702
0.00050522
0.00050522
0.00050522
0.000497512
0.000497512
0.000497512
0.000504246
0.000504246
0.000504246
0.000515023
0.000515023
0.000515023
0.000513456
0.000513456
0.000513456
0.000448612
0.000448612
0.000448612
0.000516481
0.000516481
0.000516481
0.000497714
0.000497714
0.000497714
0.000490618
0.000490618
0.000490618
0.000482474
0.000482474
0.000482474
0.000475939
0.000475939
0.000475939
0.0004762
0.0004762
0.0004762
0.000497126
0.000497126
0.000497126
0.00047946
0.00047946
0.00047946
0.000698361
0.000698361
0.000698361
0.000688989
0.000688989
0.000688989
0.000558296
0.000558296
0.000558296
0.000576893
0.000576893
0.000576893
0.00056884
0.00056884
0.00056884
0.000559594
0.000559594
0.000559594
0.000611012
0.000611012
0.000611012
0.000596671
0.000596671
0.000596671
0.000642167
0.000642167
0.000642167
0.000717864
0.000717864
0.000717864
0.000726846
0.000726846
0.000726846
0.000735579
0.000735579
0.000735579
0.000716686
0.000716686
0.000716686
0.000717143
0.000717143
0.000717143
0.000726528
0.000726528
0.000726528
0.000744441
0.000744441
0.000744441
0.000744112
0.000744112
0.000744112
0.000734499
0.000734499
0.000734499
0.00072533
0.00072533
0.00072533
0.000725734
0.000725734
0.000725734
0.000735231
0.000735231
0.000735231
0.000800178
0.000800178
0.000800178
0.000789827
0.000789827
0.000789827
0.000779882
0.000779882
0.000779882
0.000800444
0.000800444
0.000800444
0.000780246
0.000780246
0.000780246
0.00079047
0.00079047
0.00079047
0.000682391
0.000682391
0.000682391
0.000670656
0.000670656
0.000670656
0.000681265
0.000681265
0.000681265
0.00067299
0.00067299
0.00067299
0.000722861
0.000722861
0.000722861
0.000701471
0.000701471
0.000701471
0.000711174
0.000711174
0.000711174
0.000721936
0.000721936
0.000721936
0.000692945
0.000692945
0.000692945
0.000702503
0.000702503
0.000702503
0.000713132
0.000713132
0.000713132
0.00071407
0.00071407
0.00071407
0.000707967
0.000707967
0.000707967
0.000687474
0.000687474
0.000687474
0.000707142
0.000707142
0.000707142
0.000696832
0.000696832
0.000696832
0.000727771
0.000727771
0.000727771
0.000718224
0.000718224
0.000718224
0.00066002
0.00066002
0.00066002
0.00066908
0.00066908
0.00066908
0.00066481
0.00066481
0.00066481
0.000674093
0.000674093
0.000674093
0.000676215
0.000676215
0.000676215
0.000665921
0.000665921
0.000665921
0.000685051
0.000685051
0.000685051
0.000684299
0.000684299
0.000684299
0.000691016
0.000691016
0.000691016
0.00072228
0.00072228
0.00072228
0.000722855
0.000722855
0.000722855
0.000703849
0.000703849
0.000703849
0.000713624
0.000713624
0.000713624
0.000661294
0.000661294
0.000661294
0.000662513
0.000662513
0.000662513
0.000653257
0.000653257
0.000653257
0.000642856
0.000642856
0.000642856
0.000641577
0.000641577
0.000641577
0.00065076
0.00065076
0.00065076
0.000649467
0.000649467
0.000649467
0.000638878
0.000638878
0.000638878
0.000645376
0.000645376
0.000645376
0.000646577
0.000646577
0.000646577
0.00063757
0.00063757
0.00063757
0.000627423
0.000627423
0.000627423
0.00059703
0.00059703
0.00059703
0.000607158
0.000607158
0.000607158
0.000622369
0.000622369
0.000622369
0.000605127
0.000605127
0.000605127
0.000599865
0.000599865
0.000599865
0.000619891
0.000619891
0.000619891
0.000608533
0.000608533
0.000608533
0.000618609
0.000618609
0.000618609
0.000579955
0.000579955
0.000579955
0.000511279
0.000511279
0.000511279
0.000509511
0.000509511
0.000509511
0.000564607
0.000564607
0.000564607
0.000563058
0.000563058
0.000563058
0.000725452
0.000725452
0.000725452
0.000724642
0.000724642
0.000724642
0.000745056
0.000745056
0.000745056
0.000734407
0.000734407
0.000734407
0.000747187
0.000747187
0.000747187
0.00073673
0.00073673
0.00073673
0.000757035
0.000757035
0.000757035
0.000735966
0.000735966
0.000735966
0.00075638
0.00075638
0.00075638
0.000745792
0.000745792
0.000745792
0.000771617
0.000771617
0.000771617
0.000794633
0.000794633
0.000794633
0.0007835
0.0007835
0.0007835
0.000805233
0.000805233
0.000805233
0.000782811
0.000782811
0.000782811
0.000804638
0.000804638
0.000804638