<VTKFile type="UnstructuredGrid" version="1.0">
<UnstructuredGrid>
<Piece NumberOfPoints="8859" NumberOfCells="2953">
<Points>
<DataArray type="Float64" NumberOfComponents="3" format="ascii">
3.01 0.5 11.4
3.01 0.487476 11.4225
3.01 0.512524 11.4225
3.01 0.17352 10.5225
3.01 0.148445 10.5225
3.01 0.160827 10.5442
3.01 0.122979 10.5659
3.01 0.135644 10.5442
3.01 0.110383 10.5442
3.01 0.135644 10.5442
3.01 0.123433 10.5225
3.01 0.110383 10.5442
3.01 0.123433 10.5225
3.01 0.135644 10.5442
3.01 0.148445 10.5225
3.01 0.135644 10.5442
3.01 0.160827 10.5442
3.01 0.148445 10.5225
3.01 0.17352 10.5225
3.01 0.185985 10.5442
3.01 0.198629 10.5225
3.01 0.185985 10.5442
3.01 0.17352 10.5225
3.01 0.160827 10.5442
3.01 0.0732297 10.5657
3.01 0.0848754 10.5441
3.01 0.0586606 10.5438
3.01 0.05 11.3553
3.01 0.058509 11.3326
3.01 0.05 11.3101
3.01 0.324276 10.5225
3.01 0.336827 10.5442
3.01 0.349395 10.5225
3.01 0.148138 10.5659
3.01 0.160827 10.5442
3.01 0.135644 10.5442
3.01 0.122979 10.5659
3.01 0.148138 10.5659
3.01 0.135644 10.5442
3.01 0.160827 10.5442
3.01 0.173316 10.5659
3.01 0.185985 10.5442
3.01 0.185806 10.5875
3.01 0.173316 10.5659
3.01 0.160572 10.5876
3.01 0.173316 10.5659
3.01 0.160827 10.5442
3.01 0.148138 10.5659
3.01 0.160572 10.5876
3.01 0.173316 10.5659
3.01 0.148138 10.5659
3.01 0.211137 10.5442
3.01 0.198629 10.5225
3.01 0.185985 10.5442
3.01 0.0979162 10.5658
3.01 0.122979 10.5659
3.01 0.110383 10.5442
3.01 0.122979 10.5659
3.01 0.0979162 10.5658
3.01 0.109875 10.5875
3.01 0.0732297 10.5657
3.01 0.0979162 10.5658
3.01 0.0848754 10.5441
3.01 0.0979162 10.5658
3.01 0.110383 10.5442
3.01 0.0848754 10.5441
3.01 0.0975729 10.609
3.01 0.122678 10.6091
3.01 0.109875 10.5875
3.01 0.0841718 10.5873
3.01 0.0732297 10.5657
3.01 0.0577122 10.587
3.01 0.0729308 10.6089
3.01 0.0841718 10.5873
3.01 0.0577122 10.587
3.01 0.0732297 10.5657
3.01 0.0841718 10.5873
3.01 0.0979162 10.5658
3.01 0.0841718 10.5873
3.01 0.109875 10.5875
3.01 0.0979162 10.5658
3.01 0.0975729 10.609
3.01 0.0841718 10.5873
3.01 0.0729308 10.6089
3.01 0.0841718 10.5873
3.01 0.0975729 10.609
3.01 0.109875 10.5875
3.01 0.073948 10.5225
3.01 0.05 10.5225
3.01 0.0586606 10.5438
3.01 0.073948 10.5225
3.01 0.0586606 10.5438
3.01 0.0848754 10.5441
3.01 0.05 11.3983
3.01 0.0603641 11.377
3.01 0.05 11.3553
3.01 0.0603641 11.377
3.01 0.05 11.3983
3.01 0.0753197 11.399
3.01 0.0709395 11.4225
3.01 0.05 11.3983
3.01 0.05 11.4225
3.01 0.05 11.3983
3.01 0.0709395 11.4225
3.01 0.0753197 11.399
3.01 0.0579641 11.1096
3.01 0.05 11.0876
3.01 0.05 11.1317
3.01 0.0841948 11.0218
3.01 0.109814 11.0218
3.01 0.097638 10.9999
3.01 0.0841948 11.0218
3.01 0.0578646 11.0218
3.01 0.0730539 11.0437
3.01 0.0580261 11.1538
3.01 0.05 11.1317
3.01 0.05 11.1759
3.01 0.942292 10.7174
3.01 0.95 10.739
3.01 0.95 10.6957
3.01 0.95 10.6523
3.01 0.942332 10.674
3.01 0.95 10.6957
3.01 0.73872 10.9345
3.01 0.75132 10.9128
3.01 0.726137 10.9128
3.01 0.751305 10.9563
3.01 0.73872 10.9345
3.01 0.726124 10.9563
3.01 0.713546 10.9345
3.01 0.73872 10.9345
3.01 0.726137 10.9128
3.01 0.73872 10.9345
3.01 0.713546 10.9345
3.01 0.726124 10.9563
3.01 0.814318 10.9781
3.01 0.801709 10.9563
3.01 0.789096 10.9781
3.01 0.7765 10.9563
3.01 0.801709 10.9563
3.01 0.789115 10.9345
3.01 0.801709 10.9563
3.01 0.7765 10.9563
3.01 0.789096 10.9781
3.01 0.7765 10.9563
3.01 0.763892 10.9781
3.01 0.789096 10.9781
3.01 0.763892 10.9781
3.01 0.7765 10.9563
3.01 0.751305 10.9563
3.01 0.95 11.4225
3.01 0.95 11.3983
3.01 0.929061 11.4225
3.01 0.95 11.2204
3.01 0.941913 11.1982
3.01 0.926844 11.2204
3.01 0.941913 11.1982
3.01 0.95 11.2204
3.01 0.95 11.1759
3.01 0.926866 11.1759
3.01 0.941913 11.1982
3.01 0.95 11.1759
3.01 0.941974 11.1538
3.01 0.926866 11.1759
3.01 0.95 11.1759
3.01 0.95 11.1317
3.01 0.941974 11.1538
3.01 0.95 11.1759
3.01 0.941974 11.1538
3.01 0.95 11.1317
3.01 0.926895 11.1317
3.01 0.6127 11.4225
3.01 0.637734 11.4225
3.01 0.625238 11.4
3.01 0.662757 11.4225
3.01 0.650275 11.4
3.01 0.637734 11.4225
3.01 0.650275 11.4
3.01 0.625238 11.4
3.01 0.637734 11.4225
3.01 0.600415 10.9564
3.01 0.575304 10.9564
3.01 0.587856 10.9782
3.01 0.575304 10.9564
3.01 0.562749 10.9782
3.01 0.587856 10.9782
3.01 0.336827 10.5442
3.01 0.361946 10.5442
3.01 0.349395 10.5225
3.01 0.223755 10.5225
3.01 0.198629 10.5225
3.01 0.211137 10.5442
3.01 0.185985 10.5442
3.01 0.198492 10.5659
3.01 0.211137 10.5442
3.01 0.185806 10.5875
3.01 0.198492 10.5659
3.01 0.173316 10.5659
3.01 0.198492 10.5659
3.01 0.185985 10.5442
3.01 0.173316 10.5659
3.01 0.0576202 10.6305
3.01 0.05 10.6087
3.01 0.05 10.6523
3.01 0.05 10.6087
3.01 0.0576202 10.6305
3.01 0.0729308 10.6089
3.01 0.05 10.6087
3.01 0.0729308 10.6089
3.01 0.0577122 10.587
3.01 0.135283 10.5875
3.01 0.122979 10.5659
3.01 0.109875 10.5875
3.01 0.135283 10.5875
3.01 0.109875 10.5875
3.01 0.122678 10.6091
3.01 0.122979 10.5659
3.01 0.135283 10.5875
3.01 0.148138 10.5659
3.01 0.135283 10.5875
3.01 0.160572 10.5876
3.01 0.148138 10.5659
3.01 0.123433 10.5225
3.01 0.0985513 10.5225
3.01 0.110383 10.5442
3.01 0.110383 10.5442
3.01 0.0985513 10.5225
3.01 0.0848754 10.5441
3.01 0.0848754 10.5441
3.01 0.0985513 10.5225
3.01 0.073948 10.5225
3.01 0.0603641 11.377
3.01 0.0739464 11.3545
3.01 0.05 11.3553
3.01 0.0739464 11.3545
3.01 0.058509 11.3326
3.01 0.05 11.3553
3.01 0.058509 11.3326
3.01 0.0739464 11.3545
3.01 0.0849548 11.3321
3.01 0.058509 11.3326
3.01 0.0732725 11.3099
3.01 0.05 11.3101
3.01 0.0732725 11.3099
3.01 0.058509 11.3326
3.01 0.0849548 11.3321
3.01 0.5 11.4
3.01 0.47495 11.4
3.01 0.487476 11.4225
3.01 0.097663 11.0437
3.01 0.109814 11.0218
3.01 0.0841948 11.0218
3.01 0.0730539 11.0437
3.01 0.097663 11.0437
3.01 0.0841948 11.0218
3.01 0.0578646 11.0218
3.01 0.05 11.0437
3.01 0.0730539 11.0437
3.01 0.05 11.0437
3.01 0.0578646 11.0218
3.01 0.05 10.9999
3.01 0.05 11.2204
3.01 0.0580869 11.1982
3.01 0.05 11.1759
3.01 0.05 11.1759
3.01 0.073134 11.1759
3.01 0.0580261 11.1538
3.01 0.073134 11.1759
3.01 0.05 11.1759
3.01 0.0580869 11.1982
3.01 0.942268 10.7607
3.01 0.95 10.7824
3.01 0.95 10.739
3.01 0.942292 10.7174
3.01 0.927025 10.739
3.01 0.95 10.739
3.01 0.927025 10.739
3.01 0.915919 10.7607
3.01 0.942268 10.7607
3.01 0.95 10.739
3.01 0.927025 10.739
3.01 0.942268 10.7607
3.01 0.927013 10.7824
3.01 0.95 10.7824
3.01 0.942268 10.7607
3.01 0.915919 10.7607
3.01 0.927013 10.7824
3.01 0.942268 10.7607
3.01 0.801738 10.8693
3.01 0.826957 10.8692
3.01 0.814364 10.8475
3.01 0.852174 10.8692
3.01 0.839609 10.8475
3.01 0.826957 10.8692
3.01 0.839609 10.8475
3.01 0.814364 10.8475
3.01 0.826957 10.8692
3.01 0.776516 10.9127
3.01 0.763923 10.891
3.01 0.75132 10.9128
3.01 0.776516 10.9127
3.01 0.789115 10.9345
3.01 0.801725 10.9127
3.01 0.738704 10.9781
3.01 0.763892 10.9781
3.01 0.751305 10.9563
3.01 0.726124 10.9563
3.01 0.738704 10.9781
3.01 0.751305 10.9563
3.01 0.915617 11.1981
3.01 0.926866 11.1759
3.01 0.902228 11.1759
3.01 0.926866 11.1759
3.01 0.915617 11.1981
3.01 0.941913 11.1982
3.01 0.915617 11.1981
3.01 0.926844 11.2204
3.01 0.941913 11.1982
3.01 0.915617 11.1981
3.01 0.902193 11.2204
3.01 0.926844 11.2204
3.01 0.926866 11.1759
3.01 0.915668 11.1538
3.01 0.902228 11.1759
3.01 0.902267 11.1317
3.01 0.915668 11.1538
3.01 0.926895 11.1317
3.01 0.915668 11.1538
3.01 0.926866 11.1759
3.01 0.941974 11.1538
3.01 0.926895 11.1317
3.01 0.915668 11.1538
3.01 0.941974 11.1538
3.01 0.902267 11.1317
3.01 0.890059 11.1538
3.01 0.915668 11.1538
3.01 0.890059 11.1538
3.01 0.902228 11.1759
3.01 0.915668 11.1538
3.01 0.826927 10.9563
3.01 0.801709 10.9563
3.01 0.814318 10.9781
3.01 0.864816 11.0218
3.01 0.890186 11.0218
3.01 0.877308 10.9999
3.01 0.877308 10.9999
3.01 0.852122 10.9999
3.01 0.864816 11.0218
3.01 0.890186 11.0218
3.01 0.902362 10.9999
3.01 0.877308 10.9999
3.01 0.902362 10.9999
3.01 0.890186 11.0218
3.01 0.915805 11.0218
3.01 0.902362 10.9999
3.01 0.915805 11.0218
3.01 0.926964 10.9999
3.01 0.915835 10.9781
3.01 0.902362 10.9999
3.01 0.926964 10.9999
3.01 0.942171 10.9781
3.01 0.915835 10.9781
3.01 0.926964 10.9999
3.01 0.915835 10.9781
3.01 0.942171 10.9781
3.01 0.926978 10.9563
3.01 0.942171 10.9781
3.01 0.95 10.9563
3.01 0.926978 10.9563
3.01 0.87737 10.8258
3.01 0.902417 10.8258
3.01 0.890277 10.8041
3.01 0.852144 10.9563
3.01 0.864842 10.9781
3.01 0.877329 10.9563
3.01 0.877308 10.9999
3.01 0.864842 10.9781
3.01 0.852122 10.9999
3.01 0.902396 10.9127
3.01 0.890234 10.9345
3.01 0.915858 10.9345
3.01 0.926997 10.8692
3.01 0.95 10.8692
3.01 0.942237 10.8475
3.01 0.91589 10.8475
3.01 0.926997 10.8692
3.01 0.942237 10.8475
3.01 0.942199 10.9345
3.01 0.95 10.9563
3.01 0.95 10.9127
3.01 0.95 10.9563
3.01 0.942199 10.9345
3.01 0.926978 10.9563
3.01 0.942199 10.9345
3.01 0.915858 10.9345
3.01 0.926978 10.9563
3.01 0.95 10.8692
3.01 0.942221 10.891
3.01 0.95 10.9127
3.01 0.942221 10.891
3.01 0.95 10.8692
3.01 0.926997 10.8692
3.01 0.915876 10.891
3.01 0.942221 10.891
3.01 0.926997 10.8692
3.01 0.926989 10.9127
3.01 0.902396 10.9127
3.01 0.915858 10.9345
3.01 0.902396 10.9127
3.01 0.926989 10.9127
3.01 0.915876 10.891
3.01 0.926989 10.9127
3.01 0.915858 10.9345
3.01 0.942199 10.9345
3.01 0.95 10.9127
3.01 0.926989 10.9127
3.01 0.942199 10.9345
3.01 0.915876 10.891
3.01 0.926989 10.9127
3.01 0.942221 10.891
3.01 0.926989 10.9127
3.01 0.95 10.9127
3.01 0.942221 10.891
3.01 0.91353 11.3769
3.01 0.939636 11.377
3.01 0.926054 11.3545
3.01 0.926728 11.3099
3.01 0.941491 11.3326
3.01 0.95 11.3101
3.01 0.926728 11.3099
3.01 0.95 11.3101
3.01 0.941822 11.2875
3.01 0.95 11.3553
3.01 0.939636 11.377
3.01 0.95 11.3983
3.01 0.95 11.3553
3.01 0.941491 11.3326
3.01 0.926054 11.3545
3.01 0.939636 11.377
3.01 0.95 11.3553
3.01 0.926054 11.3545
3.01 0.941491 11.3326
3.01 0.95 11.3553
3.01 0.95 11.3101
3.01 0.941869 11.2427
3.01 0.95 11.2204
3.01 0.926844 11.2204
3.01 0.762942 11.3773
3.01 0.737933 11.3773
3.01 0.75028 11.3999
3.01 0.71291 11.3774
3.01 0.737933 11.3773
3.01 0.725533 11.3549
3.01 0.71291 11.3774
3.01 0.725313 11.3999
3.01 0.737933 11.3773
3.01 0.725313 11.3999
3.01 0.75028 11.3999
[...]
<PointData Scalars="View Factor" >
<DataArray type="Float64" Name="View Factor" NumberOfComponents="1" format="ascii">
0.00176544
0.00176544
0.00176544
0.00326734
0.00326734
0.00326734
0.0032176
0.0032176
0.0032176
0.00325198
0.00325198
0.00325198
0.00326874
0.00326874
0.00326874
0.0032507
0.0032507
0.0032507
0.00326571
0.00326571
0.00326571
0.0032492
0.0032492
0.0032492
0.00321999
0.00321999
0.00321999
0.00188184
0.00188184
0.00188184
0.00325092
0.00325092
0.00325092
0.00321633
0.00321633
0.00321633
0.00319999
0.00319999
0.00319999
0.00321486
0.00321486
0.00321486
0.0031476
0.0031476
0.0031476
0.00319863
0.00319863
0.00319863
0.00316499
0.00316499
0.00316499
0.00324747
0.00324747
0.00324747
0.00320118
0.00320118
0.00320118
0.00316756
0.00316756
0.00316756
0.00320231
0.00320231
0.00320231
0.00321874
0.00321874
0.00321874
0.00310168
0.00310168
0.00310168
0.00315279
0.00315279
0.00315279
0.00311984
0.00311984
0.00311984
0.00316872
0.00316872
0.00316872
0.00315153
0.00315153
0.00315153
0.00310285
0.00310285
0.00310285
0.0031186
0.0031186
0.0031186
0.00327186
0.00327186
0.00327186
0.00325423
0.00325423
0.00325423
0.00182916
0.00182916
0.00182916
0.00181211
0.00181211
0.00181211
0.00178577
0.00178577
0.00178577
0.00179462
0.00179462
0.00179462
0.00217835
0.00217835
0.00217835
0.00232164
0.00232164
0.00232164
0.0022993
0.0022993
0.0022993
0.00211524
0.00211524
0.00211524
0.0027201
0.0027201
0.0027201
0.0028042
0.0028042
0.0028042
0.00240921
0.00240921
0.00240921
0.00236212
0.00236212
0.00236212
0.00239959
0.00239959
0.00239959
0.00237601
0.00237601
0.00237601
0.00231618
0.00231618
0.00231618
0.00235293
0.00235293
0.00235293
0.00232992
0.00232992
0.00232992
0.00232082
0.00232082
0.00232082
0.00233452
0.00233452
0.00233452
0.00171637
0.00171637
0.00171637
0.00195134
0.00195134
0.00195134
0.00196876
0.00196876
0.00196876
0.00198912
0.00198912
0.00198912
0.0020083
0.0020083
0.0020083
0.00202626
0.00202626
0.00202626
0.00204727
0.00204727
0.00204727
0.00175433
0.00175433
0.00175433
0.00175183
0.00175183
0.00175183
0.00176142
0.00176142
0.00176142
0.00236274
0.00236274
0.00236274
0.00235284
0.00235284
0.00235284
0.00323212
0.00323212
0.00323212
0.00326384
0.00326384
0.00326384
0.00321317
0.00321317
0.00321317
0.00316344
0.00316344
0.00316344
0.00319706
0.00319706
0.00319706
0.00303952
0.00303952
0.00303952
0.00307141
0.00307141
0.00307141
0.00310395
0.00310395
0.00310395
0.00315034
0.00315034
0.00315034
0.0031174
0.0031174
0.0031174
0.00316635
0.00316635
0.00316635
0.00314905
0.00314905
0.00314905
0.00326991
0.00326991
0.00326991
0.00325309
0.00325309
0.00325309
0.0032709
0.0032709
0.0032709
0.00184627
0.00184627
0.00184627
0.00186392
0.00186392
0.00186392
0.00187307
0.00187307
0.00187307
0.00190023
0.00190023
0.00190023
0.00189112
0.00189112
0.00189112
0.00177483
0.00177483
0.00177483
0.0022988
0.0022988
0.0022988
0.00228774
0.00228774
0.00228774
0.00228815
0.00228815
0.00228815
0.00231095
0.00231095
0.00231095
0.00205414
0.00205414
0.00205414
0.00209459
0.00209459
0.00209459
0.00207423
0.00207423
0.00207423
0.00263913
0.00263913
0.00263913
0.00269487
0.00269487
0.00269487
0.00265749
0.00265749
0.00265749
0.00266785
0.00266785
0.00266785
0.00261482
0.00261482
0.00261482
0.00263093
0.00263093
0.00263093
0.00249152
0.00249152
0.00249152
0.00248614
0.00248614
0.00248614
0.00250124
0.00250124
0.00250124
0.00242845
0.00242845
0.00242845
0.00239976
0.00239976
0.00239976
0.00232531
0.00232531
0.00232531
0.00233898
0.00233898
0.00233898
0.00199344
0.00199344
0.00199344
0.00198161
0.00198161
0.00198161
0.00196269
0.00196269
0.00196269
0.00195556
0.00195556
0.00195556
0.00201268
0.00201268
0.00201268
0.00205177
0.00205177
0.00205177
0.00202002
0.00202002
0.00202002
0.00203954
0.00203954
0.00203954
0.00204411
0.00204411
0.00204411
0.00202453
0.00202453
0.00202453
0.00232519
0.00232519
0.00232519
0.00223504
0.00223504
0.00223504
0.00224842
0.00224842
0.00224842
0.00224348
0.00224348
0.00224348
0.00223004
0.00223004
0.00223004
0.00223844
0.00223844
0.00223844
0.00226034
0.00226034
0.00226034
0.0022686
0.0022686
0.0022686
0.00229083
0.00229083
0.00229083
0.00229958
0.00229958
0.00229958
0.00254982
0.00254982
0.00254982
0.00231529
0.00231529
0.00231529
0.00227046
0.00227046
0.00227046
0.00236469
0.00236469
0.00236469
0.00246328
0.00246328
0.00246328
0.00247822
0.00247822
0.00247822
0.00234328
0.00234328
0.00234328
0.00232216
0.00232216
0.00232216
0.00233607
0.00233607
0.00233607
0.00241334
0.00241334
0.00241334
0.00243907
0.00243907
0.00243907
0.00242972
0.00242972
0.00242972
0.00237364
0.00237364
0.00237364
0.00239709
0.00239709
0.00239709
0.00235907
0.00235907
0.00235907
0.00236811
0.00236811
0.00236811
0.0024059
0.0024059
0.0024059
0.00239149
0.00239149
0.00239149
0.00176801
0.00176801
0.00176801
0.00182505
0.00182505
0.00182505
0.00184253
0.00184253
0.00184253
0.0017568
0.0017568
0.0017568
0.00179081
0.00179081
0.00179081
0.00177423
0.00177423
0.00177423
0.00180642
0.00180642
0.00180642
0.00193274
0.00193274
0.00193274
0.00177432
0.00177432
0.00177432
0.00179421
0.00179421
0.00179421
0.00177722
0.00177722
0.00177722
0.00176736
0.00176736
0.00176736
0.00174379
0.00174379
0.00174379
0.00175066
0.00175066
0.00175066
0.00174094
0.00174094
0.00174094
0.00186243
0.00186243
0.00186243
0.00182874
0.00182874
0.00182874
0.00180422
0.00180422
0.00180422
0.0018215
0.0018215
0.0018215
0.00180978
0.00180978
0.00180978
0.00182714
0.00182714
0.00182714
0.00178074
0.00178074
0.00178074
0.00176389
0.00176389
0.00176389
0.00175674
0.00175674
0.00175674
0.00241568
0.00241568
0.00241568
0.00234933
0.00234933
0.00234933
0.00228752
0.00228752
0.00228752
0.00226195
0.00226195
0.00226195
0.00228429
0.00228429
0.00228429
0.0022972
0.0022972
0.0022972
0.00232973
0.00232973
0.00232973
0.00231994
0.00231994
0.00231994
0.00226513
0.00226513
0.00226513
0.00225247
0.00225247
0.00225247
0.0021359
0.0021359
0.0021359
0.00227003
0.00227003
0.00227003
0.00228311
0.00228311
0.00228311
0.00229359
0.00229359
0.00229359
0.00224918
0.00224918
0.00224918
0.00325679
0.00325679
0.00325679
0.00325938
0.00325938
0.00325938
0.00324085
0.00324085
0.00324085
0.00320667
0.00320667
0.00320667
0.00316439
0.00316439
0.00316439
0.00247207
0.00247207
0.00247207
0.00242358
0.00242358
0.00242358
0.00246235
0.00246235
0.00246235
0.00243807
0.00243807
0.00243807
0.00244289
0.00244289
0.00244289
0.00243317
0.00243317
0.00243317
0.00318847
0.00318847
0.00318847
0.00324764
0.00324764
0.00324764
0.00319647
0.00319647
0.00319647
0.00276769
0.00276769
0.00276769
0.00278308
0.00278308
0.00278308
0.00313726
0.00313726
0.00313726
0.00323799
0.00323799
0.00323799
0.00320379
0.00320379
0.00320379
0.00317018
0.00317018
0.00317018
0.00186414
0.00186414
0.00186414
0.00176737
0.00176737
0.00176737
0.00215701
0.00215701
0.00215701
0.00213598
0.00213598
0.00213598
0.00226528
0.00226528
0.00226528
0.00300026
0.00300026
0.00300026
0.00215612
0.00215612
0.00215612
0.0021351
0.0021351
0.0021351
0.00233284
0.00233284
0.00233284
0.00232098
0.00232098
0.00232098
0.00235665
0.00235665
0.00235665
0.00233342
0.00233342
0.00233342
0.00233384
0.00233384
0.00233384
0.00232214
0.00232214
0.00232214
0.00238068
0.00238068
0.00238068
0.00235708
0.00235708
0.00235708
0.00236862
0.00236862
0.00236862
0.00239226
0.00239226
0.00239226
0.00240436
0.00240436
0.00240436
0.00233809
0.00233809
0.00233809
0.00234696
0.00234696
0.00234696
0.00262118
0.00262118
0.00262118
0.00246692
0.00246692
0.00246692
0.0024573
0.0024573
0.0024573
0.00243309
0.00243309
0.00243309
0.00249574
0.00249574
0.00249574
0.0024806
0.0024806
0.0024806
0.00256555
0.00256555
0.00256555
0.0027116
0.0027116
0.0027116
0.00266212
0.00266212
0.00266212
0.00240456
0.00240456
0.00240456
0.0023576
0.0023576
0.0023576
0.0023669
0.0023669
0.0023669
0.00239035
0.00239035
0.00239035
0.00239504
0.00239504
0.00239504
0.00237153
0.00237153
0.00237153
0.00230259
0.00230259
0.00230259
0.00229348
0.00229348
0.00229348
0.00232966
0.00232966
0.00232966
0.00230689
0.00230689
0.00230689
0.00224405
0.00224405
0.00224405
0.00223114
0.00223114
0.00223114
0.00230565
0.00230565
0.00230565
0.00220847
0.00220847
0.00220847
0.00205624
0.00205624
0.00205624
0.00208057
0.00208057
0.00208057
0.00207616
0.00207616
0.00207616
0.00208842
0.00208842
0.00208842
0.00179832
0.00179832
0.00179832
0.00179128
0.00179128
0.00179128
0.00180131
0.00180131
0.00180131
0.00181855
0.00181855
0.00181855
0.00189688
0.00189688
0.00189688
0.0018335
0.0018335
0.0018335
0.00181616
0.00181616
0.00181616
0.00191205
0.00191205
0.00191205
0.00189748
0.00189748
0.00189748
0.00191931
0.00191931
0.00191931
0.00241857
0.00241857
0.00241857
0.00231141
0.00231141
0.00231141
0.00232031
0.00232031
0.00232031
0.00230649
0.00230649
0.00230649
0.00228404
0.00228404
0.00228404
0.00221818
0.00221818
0.00221818
0.00223989
0.00223989
0.00223989
0.00230488
0.00230488
0.00230488
0.00233287
0.00233287
0.00233287
0.00232754
0.00232754
0.00232754
0.0023416
0.0023416
0.0023416
0.00225518
0.00225518
0.00225518
0.00227559
0.00227559
0.00227559
0.00241167
0.00241167
0.00241167
0.00245615
0.00245615
0.00245615
0.00244125
0.00244125
0.00244125
0.00250902
0.00250902
0.00250902
0.00249008
0.00249008
0.00249008
0.00252455
0.00252455
0.00252455
0.00251493
0.00251493
0.00251493
0.00255947
0.00255947
0.00255947
0.00258516
0.00258516
0.00258516
0.00259506
0.00259506
0.00259506
0.00176197
0.00176197
0.00176197
0.00178201
0.00178201
0.00178201
0.00174202
0.00174202
0.00174202
0.00175164
0.00175164
0.00175164
0.00172603
0.00172603
0.00172603
0.00177831
0.00177831
0.00177831
0.00182924
0.00182924
0.00182924
0.00179508
0.00179508
0.00179508
0.00180135
0.00180135
0.00180135
0.00181838
0.00181838
0.00181838
0.00186875
0.00186875
0.00186875
0.00189387
0.00189387
0.00189387
0.00188666
0.00188666
0.00188666
0.001883
0.001883
0.001883
0.00193691
0.00193691
0.00193691
0.00192545
0.00192545
0.00192545
0.00185326
0.00185326
0.00185326
0.00184665
0.00184665
0.00184665
0.00179983
0.00179983
0.00179983
0.00179706
0.00179706
0.00179706
0.00180704
0.00180704
0.00180704
0.00174655
0.00174655
0.00174655
0.00175348
0.00175348
0.00175348
0.0017702
0.0017702
0.0017702
0.00178004
0.00178004
0.00178004
0.00173863
0.00173863
0.00173863
0.00176517
0.00176517
0.00176517
0.00175524
0.00175524
0.00175524
0.00173193
0.00173193
0.00173193
0.00176444
0.00176444
0.00176444
0.00174776
0.00174776
0.00174776
0.00184629
0.00184629
0.00184629
0.00185664
0.00185664
0.00185664
0.00198905
0.00198905
0.00198905
0.00199704
0.00199704
0.00199704
0.00193363
0.00193363
0.00193363
0.00187449
0.00187449
0.00187449
0.00188195
0.00188195
0.00188195
0.00188037
0.00188037
0.00188037
0.00192601
0.00192601
0.00192601
0.00190762
0.00190762
0.00190762
0.00190008
0.00190008
0.00190008
0.00191079
0.00191079
0.00191079
0.00183166
0.00183166
0.00183166
0.00185213
0.00185213
0.00185213
0.0018345
0.0018345
0.0018345
0.00182436
0.00182436
0.00182436
0.00185958
0.00185958
0.00185958
0.00184925
0.00184925
0.00184925
0.00180251
0.00180251
0.00180251
0.00178542
0.00178542
0.00178542
0.00177824
0.00177824
0.00177824
0.00178798
0.00178798
0.00178798
0.00183725
0.00183725
0.00183725
0.00185492
0.00185492
0.00185492
0.00186519
0.00186519
0.00186519
0.0020402
0.0020402
0.0020402
0.0020601
0.0020601
0.0020601
0.00249386
0.00249386
0.00249386
0.00239636
0.00239636
0.00239636
0.00250722
0.00250722
0.00250722
0.0024955
0.0024955
0.0024955
0.00238366
0.00238366
0.00238366
0.00240508
0.00240508
0.00240508
0.0024184
0.0024184
0.0024184
0.00230158
0.00230158
0.00230158
0.00231171
0.00231171
0.00231171
0.00233199
0.00233199
0.00233199
0.00227901
0.00227901
0.00227901
0.002269
0.002269
0.002269
0.00224678
0.00224678
0.00224678
0.0022346
0.0022346
0.0022346
0.00235914
0.00235914
0.00235914
0.00232627
0.00232627
0.00232627
0.00231657
0.00231657
0.00231657
0.00229388
0.00229388
0.00229388
0.00228093
0.00228093
0.00228093
0.00220307
0.00220307
0.00220307
0.00221276
0.00221276
0.00221276
0.00225556
0.00225556
0.00225556
0.00223048
0.00223048
0.00223048
0.00229905
0.00229905
0.00229905
0.00230908
0.00230908
0.00230908
0.00219572
0.00219572
0.00219572
0.00220516
0.00220516
0.00220516
0.00225161
0.00225161
0.00225161
0.0022738
0.0022738
0.0022738
0.00222734
0.00222734
0.00222734
0.00206487
0.00206487
0.00206487
0.00326173
0.00326173
0.00326173
0.0032433
0.0032433
0.0032433
0.0032455
0.0032455
0.0032455
0.00283521
0.00283521
0.00283521
0.00289169
0.00289169
0.00289169
0.00286438
0.00286438
0.00286438
0.00317673
0.00317673
0.00317673
0.00315728
0.00315728
0.00315728
0.00317784
0.00317784
0.00317784
0.00247708
0.00247708
0.00247708
0.00246724
0.00246724
0.00246724
0.00248194
0.00248194
0.00248194
0.00250676
0.00250676
0.00250676
0.00244757
0.00244757
0.00244757
0.00247199
0.00247199
0.00247199
0.00323818
0.00323818
0.00323818
0.00320404
0.00320404
0.00320404
0.00325398
0.00325398
0.00325398
0.00323526
0.00323526
0.00323526
0.00319808
0.00319808
0.00319808
0.00317961
0.00317961
0.00317961
0.00314626
0.00314626
0.00314626
0.0031429
0.0031429
0.0031429
0.00312811
0.00312811
0.00312811
0.00308086
0.00308086
0.00308086
0.00309544
0.00309544
0.00309544
0.0032364
0.0032364
0.0032364
0.00318257
0.00318257
0.00318257
0.00273959
0.00273959
0.00273959
0.00268441
0.00268441
0.00268441
0.00315581
0.00315581
0.00315581
0.00319097
0.00319097
0.00319097
0.00315744
0.00315744
0.00315744
0.00320907
0.00320907
0.00320907
0.00198085
0.00198085
0.00198085
0.0019404
0.0019404
0.0019404
0.00188833
0.00188833
0.00188833
0.00188924
0.00188924
0.00188924
0.00189793
0.00189793
0.00189793
0.00194479
0.00194479
0.00194479
0.00191635
0.00191635
0.00191635
0.00192607
0.00192607
0.00192607
0.00189696
0.00189696
0.00189696
0.00187296
0.00187296
0.00187296
0.00191877
0.00191877
0.00191877
0.00193751
0.00193751
0.00193751
0.00177673
0.00177673
0.00177673
0.00182058
0.00182058
0.00182058
0.00180326
0.00180326
0.00180326
0.00179374
0.00179374
0.00179374
0.00185582
0.00185582
0.00185582
0.00182412
0.00182412
0.00182412
0.00180675
0.00180675
0.00180675
0.002167
0.002167
0.002167
0.00215664
0.00215664
0.00215664
0.00216745
0.00216745
0.00216745
0.0021047
0.0021047
0.0021047
0.00212539
0.00212539
0.00212539
0.00209424
0.00209424
0.00209424
0.00210427
0.00210427
0.00210427
0.00213561
0.00213561
0.00213561
0.00212495
0.00212495
0.00212495
0.00225389
0.00225389
0.00225389
0.00223118
0.00223118
0.00223118
0.00224355
0.00224355
0.00224355
0.00226568
0.00226568
0.00226568
0.00225437
0.00225437
0.00225437
0.00300766
0.00300766
0.00300766
0.00278027
0.00278027
0.00278027
0.00283792
0.00283792
0.00283792
0.00268874
0.00268874
0.00268874
0.00266159
0.00266159
0.00266159
0.00268552
0.00268552
0.00268552
0.00260513
0.00260513
0.00260513
0.00257887
0.00257887
0.00257887
0.00276896
0.00276896
0.00276896
0.00279682
0.00279682
0.00279682
0.00282569
0.00282569
0.00282569
0.00279735
0.00279735
0.00279735
0.00278283
0.00278283
0.00278283
0.0027951
0.0027951
0.0027951
0.00282394
0.00282394
0.00282394
0.00286934
0.00286934
0.00286934
0.00283992
0.00283992
0.00283992
0.00282492
0.00282492
0.00282492
0.00283902
0.00283902
0.00283902
0.00296922
0.00296922
0.00296922
0.00209375
0.00209375
0.00209375
0.0020734
0.0020734
0.0020734
0.00228717
0.00228717
0.00228717
0.00229815
0.00229815
0.00229815
0.00226472
0.00226472
0.00226472
0.00225326
0.00225326
0.00225326
0.0023321
0.0023321
0.0023321
0.00252763
0.00252763
0.00252763
0.00254004
0.00254004
0.00254004
0.00255304
0.00255304
0.00255304
0.00255256
0.00255256
0.00255256
0.00253947
0.00253947
0.00253947
0.00240392
0.00240392
0.00240392
0.00242797
0.00242797
0.00242797
0.00251248
0.00251248
0.00251248
0.00235606
0.00235606
0.00235606
0.00240332
0.00240332
0.00240332
0.0023681
0.0023681
0.0023681
0.00239173
0.00239173
0.00239173
0.00270544
0.00270544
0.00270544
0.00267822
0.00267822
0.00267822
0.00252625
0.00252625
0.00252625
0.00260128
0.00260128
0.00260128
0.00259132
0.00259132
0.00259132
0.00253039
0.00253039
0.00253039
0.00255574
0.00255574
0.00255574
0.00252067
0.00252067
0.00252067
0.00253609
0.00253609
0.00253609
0.00254163
0.00254163
0.00254163
0.00256713
0.00256713
0.00256713
0.0026744
0.0026744
0.0026744
0.0027015
0.0027015
0.0027015
0.00228915
0.00228915
0.00228915
0.00229816
0.00229816
0.00229816
0.00228468
0.00228468
0.00228468
0.00226244
0.00226244
0.00226244
0.00225362
0.00225362
0.00225362
0.00226684
0.00226684
0.00226684
0.00229767
0.00229767
0.00229767
0.00227525
0.00227525
0.00227525
0.00227924
0.00227924
0.00227924
0.00226613
0.00226613
0.00226613
0.00234329
0.00234329
0.00234329
0.00238035
0.00238035
0.00238035
0.0023665
0.0023665
0.0023665
0.00224789
0.00224789
0.00224789
0.00223502
0.00223502
0.00223502
0.00223878
0.00223878
0.00223878
0.00209701
0.00209701
0.00209701
0.0020768
0.0020768
0.0020768
0.00217548
0.00217548
0.00217548
0.00219536
0.00219536
0.00219536
0.0022134
0.0022134
0.0022134
0.00220027
0.00220027
0.00220027
0.00220507
0.00220507
0.00220507
0.00218375
0.00218375
0.00218375
0.00210409
0.00210409
0.00210409
0.00207163
0.00207163
0.00207163
0.00208388
0.00208388
0.00208388
0.00201703
0.00201703
0.00201703
0.00196703
0.00196703
0.00196703
0.001986
0.001986
0.001986
0.00199774
0.00199774
0.00199774
0.00199025
0.00199025
0.00199025
0.00193777
0.00193777
0.00193777
0.00181241
0.00181241
0.00181241
0.00179209
0.00179209
0.00179209
0.0018092
0.0018092
0.0018092
0.00181945
0.00181945
0.00181945
0.00182263
0.00182263
0.00182263
0.00182573
0.00182573
0.00182573
0.00181552
0.00181552
0.00181552
0.00184009
0.00184009
0.00184009
0.00180589
0.00180589
0.00180589
0.00177874
0.00177874
0.00177874
0.00178885
0.00178885
0.00178885
0.00181276
0.00181276
0.00181276
0.0018616
0.0018616
0.0018616
0.00184395
0.00184395
0.00184395
0.00183685
0.00183685
0.00183685
0.00184726
0.00184726
0.00184726
0.0019297
0.0019297
0.0019297
0.00191133
0.00191133
0.00191133
0.00190824
0.00190824
0.00190824
0.00189011
0.00189011
0.00189011
0.00190428
0.00190428
0.00190428
0.0019154
0.0019154
0.0019154
0.00239481
0.00239481
0.00239481
0.00234813
0.00234813
0.00234813
0.00236214
0.00236214
0.00236214
0.00238551
0.00238551
0.00238551
0.00234318
0.00234318
0.00234318
0.00238972
0.00238972
0.00238972
0.00235722
0.00235722
0.00235722
0.00238053
0.00238053
0.00238053
0.00235217
0.00235217
0.00235217
0.0023754
0.0023754
0.0023754
0.0024521
0.0024521
0.0024521
0.00242796
0.00242796
0.00242796
0.0024134
0.0024134
0.0024134
0.00246161
0.00246161
0.00246161
0.00244675
0.00244675
0.00244675
0.00242269
0.00242269
0.00242269
0.00225323
0.00225323
0.00225323
0.00228008
0.00228008
0.00228008
0.0022579
0.0022579
0.0022579
0.0022446
0.0022446
0.0022446
0.00228889
0.00228889
0.00228889
0.00227534
0.00227534
0.00227534
0.00226545
0.00226545
0.00226545
0.00227905
0.00227905
0.00227905
0.00227391
0.00227391
0.00227391
0.00229622
0.00229622
0.00229622
0.00230143
0.00230143
0.00230143
0.00231014
0.00231014
0.00231014
0.00222487
0.00222487
0.00222487
0.00223335
0.00223335
0.00223335
0.00221016
0.00221016
0.00221016
0.00219041
0.00219041
0.00219041
0.00220337
0.00220337
0.00220337
0.00238449
0.00238449
0.00238449
0.0024081
0.0024081
0.0024081
0.00237912
0.00237912
0.00237912
0.00237012
0.00237012
0.00237012
0.00240265
0.00240265
0.00240265
0.00241726
0.00241726
0.00241726
0.00246912
0.00246912
0.00246912
0.00248425
0.00248425
0.00248425
0.00244483
0.00244483
0.00244483
0.00243558
0.00243558
0.00243558
0.00245055
0.00245055
0.00245055
0.00247492
0.00247492
0.00247492
0.00258879
0.00258879
0.00258879
0.00257878
0.00257878
0.00257878
0.0024859
0.0024859
0.0024859
0.00256112
0.00256112
0.00256112
0.00171934
0.00171934
0.00171934
0.00178549
0.00178549
0.00178549
0.00180246
0.00180246
0.00180246
0.00182257
0.00182257
0.00182257
0.00180545
0.00180545
0.00180545
0.0018264
0.0018264
0.0018264
0.00183319
0.00183319
0.00183319
0.0018092
0.0018092
0.0018092
0.00179887
0.00179887
0.00179887
0.0018581
0.0018581
0.0018581
0.00183694
0.00183694
0.00183694
0.00185446
0.00185446
0.00185446
0.00186515
0.00186515
0.00186515
0.00183003
0.00183003
0.00183003
0.00184051
0.00184051
0.00184051
0.00185744
0.00185744