<VTKFile type="UnstructuredGrid" version="1.0">
<UnstructuredGrid>
<Piece NumberOfPoints="8859" NumberOfCells="2953">
<Points>
<DataArray type="Float64" NumberOfComponents="3" format="ascii">
3.01 0.5 18.715
3.01 0.487476 18.7375
3.01 0.512524 18.7375
3.01 0.17352 17.8375
3.01 0.148445 17.8375
3.01 0.160827 17.8592
3.01 0.122979 17.8809
3.01 0.135644 17.8592
3.01 0.110383 17.8592
3.01 0.135644 17.8592
3.01 0.123433 17.8375
3.01 0.110383 17.8592
3.01 0.123433 17.8375
3.01 0.135644 17.8592
3.01 0.148445 17.8375
3.01 0.135644 17.8592
3.01 0.160827 17.8592
3.01 0.148445 17.8375
3.01 0.17352 17.8375
3.01 0.185985 17.8592
3.01 0.198629 17.8375
3.01 0.185985 17.8592
3.01 0.17352 17.8375
3.01 0.160827 17.8592
3.01 0.0732297 17.8807
3.01 0.0848754 17.8591
3.01 0.0586606 17.8588
3.01 0.05 18.6703
3.01 0.058509 18.6476
3.01 0.05 18.6251
3.01 0.324276 17.8375
3.01 0.336827 17.8592
3.01 0.349395 17.8375
3.01 0.148138 17.8809
3.01 0.160827 17.8592
3.01 0.135644 17.8592
3.01 0.122979 17.8809
3.01 0.148138 17.8809
3.01 0.135644 17.8592
3.01 0.160827 17.8592
3.01 0.173316 17.8809
3.01 0.185985 17.8592
3.01 0.185806 17.9025
3.01 0.173316 17.8809
3.01 0.160572 17.9026
3.01 0.173316 17.8809
3.01 0.160827 17.8592
3.01 0.148138 17.8809
3.01 0.160572 17.9026
3.01 0.173316 17.8809
3.01 0.148138 17.8809
3.01 0.211137 17.8592
3.01 0.198629 17.8375
3.01 0.185985 17.8592
3.01 0.0979162 17.8808
3.01 0.122979 17.8809
3.01 0.110383 17.8592
3.01 0.122979 17.8809
3.01 0.0979162 17.8808
3.01 0.109875 17.9025
3.01 0.0732297 17.8807
3.01 0.0979162 17.8808
3.01 0.0848754 17.8591
3.01 0.0979162 17.8808
3.01 0.110383 17.8592
3.01 0.0848754 17.8591
3.01 0.0975729 17.924
3.01 0.122678 17.9241
3.01 0.109875 17.9025
3.01 0.0841718 17.9023
3.01 0.0732297 17.8807
3.01 0.0577122 17.902
3.01 0.0729308 17.9239
3.01 0.0841718 17.9023
3.01 0.0577122 17.902
3.01 0.0732297 17.8807
3.01 0.0841718 17.9023
3.01 0.0979162 17.8808
3.01 0.0841718 17.9023
3.01 0.109875 17.9025
3.01 0.0979162 17.8808
3.01 0.0975729 17.924
3.01 0.0841718 17.9023
3.01 0.0729308 17.9239
3.01 0.0841718 17.9023
3.01 0.0975729 17.924
3.01 0.109875 17.9025
3.01 0.073948 17.8375
3.01 0.05 17.8375
3.01 0.0586606 17.8588
3.01 0.073948 17.8375
3.01 0.0586606 17.8588
3.01 0.0848754 17.8591
3.01 0.05 18.7133
3.01 0.0603641 18.692
3.01 0.05 18.6703
3.01 0.0603641 18.692
3.01 0.05 18.7133
3.01 0.0753197 18.714
3.01 0.0709395 18.7375
3.01 0.05 18.7133
3.01 0.05 18.7375
3.01 0.05 18.7133
3.01 0.0709395 18.7375
3.01 0.0753197 18.714
3.01 0.0579641 18.4246
3.01 0.05 18.4026
3.01 0.05 18.4467
3.01 0.0841948 18.3368
3.01 0.109814 18.3368
3.01 0.097638 18.3149
3.01 0.0841948 18.3368
3.01 0.0578646 18.3368
3.01 0.0730539 18.3587
3.01 0.0580261 18.4688
3.01 0.05 18.4467
3.01 0.05 18.4909
3.01 0.942292 18.0324
3.01 0.95 18.054
3.01 0.95 18.0107
3.01 0.95 17.9673
3.01 0.942332 17.989
3.01 0.95 18.0107
3.01 0.73872 18.2495
3.01 0.75132 18.2278
3.01 0.726137 18.2278
3.01 0.751305 18.2713
3.01 0.73872 18.2495
3.01 0.726124 18.2713
3.01 0.713546 18.2495
3.01 0.73872 18.2495
3.01 0.726137 18.2278
3.01 0.73872 18.2495
3.01 0.713546 18.2495
3.01 0.726124 18.2713
3.01 0.814318 18.2931
3.01 0.801709 18.2713
3.01 0.789096 18.2931
3.01 0.7765 18.2713
3.01 0.801709 18.2713
3.01 0.789115 18.2495
3.01 0.801709 18.2713
3.01 0.7765 18.2713
3.01 0.789096 18.2931
3.01 0.7765 18.2713
3.01 0.763892 18.2931
3.01 0.789096 18.2931
3.01 0.763892 18.2931
3.01 0.7765 18.2713
3.01 0.751305 18.2713
3.01 0.95 18.7375
3.01 0.95 18.7133
3.01 0.929061 18.7375
3.01 0.95 18.5354
3.01 0.941913 18.5132
3.01 0.926844 18.5354
3.01 0.941913 18.5132
3.01 0.95 18.5354
3.01 0.95 18.4909
3.01 0.926866 18.4909
3.01 0.941913 18.5132
3.01 0.95 18.4909
3.01 0.941974 18.4688
3.01 0.926866 18.4909
3.01 0.95 18.4909
3.01 0.95 18.4467
3.01 0.941974 18.4688
3.01 0.95 18.4909
3.01 0.941974 18.4688
3.01 0.95 18.4467
3.01 0.926895 18.4467
3.01 0.6127 18.7375
3.01 0.637734 18.7375
3.01 0.625238 18.715
3.01 0.662757 18.7375
3.01 0.650275 18.715
3.01 0.637734 18.7375
3.01 0.650275 18.715
3.01 0.625238 18.715
3.01 0.637734 18.7375
3.01 0.600415 18.2714
3.01 0.575304 18.2714
3.01 0.587856 18.2932
3.01 0.575304 18.2714
3.01 0.562749 18.2932
3.01 0.587856 18.2932
3.01 0.336827 17.8592
3.01 0.361946 17.8592
3.01 0.349395 17.8375
3.01 0.223755 17.8375
3.01 0.198629 17.8375
3.01 0.211137 17.8592
3.01 0.185985 17.8592
3.01 0.198492 17.8809
3.01 0.211137 17.8592
3.01 0.185806 17.9025
3.01 0.198492 17.8809
3.01 0.173316 17.8809
3.01 0.198492 17.8809
3.01 0.185985 17.8592
3.01 0.173316 17.8809
3.01 0.0576202 17.9455
3.01 0.05 17.9237
3.01 0.05 17.9673
3.01 0.05 17.9237
3.01 0.0576202 17.9455
3.01 0.0729308 17.9239
3.01 0.05 17.9237
3.01 0.0729308 17.9239
3.01 0.0577122 17.902
3.01 0.135283 17.9025
3.01 0.122979 17.8809
3.01 0.109875 17.9025
3.01 0.135283 17.9025
3.01 0.109875 17.9025
3.01 0.122678 17.9241
3.01 0.122979 17.8809
3.01 0.135283 17.9025
3.01 0.148138 17.8809
3.01 0.135283 17.9025
3.01 0.160572 17.9026
3.01 0.148138 17.8809
3.01 0.123433 17.8375
3.01 0.0985513 17.8375
3.01 0.110383 17.8592
3.01 0.110383 17.8592
3.01 0.0985513 17.8375
3.01 0.0848754 17.8591
3.01 0.0848754 17.8591
3.01 0.0985513 17.8375
3.01 0.073948 17.8375
3.01 0.0603641 18.692
3.01 0.0739464 18.6695
3.01 0.05 18.6703
3.01 0.0739464 18.6695
3.01 0.058509 18.6476
3.01 0.05 18.6703
3.01 0.058509 18.6476
3.01 0.0739464 18.6695
3.01 0.0849548 18.6471
3.01 0.058509 18.6476
3.01 0.0732725 18.6249
3.01 0.05 18.6251
3.01 0.0732725 18.6249
3.01 0.058509 18.6476
3.01 0.0849548 18.6471
3.01 0.5 18.715
3.01 0.47495 18.715
3.01 0.487476 18.7375
3.01 0.097663 18.3587
3.01 0.109814 18.3368
3.01 0.0841948 18.3368
3.01 0.0730539 18.3587
3.01 0.097663 18.3587
3.01 0.0841948 18.3368
3.01 0.0578646 18.3368
3.01 0.05 18.3587
3.01 0.0730539 18.3587
3.01 0.05 18.3587
3.01 0.0578646 18.3368
3.01 0.05 18.3149
3.01 0.05 18.5354
3.01 0.0580869 18.5132
3.01 0.05 18.4909
3.01 0.05 18.4909
3.01 0.073134 18.4909
3.01 0.0580261 18.4688
3.01 0.073134 18.4909
3.01 0.05 18.4909
3.01 0.0580869 18.5132
3.01 0.942268 18.0757
3.01 0.95 18.0974
3.01 0.95 18.054
3.01 0.942292 18.0324
3.01 0.927025 18.054
3.01 0.95 18.054
3.01 0.927025 18.054
3.01 0.915919 18.0757
3.01 0.942268 18.0757
3.01 0.95 18.054
3.01 0.927025 18.054
3.01 0.942268 18.0757
3.01 0.927013 18.0974
3.01 0.95 18.0974
3.01 0.942268 18.0757
3.01 0.915919 18.0757
3.01 0.927013 18.0974
3.01 0.942268 18.0757
3.01 0.801738 18.1843
3.01 0.826957 18.1842
3.01 0.814364 18.1625
3.01 0.852174 18.1842
3.01 0.839609 18.1625
3.01 0.826957 18.1842
3.01 0.839609 18.1625
3.01 0.814364 18.1625
3.01 0.826957 18.1842
3.01 0.776516 18.2277
3.01 0.763923 18.206
3.01 0.75132 18.2278
3.01 0.776516 18.2277
3.01 0.789115 18.2495
3.01 0.801725 18.2277
3.01 0.738704 18.2931
3.01 0.763892 18.2931
3.01 0.751305 18.2713
3.01 0.726124 18.2713
3.01 0.738704 18.2931
3.01 0.751305 18.2713
3.01 0.915617 18.5131
3.01 0.926866 18.4909
3.01 0.902228 18.4909
3.01 0.926866 18.4909
3.01 0.915617 18.5131
3.01 0.941913 18.5132
3.01 0.915617 18.5131
3.01 0.926844 18.5354
3.01 0.941913 18.5132
3.01 0.915617 18.5131
3.01 0.902193 18.5354
3.01 0.926844 18.5354
3.01 0.926866 18.4909
3.01 0.915668 18.4688
3.01 0.902228 18.4909
3.01 0.902267 18.4467
3.01 0.915668 18.4688
3.01 0.926895 18.4467
3.01 0.915668 18.4688
3.01 0.926866 18.4909
3.01 0.941974 18.4688
3.01 0.926895 18.4467
3.01 0.915668 18.4688
3.01 0.941974 18.4688
3.01 0.902267 18.4467
3.01 0.890059 18.4688
3.01 0.915668 18.4688
3.01 0.890059 18.4688
3.01 0.902228 18.4909
3.01 0.915668 18.4688
3.01 0.826927 18.2713
3.01 0.801709 18.2713
3.01 0.814318 18.2931
3.01 0.864816 18.3368
3.01 0.890186 18.3368
3.01 0.877308 18.3149
3.01 0.877308 18.3149
3.01 0.852122 18.3149
3.01 0.864816 18.3368
3.01 0.890186 18.3368
3.01 0.902362 18.3149
3.01 0.877308 18.3149
3.01 0.902362 18.3149
3.01 0.890186 18.3368
3.01 0.915805 18.3368
3.01 0.902362 18.3149
3.01 0.915805 18.3368
3.01 0.926964 18.3149
3.01 0.915835 18.2931
3.01 0.902362 18.3149
3.01 0.926964 18.3149
3.01 0.942171 18.2931
3.01 0.915835 18.2931
3.01 0.926964 18.3149
3.01 0.915835 18.2931
3.01 0.942171 18.2931
3.01 0.926978 18.2713
3.01 0.942171 18.2931
3.01 0.95 18.2713
3.01 0.926978 18.2713
3.01 0.87737 18.1408
3.01 0.902417 18.1408
3.01 0.890277 18.1191
3.01 0.852144 18.2713
3.01 0.864842 18.2931
3.01 0.877329 18.2713
3.01 0.877308 18.3149
3.01 0.864842 18.2931
3.01 0.852122 18.3149
3.01 0.902396 18.2277
3.01 0.890234 18.2495
3.01 0.915858 18.2495
3.01 0.926997 18.1842
3.01 0.95 18.1842
3.01 0.942237 18.1625
3.01 0.91589 18.1625
3.01 0.926997 18.1842
3.01 0.942237 18.1625
3.01 0.942199 18.2495
3.01 0.95 18.2713
3.01 0.95 18.2277
3.01 0.95 18.2713
3.01 0.942199 18.2495
3.01 0.926978 18.2713
3.01 0.942199 18.2495
3.01 0.915858 18.2495
3.01 0.926978 18.2713
3.01 0.95 18.1842
3.01 0.942221 18.206
3.01 0.95 18.2277
3.01 0.942221 18.206
3.01 0.95 18.1842
3.01 0.926997 18.1842
3.01 0.915876 18.206
3.01 0.942221 18.206
3.01 0.926997 18.1842
3.01 0.926989 18.2277
3.01 0.902396 18.2277
3.01 0.915858 18.2495
3.01 0.902396 18.2277
3.01 0.926989 18.2277
3.01 0.915876 18.206
3.01 0.926989 18.2277
3.01 0.915858 18.2495
3.01 0.942199 18.2495
3.01 0.95 18.2277
3.01 0.926989 18.2277
3.01 0.942199 18.2495
3.01 0.915876 18.206
3.01 0.926989 18.2277
3.01 0.942221 18.206
3.01 0.926989 18.2277
3.01 0.95 18.2277
3.01 0.942221 18.206
3.01 0.91353 18.6919
3.01 0.939636 18.692
3.01 0.926054 18.6695
3.01 0.926728 18.6249
3.01 0.941491 18.6476
3.01 0.95 18.6251
3.01 0.926728 18.6249
3.01 0.95 18.6251
3.01 0.941822 18.6025
3.01 0.95 18.6703
3.01 0.939636 18.692
3.01 0.95 18.7133
3.01 0.95 18.6703
3.01 0.941491 18.6476
3.01 0.926054 18.6695
3.01 0.939636 18.692
3.01 0.95 18.6703
3.01 0.926054 18.6695
3.01 0.941491 18.6476
3.01 0.95 18.6703
3.01 0.95 18.6251
3.01 0.941869 18.5577
3.01 0.95 18.5354
3.01 0.926844 18.5354
3.01 0.762942 18.6923
3.01 0.737933 18.6923
3.01 0.75028 18.7149
3.01 0.71291 18.6924
3.01 0.737933 18.6923
3.01 0.725533 18.6699
3.01 0.71291 18.6924
3.01 0.725313 18.7149
3.01 0.737933 18.6923
3.01 0.725313 18.7149
[...]
<PointData Scalars="View Factor" >
<DataArray type="Float64" Name="View Factor" NumberOfComponents="1" format="ascii">
5.83531e-06
5.83531e-06
5.83531e-06
6.70473e-06
6.70473e-06
6.70473e-06
6.68188e-06
6.68188e-06
6.68188e-06
6.69724e-06
6.69724e-06
6.69724e-06
6.70488e-06
6.70488e-06
6.70488e-06
6.6971e-06
6.6971e-06
6.6971e-06
6.70455e-06
6.70455e-06
6.70455e-06
6.69694e-06
6.69694e-06
6.69694e-06
6.68234e-06
6.68234e-06
6.68234e-06
5.91393e-06
5.91393e-06
5.91393e-06
6.70291e-06
6.70291e-06
6.70291e-06
6.68174e-06
6.68174e-06
6.68174e-06
6.67415e-06
6.67415e-06
6.67415e-06
6.68158e-06
6.68158e-06
6.68158e-06
6.65102e-06
6.65102e-06
6.65102e-06
6.674e-06
6.674e-06
6.674e-06
6.65872e-06
6.65872e-06
6.65872e-06
6.69675e-06
6.69675e-06
6.69675e-06
6.6743e-06
6.6743e-06
6.6743e-06
6.65905e-06
6.65905e-06
6.65905e-06
6.67451e-06
6.67451e-06
6.67451e-06
6.68205e-06
6.68205e-06
6.68205e-06
6.6287e-06
6.6287e-06
6.6287e-06
6.65187e-06
6.65187e-06
6.65187e-06
6.6367e-06
6.6367e-06
6.6367e-06
6.65928e-06
6.65928e-06
6.65928e-06
6.65156e-06
6.65156e-06
6.65156e-06
6.62895e-06
6.62895e-06
6.62895e-06
6.63639e-06
6.63639e-06
6.63639e-06
6.70534e-06
6.70534e-06
6.70534e-06
6.69763e-06
6.69763e-06
6.69763e-06
5.87385e-06
5.87385e-06
5.87385e-06
5.8607e-06
5.8607e-06
5.8607e-06
5.84004e-06
5.84004e-06
5.84004e-06
5.84705e-06
5.84705e-06
5.84705e-06
6.12142e-06
6.12142e-06
6.12142e-06
6.21259e-06
6.21259e-06
6.21259e-06
6.19856e-06
6.19856e-06
6.19856e-06
6.07961e-06
6.07961e-06
6.07961e-06
6.49106e-06
6.49106e-06
6.49106e-06
6.5356e-06
6.5356e-06
6.5356e-06
6.29467e-06
6.29467e-06
6.29467e-06
6.26617e-06
6.26617e-06
6.26617e-06
6.28788e-06
6.28788e-06
6.28788e-06
6.27363e-06
6.27363e-06
6.27363e-06
6.24307e-06
6.24307e-06
6.24307e-06
6.26473e-06
6.26473e-06
6.26473e-06
6.25053e-06
6.25053e-06
6.25053e-06
6.24381e-06
6.24381e-06
6.24381e-06
6.25126e-06
6.25126e-06
6.25126e-06
5.82492e-06
5.82492e-06
5.82492e-06
6.00843e-06
6.00843e-06
6.00843e-06
6.02194e-06
6.02194e-06
6.02194e-06
6.03602e-06
6.03602e-06
6.03602e-06
6.04984e-06
6.04984e-06
6.04984e-06
6.06341e-06
6.06341e-06
6.06341e-06
6.07754e-06
6.07754e-06
6.07754e-06
5.83291e-06
5.83291e-06
5.83291e-06
5.83237e-06
5.83237e-06
5.83237e-06
5.83936e-06
5.83936e-06
5.83936e-06
6.25571e-06
6.25571e-06
6.25571e-06
6.24889e-06
6.24889e-06
6.24889e-06
6.69504e-06
6.69504e-06
6.69504e-06
6.70434e-06
6.70434e-06
6.70434e-06
6.68139e-06
6.68139e-06
6.68139e-06
6.65855e-06
6.65855e-06
6.65855e-06
6.67383e-06
6.67383e-06
6.67383e-06
6.59893e-06
6.59893e-06
6.59893e-06
6.61403e-06
6.61403e-06
6.61403e-06
6.62924e-06
6.62924e-06
6.62924e-06
6.65136e-06
6.65136e-06
6.65136e-06
6.63618e-06
6.63618e-06
6.63618e-06
6.65888e-06
6.65888e-06
6.65888e-06
6.65119e-06
6.65119e-06
6.65119e-06
6.70501e-06
6.70501e-06
6.70501e-06
6.69739e-06
6.69739e-06
6.69739e-06
6.70514e-06
6.70514e-06
6.70514e-06
5.88704e-06
5.88704e-06
5.88704e-06
5.90046e-06
5.90046e-06
5.90046e-06
5.90745e-06
5.90745e-06
5.90745e-06
5.92772e-06
5.92772e-06
5.92772e-06
5.921e-06
5.921e-06
5.921e-06
5.84224e-06
5.84224e-06
5.84224e-06
6.19848e-06
6.19848e-06
6.19848e-06
6.19148e-06
6.19148e-06
6.19148e-06
6.19154e-06
6.19154e-06
6.19154e-06
6.20565e-06
6.20565e-06
6.20565e-06
6.03799e-06
6.03799e-06
6.03799e-06
6.06571e-06
6.06571e-06
6.06571e-06
6.05184e-06
6.05184e-06
6.05184e-06
6.44691e-06
6.44691e-06
6.44691e-06
6.47659e-06
6.47659e-06
6.47659e-06
6.45495e-06
6.45495e-06
6.45495e-06
6.46187e-06
6.46187e-06
6.46187e-06
6.43256e-06
6.43256e-06
6.43256e-06
6.4403e-06
6.4403e-06
6.4403e-06
6.3498e-06
6.3498e-06
6.3498e-06
6.349e-06
6.349e-06
6.349e-06
6.35661e-06
6.35661e-06
6.35661e-06
6.30825e-06
6.30825e-06
6.30825e-06
6.29322e-06
6.29322e-06
6.29322e-06
6.24453e-06
6.24453e-06
6.24453e-06
6.25197e-06
6.25197e-06
6.25197e-06
6.03685e-06
6.03685e-06
6.03685e-06
6.0295e-06
6.0295e-06
6.0295e-06
6.01571e-06
6.01571e-06
6.01571e-06
6.00926e-06
6.00926e-06
6.00926e-06
6.05067e-06
6.05067e-06
6.05067e-06
6.07838e-06
6.07838e-06
6.07838e-06
6.05715e-06
6.05715e-06
6.05715e-06
6.071e-06
6.071e-06
6.071e-06
6.07185e-06
6.07185e-06
6.07185e-06
6.05799e-06
6.05799e-06
6.05799e-06
6.24978e-06
6.24978e-06
6.24978e-06
6.19835e-06
6.19835e-06
6.19835e-06
6.2058e-06
6.2058e-06
6.2058e-06
6.20498e-06
6.20498e-06
6.20498e-06
6.19751e-06
6.19751e-06
6.19751e-06
6.20413e-06
6.20413e-06
6.20413e-06
6.21823e-06
6.21823e-06
6.21823e-06
6.22483e-06
6.22483e-06
6.22483e-06
6.23896e-06
6.23896e-06
6.23896e-06
6.24564e-06
6.24564e-06
6.24564e-06
6.39067e-06
6.39067e-06
6.39067e-06
6.24819e-06
6.24819e-06
6.24819e-06
6.2199e-06
6.2199e-06
6.2199e-06
6.28244e-06
6.28244e-06
6.28244e-06
6.34556e-06
6.34556e-06
6.34556e-06
6.35317e-06
6.35317e-06
6.35317e-06
6.27375e-06
6.27375e-06
6.27375e-06
6.25982e-06
6.25982e-06
6.25982e-06
6.26733e-06
6.26733e-06
6.26733e-06
6.31657e-06
6.31657e-06
6.31657e-06
6.33119e-06
6.33119e-06
6.33119e-06
6.32442e-06
6.32442e-06
6.32442e-06
6.28914e-06
6.28914e-06
6.28914e-06
6.30342e-06
6.30342e-06
6.30342e-06
6.28155e-06
6.28155e-06
6.28155e-06
6.28827e-06
6.28827e-06
6.28827e-06
6.3101e-06
6.3101e-06
6.3101e-06
6.30254e-06
6.30254e-06
6.30254e-06
5.8658e-06
5.8658e-06
5.8658e-06
5.91239e-06
5.91239e-06
5.91239e-06
5.92605e-06
5.92605e-06
5.92605e-06
5.85849e-06
5.85849e-06
5.85849e-06
5.88525e-06
5.88525e-06
5.88525e-06
5.87189e-06
5.87189e-06
5.87189e-06
5.89839e-06
5.89839e-06
5.89839e-06
5.99466e-06
5.99466e-06
5.99466e-06
5.85701e-06
5.85701e-06
5.85701e-06
5.87113e-06
5.87113e-06
5.87113e-06
5.8576e-06
5.8576e-06
5.8576e-06
5.85055e-06
5.85055e-06
5.85055e-06
5.83062e-06
5.83062e-06
5.83062e-06
5.83706e-06
5.83706e-06
5.83706e-06
5.83001e-06
5.83001e-06
5.83001e-06
5.9201e-06
5.9201e-06
5.9201e-06
5.89826e-06
5.89826e-06
5.89826e-06
5.8782e-06
5.8782e-06
5.8782e-06
5.89176e-06
5.89176e-06
5.89176e-06
5.87932e-06
5.87932e-06
5.87932e-06
5.89289e-06
5.89289e-06
5.89289e-06
5.85336e-06
5.85336e-06
5.85336e-06
5.83989e-06
5.83989e-06
5.83989e-06
5.83343e-06
5.83343e-06
5.83343e-06
6.27978e-06
6.27978e-06
6.27978e-06
6.24833e-06
6.24833e-06
6.24833e-06
6.20695e-06
6.20695e-06
6.20695e-06
6.19233e-06
6.19233e-06
6.19233e-06
6.20643e-06
6.20643e-06
6.20643e-06
6.21375e-06
6.21375e-06
6.21375e-06
6.23471e-06
6.23471e-06
6.23471e-06
6.22789e-06
6.22789e-06
6.22789e-06
6.19285e-06
6.19285e-06
6.19285e-06
6.18555e-06
6.18555e-06
6.18555e-06
6.10874e-06
6.10874e-06
6.10874e-06
6.2041e-06
6.2041e-06
6.2041e-06
6.21147e-06
6.21147e-06
6.21147e-06
6.22892e-06
6.22892e-06
6.22892e-06
6.20069e-06
6.20069e-06
6.20069e-06
6.70356e-06
6.70356e-06
6.70356e-06
6.70385e-06
6.70385e-06
6.70385e-06
6.69602e-06
6.69602e-06
6.69602e-06
6.68068e-06
6.68068e-06
6.68068e-06
6.6873e-06
6.6873e-06
6.6873e-06
6.33619e-06
6.33619e-06
6.33619e-06
6.30751e-06
6.30751e-06
6.30751e-06
6.32938e-06
6.32938e-06
6.32938e-06
6.31504e-06
6.31504e-06
6.31504e-06
6.31577e-06
6.31577e-06
6.31577e-06
6.30897e-06
6.30897e-06
6.30897e-06
6.67288e-06
6.67288e-06
6.67288e-06
6.70254e-06
6.70254e-06
6.70254e-06
6.69674e-06
6.69674e-06
6.69674e-06
6.46994e-06
6.46994e-06
6.46994e-06
6.47746e-06
6.47746e-06
6.47746e-06
6.6446e-06
6.6446e-06
6.6446e-06
6.69024e-06
6.69024e-06
6.69024e-06
6.67496e-06
6.67496e-06
6.67496e-06
6.65972e-06
6.65972e-06
6.65972e-06
5.9008e-06
5.9008e-06
5.9008e-06
5.83573e-06
5.83573e-06
5.83573e-06
6.10746e-06
6.10746e-06
6.10746e-06
6.09352e-06
6.09352e-06
6.09352e-06
6.1774e-06
6.1774e-06
6.1774e-06
6.58268e-06
6.58268e-06
6.58268e-06
6.10731e-06
6.10731e-06
6.10731e-06
6.09337e-06
6.09337e-06
6.09337e-06
6.2196e-06
6.2196e-06
6.2196e-06
6.21248e-06
6.21248e-06
6.21248e-06
6.23384e-06
6.23384e-06
6.23384e-06
6.21969e-06
6.21969e-06
6.21969e-06
6.21976e-06
6.21976e-06
6.21976e-06
6.21267e-06
6.21267e-06
6.21267e-06
6.2481e-06
6.2481e-06
6.2481e-06
6.23391e-06
6.23391e-06
6.23391e-06
6.24097e-06
6.24097e-06
6.24097e-06
6.25516e-06
6.25516e-06
6.25516e-06
6.2623e-06
6.2623e-06
6.2623e-06
6.26238e-06
6.26238e-06
6.26238e-06
6.26907e-06
6.26907e-06
6.26907e-06
6.43347e-06
6.43347e-06
6.43347e-06
6.33541e-06
6.33541e-06
6.33541e-06
6.32862e-06
6.32862e-06
6.32862e-06
6.31428e-06
6.31428e-06
6.31428e-06
6.35579e-06
6.35579e-06
6.35579e-06
6.34817e-06
6.34817e-06
6.34817e-06
6.39836e-06
6.39836e-06
6.39836e-06
6.48439e-06
6.48439e-06
6.48439e-06
6.43918e-06
6.43918e-06
6.43918e-06
6.29396e-06
6.29396e-06
6.29396e-06
6.26546e-06
6.26546e-06
6.26546e-06
6.27221e-06
6.27221e-06
6.27221e-06
6.28646e-06
6.28646e-06
6.28646e-06
6.28718e-06
6.28718e-06
6.28718e-06
6.27293e-06
6.27293e-06
6.27293e-06
6.23037e-06
6.23037e-06
6.23037e-06
6.22364e-06
6.22364e-06
6.22364e-06
6.24522e-06
6.24522e-06
6.24522e-06
6.23105e-06
6.23105e-06
6.23105e-06
6.18938e-06
6.18938e-06
6.18938e-06
6.18202e-06
6.18202e-06
6.18202e-06
6.2256e-06
6.2256e-06
6.2256e-06
6.18345e-06
6.18345e-06
6.18345e-06
6.0792e-06
6.0792e-06
6.0792e-06
6.09388e-06
6.09388e-06
6.09388e-06
6.09308e-06
6.09308e-06
6.09308e-06
6.10043e-06
6.10043e-06
6.10043e-06
5.87703e-06
5.87703e-06
5.87703e-06
5.87055e-06
5.87055e-06
5.87055e-06
5.87762e-06
5.87762e-06
5.87762e-06
5.89118e-06
5.89118e-06
5.89118e-06
5.95221e-06
5.95221e-06
5.95221e-06
5.90942e-06
5.90942e-06
5.90942e-06
5.89584e-06
5.89584e-06
5.89584e-06
5.97044e-06
5.97044e-06
5.97044e-06
5.95746e-06
5.95746e-06
5.95746e-06
5.97692e-06
5.97692e-06
5.97692e-06
6.30674e-06
6.30674e-06
6.30674e-06
6.2423e-06
6.2423e-06
6.2423e-06
6.249e-06
6.249e-06
6.249e-06
6.24151e-06
6.24151e-06
6.24151e-06
6.22737e-06
6.22737e-06
6.22737e-06
6.18509e-06
6.18509e-06
6.18509e-06
6.19916e-06
6.19916e-06
6.19916e-06
6.24651e-06
6.24651e-06
6.24651e-06
6.26155e-06
6.26155e-06
6.26155e-06
6.26069e-06
6.26069e-06
6.26069e-06
6.26821e-06
6.26821e-06
6.26821e-06
6.21737e-06
6.21737e-06
6.21737e-06
6.23121e-06
6.23121e-06
6.23121e-06
6.31099e-06
6.31099e-06
6.31099e-06
6.33379e-06
6.33379e-06
6.33379e-06
6.32619e-06
6.32619e-06
6.32619e-06
6.36851e-06
6.36851e-06
6.36851e-06
6.35495e-06
6.35495e-06
6.35495e-06
6.37618e-06
6.37618e-06
6.37618e-06
6.36938e-06
6.36938e-06
6.36938e-06
6.39748e-06
6.39748e-06
6.39748e-06
6.41202e-06
6.41202e-06
6.41202e-06
6.41887e-06
6.41887e-06
6.41887e-06
5.85455e-06
5.85455e-06
5.85455e-06
5.86873e-06
5.86873e-06
5.86873e-06
5.84567e-06
5.84567e-06
5.84567e-06
5.85247e-06
5.85247e-06
5.85247e-06
5.83219e-06
5.83219e-06
5.83219e-06
5.87299e-06
5.87299e-06
5.87299e-06
5.91346e-06
5.91346e-06
5.91346e-06
5.88645e-06
5.88645e-06
5.88645e-06
5.89261e-06
5.89261e-06
5.89261e-06
5.9061e-06
5.9061e-06
5.9061e-06
5.93664e-06
5.93664e-06
5.93664e-06
5.95676e-06
5.95676e-06
5.95676e-06
5.95028e-06
5.95028e-06
5.95028e-06
5.94957e-06
5.94957e-06
5.94957e-06
5.99549e-06
5.99549e-06
5.99549e-06
5.98817e-06
5.98817e-06
5.98817e-06
5.93334e-06
5.93334e-06
5.93334e-06
5.92703e-06
5.92703e-06
5.92703e-06
5.87227e-06
5.87227e-06
5.87227e-06
5.87171e-06
5.87171e-06
5.87171e-06
5.87877e-06
5.87877e-06
5.87877e-06
5.83122e-06
5.83122e-06
5.83122e-06
5.83766e-06
5.83766e-06
5.83766e-06
5.85114e-06
5.85114e-06
5.85114e-06
5.85819e-06
5.85819e-06
5.85819e-06
5.83453e-06
5.83453e-06
5.83453e-06
5.85519e-06
5.85519e-06
5.85519e-06
5.8481e-06
5.8481e-06
5.8481e-06
5.82806e-06
5.82806e-06
5.82806e-06
5.84995e-06
5.84995e-06
5.84995e-06
5.83644e-06
5.83644e-06
5.83644e-06
5.91187e-06
5.91187e-06
5.91187e-06
5.91897e-06
5.91897e-06
5.91897e-06
6.01554e-06
6.01554e-06
6.01554e-06
6.02215e-06
6.02215e-06
6.02215e-06
5.97962e-06
5.97962e-06
5.97962e-06
5.93261e-06
5.93261e-06
5.93261e-06
5.93914e-06
5.93914e-06
5.93914e-06
5.93374e-06
5.93374e-06
5.93374e-06
5.97307e-06
5.97307e-06
5.97307e-06
5.95936e-06
5.95936e-06
5.95936e-06
5.95282e-06
5.95282e-06
5.95282e-06
5.95996e-06
5.95996e-06
5.95996e-06
5.89884e-06
5.89884e-06
5.89884e-06
5.91301e-06
5.91301e-06
5.91301e-06
5.8994e-06
5.8994e-06
5.8994e-06
5.89233e-06
5.89233e-06
5.89233e-06
5.91954e-06
5.91954e-06
5.91954e-06
5.91244e-06
5.91244e-06
5.91244e-06
5.87283e-06
5.87283e-06
5.87283e-06
5.85931e-06
5.85931e-06
5.85931e-06
5.85283e-06
5.85283e-06
5.85283e-06
5.85984e-06
5.85984e-06
5.85984e-06
5.89995e-06
5.89995e-06
5.89995e-06
5.91356e-06
5.91356e-06
5.91356e-06
5.92064e-06
5.92064e-06
5.92064e-06
6.04542e-06
6.04542e-06
6.04542e-06
6.05928e-06
6.05928e-06
6.05928e-06
6.31814e-06
6.31814e-06
6.31814e-06
6.26101e-06
6.26101e-06
6.26101e-06
6.32544e-06
6.32544e-06
6.32544e-06
6.31839e-06
6.31839e-06
6.31839e-06
6.25377e-06
6.25377e-06
6.25377e-06
6.27287e-06
6.27287e-06
6.27287e-06
6.2802e-06
6.2802e-06
6.2802e-06
6.20925e-06
6.20925e-06
6.20925e-06
6.21611e-06
6.21611e-06
6.21611e-06
6.22983e-06
6.22983e-06
6.22983e-06
6.19514e-06
6.19514e-06
6.19514e-06
6.18829e-06
6.18829e-06
6.18829e-06
6.17422e-06
6.17422e-06
6.17422e-06
6.16699e-06
6.16699e-06
6.16699e-06
6.25515e-06
6.25515e-06
6.25515e-06
6.23415e-06
6.23415e-06
6.23415e-06
6.22735e-06
6.22735e-06
6.22735e-06
6.21322e-06
6.21322e-06
6.21322e-06
6.20588e-06
6.20588e-06
6.20588e-06
6.14614e-06
6.14614e-06
6.14614e-06
6.15295e-06
6.15295e-06
6.15295e-06
6.18606e-06
6.18606e-06
6.18606e-06
6.17149e-06
6.17149e-06
6.17149e-06
6.20883e-06
6.20883e-06
6.20883e-06
6.21568e-06
6.21568e-06
6.21568e-06
6.14488e-06
6.14488e-06
6.14488e-06
6.15166e-06
6.15166e-06
6.15166e-06
6.19063e-06
6.19063e-06
6.19063e-06
6.20472e-06
6.20472e-06
6.20472e-06
6.18662e-06
6.18662e-06
6.18662e-06
6.0756e-06
6.0756e-06
6.0756e-06
6.70411e-06
6.70411e-06
6.70411e-06
6.69629e-06
6.69629e-06
6.69629e-06
6.69653e-06
6.69653e-06
6.69653e-06
6.55083e-06
6.55083e-06
6.55083e-06
6.5806e-06
6.5806e-06
6.5806e-06
6.56583e-06
6.56583e-06
6.56583e-06
6.68873e-06
6.68873e-06
6.68873e-06
6.69222e-06
6.69222e-06
6.69222e-06
6.6946e-06
6.6946e-06
6.6946e-06
6.33694e-06
6.33694e-06
6.33694e-06
6.33012e-06
6.33012e-06
6.33012e-06
6.33766e-06
6.33766e-06
6.33766e-06
6.35206e-06
6.35206e-06
6.35206e-06
6.31648e-06
6.31648e-06
6.31648e-06
6.33083e-06
6.33083e-06
6.33083e-06
6.69572e-06
6.69572e-06
6.69572e-06
6.68038e-06
6.68038e-06
6.68038e-06
6.70325e-06
6.70325e-06
6.70325e-06
6.69539e-06
6.69539e-06
6.69539e-06
6.67971e-06
6.67971e-06
6.67971e-06
6.67188e-06
6.67188e-06
6.67188e-06
6.65661e-06
6.65661e-06
6.65661e-06
6.65622e-06
6.65622e-06
6.65622e-06
6.64881e-06
6.64881e-06
6.64881e-06
6.62621e-06
6.62621e-06
6.62621e-06
6.63361e-06
6.63361e-06
6.63361e-06
6.70127e-06
6.70127e-06
6.70127e-06
6.6894e-06
6.6894e-06
6.6894e-06
6.45524e-06
6.45524e-06
6.45524e-06
6.42595e-06
6.42595e-06
6.42595e-06
6.66914e-06
6.66914e-06
6.66914e-06
6.67316e-06
6.67316e-06
6.67316e-06
6.65789e-06
6.65789e-06
6.65789e-06
6.68094e-06
6.68094e-06
6.68094e-06
5.98878e-06
5.98878e-06
5.98878e-06
5.96077e-06
5.96077e-06
5.96077e-06
5.92055e-06
5.92055e-06
5.92055e-06
5.92079e-06
5.92079e-06
5.92079e-06
5.92749e-06
5.92749e-06
5.92749e-06
5.96178e-06
5.96178e-06
5.96178e-06
5.94115e-06
5.94115e-06
5.94115e-06
5.94809e-06
5.94809e-06
5.94809e-06
5.92725e-06
5.92725e-06
5.92725e-06
5.90758e-06
5.90758e-06
5.90758e-06
5.94144e-06
5.94144e-06
5.94144e-06
5.95515e-06
5.95515e-06
5.95515e-06
5.84265e-06
5.84265e-06
5.84265e-06
5.87659e-06
5.87659e-06
5.87659e-06
5.86306e-06
5.86306e-06
5.86306e-06
5.85612e-06
5.85612e-06
5.85612e-06
5.90373e-06
5.90373e-06
5.90373e-06
5.87734e-06
5.87734e-06
5.87734e-06
5.86381e-06
5.86381e-06
5.86381e-06
6.11433e-06
6.11433e-06
6.11433e-06
6.1074e-06
6.1074e-06
6.1074e-06
6.11441e-06
6.11441e-06
6.11441e-06
6.07263e-06
6.07263e-06
6.07263e-06
6.08654e-06
6.08654e-06
6.08654e-06
6.06566e-06
6.06566e-06
6.06566e-06
6.07256e-06
6.07256e-06
6.07256e-06
6.09346e-06
6.09346e-06
6.09346e-06
6.08646e-06
6.08646e-06
6.08646e-06
6.17033e-06
6.17033e-06
6.17033e-06
6.15619e-06
6.15619e-06
6.15619e-06
6.16343e-06
6.16343e-06
6.16343e-06
6.17747e-06
6.17747e-06
6.17747e-06
6.17041e-06
6.17041e-06
6.17041e-06
6.58378e-06
6.58378e-06
6.58378e-06
6.47164e-06
6.47164e-06
6.47164e-06
6.50117e-06
6.50117e-06
6.50117e-06
6.42655e-06
6.42655e-06
6.42655e-06
6.41196e-06
6.41196e-06
6.41196e-06
6.42071e-06
6.42071e-06
6.42071e-06
6.3771e-06
6.3771e-06
6.3771e-06
6.36262e-06
6.36262e-06
6.36262e-06
6.46468e-06
6.46468e-06
6.46468e-06
6.47933e-06
6.47933e-06
6.47933e-06
6.49411e-06
6.49411e-06
6.49411e-06
6.4794e-06
6.4794e-06
6.4794e-06
6.472e-06
6.472e-06
6.472e-06
6.47909e-06
6.47909e-06
6.47909e-06
6.49386e-06
6.49386e-06
6.49386e-06
6.5163e-06
6.5163e-06
6.5163e-06
6.50146e-06
6.50146e-06
6.50146e-06
6.494e-06
6.494e-06
6.494e-06
6.50133e-06
6.50133e-06
6.50133e-06
6.56768e-06
6.56768e-06
6.56768e-06
6.06557e-06
6.06557e-06
6.06557e-06
6.0517e-06
6.0517e-06
6.0517e-06
6.19138e-06
6.19138e-06
6.19138e-06
6.19837e-06
6.19837e-06
6.19837e-06
6.17731e-06
6.17731e-06
6.17731e-06
6.17023e-06
6.17023e-06
6.17023e-06
6.21948e-06
6.21948e-06
6.21948e-06
6.3338e-06
6.3338e-06
6.3338e-06
6.34095e-06
6.34095e-06
6.34095e-06
6.34818e-06
6.34818e-06
6.34818e-06
6.34811e-06
6.34811e-06
6.34811e-06
6.34087e-06
6.34087e-06
6.34087e-06
6.26223e-06
6.26223e-06
6.26223e-06
6.27646e-06
6.27646e-06
6.27646e-06
6.32624e-06
6.32624e-06
6.32624e-06
6.23375e-06
6.23375e-06
6.23375e-06
6.26213e-06
6.26213e-06
6.26213e-06
6.24089e-06
6.24089e-06
6.24089e-06
6.25508e-06
6.25508e-06
6.25508e-06
6.46153e-06
6.46153e-06
6.46153e-06
6.44686e-06
6.44686e-06
6.44686e-06
6.37105e-06
6.37105e-06
6.37105e-06
6.41976e-06
6.41976e-06
6.41976e-06
6.4129e-06
6.4129e-06
6.4129e-06
6.37704e-06
6.37704e-06
6.37704e-06
6.39153e-06
6.39153e-06
6.39153e-06
6.37023e-06
6.37023e-06
6.37023e-06
6.37787e-06
6.37787e-06
6.37787e-06
6.37868e-06
6.37868e-06
6.37868e-06
6.39317e-06
6.39317e-06
6.39317e-06
6.46278e-06
6.46278e-06
6.46278e-06
6.4775e-06
6.4775e-06
6.4775e-06
6.22294e-06
6.22294e-06
6.22294e-06
6.22965e-06
6.22965e-06
6.22965e-06
6.22222e-06
6.22222e-06
6.22222e-06
6.20811e-06
6.20811e-06
6.20811e-06
6.20142e-06
6.20142e-06
6.20142e-06
6.20883e-06
6.20883e-06
6.20883e-06
6.22432e-06
6.22432e-06
6.22432e-06
6.21019e-06
6.21019e-06
6.21019e-06
6.21084e-06
6.21084e-06
6.21084e-06
6.20347e-06
6.20347e-06
6.20347e-06
6.25265e-06
6.25265e-06
6.25265e-06
6.27431e-06
6.27431e-06
6.27431e-06
6.26686e-06
6.26686e-06
6.26686e-06
6.19001e-06
6.19001e-06
6.19001e-06
6.18267e-06
6.18267e-06
6.18267e-06
6.18329e-06
6.18329e-06
6.18329e-06
6.09678e-06
6.09678e-06
6.09678e-06
6.08288e-06
6.08288e-06
6.08288e-06
6.15704e-06
6.15704e-06
6.15704e-06
6.17602e-06
6.17602e-06
6.17602e-06
6.18429e-06
6.18429e-06
6.18429e-06
6.17686e-06
6.17686e-06
6.17686e-06
6.17767e-06
6.17767e-06
6.17767e-06
6.16365e-06
6.16365e-06
6.16365e-06
6.11353e-06
6.11353e-06
6.11353e-06
6.09226e-06
6.09226e-06
6.09226e-06
6.09961e-06
6.09961e-06
6.09961e-06
6.05149e-06
6.05149e-06
6.05149e-06
6.01655e-06
6.01655e-06
6.01655e-06
6.03035e-06
6.03035e-06
6.03035e-06
6.03767e-06
6.03767e-06
6.03767e-06
6.03116e-06
6.03116e-06
6.03116e-06
5.99064e-06
5.99064e-06
5.99064e-06
5.88999e-06
5.88999e-06
5.88999e-06
5.87582e-06
5.87582e-06
5.87582e-06
5.88938e-06
5.88938e-06
5.88938e-06
5.89647e-06
5.89647e-06
5.89647e-06
5.89708e-06
5.89708e-06
5.89708e-06
5.89768e-06
5.89768e-06
5.89768e-06
5.89059e-06
5.89059e-06
5.89059e-06
5.91068e-06
5.91068e-06
5.91068e-06
5.88874e-06
5.88874e-06
5.88874e-06
5.86809e-06
5.86809e-06
5.86809e-06
5.87519e-06
5.87519e-06
5.87519e-06
5.89517e-06
5.89517e-06
5.89517e-06
5.93016e-06
5.93016e-06
5.93016e-06
5.91654e-06
5.91654e-06
5.91654e-06
5.91006e-06
5.91006e-06
5.91006e-06
5.91718e-06
5.91718e-06
5.91718e-06
5.98903e-06
5.98903e-06
5.98903e-06
5.97531e-06
5.97531e-06
5.97531e-06
5.96969e-06
5.96969e-06
5.96969e-06
5.95602e-06
5.95602e-06
5.95602e-06
5.96888e-06
5.96888e-06
5.96888e-06
5.97614e-06
5.97614e-06
5.97614e-06
6.29245e-06
6.29245e-06
6.29245e-06
6.26397e-06
6.26397e-06
6.26397e-06
6.27146e-06
6.27146e-06
6.27146e-06
6.2857e-06
6.2857e-06
6.2857e-06
6.26319e-06
6.26319e-06
6.26319e-06
6.29166e-06
6.29166e-06
6.29166e-06
6.27069e-06
6.27069e-06
6.27069e-06
6.28493e-06
6.28493e-06
6.28493e-06
6.26989e-06
6.26989e-06
6.26989e-06
6.28413e-06
6.28413e-06
6.28413e-06
6.32784e-06
6.32784e-06
6.32784e-06
6.3135e-06
6.3135e-06
6.3135e-06
6.30595e-06
6.30595e-06
6.30595e-06