<VTKFile type="UnstructuredGrid" version="1.0">
<UnstructuredGrid>
<Piece NumberOfPoints="8859" NumberOfCells="2953">
<Points>
<DataArray type="Float64" NumberOfComponents="3" format="ascii">
3.01 0.5 9.31
3.01 0.487476 9.3325
3.01 0.512524 9.3325
3.01 0.17352 8.4325
3.01 0.148445 8.4325
3.01 0.160827 8.45422
3.01 0.122979 8.47589
3.01 0.135644 8.45422
3.01 0.110383 8.45421
3.01 0.135644 8.45422
3.01 0.123433 8.4325
3.01 0.110383 8.45421
3.01 0.123433 8.4325
3.01 0.135644 8.45422
3.01 0.148445 8.4325
3.01 0.135644 8.45422
3.01 0.160827 8.45422
3.01 0.148445 8.4325
3.01 0.17352 8.4325
3.01 0.185985 8.4542
3.01 0.198629 8.4325
3.01 0.185985 8.4542
3.01 0.17352 8.4325
3.01 0.160827 8.45422
3.01 0.0732297 8.47567
3.01 0.0848754 8.45414
3.01 0.0586606 8.45381
3.01 0.05 9.26528
3.01 0.058509 9.24256
3.01 0.05 9.2201
3.01 0.324276 8.4325
3.01 0.336827 8.45416
3.01 0.349395 8.4325
3.01 0.148138 8.4759
3.01 0.160827 8.45422
3.01 0.135644 8.45422
3.01 0.122979 8.47589
3.01 0.148138 8.4759
3.01 0.135644 8.45422
3.01 0.160827 8.45422
3.01 0.173316 8.47589
3.01 0.185985 8.4542
3.01 0.185806 8.49755
3.01 0.173316 8.47589
3.01 0.160572 8.49755
3.01 0.173316 8.47589
3.01 0.160827 8.45422
3.01 0.148138 8.4759
3.01 0.160572 8.49755
3.01 0.173316 8.47589
3.01 0.148138 8.4759
3.01 0.211137 8.45419
3.01 0.198629 8.4325
3.01 0.185985 8.4542
3.01 0.0979162 8.47584
3.01 0.122979 8.47589
3.01 0.110383 8.45421
3.01 0.122979 8.47589
3.01 0.0979162 8.47584
3.01 0.109875 8.49749
3.01 0.0732297 8.47567
3.01 0.0979162 8.47584
3.01 0.0848754 8.45414
3.01 0.0979162 8.47584
3.01 0.110383 8.45421
3.01 0.0848754 8.45414
3.01 0.0975729 8.51904
3.01 0.122678 8.51914
3.01 0.109875 8.49749
3.01 0.0841718 8.49735
3.01 0.0732297 8.47567
3.01 0.0577122 8.49702
3.01 0.0729308 8.51888
3.01 0.0841718 8.49735
3.01 0.0577122 8.49702
3.01 0.0732297 8.47567
3.01 0.0841718 8.49735
3.01 0.0979162 8.47584
3.01 0.0841718 8.49735
3.01 0.109875 8.49749
3.01 0.0979162 8.47584
3.01 0.0975729 8.51904
3.01 0.0841718 8.49735
3.01 0.0729308 8.51888
3.01 0.0841718 8.49735
3.01 0.0975729 8.51904
3.01 0.109875 8.49749
3.01 0.073948 8.4325
3.01 0.05 8.4325
3.01 0.0586606 8.45381
3.01 0.073948 8.4325
3.01 0.0586606 8.45381
3.01 0.0848754 8.45414
3.01 0.05 9.30829
3.01 0.0603641 9.28697
3.01 0.05 9.26528
3.01 0.0603641 9.28697
3.01 0.05 9.30829
3.01 0.0753197 9.30899
3.01 0.0709395 9.3325
3.01 0.05 9.30829
3.01 0.05 9.3325
3.01 0.05 9.30829
3.01 0.0709395 9.3325
3.01 0.0753197 9.30899
3.01 0.0579641 9.01963
3.01 0.05 8.99761
3.01 0.05 9.04169
3.01 0.0841948 8.9318
3.01 0.109814 8.9318
3.01 0.097638 8.90993
3.01 0.0841948 8.9318
3.01 0.0578646 8.9318
3.01 0.0730539 8.9537
3.01 0.0580261 9.0638
3.01 0.05 9.04169
3.01 0.05 9.08595
3.01 0.942292 8.62736
3.01 0.95 8.64904
3.01 0.95 8.60567
3.01 0.95 8.56226
3.01 0.942332 8.58397
3.01 0.95 8.60567
3.01 0.73872 8.84453
3.01 0.75132 8.82275
3.01 0.726137 8.82276
3.01 0.751305 8.86632
3.01 0.73872 8.84453
3.01 0.726124 8.86633
3.01 0.713546 8.84454
3.01 0.73872 8.84453
3.01 0.726137 8.82276
3.01 0.73872 8.84453
3.01 0.713546 8.84454
3.01 0.726124 8.86633
3.01 0.814318 8.88811
3.01 0.801709 8.8663
3.01 0.789096 8.88812
3.01 0.7765 8.86631
3.01 0.801709 8.8663
3.01 0.789115 8.84451
3.01 0.801709 8.8663
3.01 0.7765 8.86631
3.01 0.789096 8.88812
3.01 0.7765 8.86631
3.01 0.763892 8.88814
3.01 0.789096 8.88812
3.01 0.763892 8.88814
3.01 0.7765 8.86631
3.01 0.751305 8.86632
3.01 0.95 9.3325
3.01 0.95 9.30829
3.01 0.929061 9.3325
3.01 0.95 9.1304
3.01 0.941913 9.10815
3.01 0.926844 9.1304
3.01 0.941913 9.10815
3.01 0.95 9.1304
3.01 0.95 9.08595
3.01 0.926866 9.08594
3.01 0.941913 9.10815
3.01 0.95 9.08595
3.01 0.941974 9.0638
3.01 0.926866 9.08594
3.01 0.95 9.08595
3.01 0.95 9.04169
3.01 0.941974 9.0638
3.01 0.95 9.08595
3.01 0.941974 9.0638
3.01 0.95 9.04169
3.01 0.926895 9.04169
3.01 0.6127 9.3325
3.01 0.637734 9.3325
3.01 0.625238 9.30998
3.01 0.662757 9.3325
3.01 0.650275 9.30997
3.01 0.637734 9.3325
3.01 0.650275 9.30997
3.01 0.625238 9.30998
3.01 0.637734 9.3325
3.01 0.600415 8.86637
3.01 0.575304 8.86637
3.01 0.587856 8.8882
3.01 0.575304 8.86637
3.01 0.562749 8.8882
3.01 0.587856 8.8882
3.01 0.336827 8.45416
3.01 0.361946 8.45416
3.01 0.349395 8.4325
3.01 0.223755 8.4325
3.01 0.198629 8.4325
3.01 0.211137 8.45419
3.01 0.185985 8.4542
3.01 0.198492 8.47588
3.01 0.211137 8.45419
3.01 0.185806 8.49755
3.01 0.198492 8.47588
3.01 0.173316 8.47589
3.01 0.198492 8.47588
3.01 0.185985 8.4542
3.01 0.173316 8.47589
3.01 0.0576202 8.54053
3.01 0.05 8.51874
3.01 0.05 8.56226
3.01 0.05 8.51874
3.01 0.0576202 8.54053
3.01 0.0729308 8.51888
3.01 0.05 8.51874
3.01 0.0729308 8.51888
3.01 0.0577122 8.49702
3.01 0.135283 8.49754
3.01 0.122979 8.47589
3.01 0.109875 8.49749
3.01 0.135283 8.49754
3.01 0.109875 8.49749
3.01 0.122678 8.51914
3.01 0.122979 8.47589
3.01 0.135283 8.49754
3.01 0.148138 8.4759
3.01 0.135283 8.49754
3.01 0.160572 8.49755
3.01 0.148138 8.4759
3.01 0.123433 8.4325
3.01 0.0985513 8.4325
3.01 0.110383 8.45421
3.01 0.110383 8.45421
3.01 0.0985513 8.4325
3.01 0.0848754 8.45414
3.01 0.0848754 8.45414
3.01 0.0985513 8.4325
3.01 0.073948 8.4325
3.01 0.0603641 9.28697
3.01 0.0739464 9.26449
3.01 0.05 9.26528
3.01 0.0739464 9.26449
3.01 0.058509 9.24256
3.01 0.05 9.26528
3.01 0.058509 9.24256
3.01 0.0739464 9.26449
3.01 0.0849548 9.24211
3.01 0.058509 9.24256
3.01 0.0732725 9.21988
3.01 0.05 9.2201
3.01 0.0732725 9.21988
3.01 0.058509 9.24256
3.01 0.0849548 9.24211
3.01 0.5 9.31
3.01 0.47495 9.31
3.01 0.487476 9.3325
3.01 0.097663 8.9537
3.01 0.109814 8.9318
3.01 0.0841948 8.9318
3.01 0.0730539 8.9537
3.01 0.097663 8.9537
3.01 0.0841948 8.9318
3.01 0.0578646 8.9318
3.01 0.05 8.9537
3.01 0.0730539 8.9537
3.01 0.05 8.9537
3.01 0.0578646 8.9318
3.01 0.05 8.90992
3.01 0.05 9.1304
3.01 0.0580869 9.10815
3.01 0.05 9.08595
3.01 0.05 9.08595
3.01 0.073134 9.08594
3.01 0.0580261 9.0638
3.01 0.073134 9.08594
3.01 0.05 9.08595
3.01 0.0580869 9.10815
3.01 0.942268 8.67073
3.01 0.95 8.69241
3.01 0.95 8.64904
3.01 0.942292 8.62736
3.01 0.927025 8.64904
3.01 0.95 8.64904
3.01 0.927025 8.64904
3.01 0.915919 8.67072
3.01 0.942268 8.67073
3.01 0.95 8.64904
3.01 0.927025 8.64904
3.01 0.942268 8.67073
3.01 0.927013 8.69241
3.01 0.95 8.69241
3.01 0.942268 8.67073
3.01 0.915919 8.67072
3.01 0.927013 8.69241
3.01 0.942268 8.67073
3.01 0.801738 8.77925
3.01 0.826957 8.77925
3.01 0.814364 8.75753
3.01 0.852174 8.77924
3.01 0.839609 8.75752
3.01 0.826957 8.77925
3.01 0.839609 8.75752
3.01 0.814364 8.75753
3.01 0.826957 8.77925
3.01 0.776516 8.82275
3.01 0.763923 8.801
3.01 0.75132 8.82275
3.01 0.776516 8.82275
3.01 0.789115 8.84451
3.01 0.801725 8.82274
3.01 0.738704 8.88815
3.01 0.763892 8.88814
3.01 0.751305 8.86632
3.01 0.726124 8.86633
3.01 0.738704 8.88815
3.01 0.751305 8.86632
3.01 0.915617 9.10814
3.01 0.926866 9.08594
3.01 0.902228 9.08594
3.01 0.926866 9.08594
3.01 0.915617 9.10814
3.01 0.941913 9.10815
3.01 0.915617 9.10814
3.01 0.926844 9.1304
3.01 0.941913 9.10815
3.01 0.915617 9.10814
3.01 0.902193 9.13038
3.01 0.926844 9.1304
3.01 0.926866 9.08594
3.01 0.915668 9.06379
3.01 0.902228 9.08594
3.01 0.902267 9.04168
3.01 0.915668 9.06379
3.01 0.926895 9.04169
3.01 0.915668 9.06379
3.01 0.926866 9.08594
3.01 0.941974 9.0638
3.01 0.926895 9.04169
3.01 0.915668 9.06379
3.01 0.941974 9.0638
3.01 0.902267 9.04168
3.01 0.890059 9.06379
3.01 0.915668 9.06379
3.01 0.890059 9.06379
3.01 0.902228 9.08594
3.01 0.915668 9.06379
3.01 0.826927 8.86629
3.01 0.801709 8.8663
3.01 0.814318 8.88811
3.01 0.864816 8.9318
3.01 0.890186 8.9318
3.01 0.877308 8.90993
3.01 0.877308 8.90993
3.01 0.852122 8.90994
3.01 0.864816 8.9318
3.01 0.890186 8.9318
3.01 0.902362 8.90993
3.01 0.877308 8.90993
3.01 0.902362 8.90993
3.01 0.890186 8.9318
3.01 0.915805 8.9318
3.01 0.902362 8.90993
3.01 0.915805 8.9318
3.01 0.926964 8.90992
3.01 0.915835 8.88809
3.01 0.902362 8.90993
3.01 0.926964 8.90992
3.01 0.942171 8.88809
3.01 0.915835 8.88809
3.01 0.926964 8.90992
3.01 0.915835 8.88809
3.01 0.942171 8.88809
3.01 0.926978 8.86627
3.01 0.942171 8.88809
3.01 0.95 8.86627
3.01 0.926978 8.86627
3.01 0.87737 8.73581
3.01 0.902417 8.7358
3.01 0.890277 8.71411
3.01 0.852144 8.86628
3.01 0.864842 8.88809
3.01 0.877329 8.86628
3.01 0.877308 8.90993
3.01 0.864842 8.88809
3.01 0.852122 8.90994
3.01 0.902396 8.82272
3.01 0.890234 8.84449
3.01 0.915858 8.84448
3.01 0.926997 8.77923
3.01 0.95 8.77923
3.01 0.942237 8.75751
3.01 0.91589 8.75751
3.01 0.926997 8.77923
3.01 0.942237 8.75751
3.01 0.942199 8.84448
3.01 0.95 8.86627
3.01 0.95 8.82271
3.01 0.95 8.86627
3.01 0.942199 8.84448
3.01 0.926978 8.86627
3.01 0.942199 8.84448
3.01 0.915858 8.84448
3.01 0.926978 8.86627
3.01 0.95 8.77923
3.01 0.942221 8.80097
3.01 0.95 8.82271
3.01 0.942221 8.80097
3.01 0.95 8.77923
3.01 0.926997 8.77923
3.01 0.915876 8.80097
3.01 0.942221 8.80097
3.01 0.926997 8.77923
3.01 0.926989 8.82271
3.01 0.902396 8.82272
3.01 0.915858 8.84448
3.01 0.902396 8.82272
3.01 0.926989 8.82271
3.01 0.915876 8.80097
3.01 0.926989 8.82271
3.01 0.915858 8.84448
3.01 0.942199 8.84448
3.01 0.95 8.82271
3.01 0.926989 8.82271
3.01 0.942199 8.84448
3.01 0.915876 8.80097
3.01 0.926989 8.82271
3.01 0.942221 8.80097
3.01 0.926989 8.82271
3.01 0.95 8.82271
3.01 0.942221 8.80097
3.01 0.91353 9.28685
3.01 0.939636 9.28697
3.01 0.926054 9.26449
3.01 0.926728 9.21988
3.01 0.941491 9.24256
3.01 0.95 9.2201
3.01 0.926728 9.21988
3.01 0.95 9.2201
3.01 0.941822 9.19754
3.01 0.95 9.26528
3.01 0.939636 9.28697
3.01 0.95 9.30829
3.01 0.95 9.26528
3.01 0.941491 9.24256
3.01 0.926054 9.26449
3.01 0.939636 9.28697
3.01 0.95 9.26528
3.01 0.926054 9.26449
3.01 0.941491 9.24256
3.01 0.95 9.26528
3.01 0.95 9.2201
3.01 0.941869 9.15272
3.01 0.95 9.1304
3.01 0.926844 9.1304
3.01 0.762942 9.28728
3.01 0.737933 9.28734
3.01 0.75028 9.30989
3.01 0.71291 9.28739
3.01 0.737933 9.28734
3.01 0.725533 9.26485
3.01 0.71291 9.28739
3.01 0.725313 9.30992
3.01 0.737933 9.28734
3.01 0.725313 9.30992
3.01 0.75028 9.30989
3.01 0.737933 9.28734
3.01 0.737693 9.3325
3.01 0.725313 9.30992
[...]
<PointData Scalars="View Factor" >
<DataArray type="Float64" Name="View Factor" NumberOfComponents="1" format="ascii">
0.0829662
0.0829662
0.0829662
0.0265501
0.0265501
0.0265501
0.0272756
0.0272756
0.0272756
0.02681
0.02681
0.02681
0.0265714
0.0265714
0.0265714
0.0267904
0.0267904
0.0267904
0.0265251
0.0265251
0.0265251
0.0267669
0.0267669
0.0267669
0.027297
0.027297
0.027297
0.0758868
0.0758868
0.0758868
0.0263005
0.0263005
0.0263005
0.0272557
0.0272557
0.0272557
0.0275022
0.0275022
0.0275022
0.0272316
0.0272316
0.0272316
0.0281892
0.0281892
0.0281892
0.02748
0.02748
0.02748
0.027959
0.027959
0.027959
0.0267398
0.0267398
0.0267398
0.0275198
0.0275198
0.0275198
0.0279989
0.0279989
0.0279989
0.0275312
0.0275312
0.0275312
0.0272905
0.0272905
0.0272905
0.0289863
0.0289863
0.0289863
0.0282544
0.0282544
0.0282544
0.028748
0.028748
0.028748
0.0280097
0.0280097
0.0280097
0.0282483
0.0282483
0.0282483
0.028997
0.028997
0.028997
0.0287418
0.0287418
0.0287418
0.026609
0.026609
0.026609
0.0268334
0.0268334
0.0268334
0.080827
0.080827
0.080827
0.082525
0.082525
0.082525
0.0853087
0.0853087
0.0853087
0.0843412
0.0843412
0.0843412
0.0556503
0.0556503
0.0556503
0.0489298
0.0489298
0.0489298
0.049915
0.049915
0.049915
0.0591096
0.0591096
0.0591096
0.030162
0.030162
0.030162
0.028615
0.028615
0.028615
0.0405844
0.0405844
0.0405844
0.042144
0.042144
0.042144
0.0410587
0.0410587
0.0410587
0.0418404
0.0418404
0.0418404
0.0428508
0.0428508
0.0428508
0.0417513
0.0417513
0.0417513
0.04255
0.04255
0.04255
0.0430603
0.0430603
0.0430603
0.0427539
0.0427539
0.0427539
0.0764164
0.0764164
0.0764164
0.0575563
0.0575563
0.0575563
0.0562853
0.0562853
0.0562853
0.0552566
0.0552566
0.0552566
0.0541494
0.0541494
0.0541494
0.0529704
0.0529704
0.0529704
0.052017
0.052017
0.052017
0.0815615
0.0815615
0.0815615
0.0812407
0.0812407
0.0812407
0.0805254
0.0805254
0.0805254
0.0439957
0.0439957
0.0439957
0.0444947
0.0444947
0.0444947
0.0265018
0.0265018
0.0265018
0.0264966
0.0264966
0.0264966
0.0272037
0.0272037
0.0272037
0.0279323
0.0279323
0.0279323
0.0274538
0.0274538
0.0274538
0.030039
0.030039
0.030039
0.0295138
0.0295138
0.0295138
0.029001
0.029001
0.029001
0.028234
0.028234
0.028234
0.0287277
0.0287277
0.0287277
0.0279814
0.0279814
0.0279814
0.0282139
0.0282139
0.0282139
0.0265889
0.0265889
0.0265889
0.0268252
0.0268252
0.0268252
0.0266021
0.0266021
0.0266021
0.079148
0.079148
0.079148
0.0774939
0.0774939
0.0774939
0.0766327
0.0766327
0.0766327
0.0742667
0.0742667
0.0742667
0.0750303
0.0750303
0.0750303
0.0821942
0.0821942
0.0821942
0.0498905
0.0498905
0.0498905
0.0503922
0.0503922
0.0503922
0.0504129
0.0504129
0.0504129
0.0494454
0.0494454
0.0494454
0.0628359
0.0628359
0.0628359
0.0603138
0.0603138
0.0603138
0.0615554
0.0615554
0.0615554
0.0318106
0.0318106
0.0318106
0.0307524
0.0307524
0.0307524
0.0316626
0.0316626
0.0316626
0.031303
0.031303
0.031303
0.0324403
0.0324403
0.0324403
0.032233
0.032233
0.032233
0.0371456
0.0371456
0.0371456
0.0369592
0.0369592
0.0369592
0.0367137
0.0367137
0.0367137
0.0396501
0.0396501
0.0396501
0.0402084
0.0402084
0.0402084
0.0432632
0.0432632
0.0432632
0.0429513
0.0429513
0.0429513
0.0555866
0.0555866
0.0555866
0.0559767
0.0559767
0.0559767
0.0571301
0.0571301
0.0571301
0.0579015
0.0579015
0.0579015
0.0544721
0.0544721
0.0544721
0.0523254
0.0523254
0.0523254
0.0537553
0.0537553
0.0537553
0.0526858
0.0526858
0.0526858
0.0530043
0.0530043
0.0530043
0.054081
0.054081
0.054081
0.0423395
0.0423395
0.0423395
0.0446713
0.0446713
0.0446713
0.0443666
0.0443666
0.0443666
0.0441218
0.0441218
0.0441218
0.0444189
0.0444189
0.0444189
0.0438715
0.0438715
0.0438715
0.0430403
0.0430403
0.0430403
0.0425016
0.0425016
0.0425016
0.0417022
0.0417022
0.0417022
0.0411997
0.0411997
0.0411997
0.0346202
0.0346202
0.0346202
0.0418993
0.0418993
0.0418993
0.0435247
0.0435247
0.0435247
0.0396414
0.0396414
0.0396414
0.0361667
0.0361667
0.0361667
0.03593
0.03593
0.03593
0.0396071
0.0396071
0.0396071
0.0404301
0.0404301
0.0404301
0.0401583
0.0401583
0.0401583
0.037457
0.037457
0.037457
0.0368376
0.0368376
0.0368376
0.037276
0.037276
0.037276
0.0391647
0.0391647
0.0391647
0.0384419
0.0384419
0.0384419
0.0394128
0.0394128
0.0394128
0.0389436
0.0389436
0.0389436
0.0379721
0.0379721
0.0379721
0.0382256
0.0382256
0.0382256
0.07194
0.07194
0.07194
0.0666075
0.0666075
0.0666075
0.0652105
0.0652105
0.0652105
0.0723384
0.0723384
0.0723384
0.0694976
0.0694976
0.0694976
0.0709893
0.0709893
0.0709893
0.0679161
0.0679161
0.0679161
0.0587512
0.0587512
0.0587512
0.0764319
0.0764319
0.0764319
0.0751572
0.0751572
0.0751572
0.0767949
0.0767949
0.0767949
0.0774483
0.0774483
0.0774483
0.0801976
0.0801976
0.0801976
0.0791465
0.0791465
0.0791465
0.0798232
0.0798232
0.0798232
0.0705161
0.0705161
0.0705161
0.0720041
0.0720041
0.0720041
0.0745252
0.0745252
0.0745252
0.0729454
0.0729454
0.0729454
0.075177
0.075177
0.075177
0.0735842
0.0735842
0.0735842
0.0791079
0.0791079
0.0791079
0.0808365
0.0808365
0.0808365
0.081869
0.081869
0.081869
0.0434825
0.0434825
0.0434825
0.044339
0.044339
0.044339
0.0472978
0.0472978
0.0472978
0.0480633
0.0480633
0.0480633
0.0471391
0.0471391
0.0471391
0.0467646
0.0467646
0.0467646
0.0453555
0.0453555
0.0453555
0.0458712
0.0458712
0.0458712
0.0482253
0.0482253
0.0482253
0.0486165
0.0486165
0.0486165
0.0542867
0.0542867
0.0542867
0.046432
0.046432
0.046432
0.0460794
0.0460794
0.0460794
0.0436757
0.0436757
0.0436757
0.045385
0.045385
0.045385
0.0263896
0.0263896
0.0263896
0.0264288
0.0264288
0.0264288
0.0266368
0.0266368
0.0266368
0.0270983
0.0270983
0.0270983
0.0254534
0.0254534
0.0254534
0.0380227
0.0380227
0.0380227
0.0394631
0.0394631
0.0394631
0.038468
0.038468
0.038468
0.0391901
0.0391901
0.0391901
0.0393722
0.0393722
0.0393722
0.0398312
0.0398312
0.0398312
0.0273117
0.0273117
0.0273117
0.0262507
0.0262507
0.0262507
0.0254728
0.0254728
0.0254728
0.034565
0.034565
0.034565
0.0342853
0.0342853
0.0342853
0.0284986
0.0284986
0.0284986
0.0270646
0.0270646
0.0270646
0.0275304
0.0275304
0.0275304
0.0280091
0.0280091
0.0280091
0.0774125
0.0774125
0.0774125
0.0832077
0.0832077
0.0832077
0.0567686
0.0567686
0.0567686
0.0579213
0.0579213
0.0579213
0.0513882
0.0513882
0.0513882
0.0304443
0.0304443
0.0304443
0.0567132
0.0567132
0.0567132
0.0578646
0.0578646
0.0578646
0.0484433
0.0484433
0.0484433
0.048899
0.048899
0.048899
0.0475427
0.0475427
0.0475427
0.0484702
0.0484702
0.0484702
0.04849
0.04849
0.04849
0.0489538
0.0489538
0.0489538
0.0466607
0.0466607
0.0466607
0.0475621
0.0475621
0.0475621
0.0470983
0.0470983
0.0470983
0.0462026
0.0462026
0.0462026
0.0457704
0.0457704
0.0457704
0.0411146
0.0411146
0.0411146
0.0406181
0.0406181
0.0406181
0.0326182
0.0326182
0.0326182
0.0378378
0.0378378
0.0378378
0.0382839
0.0382839
0.0382839
0.0390021
0.0390021
0.0390021
0.0365264
0.0365264
0.0365264
0.0367674
0.0367674
0.0367674
0.0343989
0.0343989
0.0343989
0.030558
0.030558
0.030558
0.0337651
0.0337651
0.0337651
0.0403995
0.0403995
0.0403995
0.0419508
0.0419508
0.0419508
0.0414583
0.0414583
0.0414583
0.0406848
0.0406848
0.0406848
0.0408749
0.0408749
0.0408749
0.0416526
0.0416526
0.0416526
0.0440971
0.0440971
0.0440971
0.0446238
0.0446238
0.0446238
0.0434593
0.0434593
0.0434593
0.0442976
0.0442976
0.0442976
0.0471417
0.0471417
0.0471417
0.0474986
0.0474986
0.0474986
0.0452004
0.0452004
0.0452004
0.0452829
0.0452829
0.0452829
0.0526311
0.0526311
0.0526311
0.051883
0.051883
0.051883
0.0515905
0.0515905
0.0515905
0.0512243
0.0512243
0.0512243
0.0738188
0.0738188
0.0738188
0.0748006
0.0748006
0.0748006
0.0741789
0.0741789
0.0741789
0.072606
0.072606
0.072606
0.0658458
0.0658458
0.0658458
0.0690689
0.0690689
0.0690689
0.0705545
0.0705545
0.0705545
0.0626674
0.0626674
0.0626674
0.0643349
0.0643349
0.0643349
0.0618484
0.0618484
0.0618484
0.0392701
0.0392701
0.0392701
0.0426347
0.0426347
0.0426347
0.0421226
0.0421226
0.0421226
0.0424119
0.0424119
0.0424119
0.0432271
0.0432271
0.0432271
0.0457914
0.0457914
0.0457914
0.0449163
0.0449163
0.0449163
0.0414358
0.0414358
0.0414358
0.0408904
0.0408904
0.0408904
0.0406612
0.0406612
0.0406612
0.040392
0.040392
0.040392
0.0427936
0.0427936
0.0427936
0.0419112
0.0419112
0.0419112
0.038191
0.038191
0.038191
0.0374514
0.0374514
0.0374514
0.0376974
0.0376974
0.0376974
0.03548
0.03548
0.03548
0.0363336
0.0363336
0.0363336
0.0352559
0.0352559
0.0352559
0.0356743
0.0356743
0.0356743
0.0342127
0.0342127
0.0342127
0.0335997
0.0335997
0.0335997
0.0332095
0.0332095
0.0332095
0.0748393
0.0748393
0.0748393
0.0736472
0.0736472
0.0736472
0.0740223
0.0740223
0.0740223
0.0734914
0.0734914
0.0734914
0.0757209
0.0757209
0.0757209
0.0713957
0.0713957
0.0713957
0.0669887
0.0669887
0.0669887
0.0698861
0.0698861
0.0698861
0.0689393
0.0689393
0.0689393
0.0674975
0.0674975
0.0674975
0.0662113
0.0662113
0.0662113
0.0639869
0.0639869
0.0639869
0.0648364
0.0648364
0.0648364
0.0644796
0.0644796
0.0644796
0.0591038
0.0591038
0.0591038
0.059527
0.059527
0.059527
0.064704
0.064704
0.064704
0.065592
0.065592
0.065592
0.0758289
0.0758289
0.0758289
0.0754999
0.0754999
0.0754999
0.0748578
0.0748578
0.0748578
0.0805587
0.0805587
0.0805587
0.0795115
0.0795115
0.0795115
0.0778074
0.0778074
0.0778074
0.077144
0.077144
0.077144
0.077552
0.077552
0.077552
0.0752584
0.0752584
0.0752584
0.0758715
0.0758715
0.0758715
0.078623
0.078623
0.078623
0.0770753
0.0770753
0.0770753
0.078768
0.078768
0.078768
0.0704868
0.0704868
0.0704868
0.0699036
0.0699036
0.0699036
0.0606588
0.0606588
0.0606588
0.0599075
0.0599075
0.0599075
0.0631522
0.0631522
0.0631522
0.0684396
0.0684396
0.0684396
0.0675655
0.0675655
0.0675655
0.0690389
0.0690389
0.0690389
0.0639658
0.0639658
0.0639658
0.0653161
0.0653161
0.0653161
0.0661595
0.0661595
0.0661595
0.0656204
0.0656204
0.0656204
0.0723334
0.0723334
0.0723334
0.0711187
0.0711187
0.0711187
0.0726495
0.0726495
0.0726495
0.0732714
0.0732714
0.0732714
0.0702162
0.0702162
0.0702162
0.0708092
0.0708092
0.0708092
0.0761447
0.0761447
0.0761447
0.0778014
0.0778014
0.0778014
0.0788029
0.0788029
0.0788029
0.07811
0.07811
0.07811
0.0729526
0.0729526
0.0729526
0.0714156
0.0714156
0.0714156
0.0708035
0.0708035
0.0708035
0.059149
0.059149
0.059149
0.0579562
0.0579562
0.0579562
0.0421187
0.0421187
0.0421187
0.0454376
0.0454376
0.0454376
0.0417552
0.0417552
0.0417552
0.0421784
0.0421784
0.0421784
0.0458394
0.0458394
0.0458394
0.0439543
0.0439543
0.0439543
0.0435932
0.0435932
0.0435932
0.0479832
0.0479832
0.0479832
0.0474607
0.0474607
0.0474607
0.0464305
0.0464305
0.0464305
0.0489251
0.0489251
0.0489251
0.0494651
0.0494651
0.0494651
0.0504428
0.0504428
0.0504428
0.0508781
0.0508781
0.0508781
0.0438383
0.0438383
0.0438383
0.0451965
0.0451965
0.0451965
0.045714
0.045714
0.045714
0.0466041
0.0466041
0.0466041
0.0469732
0.0469732
0.0469732
0.0524703
0.0524703
0.0524703
0.0518905
0.0518905
0.0518905
0.0487766
0.0487766
0.0487766
0.0495764
0.0495764
0.0495764
0.0478604
0.0478604
0.0478604
0.0473357
0.0473357
0.0473357
0.0520545
0.0520545
0.0520545
0.0514672
0.0514672
0.0514672
0.0475326
0.0475326
0.0475326
0.0466197
0.0466197
0.0466197
0.0462707
0.0462707
0.0462707
0.0544584
0.0544584
0.0544584
0.0264645
0.0264645
0.0264645
0.0266747
0.0266747
0.0266747
0.026709
0.026709
0.026709
0.0281679
0.0281679
0.0281679
0.0271609
0.0271609
0.0271609
0.0276824
0.0276824
0.0276824
0.0256446
0.0256446
0.0256446
0.0248747
0.0248747
0.0248747
0.0251887
0.0251887
0.0251887
0.0382019
0.0382019
0.0382019
0.0386462
0.0386462
0.0386462
0.0383753
0.0383753
0.0383753
0.0376717
0.0376717
0.0376717
0.0395483
0.0395483
0.0395483
0.0388186
0.0388186
0.0388186
0.0265954
0.0265954
0.0265954
0.0270559
0.0270559
0.0270559
0.0263468
0.0263468
0.0263468
0.0265504
0.0265504
0.0265504
0.0269603
0.0269603
0.0269603
0.0271667
0.0271667
0.0271667
0.0276391
0.0276391
0.0276391
0.0275824
0.0275824
0.0275824
0.0278508
0.0278508
0.0278508
0.0286139
0.0286139
0.0286139
0.0283376
0.0283376
0.0283376
0.0260802
0.0260802
0.0260802
0.0257352
0.0257352
0.0257352
0.0351962
0.0351962
0.0351962
0.0365007
0.0365007
0.0365007
0.0267788
0.0267788
0.0267788
0.0273527
0.0273527
0.0273527
0.027829
0.027829
0.027829
0.0271371
0.0271371
0.0271371
0.0671883
0.0671883
0.0671883
0.0698648
0.0698648
0.0698648
0.0747178
0.0747178
0.0747178
0.07479
0.07479
0.07479
0.073967
0.073967
0.073967
0.0702057
0.0702057
0.0702057
0.0724202
0.0724202
0.0724202
0.0716958
0.0716958
0.0716958
0.0738901
0.0738901
0.0738901
0.0765705
0.0765705
0.0765705
0.0727058
0.0727058
0.0727058
0.0711971
0.0711971
0.0711971
0.0824268
0.0824268
0.0824268
0.0782093
0.0782093
0.0782093
0.0799091
0.0799091
0.0799091
0.0806657
0.0806657
0.0806657
0.074933
0.074933
0.074933
0.078601
0.078601
0.078601
0.0803094
0.0803094
0.0803094
0.0561651
0.0561651
0.0561651
0.0567449
0.0567449
0.0567449
0.056193
0.056193
0.056193
0.059694
0.059694
0.059694
0.058498
0.058498
0.058498
0.0602885
0.0602885
0.0602885
0.059664
0.059664
0.059664
0.057897
0.057897
0.057897
0.0584688
0.0584688
0.0584688
0.051882
0.051882
0.051882
0.0528808
0.0528808
0.0528808
0.0524357
0.0524357
0.0524357
0.0514093
0.0514093
0.0514093
0.0519076
0.0519076
0.0519076
0.0305713
0.0305713
0.0305713
0.0348862
0.0348862
0.0348862
0.0336515
0.0336515
0.0336515
0.0366245
0.0366245
0.0366245
0.0373011
0.0373011
0.0373011
0.0372599
0.0372599
0.0372599
0.0393774
0.0393774
0.0393774
0.0401111
0.0401111
0.0401111
0.0352775
0.0352775
0.0352775
0.0346275
0.0346275
0.0346275
0.0340088
0.0340088
0.0340088
0.0346414
0.0346414
0.0346414
0.03495
0.03495
0.03495
0.0345858
0.0345858
0.0345858
0.0339682
0.0339682
0.0339682
0.0330973
0.0330973
0.0330973
0.0336962
0.0336962
0.0336962
0.0339907
0.0339907
0.0339907
0.0336761
0.0336761
0.0336761
0.0309855
0.0309855
0.0309855
0.0602544
0.0602544
0.0602544
0.0614945
0.0614945
0.0614945
0.0503643
0.0503643
0.0503643
0.0498591
0.0498591
0.0498591
0.0513596
0.0513596
0.0513596
0.0518493
0.0518493
0.0518493
0.0484096
0.0484096
0.0484096
0.0416414
0.0416414
0.0416414
0.0412422
0.0412422
0.0412422
0.0408656
0.0408656
0.0408656
0.0408491
0.0408491
0.0408491
0.0412222
0.0412222
0.0412222
0.0457518
0.0457518
0.0457518
0.0448871
0.0448871
0.0448871
0.0419436
0.0419436
0.0419436
0.0475164
0.0475164
0.0475164
0.0457265
0.0457265
0.0457265
0.0470752
0.0470752
0.0470752
0.0461801
0.0461801
0.0461801
0.0329372
0.0329372
0.0329372
0.0335344
0.0335344
0.0335344
0.0360463
0.0360463
0.0360463
0.0333902
0.0333902
0.0333902
0.033782
0.033782
0.033782
0.0354445
0.0354445
0.0354445
0.0348048
0.0348048
0.0348048
0.035863
0.035863
0.035863
0.0356283
0.0356283
0.0356283
0.0358069
0.0358069
0.0358069
0.0351597
0.0351597
0.0351597
0.0314734
0.0314734
0.0314734
0.0309192
0.0309192
0.0309192
0.0444176
0.0444176
0.0444176
0.0438898
0.0438898
0.0438898
0.0442046
0.0442046
0.0442046
0.0450616
0.0450616
0.0450616
0.0456088
0.0456088
0.0456088
0.0452794
0.0452794
0.0452794
0.044823
0.044823
0.044823
0.0456937
0.0456937
0.0456937
0.0458901
0.0458901
0.0458901
0.0462371
0.0462371
0.0462371
0.043142
0.043142
0.043142
0.0420219
0.0420219
0.0420219
0.0423306
0.0423306
0.0423306
0.0473409
0.0473409
0.0473409
0.0477038
0.0477038
0.0477038
0.0479014
0.0479014
0.0479014
0.0529738
0.0529738
0.0529738
0.0540458
0.0540458
0.0540458
0.047606
0.047606
0.047606
0.0455941
0.0455941
0.0455941
0.045541
0.045541
0.045541
0.0458557
0.0458557
0.0458557
0.0461117
0.0461117
0.0461117
0.0470161
0.0470161
0.0470161
0.0499301
0.0499301
0.0499301
0.0512915
0.0512915
0.0512915
0.0509296
0.0509296
0.0509296
0.0547918
0.0547918
0.0547918
0.057478
0.057478
0.057478
0.0563171
0.0563171
0.0563171
0.0559133
0.0559133
0.0559133
0.0566463
0.0566463
0.0566463
0.0605816
0.0605816
0.0605816
0.0718864
0.0718864
0.0718864
0.0730572
0.0730572
0.0730572
0.0715067
0.0715067
0.0715067
0.0709362
0.0709362
0.0709362
0.0713055
0.0713055
0.0713055
0.0716615
0.0716615
0.0716615
0.072253
0.072253
0.072253
0.069803
0.069803
0.069803
0.0711147
0.0711147
0.0711147
0.073236
0.073236
0.073236
0.0726566
0.0726566
0.0726566
0.0701615
0.0701615
0.0701615
0.0670933
0.0670933
0.0670933
0.0685264
0.0685264
0.0685264
0.0694419
0.0694419
0.0694419
0.0688893
0.0688893
0.0688893
0.0598897
0.0598897
0.0598897
0.0611417
0.0611417
0.0611417
0.062319
0.062319
0.062319
0.0636304
0.0636304
0.0636304
0.0619635
0.0619635
0.0619635
0.0614994
0.0614994
0.0614994
0.0400112
0.0400112
0.0400112
0.0415453
0.0415453
0.0415453
0.0412577
0.0412577
0.0412577
0.0404885
0.0404885
0.0404885
0.0413331
0.0413331
0.0413331
0.0398079
0.0398079
0.0398079
0.0410508
0.0410508
0.0410508
0.0402861
0.0402861
0.0402861
0.0408376
0.0408376
0.0408376
0.0400775
0.0400775
0.0400775
0.0380942
0.0380942
0.0380942
0.0388082
0.0388082
0.0388082
0.0390713
0.0390713
0.0390713
0.0376473
0.0376473
0.0376473
0.0378987
0.0378987
0.0378987
0.0386085
0.0386085
0.0386085
0.0446051
0.0446051
0.0446051
0.0439847
0.0439847
0.0439847
0.0448368
0.0448368
0.0448368
0.0451542
0.0451542
0.0451542
0.0434548
0.0434548
0.0434548
0.043758
0.043758
0.043758
0.0432852
0.0432852
0.0432852
0.0429927
0.0429927
0.0429927
0.0427512
0.0427512
0.0427512
0.0419464
0.0419464
0.0419464
0.0421826
0.0421826
0.0421826
0.0416701
0.0416701
0.0416701
0.0441581
0.0441581
0.0441581
0.0436192
0.0436192
0.0436192
0.0443833
0.0443833
0.0443833
0.0453304
0.0453304
0.0453304
0.0450163
0.0450163
0.0450163
0.0395988
0.0395988
0.0395988
0.0388666
0.0388666
0.0388666
0.0393841
0.0393841
0.0393841
0.0398627
0.0398627
0.0398627
0.0386566
0.0386566
0.0386566
0.0384028
0.0384028
0.0384028
0.0363693
0.0363693
0.0363693
0.0361351
0.0361351
0.0361351
0.0370446
0.0370446
0.0370446
0.0374902
0.0374902
0.0374902
0.0372502
0.0372502
0.0372502
0.0365705
0.0365705
0.0365705
0.0330277
0.0330277
0.0330277
0.0334116
0.0334116
0.0334116
0.0354482
0.0354482
0.0354482
0.0335695
0.0335695
0.0335695
0.076878
0.076878
0.076878
0.0722446
0.0722446
0.0722446
0.0707123
0.0707123
0.0707123
0.0678939
0.0678939
0.0678939
0.0693491
0.0693491
0.0693491
0.0682927
0.0682927
0.0682927
0.0673795
0.0673795
0.0673795
0.069759
0.069759
0.069759
0.0703014
0.0703014
0.0703014
0.0667283
0.0667283
0.0667283
0.0677693
0.0677693
0.0677693
0.0663544
0.0663544
0.0663544
0.0658458
0.0658458
0.0658458
0.0686853
0.0686853
0.0686853
0.0681525
0.0681525
0.0681525
0.0650916
0.0650916
0.0650916
0.0637425
0.0637425
0.0637425
0.0659739
0.0659739
0.0659739
0.065472
0.065472
0.065472
0.063267
0.063267
0.063267
0.0641145
0.0641145
0.0641145
0.0607721
0.0607721
0.0607721
0.0633604
0.0633604
0.0633604
0.0616015
0.0616015
0.0616015
0.0628987
0.0628987
0.0628987
0.079863
0.079863
0.079863
0.0802009
0.0802009
0.0802009
0.0809064
0.0809064
0.0809064
0.0784846
0.0784846
0.0784846
0.0774795
0.0774795
0.0774795
0.0781528
0.0781528
0.0781528
0.0794357
0.0794357
0.0794357
0.0760549
0.0760549
0.0760549
0.0744301
0.0744301
0.0744301
0.0740455
0.0740455
0.0740455
0.0734448
0.0734448
0.0734448
0.0779706
0.0779706
0.0779706
0.0766882
0.0766882
0.0766882
0.0790354
0.0790354
0.0790354
0.078376
0.078376
0.078376
0.076287
0.076287
0.076287
0.0756637
0.0756637
0.0756637
0.0681213
0.0681213
0.0681213
0.0677907
0.0677907
0.0677907
0.0672447
0.0672447
0.0672447
0.0692401
0.0692401
0.0692401
0.0695783
0.0695783
0.0695783
0.0701514
0.0701514
0.0701514
0.0603913
0.0603913
0.0603913
0.0634518
0.0634518
0.0634518
0.0642633
0.0642633
0.0642633
0.0621484
0.0621484
0.0621484
0.0616497
0.0616497
0.0616497
0.0574266
0.0574266
0.0574266
0.0562715
0.0562715
0.0562715
0.0555681
0.0555681
0.0555681
0.0630073
0.0630073
0.0630073
0.062189
0.062189
0.062189
0.0636571
0.0636571
0.0636571
0.0650002
0.0650002
0.0650002
0.0645392
0.0645392
0.0645392
0.0650878
0.0650878
0.0650878
0.0661939
0.0661939
0.0661939
0.0687454
0.0687454
0.0687454
0.0681705
0.0681705
0.0681705
0.0678741
0.0678741
0.0678741
0.0667512
0.0667512
0.0667512
0.0664613
0.0664613
0.0664613
0.0659129
0.0659129
0.0659129
0.0667214
0.0667214
0.0667214
0.065582
0.065582
0.065582
0.0653404
0.0653404
0.0653404
0.0647836
0.0647836
0.0647836
0.0695898
0.0695898
0.0695898
0.0672961
0.0672961
0.0672961
0.0664633
0.0664633
0.0664633
0.0670294
0.0670294
0.0670294
0.0684549
0.0684549
0.0684549
0.0693203
0.0693203
0.0693203