<VTKFile type="UnstructuredGrid" version="1.0">
<UnstructuredGrid>
<Piece NumberOfPoints="8859" NumberOfCells="2953">
<Points>
<DataArray type="Float64" NumberOfComponents="3" format="ascii">
0.5 3.01 6.175
0.512524 3.01 6.1975
0.487476 3.01 6.1975
0.17352 3.01 5.2975
0.160827 3.01 5.31922
0.148445 3.01 5.2975
0.122979 3.01 5.34089
0.110383 3.01 5.31921
0.135644 3.01 5.31922
0.135644 3.01 5.31922
0.110383 3.01 5.31921
0.123433 3.01 5.2975
0.123433 3.01 5.2975
0.148445 3.01 5.2975
0.135644 3.01 5.31922
0.135644 3.01 5.31922
0.148445 3.01 5.2975
0.160827 3.01 5.31922
0.17352 3.01 5.2975
0.198629 3.01 5.2975
0.185985 3.01 5.3192
0.185985 3.01 5.3192
0.160827 3.01 5.31922
0.17352 3.01 5.2975
0.0732297 3.01 5.34067
0.0586606 3.01 5.31881
0.0848754 3.01 5.31914
0.05 3.01 6.13027
0.05 3.01 6.0851
0.058509 3.01 6.10756
0.324276 3.01 5.2975
0.349395 3.01 5.2975
0.336827 3.01 5.31916
0.148138 3.01 5.3409
0.135644 3.01 5.31922
0.160827 3.01 5.31922
0.122979 3.01 5.34089
0.135644 3.01 5.31922
0.148138 3.01 5.3409
0.160827 3.01 5.31922
0.185985 3.01 5.3192
0.173316 3.01 5.34089
0.185806 3.01 5.36255
0.160572 3.01 5.36255
0.173316 3.01 5.34089
0.173316 3.01 5.34089
0.148138 3.01 5.3409
0.160827 3.01 5.31922
0.160572 3.01 5.36255
0.148138 3.01 5.3409
0.173316 3.01 5.34089
0.211137 3.01 5.31919
0.185985 3.01 5.3192
0.198629 3.01 5.2975
0.0979162 3.01 5.34084
0.110383 3.01 5.31921
0.122979 3.01 5.34089
0.122979 3.01 5.34089
0.109875 3.01 5.36249
0.0979162 3.01 5.34084
0.0732297 3.01 5.34067
0.0848754 3.01 5.31914
0.0979162 3.01 5.34084
0.0979162 3.01 5.34084
0.0848754 3.01 5.31914
0.110383 3.01 5.31921
0.0975729 3.01 5.38404
0.109875 3.01 5.36249
0.122678 3.01 5.38414
0.0841718 3.01 5.36235
0.0577122 3.01 5.36202
0.0732297 3.01 5.34067
0.0729308 3.01 5.38388
0.0577122 3.01 5.36202
0.0841718 3.01 5.36235
0.0732297 3.01 5.34067
0.0979162 3.01 5.34084
0.0841718 3.01 5.36235
0.0841718 3.01 5.36235
0.0979162 3.01 5.34084
0.109875 3.01 5.36249
0.0975729 3.01 5.38404
0.0729308 3.01 5.38388
0.0841718 3.01 5.36235
0.0841718 3.01 5.36235
0.109875 3.01 5.36249
0.0975729 3.01 5.38404
0.073948 3.01 5.2975
0.0586606 3.01 5.31881
0.05 3.01 5.2975
0.073948 3.01 5.2975
0.0848754 3.01 5.31914
0.0586606 3.01 5.31881
0.05 3.01 6.17329
0.05 3.01 6.13027
0.0603641 3.01 6.15197
0.0603641 3.01 6.15197
0.0753197 3.01 6.17399
0.05 3.01 6.17329
0.0709395 3.01 6.1975
0.05 3.01 6.1975
0.05 3.01 6.17329
0.05 3.01 6.17329
0.0753197 3.01 6.17399
0.0709395 3.01 6.1975
0.0579641 3.01 5.88463
0.05 3.01 5.90669
0.05 3.01 5.86261
0.0841948 3.01 5.79679
0.097638 3.01 5.77493
0.109814 3.01 5.7968
0.0841948 3.01 5.79679
0.0730539 3.01 5.8187
0.0578646 3.01 5.7968
0.0580261 3.01 5.9288
0.05 3.01 5.95095
0.05 3.01 5.90669
0.942292 3.01 5.49236
0.95 3.01 5.47067
0.95 3.01 5.51404
0.95 3.01 5.42726
0.95 3.01 5.47067
0.942332 3.01 5.44897
0.73872 3.01 5.70953
0.726137 3.01 5.68776
0.75132 3.01 5.68775
0.751305 3.01 5.73132
0.726124 3.01 5.73133
0.73872 3.01 5.70953
0.713546 3.01 5.70954
0.726137 3.01 5.68776
0.73872 3.01 5.70953
0.73872 3.01 5.70953
0.726124 3.01 5.73133
0.713546 3.01 5.70954
0.814318 3.01 5.75311
0.789096 3.01 5.75312
0.801709 3.01 5.7313
0.7765 3.01 5.73131
0.789115 3.01 5.70951
0.801709 3.01 5.7313
0.801709 3.01 5.7313
0.789096 3.01 5.75312
0.7765 3.01 5.73131
0.7765 3.01 5.73131
0.789096 3.01 5.75312
0.763892 3.01 5.75314
0.763892 3.01 5.75314
0.751305 3.01 5.73132
0.7765 3.01 5.73131
0.95 3.01 6.1975
0.929061 3.01 6.1975
0.95 3.01 6.17329
0.95 3.01 5.9954
0.926844 3.01 5.9954
0.941913 3.01 5.97315
0.941913 3.01 5.97315
0.95 3.01 5.95095
0.95 3.01 5.9954
0.926866 3.01 5.95094
0.95 3.01 5.95095
0.941913 3.01 5.97315
0.941974 3.01 5.9288
0.95 3.01 5.95095
0.926866 3.01 5.95094
0.95 3.01 5.90669
0.95 3.01 5.95095
0.941974 3.01 5.9288
0.941974 3.01 5.9288
0.926895 3.01 5.90669
0.95 3.01 5.90669
0.6127 3.01 6.1975
0.625238 3.01 6.17498
0.637734 3.01 6.1975
0.662757 3.01 6.1975
0.637734 3.01 6.1975
0.650275 3.01 6.17497
0.650275 3.01 6.17497
0.637734 3.01 6.1975
0.625238 3.01 6.17498
0.600415 3.01 5.73137
0.587856 3.01 5.7532
0.575304 3.01 5.73137
0.575304 3.01 5.73137
0.587856 3.01 5.7532
0.562749 3.01 5.7532
0.336827 3.01 5.31916
0.349395 3.01 5.2975
0.361946 3.01 5.31916
0.223755 3.01 5.2975
0.211137 3.01 5.31919
0.198629 3.01 5.2975
0.185985 3.01 5.3192
0.211137 3.01 5.31919
0.198492 3.01 5.34088
0.185806 3.01 5.36255
0.173316 3.01 5.34089
0.198492 3.01 5.34088
0.198492 3.01 5.34088
0.173316 3.01 5.34089
0.185985 3.01 5.3192
0.0576202 3.01 5.40553
0.05 3.01 5.42726
0.05 3.01 5.38374
0.05 3.01 5.38374
0.0729308 3.01 5.38388
0.0576202 3.01 5.40553
0.05 3.01 5.38374
0.0577122 3.01 5.36202
0.0729308 3.01 5.38388
0.135283 3.01 5.36254
0.109875 3.01 5.36249
0.122979 3.01 5.34089
0.135283 3.01 5.36254
0.122678 3.01 5.38414
0.109875 3.01 5.36249
0.122979 3.01 5.34089
0.148138 3.01 5.3409
0.135283 3.01 5.36254
0.135283 3.01 5.36254
0.148138 3.01 5.3409
0.160572 3.01 5.36255
0.123433 3.01 5.2975
0.110383 3.01 5.31921
0.0985513 3.01 5.2975
0.110383 3.01 5.31921
0.0848754 3.01 5.31914
0.0985513 3.01 5.2975
0.0848754 3.01 5.31914
0.073948 3.01 5.2975
0.0985513 3.01 5.2975
0.0603641 3.01 6.15197
0.05 3.01 6.13027
0.0739464 3.01 6.12949
0.0739464 3.01 6.12949
0.05 3.01 6.13027
0.058509 3.01 6.10756
0.058509 3.01 6.10756
0.0849548 3.01 6.10711
0.0739464 3.01 6.12949
0.058509 3.01 6.10756
0.05 3.01 6.0851
0.0732725 3.01 6.08488
0.0732725 3.01 6.08488
0.0849548 3.01 6.10711
0.058509 3.01 6.10756
0.5 3.01 6.175
0.487476 3.01 6.1975
0.47495 3.01 6.175
0.097663 3.01 5.8187
0.0841948 3.01 5.79679
0.109814 3.01 5.7968
0.0730539 3.01 5.8187
0.0841948 3.01 5.79679
0.097663 3.01 5.8187
0.0578646 3.01 5.7968
0.0730539 3.01 5.8187
0.05 3.01 5.8187
0.05 3.01 5.8187
0.05 3.01 5.77492
0.0578646 3.01 5.7968
0.05 3.01 5.9954
0.05 3.01 5.95095
0.0580869 3.01 5.97315
0.05 3.01 5.95095
0.0580261 3.01 5.9288
0.073134 3.01 5.95094
0.073134 3.01 5.95094
0.0580869 3.01 5.97315
0.05 3.01 5.95095
0.942268 3.01 5.53573
0.95 3.01 5.51404
0.95 3.01 5.55741
0.942292 3.01 5.49236
0.95 3.01 5.51404
0.927025 3.01 5.51404
0.927025 3.01 5.51404
0.942268 3.01 5.53573
0.915919 3.01 5.53572
0.95 3.01 5.51404
0.942268 3.01 5.53573
0.927025 3.01 5.51404
0.927013 3.01 5.55741
0.942268 3.01 5.53573
0.95 3.01 5.55741
0.915919 3.01 5.53572
0.942268 3.01 5.53573
0.927013 3.01 5.55741
0.801738 3.01 5.64425
0.814364 3.01 5.62253
0.826957 3.01 5.64425
0.852174 3.01 5.64424
0.826957 3.01 5.64425
0.839609 3.01 5.62252
0.839609 3.01 5.62252
0.826957 3.01 5.64425
0.814364 3.01 5.62253
0.776516 3.01 5.68775
0.75132 3.01 5.68775
0.763923 3.01 5.666
0.776516 3.01 5.68775
0.801725 3.01 5.68774
0.789115 3.01 5.70951
0.738704 3.01 5.75315
0.751305 3.01 5.73132
0.763892 3.01 5.75314
0.726124 3.01 5.73133
0.751305 3.01 5.73132
0.738704 3.01 5.75315
0.915617 3.01 5.97314
0.902228 3.01 5.95094
0.926866 3.01 5.95094
0.926866 3.01 5.95094
0.941913 3.01 5.97315
0.915617 3.01 5.97314
0.915617 3.01 5.97314
0.941913 3.01 5.97315
0.926844 3.01 5.9954
0.915617 3.01 5.97314
0.926844 3.01 5.9954
0.902193 3.01 5.99538
0.926866 3.01 5.95094
0.902228 3.01 5.95094
0.915668 3.01 5.92879
0.902267 3.01 5.90668
0.926895 3.01 5.90669
0.915668 3.01 5.92879
0.915668 3.01 5.92879
0.941974 3.01 5.9288
0.926866 3.01 5.95094
0.926895 3.01 5.90669
0.941974 3.01 5.9288
0.915668 3.01 5.92879
0.902267 3.01 5.90668
0.915668 3.01 5.92879
0.890059 3.01 5.92879
0.890059 3.01 5.92879
0.915668 3.01 5.92879
0.902228 3.01 5.95094
0.826927 3.01 5.73129
0.814318 3.01 5.75311
0.801709 3.01 5.7313
0.864816 3.01 5.7968
0.877308 3.01 5.77493
0.890186 3.01 5.7968
0.877308 3.01 5.77493
0.864816 3.01 5.7968
0.852122 3.01 5.77494
0.890186 3.01 5.7968
0.877308 3.01 5.77493
0.902362 3.01 5.77493
0.902362 3.01 5.77493
0.915805 3.01 5.79679
0.890186 3.01 5.7968
0.902362 3.01 5.77493
0.926964 3.01 5.77492
0.915805 3.01 5.79679
0.915835 3.01 5.75309
0.926964 3.01 5.77492
0.902362 3.01 5.77493
0.942171 3.01 5.75309
0.926964 3.01 5.77492
0.915835 3.01 5.75309
0.915835 3.01 5.75309
0.926978 3.01 5.73127
0.942171 3.01 5.75309
0.942171 3.01 5.75309
0.926978 3.01 5.73127
0.95 3.01 5.73127
0.87737 3.01 5.60081
0.890277 3.01 5.57911
0.902417 3.01 5.6008
0.852144 3.01 5.73128
0.877329 3.01 5.73128
0.864842 3.01 5.75309
0.877308 3.01 5.77493
0.852122 3.01 5.77494
0.864842 3.01 5.75309
0.902396 3.01 5.68772
0.915858 3.01 5.70948
0.890234 3.01 5.70949
0.926997 3.01 5.64423
0.942237 3.01 5.62251
0.95 3.01 5.64423
0.91589 3.01 5.62251
0.942237 3.01 5.62251
0.926997 3.01 5.64423
0.942199 3.01 5.70948
0.95 3.01 5.68771
0.95 3.01 5.73127
0.95 3.01 5.73127
0.926978 3.01 5.73127
0.942199 3.01 5.70948
0.942199 3.01 5.70948
0.926978 3.01 5.73127
0.915858 3.01 5.70948
0.95 3.01 5.64423
0.95 3.01 5.68771
0.942221 3.01 5.66597
0.942221 3.01 5.66597
0.926997 3.01 5.64423
0.95 3.01 5.64423
0.915876 3.01 5.66597
0.926997 3.01 5.64423
0.942221 3.01 5.66597
0.926989 3.01 5.68771
0.915858 3.01 5.70948
0.902396 3.01 5.68772
0.902396 3.01 5.68772
0.915876 3.01 5.66597
0.926989 3.01 5.68771
0.926989 3.01 5.68771
0.942199 3.01 5.70948
0.915858 3.01 5.70948
0.95 3.01 5.68771
0.942199 3.01 5.70948
0.926989 3.01 5.68771
0.915876 3.01 5.66597
0.942221 3.01 5.66597
0.926989 3.01 5.68771
0.926989 3.01 5.68771
0.942221 3.01 5.66597
0.95 3.01 5.68771
0.91353 3.01 6.15185
0.926054 3.01 6.12949
0.939636 3.01 6.15197
0.926728 3.01 6.08488
0.95 3.01 6.0851
0.941491 3.01 6.10756
0.926728 3.01 6.08488
0.941822 3.01 6.06254
0.95 3.01 6.0851
0.95 3.01 6.13027
0.95 3.01 6.17329
0.939636 3.01 6.15197
0.95 3.01 6.13027
0.926054 3.01 6.12949
0.941491 3.01 6.10756
0.939636 3.01 6.15197
0.926054 3.01 6.12949
0.95 3.01 6.13027
0.941491 3.01 6.10756
0.95 3.01 6.0851
0.95 3.01 6.13027
0.941869 3.01 6.01772
0.926844 3.01 5.9954
0.95 3.01 5.9954
0.762942 3.01 6.15228
0.75028 3.01 6.17489
0.737933 3.01 6.15234
0.71291 3.01 6.15239
0.725533 3.01 6.12985
0.737933 3.01 6.15234
0.71291 3.01 6.15239
0.737933 3.01 6.15234
0.725313 3.01 6.17492
0.725313 3.01 6.17492
0.737933 3.01 6.15234
0.75028 3.01 6.17489
0.737693 3.01 6.1975
[...]
<PointData Scalars="View Factor" >
<DataArray type="Float64" Name="View Factor" NumberOfComponents="1" format="ascii">
0.0266681
0.0266681
0.0266681
0.0112681
0.0112681
0.0112681
0.0115024
0.0115024
0.0115024
0.0113518
0.0113518
0.0113518
0.0112746
0.0112746
0.0112746
0.0113459
0.0113459
0.0113459
0.0112606
0.0112606
0.0112606
0.0113388
0.0113388
0.0113388
0.0115087
0.0115087
0.0115087
0.0249635
0.0249635
0.0249635
0.0111927
0.0111927
0.0111927
0.0114964
0.0114964
0.0114964
0.0115756
0.0115756
0.0115756
0.0114891
0.0114891
0.0114891
0.0117968
0.0117968
0.0117968
0.0115689
0.0115689
0.0115689
0.0117228
0.0117228
0.0117228
0.0113306
0.0113306
0.0113306
0.0115809
0.0115809
0.0115809
0.0117347
0.0117347
0.0117347
0.0115842
0.0115842
0.0115842
0.0115069
0.0115069
0.0115069
0.0120496
0.0120496
0.0120496
0.0118161
0.0118161
0.0118161
0.0119735
0.0119735
0.0119735
0.0117379
0.0117379
0.0117379
0.0118144
0.0118144
0.0118144
0.0120527
0.0120527
0.0120527
0.0119718
0.0119718
0.0119718
0.0112859
0.0112859
0.0112859
0.0113588
0.0113588
0.0113588
0.0261844
0.0261844
0.0261844
0.0266001
0.0266001
0.0266001
0.0272783
0.0272783
0.0272783
0.027043
0.027043
0.027043
0.0197528
0.0197528
0.0197528
0.0179248
0.0179248
0.0179248
0.0181966
0.0181966
0.0181966
0.020672
0.020672
0.020672
0.0124945
0.0124945
0.0124945
0.0120053
0.0120053
0.0120053
0.015592
0.015592
0.015592
0.0160404
0.0160404
0.0160404
0.0157274
0.0157274
0.0157274
0.015952
0.015952
0.015952
0.0162502
0.0162502
0.0162502
0.0159343
0.0159343
0.0159343
0.0161627
0.0161627
0.0161627
0.0163063
0.0163063
0.0163063
0.0162176
0.0162176
0.0162176
0.0250613
0.0250613
0.0250613
0.0202862
0.0202862
0.0202862
0.0199529
0.0199529
0.0199529
0.0196788
0.0196788
0.0196788
0.019384
0.019384
0.019384
0.01907
0.01907
0.01907
0.0188117
0.0188117
0.0188117
0.0263127
0.0263127
0.0263127
0.0262325
0.0262325
0.0262325
0.0260596
0.0260596
0.0260596
0.016554
0.016554
0.016554
0.0166943
0.0166943
0.0166943
0.0112588
0.0112588
0.0112588
0.011252
0.011252
0.011252
0.0114807
0.0114807
0.0114807
0.0117148
0.0117148
0.0117148
0.011561
0.011561
0.011561
0.0123816
0.0123816
0.0123816
0.0122162
0.0122162
0.0122162
0.0120538
0.0120538
0.0120538
0.0118102
0.0118102
0.0118102
0.0119676
0.0119676
0.0119676
0.0117295
0.0117295
0.0117295
0.0118042
0.0118042
0.0118042
0.0112799
0.0112799
0.0112799
0.0113564
0.0113564
0.0113564
0.0112839
0.0112839
0.0112839
0.0257712
0.0257712
0.0257712
0.0253624
0.0253624
0.0253624
0.0251486
0.0251486
0.0251486
0.0245593
0.0245593
0.0245593
0.0247498
0.0247498
0.0247498
0.0264821
0.0264821
0.0264821
0.0181898
0.0181898
0.0181898
0.0183277
0.0183277
0.0183277
0.0183334
0.0183334
0.0183334
0.0180672
0.0180672
0.0180672
0.0216476
0.0216476
0.0216476
0.0209888
0.0209888
0.0209888
0.0213139
0.0213139
0.0213139
0.013008
0.013008
0.013008
0.0126777
0.0126777
0.0126777
0.0129583
0.0129583
0.0129583
0.0128491
0.0128491
0.0128491
0.0132006
0.0132006
0.0132006
0.0131344
0.0131344
0.0131344
0.0145968
0.0145968
0.0145968
0.0145455
0.0145455
0.0145455
0.0144707
0.0144707
0.0144707
0.0153243
0.0153243
0.0153243
0.0154897
0.0154897
0.0154897
0.0163609
0.0163609
0.0163609
0.0162707
0.0162707
0.0162707
0.0197616
0.0197616
0.0197616
0.0198674
0.0198674
0.0198674
0.0201719
0.0201719
0.0201719
0.0203721
0.0203721
0.0203721
0.0194653
0.0194653
0.0194653
0.01889
0.01889
0.01889
0.0192764
0.0192764
0.0192764
0.0189896
0.0189896
0.0189896
0.0190703
0.0190703
0.0190703
0.0193587
0.0193587
0.0193587
0.0161062
0.0161062
0.0161062
0.0167772
0.0167772
0.0167772
0.0166892
0.0166892
0.0166892
0.0166246
0.0166246
0.0166246
0.0167108
0.0167108
0.0167108
0.0165587
0.0165587
0.0165587
0.0163232
0.0163232
0.0163232
0.0161726
0.0161726
0.0161726
0.015944
0.015944
0.015944
0.0158022
0.0158022
0.0158022
0.0138548
0.0138548
0.0138548
0.0159884
0.0159884
0.0159884
0.0164513
0.0164513
0.0164513
0.0153441
0.0153441
0.0153441
0.0143287
0.0143287
0.0143287
0.0142557
0.0142557
0.0142557
0.0153433
0.0153433
0.0153433
0.0155803
0.0155803
0.0155803
0.0154992
0.0154992
0.0154992
0.0147133
0.0147133
0.0147133
0.0145283
0.0145283
0.0145283
0.0146558
0.0146558
0.0146558
0.0152077
0.0152077
0.0152077
0.0149964
0.0149964
0.0149964
0.0152827
0.0152827
0.0152827
0.0151483
0.0151483
0.0151483
0.0148611
0.0148611
0.0148611
0.014938
0.014938
0.014938
0.0239542
0.0239542
0.0239542
0.022619
0.022619
0.022619
0.0222645
0.0222645
0.0222645
0.0240564
0.0240564
0.0240564
0.0233468
0.0233468
0.0233468
0.0237195
0.0237195
0.0237195
0.0229509
0.0229509
0.0229509
0.0205992
0.0205992
0.0205992
0.0250525
0.0250525
0.0250525
0.024739
0.024739
0.024739
0.0251422
0.0251422
0.0251422
0.0253022
0.0253022
0.0253022
0.0259739
0.0259739
0.0259739
0.0257174
0.0257174
0.0257174
0.0258818
0.0258818
0.0258818
0.0235858
0.0235858
0.0235858
0.0239569
0.0239569
0.0239569
0.0245831
0.0245831
0.0245831
0.0241913
0.0241913
0.0241913
0.024746
0.024746
0.024746
0.0243515
0.0243515
0.0243515
0.0257158
0.0257158
0.0257158
0.0261376
0.0261376
0.0261376
0.0263899
0.0263899
0.0263899
0.0164016
0.0164016
0.0164016
0.0166519
0.0166519
0.0166519
0.0174781
0.0174781
0.0174781
0.0176915
0.0176915
0.0176915
0.0174352
0.0174352
0.0174352
0.0173303
0.0173303
0.0173303
0.0169367
0.0169367
0.0169367
0.0170807
0.0170807
0.0170807
0.0177352
0.0177352
0.0177352
0.0178437
0.0178437
0.0178437
0.0193848
0.0193848
0.0193848
0.0172449
0.0172449
0.0172449
0.0171454
0.0171454
0.0171454
0.0164843
0.0164843
0.0164843
0.0169658
0.0169658
0.0169658
0.0112196
0.0112196
0.0112196
0.0112315
0.0112315
0.0112315
0.0112995
0.0112995
0.0112995
0.011449
0.011449
0.011449
0.0109443
0.0109443
0.0109443
0.0148518
0.0148518
0.0148518
0.0152733
0.0152733
0.0152733
0.0149808
0.0149808
0.0149808
0.015192
0.015192
0.015192
0.0152418
0.0152418
0.0152418
0.0153738
0.0153738
0.0153738
0.0115183
0.0115183
0.0115183
0.0111777
0.0111777
0.0111777
0.0109438
0.0109438
0.0109438
0.0137832
0.0137832
0.0137832
0.013698
0.013698
0.013698
0.0118939
0.0118939
0.0118939
0.0114335
0.0114335
0.0114335
0.0115838
0.0115838
0.0115838
0.0117375
0.0117375
0.0117375
0.0253416
0.0253416
0.0253416
0.0267298
0.0267298
0.0267298
0.0200514
0.0200514
0.0200514
0.0203577
0.0203577
0.0203577
0.0186004
0.0186004
0.0186004
0.0125113
0.0125113
0.0125113
0.0200363
0.0200363
0.0200363
0.0203423
0.0203423
0.0203423
0.0177901
0.0177901
0.0177901
0.0179163
0.0179163
0.0179163
0.0175398
0.0175398
0.0175398
0.0177976
0.0177976
0.0177976
0.017803
0.017803
0.017803
0.0179315
0.0179315
0.0179315
0.0172935
0.0172935
0.0172935
0.0175452
0.0175452
0.0175452
0.0174158
0.0174158
0.0174158
0.0171651
0.0171651
0.0171651
0.0170436
0.0170436
0.0170436
0.0157632
0.0157632
0.0157632
0.0156223
0.0156223
0.0156223
0.0132502
0.0132502
0.0132502
0.0148011
0.0148011
0.0148011
0.0149304
0.0149304
0.0149304
0.0151407
0.0151407
0.0151407
0.0144192
0.0144192
0.0144192
0.0144929
0.0144929
0.0144929
0.0137857
0.0137857
0.0137857
0.0126147
0.0126147
0.0126147
0.0135722
0.0135722
0.0135722
0.0155417
0.0155417
0.0155417
0.0159882
0.0159882
0.0159882
0.0158486
0.0158486
0.0158486
0.0156258
0.0156258
0.0156258
0.0156774
0.0156774
0.0156774
0.0159011
0.0159011
0.0159011
0.0165971
0.0165971
0.0165971
0.0167442
0.0167442
0.0167442
0.0164137
0.0164137
0.0164137
0.0166509
0.0166509
0.0166509
0.0174444
0.0174444
0.0174444
0.0175446
0.0175446
0.0175446
0.0168992
0.0168992
0.0168992
0.0169535
0.0169535
0.0169535
0.0189678
0.0189678
0.0189678
0.018762
0.018762
0.018762
0.0186871
0.0186871
0.0186871
0.0185858
0.0185858
0.0185858
0.0244079
0.0244079
0.0244079
0.0246506
0.0246506
0.0246506
0.024497
0.024497
0.024497
0.0241067
0.0241067
0.0241067
0.0224065
0.0224065
0.0224065
0.0232257
0.0232257
0.0232257
0.023598
0.023598
0.023598
0.0215994
0.0215994
0.0215994
0.0220248
0.0220248
0.0220248
0.0213898
0.0213898
0.0213898
0.0152208
0.0152208
0.0152208
0.0161923
0.0161923
0.0161923
0.0160481
0.0160481
0.0160481
0.0161328
0.0161328
0.0161328
0.0163648
0.0163648
0.0163648
0.017087
0.017087
0.017087
0.0168418
0.0168418
0.0168418
0.0158649
0.0158649
0.0158649
0.0157032
0.0157032
0.0157032
0.0156419
0.0156419
0.0156419
0.0155617
0.0155617
0.0155617
0.0162581
0.0162581
0.0162581
0.016008
0.016008
0.016008
0.0149203
0.0149203
0.0149203
0.0146955
0.0146955
0.0146955
0.0147703
0.0147703
0.0147703
0.0141159
0.0141159
0.0141159
0.0143663
0.0143663
0.0143663
0.0140462
0.0140462
0.0140462
0.0141694
0.0141694
0.0141694
0.0137341
0.0137341
0.0137341
0.0135479
0.0135479
0.0135479
0.0134313
0.0134313
0.0134313
0.0246632
0.0246632
0.0246632
0.0243673
0.0243673
0.0243673
0.0244717
0.0244717
0.0244717
0.0243387
0.0243387
0.0243387
0.0248894
0.0248894
0.0248894
0.0238169
0.0238169
0.0238169
0.0227113
0.0227113
0.0227113
0.0234401
0.0234401
0.0234401
0.0232048
0.0232048
0.0232048
0.022842
0.022842
0.022842
0.0225039
0.0225039
0.0225039
0.0219381
0.0219381
0.0219381
0.022154
0.022154
0.022154
0.0220654
0.0220654
0.0220654
0.0206867
0.0206867
0.0206867
0.0207994
0.0207994
0.0207994
0.0221334
0.0221334
0.0221334
0.0223572
0.0223572
0.0223572
0.0249064
0.0249064
0.0249064
0.0248242
0.0248242
0.0248242
0.0246661
0.0246661
0.0246661
0.026063
0.026063
0.026063
0.0258074
0.0258074
0.0258074
0.025391
0.025391
0.025391
0.0252288
0.0252288
0.0252288
0.0253284
0.0253284
0.0253284
0.024765
0.024765
0.024765
0.0249165
0.0249165
0.0249165
0.0255895
0.0255895
0.0255895
0.0252103
0.0252103
0.0252103
0.0256244
0.0256244
0.0256244
0.0235778
0.0235778
0.0235778
0.0234315
0.0234315
0.0234315
0.02107
0.02107
0.02107
0.0208748
0.0208748
0.0208748
0.0217173
0.0217173
0.0217173
0.023063
0.023063
0.023063
0.0228422
0.0228422
0.0228422
0.0232144
0.0232144
0.0232144
0.0219257
0.0219257
0.0219257
0.022271
0.022271
0.022271
0.0224855
0.0224855
0.0224855
0.022348
0.022348
0.022348
0.0240392
0.0240392
0.0240392
0.0237365
0.0237365
0.0237365
0.0241186
0.0241186
0.0241186
0.0242729
0.0242729
0.0242729
0.0235101
0.0235101
0.0235101
0.0236586
0.0236586
0.0236586
0.0249855
0.0249855
0.0249855
0.0253929
0.0253929
0.0253929
0.0256391
0.0256391
0.0256391
0.0254704
0.0254704
0.0254704
0.024195
0.024195
0.024195
0.0238115
0.0238115
0.0238115
0.0236586
0.0236586
0.0236586
0.020674
0.020674
0.020674
0.0203605
0.0203605
0.0203605
0.016007
0.016007
0.016007
0.0169509
0.0169509
0.0169509
0.0159023
0.0159023
0.0159023
0.0160238
0.0160238
0.0160238
0.017064
0.017064
0.017064
0.0165352
0.0165352
0.0165352
0.0164323
0.0164323
0.0164323
0.0176645
0.0176645
0.0176645
0.0175197
0.0175197
0.0175197
0.0172332
0.0172332
0.0172332
0.017925
0.017925
0.017925
0.0180735
0.0180735
0.0180735
0.0183418
0.0183418
0.0183418
0.0184609
0.0184609
0.0184609
0.0165111
0.0165111
0.0165111
0.0168935
0.0168935
0.0168935
0.017038
0.017038
0.017038
0.0172868
0.0172868
0.0172868
0.0173904
0.0173904
0.0173904
0.0188939
0.0188939
0.0188939
0.0187367
0.0187367
0.0187367
0.0178869
0.0178869
0.0178869
0.0181078
0.0181078
0.0181078
0.017631
0.017631
0.017631
0.0174856
0.0174856
0.0174856
0.0187818
0.0187818
0.0187818
0.0186225
0.0186225
0.0186225
0.0175489
0.0175489
0.0175489
0.0172952
0.0172952
0.0172952
0.0172133
0.0172133
0.0172133
0.0194425
0.0194425
0.0194425
0.0112423
0.0112423
0.0112423
0.011311
0.011311
0.011311
0.0113213
0.0113213
0.0113213
0.0118611
0.0118611
0.0118611
0.0115388
0.0115388
0.0115388
0.0117054
0.0117054
0.0117054
0.0110015
0.0110015
0.0110015
0.0107649
0.0107649
0.0107649
0.0108587
0.0108587
0.0108587
0.014901
0.014901
0.014901
0.0150297
0.0150297
0.0150297
0.0149487
0.0149487
0.0149487
0.0147417
0.0147417
0.0147417
0.01529
0.01529
0.01529
0.0150771
0.0150771
0.0150771
0.011287
0.011287
0.011287
0.0114362
0.0114362
0.0114362
0.0112067
0.0112067
0.0112067
0.0112735
0.0112735
0.0112735
0.0114075
0.0114075
0.0114075
0.0114748
0.0114748
0.0114748
0.011627
0.011627
0.011627
0.01161
0.01161
0.01161
0.0116956
0.0116956
0.0116956
0.0119388
0.0119388
0.0119388
0.0118513
0.0118513
0.0118513
0.0111263
0.0111263
0.0111263
0.0110286
0.0110286
0.0110286
0.0139738
0.0139738
0.0139738
0.0143648
0.0143648
0.0143648
0.0113587
0.0113587
0.0113587
0.0115306
0.0115306
0.0115306
0.0116838
0.0116838
0.0116838
0.0114607
0.0114607
0.0114607
0.0227652
0.0227652
0.0227652
0.0234435
0.0234435
0.0234435
0.0246669
0.0246669
0.0246669
0.0246862
0.0246862
0.0246862
0.0244801
0.0244801
0.0244801
0.0235345
0.0235345
0.0235345
0.0240924
0.0240924
0.0240924
0.0239107
0.0239107
0.0239107
0.0244595
0.0244595
0.0244595
0.0251324
0.0251324
0.0251324
0.0241681
0.0241681
0.0241681
0.0237883
0.0237883
0.0237883
0.0265417
0.0265417
0.0265417
0.0255115
0.0255115
0.0255115
0.0259287
0.0259287
0.0259287
0.0261124
0.0261124
0.0261124
0.0247015
0.0247015
0.0247015
0.025613
0.025613
0.025613
0.0260323
0.0260323
0.0260323
0.0198902
0.0198902
0.0198902
0.020045
0.020045
0.020045
0.0198978
0.0198978
0.0198978
0.0208258
0.0208258
0.0208258
0.0205104
0.0205104
0.0205104
0.0209819
0.0209819
0.0209819
0.0208177
0.0208177
0.0208177
0.0203511
0.0203511
0.0203511
0.0205024
0.0205024
0.0205024
0.018735
0.018735
0.018735
0.0190064
0.0190064
0.0190064
0.0188858
0.0188858
0.0188858
0.0186062
0.0186062
0.0186062
0.0187421
0.0187421
0.0187421
0.0125487
0.0125487
0.0125487
0.013876
0.013876
0.013876
0.0135012
0.0135012
0.0135012
0.0144002
0.0144002
0.0144002
0.0146014
0.0146014
0.0146014
0.014586
0.014586
0.014586
0.0152101
0.0152101
0.0152101
0.0154244
0.0154244
0.0154244
0.0139931
0.0139931
0.0139931
0.0137971
0.0137971
0.0137971
0.0136093
0.0136093
0.0136093
0.0138011
0.0138011
0.0138011
0.0138945
0.0138945
0.0138945
0.013785
0.013785
0.013785
0.0135975
0.0135975
0.0135975
0.0133311
0.0133311
0.0133311
0.0135142
0.0135142
0.0135142
0.013604
0.013604
0.013604
0.0135083
0.0135083
0.0135083
0.0126804
0.0126804
0.0126804
0.0209727
0.0209727
0.0209727
0.0212974
0.0212974
0.0212974
0.01832
0.01832
0.01832
0.0181811
0.0181811
0.0181811
0.0185925
0.0185925
0.0185925
0.018726
0.018726
0.018726
0.0177808
0.0177808
0.0177808
0.0158678
0.0158678
0.0158678
0.0157526
0.0157526
0.0157526
0.0156435
0.0156435
0.0156435
0.0156388
0.0156388
0.0156388
0.0157469
0.0157469
0.0157469
0.0170384
0.0170384
0.0170384
0.0167945
0.0167945
0.0167945
0.0159553
0.0159553
0.0159553
0.0175325
0.0175325
0.0175325
0.0170314
0.0170314
0.0170314
0.0174094
0.0174094
0.0174094
0.0171588
0.0171588
0.0171588
0.013318
0.013318
0.013318
0.0135004
0.0135004
0.0135004
0.014272
0.014272
0.014272
0.0134816
0.0134816
0.0134816
0.0135986
0.0135986
0.0135986
0.0140983
0.0140983
0.0140983
0.013906
0.013906
0.013906
0.0142214
0.0142214
0.0142214
0.014149
0.014149
0.014149
0.0141985
0.0141985
0.0141985
0.0140044
0.0140044
0.0140044
0.0128971
0.0128971
0.0128971
0.0127248
0.0127248
0.0127248
0.016689
0.016689
0.016689
0.0165416
0.0165416
0.0165416
0.0166321
0.0166321
0.0166321
0.0168734
0.0168734
0.0168734
0.0170252
0.0170252
0.0170252
0.0169314
0.0169314
0.0169314
0.0167976
0.0167976
0.0167976
0.017042
0.017042
0.017042
0.0170946
0.0170946
0.0170946
0.0171927
0.0171927
0.0171927
0.0163222
0.0163222
0.0163222
0.0160013
0.0160013
0.0160013
0.016091
0.016091
0.016091
0.0174976
0.0174976
0.0174976
0.0175992
0.0175992
0.0175992
0.0176519
0.0176519
0.0176519
0.0190434
0.0190434
0.0190434
0.019331
0.019331
0.019331
0.0175913
0.0175913
0.0175913
0.017043
0.017043
0.017043
0.0170212
0.0170212
0.0170212
0.0171114
0.0171114
0.0171114
0.0171784
0.0171784
0.0171784
0.01743
0.01743
0.01743
0.0182383
0.0182383
0.0182383
0.0186107
0.0186107
0.0186107
0.0185102
0.0185102
0.0185102
0.0195461
0.0195461
0.0195461
0.0202588
0.0202588
0.0202588
0.0199528
0.0199528
0.0199528
0.0198438
0.0198438
0.0198438
0.0200356
0.0200356
0.0200356
0.0210619
0.0210619
0.0210619
0.0239285
0.0239285
0.0239285
0.0242204
0.0242204
0.0242204
0.0238349
0.0238349
0.0238349
0.023692
0.023692
0.023692
0.0237832
0.0237832
0.0237832
0.0238716
0.0238716
0.0238716
0.0240191
0.0240191
0.0240191
0.0234073
0.0234073
0.0234073
0.0237388
0.0237388
0.0237388
0.0242671
0.0242671
0.0242671
0.0241225
0.0241225
0.0241225
0.0235017
0.0235017
0.0235017
0.0227265
0.0227265
0.0227265
0.0230883
0.0230883
0.0230883
0.0233178
0.0233178
0.0233178
0.0231782
0.0231782
0.0231782
0.0208894
0.0208894
0.0208894
0.0212142
0.0212142
0.0212142
0.0215127
0.0215127
0.0215127
0.0218496
0.0218496
0.0218496
0.0214245
0.0214245
0.0214245
0.0213029
0.0213029
0.0213029
0.0154363
0.0154363
0.0154363
0.0158789
0.0158789
0.0158789
0.0157944
0.0157944
0.0157944
0.0155726
0.0155726
0.0155726
0.0158218
0.0158218
0.0158218
0.0153812
0.0153812
0.0153812
0.0157386
0.0157386
0.0157386
0.0155178
0.0155178
0.0155178
0.0156813
0.0156813
0.0156813
0.0154615
0.0154615
0.0154615
0.0148785
0.0148785
0.0148785
0.0150879
0.0150879
0.0150879
0.0151668
0.0151668
0.0151668
0.014749
0.014749
0.014749
0.0148252
0.0148252
0.0148252
0.0150336
0.0150336
0.0150336
0.0167523
0.0167523
0.0167523
0.0165735
0.0165735
0.0165735
0.0168137
0.0168137
0.0168137
0.0169046
0.0169046
0.0169046
0.0164254
0.0164254
0.0164254
0.0165132
0.0165132
0.0165132
0.0163879
0.0163879
0.0163879
0.0163026
0.0163026
0.0163026
0.0162386
0.0162386
0.0162386
0.0160089
0.0160089
0.0160089
0.0160717
0.0160717
0.0160717
0.0159273
0.0159273
0.0159273
0.0166424
0.0166424
0.0166424
0.0164925
0.0164925
0.0164925
0.0167099
0.0167099
0.0167099
0.0169743
0.0169743
0.0169743
0.0168838
0.0168838
0.0168838
0.0153247
0.0153247
0.0153247
0.0151113
0.0151113
0.0151113
0.0152668
0.0152668
0.0152668
0.0154036
0.0154036
0.0154036
0.0150544
0.0150544
0.0150544
0.0149777
0.0149777
0.0149777
0.014384
0.014384
0.014384
0.0143118
0.0143118
0.0143118
0.0145846
0.0145846
0.0145846
0.0147139
0.0147139
0.0147139
0.0146406
0.0146406
0.0146406
0.014439
0.014439
0.014439
0.0133807
0.0133807
0.0133807
0.0134956
0.0134956
0.0134956
0.0141155
0.0141155
0.0141155
0.0135477
0.0135477
0.0135477
0.025171
0.025171
0.025171
0.0240222
0.0240222
0.0240222
0.0236405
0.0236405
0.0236405
0.022938
0.022938
0.022938
0.0233038
0.0233038
0.0233038
0.0230352
0.0230352
0.0230352
0.0228065
0.0228065
0.0228065
0.0234034
0.0234034
0.0234034
0.0235406
0.0235406
0.0235406
0.0226362
0.0226362
0.0226362
0.0229019
0.0229019
0.0229019
0.022544
0.022544
0.022544
0.0224135
0.0224135
0.0224135
0.0231313
0.0231313
0.0231313
0.022996
0.022996
0.022996
0.022228
0.022228
0.022228
0.0218835
0.0218835
0.0218835
0.0224506
0.0224506
0.0224506
0.0223213
0.0223213
0.0223213
0.0217598
0.0217598
0.0217598
0.0219751
0.0219751
0.0219751
0.0211229
0.0211229
0.0211229
0.0217899
0.0217899
0.0217899
0.0213351
0.0213351
0.0213351
0.0216691
0.0216691
0.0216691
0.0258944
0.0258944
0.0258944
0.0259785
0.0259785
0.0259785
0.0261492
0.0261492
0.0261492
0.0255594
0.0255594
0.0255594
0.0253124
0.0253124
0.0253124
0.0254767
0.0254767
0.0254767
0.025787
0.025787
0.025787
0.0249597
0.0249597
0.0249597
0.0245592
0.0245592
0.0245592
0.0244647
0.0244647
0.0244647
0.0243156
0.0243156
0.0243156
0.0254299
0.0254299
0.0254299
0.0251154
0.0251154
0.0251154
0.0256895
0.0256895
0.0256895
0.0255286
0.0255286
0.0255286
0.0250175
0.0250175
0.0250175
0.0248639
0.0248639
0.0248639
0.022983
0.022983
0.022983
0.0229002
0.0229002
0.0229002
0.0227616
0.0227616
0.0227616
0.0232655
0.0232655
0.0232655
0.0233499
0.0233499
0.0233499
0.023494
0.023494
0.023494
0.0210014
0.0210014
0.0210014
0.0217933
0.0217933
0.0217933
0.0220011
0.0220011
0.0220011
0.0214575
0.0214575
0.0214575
0.021328
0.021328
0.021328
0.0202284
0.0202284
0.0202284
0.0199234
0.0199234
0.0199234
0.019738
0.019738
0.019738
0.0216844
0.0216844
0.0216844
0.0214749
0.0214749
0.0214749
0.0218477
0.0218477
0.0218477
0.0221915
0.0221915
0.0221915
0.0220711
0.0220711
0.0220711
0.0222115
0.0222115
0.0222115
0.0224937
0.0224937
0.0224937
0.0231401
0.0231401
0.0231401
0.022995
0.022995
0.022995
0.02292
0.02292
0.02292
0.0226354
0.0226354
0.0226354
0.0225618
0.0225618
0.0225618
0.0224222
0.0224222
0.0224222
0.0226286
0.0226286
0.0226286
0.0223387
0.0223387
0.0223387
0.0222764
0.0222764
0.0222764
0.0221341
0.0221341
0.0221341
0.0233546
0.0233546
0.0233546
0.0227743
0.0227743
0.0227743
0.0225625
0.0225625
0.0225625
0.0227062
0.0227062
0.0227062
0.0230672
0.0230672
0.0230672
0.0232859
0.0232859