<VTKFile type="UnstructuredGrid" version="1.0">
<UnstructuredGrid>
<Piece NumberOfPoints="8859" NumberOfCells="2953">
<Points>
<DataArray type="Float64" NumberOfComponents="3" format="ascii">
3.01 0.5 7.22
3.01 0.487476 7.2425
3.01 0.512524 7.2425
3.01 0.17352 6.3425
3.01 0.148445 6.3425
3.01 0.160827 6.36422
3.01 0.122979 6.38589
3.01 0.135644 6.36422
3.01 0.110383 6.36421
3.01 0.135644 6.36422
3.01 0.123433 6.3425
3.01 0.110383 6.36421
3.01 0.123433 6.3425
3.01 0.135644 6.36422
3.01 0.148445 6.3425
3.01 0.135644 6.36422
3.01 0.160827 6.36422
3.01 0.148445 6.3425
3.01 0.17352 6.3425
3.01 0.185985 6.3642
3.01 0.198629 6.3425
3.01 0.185985 6.3642
3.01 0.17352 6.3425
3.01 0.160827 6.36422
3.01 0.0732297 6.38567
3.01 0.0848754 6.36414
3.01 0.0586606 6.36381
3.01 0.05 7.17527
3.01 0.058509 7.15256
3.01 0.05 7.1301
3.01 0.324276 6.3425
3.01 0.336827 6.36416
3.01 0.349395 6.3425
3.01 0.148138 6.3859
3.01 0.160827 6.36422
3.01 0.135644 6.36422
3.01 0.122979 6.38589
3.01 0.148138 6.3859
3.01 0.135644 6.36422
3.01 0.160827 6.36422
3.01 0.173316 6.38589
3.01 0.185985 6.3642
3.01 0.185806 6.40755
3.01 0.173316 6.38589
3.01 0.160572 6.40755
3.01 0.173316 6.38589
3.01 0.160827 6.36422
3.01 0.148138 6.3859
3.01 0.160572 6.40755
3.01 0.173316 6.38589
3.01 0.148138 6.3859
3.01 0.211137 6.36419
3.01 0.198629 6.3425
3.01 0.185985 6.3642
3.01 0.0979162 6.38584
3.01 0.122979 6.38589
3.01 0.110383 6.36421
3.01 0.122979 6.38589
3.01 0.0979162 6.38584
3.01 0.109875 6.40749
3.01 0.0732297 6.38567
3.01 0.0979162 6.38584
3.01 0.0848754 6.36414
3.01 0.0979162 6.38584
3.01 0.110383 6.36421
3.01 0.0848754 6.36414
3.01 0.0975729 6.42904
3.01 0.122678 6.42914
3.01 0.109875 6.40749
3.01 0.0841718 6.40735
3.01 0.0732297 6.38567
3.01 0.0577122 6.40702
3.01 0.0729308 6.42888
3.01 0.0841718 6.40735
3.01 0.0577122 6.40702
3.01 0.0732297 6.38567
3.01 0.0841718 6.40735
3.01 0.0979162 6.38584
3.01 0.0841718 6.40735
3.01 0.109875 6.40749
3.01 0.0979162 6.38584
3.01 0.0975729 6.42904
3.01 0.0841718 6.40735
3.01 0.0729308 6.42888
3.01 0.0841718 6.40735
3.01 0.0975729 6.42904
3.01 0.109875 6.40749
3.01 0.073948 6.3425
3.01 0.05 6.3425
3.01 0.0586606 6.36381
3.01 0.073948 6.3425
3.01 0.0586606 6.36381
3.01 0.0848754 6.36414
3.01 0.05 7.21829
3.01 0.0603641 7.19697
3.01 0.05 7.17527
3.01 0.0603641 7.19697
3.01 0.05 7.21829
3.01 0.0753197 7.21899
3.01 0.0709395 7.2425
3.01 0.05 7.21829
3.01 0.05 7.2425
3.01 0.05 7.21829
3.01 0.0709395 7.2425
3.01 0.0753197 7.21899
3.01 0.0579641 6.92963
3.01 0.05 6.90761
3.01 0.05 6.95169
3.01 0.0841948 6.84179
3.01 0.109814 6.8418
3.01 0.097638 6.81993
3.01 0.0841948 6.84179
3.01 0.0578646 6.8418
3.01 0.0730539 6.8637
3.01 0.0580261 6.9738
3.01 0.05 6.95169
3.01 0.05 6.99595
3.01 0.942292 6.53735
3.01 0.95 6.55904
3.01 0.95 6.51567
3.01 0.95 6.47226
3.01 0.942332 6.49397
3.01 0.95 6.51567
3.01 0.73872 6.75453
3.01 0.75132 6.73275
3.01 0.726137 6.73276
3.01 0.751305 6.77632
3.01 0.73872 6.75453
3.01 0.726124 6.77633
3.01 0.713546 6.75454
3.01 0.73872 6.75453
3.01 0.726137 6.73276
3.01 0.73872 6.75453
3.01 0.713546 6.75454
3.01 0.726124 6.77633
3.01 0.814318 6.79811
3.01 0.801709 6.7763
3.01 0.789096 6.79812
3.01 0.7765 6.77631
3.01 0.801709 6.7763
3.01 0.789115 6.75451
3.01 0.801709 6.7763
3.01 0.7765 6.77631
3.01 0.789096 6.79812
3.01 0.7765 6.77631
3.01 0.763892 6.79814
3.01 0.789096 6.79812
3.01 0.763892 6.79814
3.01 0.7765 6.77631
3.01 0.751305 6.77632
3.01 0.95 7.2425
3.01 0.95 7.21829
3.01 0.929061 7.2425
3.01 0.95 7.0404
3.01 0.941913 7.01815
3.01 0.926844 7.0404
3.01 0.941913 7.01815
3.01 0.95 7.0404
3.01 0.95 6.99595
3.01 0.926866 6.99594
3.01 0.941913 7.01815
3.01 0.95 6.99595
3.01 0.941974 6.9738
3.01 0.926866 6.99594
3.01 0.95 6.99595
3.01 0.95 6.95169
3.01 0.941974 6.9738
3.01 0.95 6.99595
3.01 0.941974 6.9738
3.01 0.95 6.95169
3.01 0.926895 6.95169
3.01 0.6127 7.2425
3.01 0.637734 7.2425
3.01 0.625238 7.21998
3.01 0.662757 7.2425
3.01 0.650275 7.21997
3.01 0.637734 7.2425
3.01 0.650275 7.21997
3.01 0.625238 7.21998
3.01 0.637734 7.2425
3.01 0.600415 6.77637
3.01 0.575304 6.77637
3.01 0.587856 6.7982
3.01 0.575304 6.77637
3.01 0.562749 6.7982
3.01 0.587856 6.7982
3.01 0.336827 6.36416
3.01 0.361946 6.36416
3.01 0.349395 6.3425
3.01 0.223755 6.3425
3.01 0.198629 6.3425
3.01 0.211137 6.36419
3.01 0.185985 6.3642
3.01 0.198492 6.38588
3.01 0.211137 6.36419
3.01 0.185806 6.40755
3.01 0.198492 6.38588
3.01 0.173316 6.38589
3.01 0.198492 6.38588
3.01 0.185985 6.3642
3.01 0.173316 6.38589
3.01 0.0576202 6.45053
3.01 0.05 6.42874
3.01 0.05 6.47226
3.01 0.05 6.42874
3.01 0.0576202 6.45053
3.01 0.0729308 6.42888
3.01 0.05 6.42874
3.01 0.0729308 6.42888
3.01 0.0577122 6.40702
3.01 0.135283 6.40754
3.01 0.122979 6.38589
3.01 0.109875 6.40749
3.01 0.135283 6.40754
3.01 0.109875 6.40749
3.01 0.122678 6.42914
3.01 0.122979 6.38589
3.01 0.135283 6.40754
3.01 0.148138 6.3859
3.01 0.135283 6.40754
3.01 0.160572 6.40755
3.01 0.148138 6.3859
3.01 0.123433 6.3425
3.01 0.0985513 6.3425
3.01 0.110383 6.36421
3.01 0.110383 6.36421
3.01 0.0985513 6.3425
3.01 0.0848754 6.36414
3.01 0.0848754 6.36414
3.01 0.0985513 6.3425
3.01 0.073948 6.3425
3.01 0.0603641 7.19697
3.01 0.0739464 7.17449
3.01 0.05 7.17527
3.01 0.0739464 7.17449
3.01 0.058509 7.15256
3.01 0.05 7.17527
3.01 0.058509 7.15256
3.01 0.0739464 7.17449
3.01 0.0849548 7.15211
3.01 0.058509 7.15256
3.01 0.0732725 7.12988
3.01 0.05 7.1301
3.01 0.0732725 7.12988
3.01 0.058509 7.15256
3.01 0.0849548 7.15211
3.01 0.5 7.22
3.01 0.47495 7.22
3.01 0.487476 7.2425
3.01 0.097663 6.8637
3.01 0.109814 6.8418
3.01 0.0841948 6.84179
3.01 0.0730539 6.8637
3.01 0.097663 6.8637
3.01 0.0841948 6.84179
3.01 0.0578646 6.8418
3.01 0.05 6.8637
3.01 0.0730539 6.8637
3.01 0.05 6.8637
3.01 0.0578646 6.8418
3.01 0.05 6.81992
3.01 0.05 7.0404
3.01 0.0580869 7.01815
3.01 0.05 6.99595
3.01 0.05 6.99595
3.01 0.073134 6.99594
3.01 0.0580261 6.9738
3.01 0.073134 6.99594
3.01 0.05 6.99595
3.01 0.0580869 7.01815
3.01 0.942268 6.58073
3.01 0.95 6.60241
3.01 0.95 6.55904
3.01 0.942292 6.53735
3.01 0.927025 6.55904
3.01 0.95 6.55904
3.01 0.927025 6.55904
3.01 0.915919 6.58072
3.01 0.942268 6.58073
3.01 0.95 6.55904
3.01 0.927025 6.55904
3.01 0.942268 6.58073
3.01 0.927013 6.60241
3.01 0.95 6.60241
3.01 0.942268 6.58073
3.01 0.915919 6.58072
3.01 0.927013 6.60241
3.01 0.942268 6.58073
3.01 0.801738 6.68925
3.01 0.826957 6.68925
3.01 0.814364 6.66753
3.01 0.852174 6.68924
3.01 0.839609 6.66752
3.01 0.826957 6.68925
3.01 0.839609 6.66752
3.01 0.814364 6.66753
3.01 0.826957 6.68925
3.01 0.776516 6.73275
3.01 0.763923 6.711
3.01 0.75132 6.73275
3.01 0.776516 6.73275
3.01 0.789115 6.75451
3.01 0.801725 6.73274
3.01 0.738704 6.79815
3.01 0.763892 6.79814
3.01 0.751305 6.77632
3.01 0.726124 6.77633
3.01 0.738704 6.79815
3.01 0.751305 6.77632
3.01 0.915617 7.01814
3.01 0.926866 6.99594
3.01 0.902228 6.99594
3.01 0.926866 6.99594
3.01 0.915617 7.01814
3.01 0.941913 7.01815
3.01 0.915617 7.01814
3.01 0.926844 7.0404
3.01 0.941913 7.01815
3.01 0.915617 7.01814
3.01 0.902193 7.04038
3.01 0.926844 7.0404
3.01 0.926866 6.99594
3.01 0.915668 6.97379
3.01 0.902228 6.99594
3.01 0.902267 6.95168
3.01 0.915668 6.97379
3.01 0.926895 6.95169
3.01 0.915668 6.97379
3.01 0.926866 6.99594
3.01 0.941974 6.9738
3.01 0.926895 6.95169
3.01 0.915668 6.97379
3.01 0.941974 6.9738
3.01 0.902267 6.95168
3.01 0.890059 6.97379
3.01 0.915668 6.97379
3.01 0.890059 6.97379
3.01 0.902228 6.99594
3.01 0.915668 6.97379
3.01 0.826927 6.77629
3.01 0.801709 6.7763
3.01 0.814318 6.79811
3.01 0.864816 6.8418
3.01 0.890186 6.8418
3.01 0.877308 6.81993
3.01 0.877308 6.81993
3.01 0.852122 6.81994
3.01 0.864816 6.8418
3.01 0.890186 6.8418
3.01 0.902362 6.81993
3.01 0.877308 6.81993
3.01 0.902362 6.81993
3.01 0.890186 6.8418
3.01 0.915805 6.84179
3.01 0.902362 6.81993
3.01 0.915805 6.84179
3.01 0.926964 6.81992
3.01 0.915835 6.79809
3.01 0.902362 6.81993
3.01 0.926964 6.81992
3.01 0.942171 6.79809
3.01 0.915835 6.79809
3.01 0.926964 6.81992
3.01 0.915835 6.79809
3.01 0.942171 6.79809
3.01 0.926978 6.77627
3.01 0.942171 6.79809
3.01 0.95 6.77627
3.01 0.926978 6.77627
3.01 0.87737 6.64581
3.01 0.902417 6.6458
3.01 0.890277 6.62411
3.01 0.852144 6.77628
3.01 0.864842 6.79809
3.01 0.877329 6.77628
3.01 0.877308 6.81993
3.01 0.864842 6.79809
3.01 0.852122 6.81994
3.01 0.902396 6.73272
3.01 0.890234 6.75449
3.01 0.915858 6.75448
3.01 0.926997 6.68923
3.01 0.95 6.68923
3.01 0.942237 6.66751
3.01 0.91589 6.66751
3.01 0.926997 6.68923
3.01 0.942237 6.66751
3.01 0.942199 6.75448
3.01 0.95 6.77627
3.01 0.95 6.73271
3.01 0.95 6.77627
3.01 0.942199 6.75448
3.01 0.926978 6.77627
3.01 0.942199 6.75448
3.01 0.915858 6.75448
3.01 0.926978 6.77627
3.01 0.95 6.68923
3.01 0.942221 6.71097
3.01 0.95 6.73271
3.01 0.942221 6.71097
3.01 0.95 6.68923
3.01 0.926997 6.68923
3.01 0.915876 6.71097
3.01 0.942221 6.71097
3.01 0.926997 6.68923
3.01 0.926989 6.73271
3.01 0.902396 6.73272
3.01 0.915858 6.75448
3.01 0.902396 6.73272
3.01 0.926989 6.73271
3.01 0.915876 6.71097
3.01 0.926989 6.73271
3.01 0.915858 6.75448
3.01 0.942199 6.75448
3.01 0.95 6.73271
3.01 0.926989 6.73271
3.01 0.942199 6.75448
3.01 0.915876 6.71097
3.01 0.926989 6.73271
3.01 0.942221 6.71097
3.01 0.926989 6.73271
3.01 0.95 6.73271
3.01 0.942221 6.71097
3.01 0.91353 7.19685
3.01 0.939636 7.19697
3.01 0.926054 7.17449
3.01 0.926728 7.12988
3.01 0.941491 7.15256
3.01 0.95 7.1301
3.01 0.926728 7.12988
3.01 0.95 7.1301
3.01 0.941822 7.10754
3.01 0.95 7.17527
3.01 0.939636 7.19697
3.01 0.95 7.21829
3.01 0.95 7.17527
3.01 0.941491 7.15256
3.01 0.926054 7.17449
3.01 0.939636 7.19697
3.01 0.95 7.17527
3.01 0.926054 7.17449
3.01 0.941491 7.15256
3.01 0.95 7.17527
3.01 0.95 7.1301
3.01 0.941869 7.06272
3.01 0.95 7.0404
3.01 0.926844 7.0404
3.01 0.762942 7.19728
3.01 0.737933 7.19734
3.01 0.75028 7.21989
3.01 0.71291 7.19739
3.01 0.737933 7.19734
3.01 0.725533 7.17485
3.01 0.71291 7.19739
3.01 0.725313 7.21992
3.01 0.737933 7.19734
3.01 0.725313 7.21992
3.01 0.75028 7.21989
3.01 0.737933 7.19734
3.01 0.737693 7.2425
[...]
<PointData Scalars="View Factor" >
<DataArray type="Float64" Name="View Factor" NumberOfComponents="1" format="ascii">
0.000110656
0.000110656
0.000110656
0.000148863
0.000148863
0.000148863
0.000147778
0.000147778
0.000147778
0.000148515
0.000148515
0.000148515
0.000148879
0.000148879
0.000148879
0.000148501
0.000148501
0.000148501
0.000148845
0.000148845
0.000148845
0.000148484
0.000148484
0.000148484
0.000147811
0.000147811
0.000147811
0.000113972
0.000113972
0.000113972
0.000148677
0.000148677
0.000148677
0.000147764
0.000147764
0.000147764
0.000147405
0.000147405
0.000147405
0.000147747
0.000147747
0.000147747
0.000146289
0.000146289
0.000146289
0.000147389
0.000147389
0.000147389
0.00014666
0.00014666
0.00014666
0.000148464
0.000148464
0.000148464
0.000147419
0.000147419
0.000147419
0.000146691
0.000146691
0.000146691
0.000147435
0.000147435
0.000147435
0.000147793
0.000147793
0.000147793
0.00014525
0.00014525
0.00014525
0.000146357
0.000146357
0.000146357
0.000145637
0.000145637
0.000145637
0.000146707
0.000146707
0.000146707
0.000146337
0.000146337
0.000146337
0.000145267
0.000145267
0.000145267
0.000145617
0.000145617
0.000145617
0.000148918
0.000148918
0.000148918
0.000148545
0.000148545
0.000148545
0.000112363
0.000112363
0.000112363
0.000111838
0.000111838
0.000111838
0.000111017
0.000111017
0.000111017
0.000111295
0.000111295
0.000111295
0.000122542
0.000122542
0.000122542
0.000126432
0.000126432
0.000126432
0.000125831
0.000125831
0.000125831
0.000120783
0.000120783
0.000120783
0.000137942
0.000137942
0.000137942
0.000139978
0.000139978
0.000139978
0.000129522
0.000129522
0.000129522
0.00012828
0.00012828
0.00012828
0.000129242
0.000129242
0.000129242
0.000128621
0.000128621
0.000128621
0.000127194
0.000127194
0.000127194
0.000128149
0.000128149
0.000128149
0.000127534
0.000127534
0.000127534
0.000127261
0.000127261
0.000127261
0.0001276
0.0001276
0.0001276
0.000109801
0.000109801
0.000109801
0.000117144
0.000117144
0.000117144
0.000117686
0.000117686
0.000117686
0.000118274
0.000118274
0.000118274
0.000118843
0.000118843
0.000118843
0.000119392
0.000119392
0.000119392
0.000119989
0.000119989
0.000119989
0.000110463
0.000110463
0.000110463
0.000110419
0.000110419
0.000110419
0.000110706
0.000110706
0.000110706
0.000128004
0.000128004
0.000128004
0.000127721
0.000127721
0.000127721
0.00014829
0.00014829
0.00014829
0.000148824
0.000148824
0.000148824
0.000147728
0.000147728
0.000147728
0.000146643
0.000146643
0.000146643
0.000147372
0.000147372
0.000147372
0.000143855
0.000143855
0.000143855
0.000144566
0.000144566
0.000144566
0.000145284
0.000145284
0.000145284
0.000146322
0.000146322
0.000146322
0.000145601
0.000145601
0.000145601
0.000146676
0.000146676
0.000146676
0.000146306
0.000146306
0.000146306
0.000148892
0.000148892
0.000148892
0.000148529
0.000148529
0.000148529
0.000148904
0.000148904
0.000148904
0.00011289
0.00011289
0.00011289
0.000113429
0.000113429
0.000113429
0.000113709
0.000113709
0.000113709
0.000114528
0.000114528
0.000114528
0.000114256
0.000114256
0.000114256
0.000110939
0.000110939
0.000110939
0.000125824
0.000125824
0.000125824
0.000125524
0.000125524
0.000125524
0.00012553
0.00012553
0.00012553
0.000126138
0.000126138
0.000126138
0.000119047
0.000119047
0.000119047
0.000120201
0.000120201
0.000120201
0.000119622
0.000119622
0.000119622
0.000135945
0.000135945
0.000135945
0.0001373
0.0001373
0.0001373
0.000136343
0.000136343
0.000136343
0.000136634
0.000136634
0.000136634
0.000135314
0.000135314
0.000135314
0.000135682
0.000135682
0.000135682
0.000131837
0.000131837
0.000131837
0.000131763
0.000131763
0.000131763
0.000132119
0.000132119
0.000132119
0.000130082
0.000130082
0.000130082
0.000129389
0.000129389
0.000129389
0.000127326
0.000127326
0.000127326
0.000127664
0.000127664
0.000127664
0.000118344
0.000118344
0.000118344
0.000118024
0.000118024
0.000118024
0.000117458
0.000117458
0.000117458
0.000117214
0.000117214
0.000117214
0.000118914
0.000118914
0.000118914
0.00012006
0.00012006
0.00012006
0.000119162
0.000119162
0.000119162
0.000119734
0.000119734
0.000119734
0.000119807
0.000119807
0.000119807
0.000119234
0.000119234
0.000119234
0.000127466
0.000127466
0.000127466
0.000125165
0.000125165
0.000125165
0.000125502
0.000125502
0.000125502
0.000125429
0.000125429
0.000125429
0.00012509
0.00012509
0.00012509
0.000125354
0.000125354
0.000125354
0.000125957
0.000125957
0.000125957
0.000126218
0.000126218
0.000126218
0.000126826
0.000126826
0.000126826
0.000127094
0.000127094
0.000127094
0.000133529
0.000133529
0.000133529
0.000127323
0.000127323
0.000127323
0.000126106
0.000126106
0.000126106
0.000128747
0.000128747
0.000128747
0.000131446
0.000131446
0.000131446
0.000131801
0.000131801
0.000131801
0.000128296
0.000128296
0.000128296
0.000127706
0.000127706
0.000127706
0.000128049
0.000128049
0.000128049
0.00013016
0.00013016
0.00013016
0.000130814
0.000130814
0.000130814
0.000130537
0.000130537
0.000130537
0.000129018
0.000129018
0.000129018
0.00012964
0.00012964
0.00012964
0.000128666
0.000128666
0.000128666
0.000128939
0.000128939
0.000128939
0.00012991
0.00012991
0.00012991
0.000129561
0.000129561
0.000129561
0.000111431
0.000111431
0.000111431
0.000113265
0.000113265
0.000113265
0.000113812
0.000113812
0.000113812
0.000111116
0.000111116
0.000111116
0.000112185
0.000112185
0.000112185
0.000111656
0.000111656
0.000111656
0.000112696
0.000112696
0.000112696
0.000116583
0.000116583
0.000116583
0.000111293
0.000111293
0.000111293
0.000111879
0.000111879
0.000111879
0.000111343
0.000111343
0.000111343
0.000111051
0.000111051
0.000111051
0.000110278
0.000110278
0.000110278
0.000110519
0.000110519
0.000110519
0.000110228
0.000110228
0.000110228
0.000113899
0.000113899
0.000113899
0.00011296
0.00011296
0.00011296
0.000112173
0.000112173
0.000112173
0.000112714
0.000112714
0.000112714
0.000112268
0.000112268
0.000112268
0.000112809
0.000112809
0.000112809
0.000111282
0.000111282
0.000111282
0.000110749
0.000110749
0.000110749
0.000110505
0.000110505
0.000110505
0.000129181
0.000129181
0.000129181
0.00012767
0.00012767
0.00012767
0.000125935
0.000125935
0.000125935
0.000125283
0.000125283
0.000125283
0.000125888
0.000125888
0.000125888
0.000126215
0.000126215
0.000126215
0.000127107
0.000127107
0.000127107
0.000126825
0.000126825
0.000126825
0.00012533
0.00012533
0.00012533
0.000125005
0.000125005
0.000125005
0.000121761
0.000121761
0.000121761
0.00012568
0.00012568
0.00012568
0.000126011
0.000126011
0.000126011
0.000126584
0.000126584
0.000126584
0.000125374
0.000125374
0.000125374
0.000148744
0.000148744
0.000148744
0.000148773
0.000148773
0.000148773
0.000148389
0.000148389
0.000148389
0.000147654
0.000147654
0.000147654
0.000147508
0.000147508
0.000147508
0.000131274
0.000131274
0.000131274
0.000130014
0.000130014
0.000130014
0.000130992
0.000130992
0.000130992
0.000130362
0.000130362
0.000130362
0.000130429
0.000130429
0.000130429
0.000130148
0.000130148
0.000130148
0.000147274
0.000147274
0.000147274
0.00014864
0.00014864
0.00014864
0.000148052
0.000148052
0.000148052
0.000137771
0.000137771
0.000137771
0.000138123
0.000138123
0.000138123
0.000146014
0.000146014
0.000146014
0.000148193
0.000148193
0.000148193
0.00014746
0.00014746
0.00014746
0.000146732
0.000146732
0.000146732
0.00011344
0.00011344
0.00011344
0.00011069
0.00011069
0.00011069
0.000121952
0.000121952
0.000121952
0.000121365
0.000121365
0.000121365
0.000124921
0.000124921
0.000124921
0.000143048
0.000143048
0.000143048
0.000121939
0.000121939
0.000121939
0.000121352
0.000121352
0.000121352
0.000126732
0.000126732
0.000126732
0.000126422
0.000126422
0.000126422
0.000127353
0.000127353
0.000127353
0.000126741
0.000126741
0.000126741
0.000126747
0.000126747
0.000126747
0.000126439
0.000126439
0.000126439
0.000127977
0.000127977
0.000127977
0.000127359
0.000127359
0.000127359
0.000127664
0.000127664
0.000127664
0.000128282
0.000128282
0.000128282
0.000128595
0.000128595
0.000128595
0.000127936
0.000127936
0.000127936
0.000128206
0.000128206
0.000128206
0.000135399
0.000135399
0.000135399
0.000131202
0.000131202
0.000131202
0.000130922
0.000130922
0.000130922
0.000130292
0.000130292
0.000130292
0.000132043
0.000132043
0.000132043
0.000131686
0.000131686
0.000131686
0.000133892
0.000133892
0.000133892
0.000137675
0.000137675
0.000137675
0.00013594
0.00013594
0.00013594
0.000129457
0.000129457
0.000129457
0.000128216
0.000128216
0.000128216
0.000128492
0.000128492
0.000128492
0.000129112
0.000129112
0.000129112
0.000129178
0.000129178
0.000129178
0.000128557
0.000128557
0.000128557
0.000126715
0.000126715
0.000126715
0.000126442
0.000126442
0.000126442
0.000127389
0.000127389
0.000127389
0.000126777
0.000126777
0.000126777
0.00012502
0.00012502
0.00012502
0.000124691
0.000124691
0.000124691
0.000126618
0.000126618
0.000126618
0.000124492
0.000124492
0.000124492
0.00012013
0.00012013
0.00012013
0.000120777
0.000120777
0.000120777
0.000120708
0.000120708
0.000120708
0.000121032
0.000121032
0.000121032
0.000112074
0.000112074
0.000112074
0.00011183
0.00011183
0.00011183
0.000112124
0.000112124
0.000112124
0.000112664
0.000112664
0.000112664
0.000115102
0.000115102
0.000115102
0.000113293
0.000113293
0.000113293
0.000112751
0.000112751
0.000112751
0.000115735
0.000115735
0.000115735
0.00011524
0.00011524
0.00011524
0.000115981
0.000115981
0.000115981
0.000129943
0.000129943
0.000129943
0.000127125
0.000127125
0.000127125
0.000127396
0.000127396
0.000127396
0.000127054
0.000127054
0.000127054
0.000126445
0.000126445
0.000126445
0.000124637
0.000124637
0.000124637
0.000125237
0.000125237
0.000125237
0.000127172
0.000127172
0.000127172
0.000127861
0.000127861
0.000127861
0.000127784
0.000127784
0.000127784
0.000128129
0.000128129
0.000128129
0.00012588
0.00012588
0.00012588
0.000126461
0.000126461
0.000126461
0.000129991
0.000129991
0.000129991
0.000131053
0.000131053
0.000131053
0.000130698
0.000130698
0.000130698
0.000132523
0.000132523
0.000132523
0.000131965
0.000131965
0.000131965
0.000132885
0.000132885
0.000132885
0.000132604
0.000132604
0.000132604
0.00013381
0.00013381
0.00013381
0.000134459
0.000134459
0.000134459
0.000134744
0.000134744
0.000134744
0.000111083
0.000111083
0.000111083
0.000111673
0.000111673
0.000111673
0.000110622
0.000110622
0.000110622
0.000110906
0.000110906
0.000110906
0.000110097
0.000110097
0.000110097
0.000111733
0.000111733
0.000111733
0.000113342
0.000113342
0.000113342
0.000112266
0.000112266
0.000112266
0.000112493
0.000112493
0.000112493
0.00011303
0.00011303
0.00011303
0.000114385
0.000114385
0.000114385
0.000115181
0.000115181
0.000115181
0.000114935
0.000114935
0.000114935
0.000114874
0.000114874
0.000114874
0.000116652
0.000116652
0.000116652
0.000116335
0.000116335
0.000116335
0.00011412
0.00011412
0.00011412
0.000113885
0.000113885
0.000113885
0.000111975
0.000111975
0.000111975
0.000111928
0.000111928
0.000111928
0.000112221
0.000112221
0.000112221
0.000110327
0.000110327
0.000110327
0.000110568
0.000110568
0.000110568
0.0001111
0.0001111
0.0001111
0.000111391
0.000111391
0.000111391
0.00011031
0.00011031
0.00011031
0.000111138
0.000111138
0.000111138
0.000110844
0.000110844
0.000110844
0.00011007
0.00011007
0.00011007
0.000111001
0.000111001
0.000111001
0.000110468
0.000110468
0.000110468
0.000113505
0.000113505
0.000113505
0.000113803
0.000113803
0.000113803
0.000117752
0.000117752
0.000117752
0.00011801
0.00011801
0.00011801
0.000116214
0.000116214
0.000116214
0.000114351
0.000114351
0.000114351
0.000114602
0.000114602
0.000114602
0.000114448
0.000114448
0.000114448
0.000115962
0.000115962
0.000115962
0.000115405
0.000115405
0.000115405
0.000115154
0.000115154
0.000115154
0.000115457
0.000115457
0.000115457
0.000113009
0.000113009
0.000113009
0.000113602
0.000113602
0.000113602
0.000113057
0.000113057
0.000113057
0.000112762
0.000112762
0.000112762
0.000113852
0.000113852
0.000113852
0.000113554
0.000113554
0.000113554
0.000112021
0.000112021
0.000112021
0.000111484
0.000111484
0.000111484
0.000111239
0.000111239
0.000111239
0.000111528
0.000111528
0.000111528
0.000113103
0.000113103
0.000113103
0.000113648
0.000113648
0.000113648
0.000113945
0.000113945
0.000113945
0.000119084
0.000119084
0.000119084
0.000119659
0.000119659
0.000119659
0.000130988
0.000130988
0.000130988
0.000128481
0.000128481
0.000128481
0.000131317
0.000131317
0.000131317
0.000131011
0.000131011
0.000131011
0.00012816
0.00012816
0.00012816
0.000128888
0.000128888
0.000128888
0.000129219
0.000129219
0.000129219
0.000126139
0.000126139
0.000126139
0.000126426
0.000126426
0.000126426
0.000126998
0.000126998
0.000126998
0.000125533
0.000125533
0.000125533
0.000125248
0.000125248
0.000125248
0.000124646
0.000124646
0.000124646
0.000124329
0.000124329
0.000124329
0.000127953
0.000127953
0.000127953
0.000127057
0.000127057
0.000127057
0.000126776
0.000126776
0.000126776
0.000126167
0.000126167
0.000126167
0.000125839
0.000125839
0.000125839
0.000123451
0.000123451
0.000123451
0.000123731
0.000123731
0.000123731
0.000125051
0.000125051
0.000125051
0.000124405
0.000124405
0.000124405
0.000126103
0.000126103
0.000126103
0.000126388
0.000126388
0.000126388
0.00012334
0.00012334
0.00012334
0.000123618
0.000123618
0.000123618
0.000125131
0.000125131
0.000125131
0.000125735
0.000125735
0.000125735
0.000124773
0.000124773
0.000124773
0.000120132
0.000120132
0.000120132
0.0001488
0.0001488
0.0001488
0.000148417
0.000148417
0.000148417
0.000148442
0.000148442
0.000148442
0.000140693
0.000140693
0.000140693
0.000142053
0.000142053
0.000142053
0.000141385
0.000141385
0.000141385
0.000147652
0.000147652
0.000147652
0.000147597
0.000147597
0.000147597
0.000147837
0.000147837
0.000147837
0.000131343
0.000131343
0.000131343
0.00013106
0.00013106
0.00013106
0.00013141
0.00013141
0.00013141
0.000132046
0.000132046
0.000132046
0.000130494
0.000130494
0.000130494
0.000131126
0.000131126
0.000131126
0.000148359
0.000148359
0.000148359
0.000147624
0.000147624
0.000147624
0.000148712
0.000148712
0.000148712
0.000148326
0.000148326
0.000148326
0.000147556
0.000147556
0.000147556
0.000147172
0.000147172
0.000147172
0.000146444
0.000146444
0.000146444
0.000146405
0.000146405
0.000146405
0.000146063
0.000146063
0.000146063
0.000145004
0.000145004
0.000145004
0.000145343
0.000145343
0.000145343
0.000148511
0.000148511
0.000148511
0.000147719
0.000147719
0.000147719
0.000137101
0.000137101
0.000137101
0.000135772
0.000135772
0.000135772
0.000146896
0.000146896
0.000146896
0.000147302
0.000147302
0.000147302
0.000146574
0.000146574
0.000146574
0.000147682
0.000147682
0.000147682
0.000116981
0.000116981
0.000116981
0.000115817
0.000115817
0.000115817
0.000114212
0.000114212
0.000114212
0.000114229
0.000114229
0.000114229
0.000114496
0.000114496
0.000114496
0.000115892
0.000115892
0.000115892
0.000115049
0.000115049
0.000115049
0.000115335
0.000115335
0.000115335
0.000114479
0.000114479
0.000114479
0.000113711
0.000113711
0.000113711
0.000115085
0.000115085
0.000115085
0.000115642
0.000115642
0.000115642
0.000110972
0.000110972
0.000110972
0.000112329
0.000112329
0.000112329
0.00011179
0.00011179
0.00011179
0.000111506
0.000111506
0.000111506
0.000113415
0.000113415
0.000113415
0.000112389
0.000112389
0.000112389
0.00011185
0.00011185
0.00011185
0.000122237
0.000122237
0.000122237
0.000121946
0.000121946
0.000121946
0.000122244
0.000122244
0.000122244
0.000120489
0.000120489
0.000120489
0.000121071
0.000121071
0.000121071
0.000120195
0.000120195
0.000120195
0.000120482
0.000120482
0.000120482
0.00012136
0.00012136
0.00012136
0.000121064
0.000121064
0.000121064
0.000124616
0.000124616
0.000124616
0.000124008
0.000124008
0.000124008
0.000124327
0.000124327
0.000124327
0.000124927
0.000124927
0.000124927
0.000124624
0.000124624
0.000124624
0.000143143
0.000143143
0.000143143
0.000137932
0.000137932
0.000137932
0.000139287
0.000139287
0.000139287
0.000135828
0.000135828
0.000135828
0.00013517
0.00013517
0.00013517
0.000135635
0.000135635
0.000135635
0.000133672
0.000133672
0.000133672
0.000133023
0.000133023
0.000133023
0.000137633
0.000137633
0.000137633
0.000138298
0.000138298
0.000138298
0.000138976
0.000138976
0.000138976
0.000138305
0.000138305
0.000138305
0.000137965
0.000137965
0.000137965
0.000138276
0.000138276
0.000138276
0.000138954
0.000138954
0.000138954
0.000139997
0.000139997
0.000139997
0.000139312
0.000139312
0.000139312
0.000138967
0.000138967
0.000138967
0.000139301
0.000139301
0.000139301
0.000142346
0.000142346
0.000142346
0.000120188
0.000120188
0.000120188
0.000119609
0.000119609
0.000119609
0.000125516
0.000125516
0.000125516
0.000125814
0.000125814
0.000125814
0.000124913
0.000124913
0.000124913
0.000124607
0.000124607
0.000124607
0.000126722
0.000126722
0.000126722
0.000131742
0.000131742
0.000131742
0.000132057
0.000132057
0.000132057
0.00013238
0.00013238
0.00013238
0.000132374
0.000132374
0.000132374
0.000132049
0.000132049
0.000132049
0.000128588
0.000128588
0.000128588
0.000129211
0.000129211
0.000129211
0.000131389
0.000131389
0.000131389
0.000127345
0.000127345
0.000127345
0.00012858
0.00012858
0.00012858
0.000127657
0.000127657
0.000127657
0.000128275
0.000128275
0.000128275
0.00013697
0.00013697
0.00013697
0.000136305
0.000136305
0.000136305
0.000132759
0.000132759
0.000132759
0.000134828
0.000134828
0.000134828
0.000134542
0.000134542
0.000134542
0.000132965
0.000132965
0.000132965
0.000133609
0.000133609
0.000133609
0.000132682
0.000132682
0.000132682
0.000133042
0.000133042
0.000133042
0.000133117
0.000133117
0.000133117
0.000133763
0.000133763
0.000133763
0.00013672
0.00013672
0.00013672
0.000137387
0.000137387
0.000137387
0.000126379
0.000126379
0.000126379
0.000126651
0.000126651
0.000126651
0.000126314
0.000126314
0.000126314
0.000125709
0.000125709
0.000125709
0.000125439
0.000125439
0.000125439
0.000125773
0.000125773
0.000125773
0.000126503
0.000126503
0.000126503
0.000125896
0.000125896
0.000125896
0.000125954
0.000125954
0.000125954
0.000125623
0.000125623
0.000125623
0.000127726
0.000127726
0.000127726
0.000128683
0.000128683
0.000128683
0.000128343
0.000128343
0.000128343
0.000125077
0.000125077
0.000125077
0.000124748
0.000124748
0.000124748
0.000124804
0.000124804
0.000124804
0.000121031
0.000121031
0.000121031
0.000120451
0.000120451
0.000120451
0.000123447
0.000123447
0.000123447
0.000124157
0.000124157
0.000124157
0.000124566
0.000124566
0.000124566
0.000124231
0.000124231
0.000124231
0.000124303
0.000124303
0.000124303
0.000123709
0.000123709
0.000123709
0.000121543
0.000121543
0.000121543
0.000120637
0.000120637
0.000120637
0.000120962
0.000120962
0.000120962
0.000118983
0.000118983
0.000118983
0.000117529
0.000117529
0.000117529
0.000118095
0.000118095
0.000118095
0.000118414
0.000118414
0.000118414
0.000118163
0.000118163
0.000118163
0.000116539
0.000116539
0.000116539
0.000112561
0.000112561
0.000112561
0.000111969
0.000111969
0.000111969
0.000112508
0.000112508
0.000112508
0.000112805
0.000112805
0.000112805
0.000112858
0.000112858
0.000112858
0.00011291
0.00011291
0.00011291
0.000112614
0.000112614
0.000112614
0.000113402
0.000113402
0.000113402
0.000112452
0.000112452
0.000112452
0.000111618
0.000111618
0.000111618
0.000111914
0.000111914
0.000111914
0.000112693
0.000112693
0.000112693
0.000114139
0.000114139
0.000114139
0.000113593
0.000113593
0.000113593
0.000113348
0.000113348
0.000113348
0.000113648
0.000113648
0.000113648
0.000116406
0.000116406
0.000116406
0.000115848
0.000115848
0.000115848
0.000115672
0.000115672
0.000115672
0.000115118
0.000115118
0.000115118
0.000115605
0.000115605
0.000115605
0.000115917
0.000115917
0.000115917
0.000129319
0.000129319
0.000129319
0.00012808
0.00012808
0.00012808
0.000128424
0.000128424
0.000128424
0.000129043
0.000129043
0.000129043
0.000128009
0.000128009
0.000128009
0.000129247
0.000129247
0.000129247
0.000128353
0.000128353
0.000128353
0.000128973
0.000128973
0.000128973
0.000128281
0.000128281
0.000128281
0.0001289
0.0001289
0.0001289
0.00013085
0.00013085
0.00013085
0.000130221
0.000130221
0.000130221
0.000129871
0.000129871