<VTKFile type="UnstructuredGrid" version="1.0">
<UnstructuredGrid>
<Piece NumberOfPoints="8859" NumberOfCells="2953">
<Points>
<DataArray type="Float64" NumberOfComponents="3" format="ascii">
0.5 3.01 11.4
0.512524 3.01 11.4225
0.487476 3.01 11.4225
0.17352 3.01 10.5225
0.160827 3.01 10.5442
0.148445 3.01 10.5225
0.122979 3.01 10.5659
0.110383 3.01 10.5442
0.135644 3.01 10.5442
0.135644 3.01 10.5442
0.110383 3.01 10.5442
0.123433 3.01 10.5225
0.123433 3.01 10.5225
0.148445 3.01 10.5225
0.135644 3.01 10.5442
0.135644 3.01 10.5442
0.148445 3.01 10.5225
0.160827 3.01 10.5442
0.17352 3.01 10.5225
0.198629 3.01 10.5225
0.185985 3.01 10.5442
0.185985 3.01 10.5442
0.160827 3.01 10.5442
0.17352 3.01 10.5225
0.0732297 3.01 10.5657
0.0586606 3.01 10.5438
0.0848754 3.01 10.5441
0.05 3.01 11.3553
0.05 3.01 11.3101
0.058509 3.01 11.3326
0.324276 3.01 10.5225
0.349395 3.01 10.5225
0.336827 3.01 10.5442
0.148138 3.01 10.5659
0.135644 3.01 10.5442
0.160827 3.01 10.5442
0.122979 3.01 10.5659
0.135644 3.01 10.5442
0.148138 3.01 10.5659
0.160827 3.01 10.5442
0.185985 3.01 10.5442
0.173316 3.01 10.5659
0.185806 3.01 10.5875
0.160572 3.01 10.5876
0.173316 3.01 10.5659
0.173316 3.01 10.5659
0.148138 3.01 10.5659
0.160827 3.01 10.5442
0.160572 3.01 10.5876
0.148138 3.01 10.5659
0.173316 3.01 10.5659
0.211137 3.01 10.5442
0.185985 3.01 10.5442
0.198629 3.01 10.5225
0.0979162 3.01 10.5658
0.110383 3.01 10.5442
0.122979 3.01 10.5659
0.122979 3.01 10.5659
0.109875 3.01 10.5875
0.0979162 3.01 10.5658
0.0732297 3.01 10.5657
0.0848754 3.01 10.5441
0.0979162 3.01 10.5658
0.0979162 3.01 10.5658
0.0848754 3.01 10.5441
0.110383 3.01 10.5442
0.0975729 3.01 10.609
0.109875 3.01 10.5875
0.122678 3.01 10.6091
0.0841718 3.01 10.5873
0.0577122 3.01 10.587
0.0732297 3.01 10.5657
0.0729308 3.01 10.6089
0.0577122 3.01 10.587
0.0841718 3.01 10.5873
0.0732297 3.01 10.5657
0.0979162 3.01 10.5658
0.0841718 3.01 10.5873
0.0841718 3.01 10.5873
0.0979162 3.01 10.5658
0.109875 3.01 10.5875
0.0975729 3.01 10.609
0.0729308 3.01 10.6089
0.0841718 3.01 10.5873
0.0841718 3.01 10.5873
0.109875 3.01 10.5875
0.0975729 3.01 10.609
0.073948 3.01 10.5225
0.0586606 3.01 10.5438
0.05 3.01 10.5225
0.073948 3.01 10.5225
0.0848754 3.01 10.5441
0.0586606 3.01 10.5438
0.05 3.01 11.3983
0.05 3.01 11.3553
0.0603641 3.01 11.377
0.0603641 3.01 11.377
0.0753197 3.01 11.399
0.05 3.01 11.3983
0.0709395 3.01 11.4225
0.05 3.01 11.4225
0.05 3.01 11.3983
0.05 3.01 11.3983
0.0753197 3.01 11.399
0.0709395 3.01 11.4225
0.0579641 3.01 11.1096
0.05 3.01 11.1317
0.05 3.01 11.0876
0.0841948 3.01 11.0218
0.097638 3.01 10.9999
0.109814 3.01 11.0218
0.0841948 3.01 11.0218
0.0730539 3.01 11.0437
0.0578646 3.01 11.0218
0.0580261 3.01 11.1538
0.05 3.01 11.1759
0.05 3.01 11.1317
0.942292 3.01 10.7174
0.95 3.01 10.6957
0.95 3.01 10.739
0.95 3.01 10.6523
0.95 3.01 10.6957
0.942332 3.01 10.674
0.73872 3.01 10.9345
0.726137 3.01 10.9128
0.75132 3.01 10.9128
0.751305 3.01 10.9563
0.726124 3.01 10.9563
0.73872 3.01 10.9345
0.713546 3.01 10.9345
0.726137 3.01 10.9128
0.73872 3.01 10.9345
0.73872 3.01 10.9345
0.726124 3.01 10.9563
0.713546 3.01 10.9345
0.814318 3.01 10.9781
0.789096 3.01 10.9781
0.801709 3.01 10.9563
0.7765 3.01 10.9563
0.789115 3.01 10.9345
0.801709 3.01 10.9563
0.801709 3.01 10.9563
0.789096 3.01 10.9781
0.7765 3.01 10.9563
0.7765 3.01 10.9563
0.789096 3.01 10.9781
0.763892 3.01 10.9781
0.763892 3.01 10.9781
0.751305 3.01 10.9563
0.7765 3.01 10.9563
0.95 3.01 11.4225
0.929061 3.01 11.4225
0.95 3.01 11.3983
0.95 3.01 11.2204
0.926844 3.01 11.2204
0.941913 3.01 11.1982
0.941913 3.01 11.1982
0.95 3.01 11.1759
0.95 3.01 11.2204
0.926866 3.01 11.1759
0.95 3.01 11.1759
0.941913 3.01 11.1982
0.941974 3.01 11.1538
0.95 3.01 11.1759
0.926866 3.01 11.1759
0.95 3.01 11.1317
0.95 3.01 11.1759
0.941974 3.01 11.1538
0.941974 3.01 11.1538
0.926895 3.01 11.1317
0.95 3.01 11.1317
0.6127 3.01 11.4225
0.625238 3.01 11.4
0.637734 3.01 11.4225
0.662757 3.01 11.4225
0.637734 3.01 11.4225
0.650275 3.01 11.4
0.650275 3.01 11.4
0.637734 3.01 11.4225
0.625238 3.01 11.4
0.600415 3.01 10.9564
0.587856 3.01 10.9782
0.575304 3.01 10.9564
0.575304 3.01 10.9564
0.587856 3.01 10.9782
0.562749 3.01 10.9782
0.336827 3.01 10.5442
0.349395 3.01 10.5225
0.361946 3.01 10.5442
0.223755 3.01 10.5225
0.211137 3.01 10.5442
0.198629 3.01 10.5225
0.185985 3.01 10.5442
0.211137 3.01 10.5442
0.198492 3.01 10.5659
0.185806 3.01 10.5875
0.173316 3.01 10.5659
0.198492 3.01 10.5659
0.198492 3.01 10.5659
0.173316 3.01 10.5659
0.185985 3.01 10.5442
0.0576202 3.01 10.6305
0.05 3.01 10.6523
0.05 3.01 10.6087
0.05 3.01 10.6087
0.0729308 3.01 10.6089
0.0576202 3.01 10.6305
0.05 3.01 10.6087
0.0577122 3.01 10.587
0.0729308 3.01 10.6089
0.135283 3.01 10.5875
0.109875 3.01 10.5875
0.122979 3.01 10.5659
0.135283 3.01 10.5875
0.122678 3.01 10.6091
0.109875 3.01 10.5875
0.122979 3.01 10.5659
0.148138 3.01 10.5659
0.135283 3.01 10.5875
0.135283 3.01 10.5875
0.148138 3.01 10.5659
0.160572 3.01 10.5876
0.123433 3.01 10.5225
0.110383 3.01 10.5442
0.0985513 3.01 10.5225
0.110383 3.01 10.5442
0.0848754 3.01 10.5441
0.0985513 3.01 10.5225
0.0848754 3.01 10.5441
0.073948 3.01 10.5225
0.0985513 3.01 10.5225
0.0603641 3.01 11.377
0.05 3.01 11.3553
0.0739464 3.01 11.3545
0.0739464 3.01 11.3545
0.05 3.01 11.3553
0.058509 3.01 11.3326
0.058509 3.01 11.3326
0.0849548 3.01 11.3321
0.0739464 3.01 11.3545
0.058509 3.01 11.3326
0.05 3.01 11.3101
0.0732725 3.01 11.3099
0.0732725 3.01 11.3099
0.0849548 3.01 11.3321
0.058509 3.01 11.3326
0.5 3.01 11.4
0.487476 3.01 11.4225
0.47495 3.01 11.4
0.097663 3.01 11.0437
0.0841948 3.01 11.0218
0.109814 3.01 11.0218
0.0730539 3.01 11.0437
0.0841948 3.01 11.0218
0.097663 3.01 11.0437
0.0578646 3.01 11.0218
0.0730539 3.01 11.0437
0.05 3.01 11.0437
0.05 3.01 11.0437
0.05 3.01 10.9999
0.0578646 3.01 11.0218
0.05 3.01 11.2204
0.05 3.01 11.1759
0.0580869 3.01 11.1982
0.05 3.01 11.1759
0.0580261 3.01 11.1538
0.073134 3.01 11.1759
0.073134 3.01 11.1759
0.0580869 3.01 11.1982
0.05 3.01 11.1759
0.942268 3.01 10.7607
0.95 3.01 10.739
0.95 3.01 10.7824
0.942292 3.01 10.7174
0.95 3.01 10.739
0.927025 3.01 10.739
0.927025 3.01 10.739
0.942268 3.01 10.7607
0.915919 3.01 10.7607
0.95 3.01 10.739
0.942268 3.01 10.7607
0.927025 3.01 10.739
0.927013 3.01 10.7824
0.942268 3.01 10.7607
0.95 3.01 10.7824
0.915919 3.01 10.7607
0.942268 3.01 10.7607
0.927013 3.01 10.7824
0.801738 3.01 10.8693
0.814364 3.01 10.8475
0.826957 3.01 10.8692
0.852174 3.01 10.8692
0.826957 3.01 10.8692
0.839609 3.01 10.8475
0.839609 3.01 10.8475
0.826957 3.01 10.8692
0.814364 3.01 10.8475
0.776516 3.01 10.9127
0.75132 3.01 10.9128
0.763923 3.01 10.891
0.776516 3.01 10.9127
0.801725 3.01 10.9127
0.789115 3.01 10.9345
0.738704 3.01 10.9781
0.751305 3.01 10.9563
0.763892 3.01 10.9781
0.726124 3.01 10.9563
0.751305 3.01 10.9563
0.738704 3.01 10.9781
0.915617 3.01 11.1981
0.902228 3.01 11.1759
0.926866 3.01 11.1759
0.926866 3.01 11.1759
0.941913 3.01 11.1982
0.915617 3.01 11.1981
0.915617 3.01 11.1981
0.941913 3.01 11.1982
0.926844 3.01 11.2204
0.915617 3.01 11.1981
0.926844 3.01 11.2204
0.902193 3.01 11.2204
0.926866 3.01 11.1759
0.902228 3.01 11.1759
0.915668 3.01 11.1538
0.902267 3.01 11.1317
0.926895 3.01 11.1317
0.915668 3.01 11.1538
0.915668 3.01 11.1538
0.941974 3.01 11.1538
0.926866 3.01 11.1759
0.926895 3.01 11.1317
0.941974 3.01 11.1538
0.915668 3.01 11.1538
0.902267 3.01 11.1317
0.915668 3.01 11.1538
0.890059 3.01 11.1538
0.890059 3.01 11.1538
0.915668 3.01 11.1538
0.902228 3.01 11.1759
0.826927 3.01 10.9563
0.814318 3.01 10.9781
0.801709 3.01 10.9563
0.864816 3.01 11.0218
0.877308 3.01 10.9999
0.890186 3.01 11.0218
0.877308 3.01 10.9999
0.864816 3.01 11.0218
0.852122 3.01 10.9999
0.890186 3.01 11.0218
0.877308 3.01 10.9999
0.902362 3.01 10.9999
0.902362 3.01 10.9999
0.915805 3.01 11.0218
0.890186 3.01 11.0218
0.902362 3.01 10.9999
0.926964 3.01 10.9999
0.915805 3.01 11.0218
0.915835 3.01 10.9781
0.926964 3.01 10.9999
0.902362 3.01 10.9999
0.942171 3.01 10.9781
0.926964 3.01 10.9999
0.915835 3.01 10.9781
0.915835 3.01 10.9781
0.926978 3.01 10.9563
0.942171 3.01 10.9781
0.942171 3.01 10.9781
0.926978 3.01 10.9563
0.95 3.01 10.9563
0.87737 3.01 10.8258
0.890277 3.01 10.8041
0.902417 3.01 10.8258
0.852144 3.01 10.9563
0.877329 3.01 10.9563
0.864842 3.01 10.9781
0.877308 3.01 10.9999
0.852122 3.01 10.9999
0.864842 3.01 10.9781
0.902396 3.01 10.9127
0.915858 3.01 10.9345
0.890234 3.01 10.9345
0.926997 3.01 10.8692
0.942237 3.01 10.8475
0.95 3.01 10.8692
0.91589 3.01 10.8475
0.942237 3.01 10.8475
0.926997 3.01 10.8692
0.942199 3.01 10.9345
0.95 3.01 10.9127
0.95 3.01 10.9563
0.95 3.01 10.9563
0.926978 3.01 10.9563
0.942199 3.01 10.9345
0.942199 3.01 10.9345
0.926978 3.01 10.9563
0.915858 3.01 10.9345
0.95 3.01 10.8692
0.95 3.01 10.9127
0.942221 3.01 10.891
0.942221 3.01 10.891
0.926997 3.01 10.8692
0.95 3.01 10.8692
0.915876 3.01 10.891
0.926997 3.01 10.8692
0.942221 3.01 10.891
0.926989 3.01 10.9127
0.915858 3.01 10.9345
0.902396 3.01 10.9127
0.902396 3.01 10.9127
0.915876 3.01 10.891
0.926989 3.01 10.9127
0.926989 3.01 10.9127
0.942199 3.01 10.9345
0.915858 3.01 10.9345
0.95 3.01 10.9127
0.942199 3.01 10.9345
0.926989 3.01 10.9127
0.915876 3.01 10.891
0.942221 3.01 10.891
0.926989 3.01 10.9127
0.926989 3.01 10.9127
0.942221 3.01 10.891
0.95 3.01 10.9127
0.91353 3.01 11.3769
0.926054 3.01 11.3545
0.939636 3.01 11.377
0.926728 3.01 11.3099
0.95 3.01 11.3101
0.941491 3.01 11.3326
0.926728 3.01 11.3099
0.941822 3.01 11.2875
0.95 3.01 11.3101
0.95 3.01 11.3553
0.95 3.01 11.3983
0.939636 3.01 11.377
0.95 3.01 11.3553
0.926054 3.01 11.3545
0.941491 3.01 11.3326
0.939636 3.01 11.377
0.926054 3.01 11.3545
0.95 3.01 11.3553
0.941491 3.01 11.3326
0.95 3.01 11.3101
0.95 3.01 11.3553
0.941869 3.01 11.2427
0.926844 3.01 11.2204
0.95 3.01 11.2204
0.762942 3.01 11.3773
0.75028 3.01 11.3999
0.737933 3.01 11.3773
0.71291 3.01 11.3774
0.725533 3.01 11.3549
0.737933 3.01 11.3773
0.71291 3.01 11.3774
0.737933 3.01 11.3773
0.725313 3.01 11.3999
0.725313 3.01 11.3999
0.737933 3.01 11.3773
[...]
<PointData Scalars="View Factor" >
<DataArray type="Float64" Name="View Factor" NumberOfComponents="1" format="ascii">
0.000305466
0.000305466
0.000305466
0.0004367
0.0004367
0.0004367
0.000432862
0.000432862
0.000432862
0.000435479
0.000435479
0.000435479
0.000436766
0.000436766
0.000436766
0.000435418
0.000435418
0.000435418
0.000436622
0.000436622
0.000436622
0.000435346
0.000435346
0.000435346
0.000432993
0.000432993
0.000432993
0.000316643
0.000316643
0.000316643
0.000435915
0.000435915
0.000435915
0.000432801
0.000432801
0.000432801
0.000431533
0.000431533
0.000431533
0.000432731
0.000432731
0.000432731
0.000427565
0.000427565
0.000427565
0.000431468
0.000431468
0.000431468
0.000428884
0.000428884
0.000428884
0.000435264
0.000435264
0.000435264
0.000431592
0.000431592
0.000431592
0.000429012
0.000429012
0.000429012
0.000431653
0.000431653
0.000431653
0.00043292
0.00043292
0.00043292
0.000423914
0.000423914
0.000423914
0.000427838
0.000427838
0.000427838
0.00042529
0.00042529
0.00042529
0.000429077
0.000429077
0.000429077
0.000427763
0.000427763
0.000427763
0.00042398
0.00042398
0.00042398
0.000425215
0.000425215
0.000425215
0.000436925
0.000436925
0.000436925
0.000435598
0.000435598
0.000435598
0.000311305
0.000311305
0.000311305
0.000309565
0.000309565
0.000309565
0.000306853
0.000306853
0.000306853
0.000307768
0.000307768
0.000307768
0.000345383
0.000345383
0.000345383
0.000358586
0.000358586
0.000358586
0.000356543
0.000356543
0.000356543
0.00033944
0.00033944
0.00033944
0.000397193
0.000397193
0.000397193
0.000404269
0.000404269
0.000404269
0.000368578
0.000368578
0.000368578
0.000364335
0.000364335
0.000364335
0.00036764
0.00036764
0.00036764
0.000365518
0.000365518
0.000365518
0.000360531
0.000360531
0.000360531
0.000363806
0.000363806
0.000363806
0.000361709
0.000361709
0.000361709
0.0003608
0.0003608
0.0003608
0.000361976
0.000361976
0.000361976
0.000302151
0.000302151
0.000302151
0.000326442
0.000326442
0.000326442
0.000328235
0.000328235
0.000328235
0.000330213
0.000330213
0.000330213
0.000332114
0.000332114
0.000332114
0.000333936
0.000333936
0.000333936
0.000335949
0.000335949
0.000335949
0.000304717
0.000304717
0.000304717
0.000304548
0.000304548
0.000304548
0.000305506
0.000305506
0.000305506
0.000363602
0.000363602
0.000363602
0.00036265
0.00036265
0.00036265
0.000434528
0.000434528
0.000434528
0.000436533
0.000436533
0.000436533
0.00043265
0.00043265
0.00043265
0.000428809
0.000428809
0.000428809
0.000431392
0.000431392
0.000431392
0.000419005
0.000419005
0.000419005
0.00042151
0.00042151
0.00042151
0.000424048
0.000424048
0.000424048
0.0004277
0.0004277
0.0004277
0.00042515
0.00042515
0.00042515
0.000428951
0.000428951
0.000428951
0.000427636
0.000427636
0.000427636
0.000436822
0.000436822
0.000436822
0.000435534
0.000435534
0.000435534
0.000436871
0.000436871
0.000436871
0.000313051
0.000313051
0.000313051
0.000314839
0.000314839
0.000314839
0.000315768
0.000315768
0.000315768
0.000318492
0.000318492
0.000318492
0.000317583
0.000317583
0.000317583
0.000306408
0.000306408
0.000306408
0.000356514
0.000356514
0.000356514
0.000355498
0.000355498
0.000355498
0.000355522
0.000355522
0.000355522
0.000357593
0.000357593
0.000357593
0.0003336
0.0003336
0.0003336
0.000337479
0.000337479
0.000337479
0.000335532
0.000335532
0.000335532
0.000390274
0.000390274
0.000390274
0.000394983
0.000394983
0.000394983
0.000391692
0.000391692
0.000391692
0.000392676
0.000392676
0.000392676
0.000388111
0.000388111
0.000388111
0.000389408
0.000389408
0.000389408
0.000376386
0.000376386
0.000376386
0.000376085
0.000376085
0.000376085
0.000377331
0.000377331
0.000377331
0.000370454
0.000370454
0.000370454
0.00036804
0.00036804
0.00036804
0.000361061
0.000361061
0.000361061
0.000362233
0.000362233
0.000362233
0.000330488
0.000330488
0.000330488
0.000329394
0.000329394
0.000329394
0.000327508
0.000327508
0.000327508
0.000326714
0.000326714
0.000326714
0.000332391
0.000332391
0.000332391
0.000336231
0.000336231
0.000336231
0.000333199
0.000333199
0.000333199
0.000335117
0.000335117
0.000335117
0.000335403
0.000335403
0.000335403
0.000333483
0.000333483
0.000333483
0.000361435
0.000361435
0.000361435
0.000353507
0.000353507
0.000353507
0.000354672
0.000354672
0.000354672
0.00035438
0.00035438
0.00035438
0.000353209
0.000353209
0.000353209
0.00035408
0.00035408
0.00035408
0.000356124
0.000356124
0.000356124
0.000356987
0.000356987
0.000356987
0.000359049
0.000359049
0.000359049
0.000359941
0.000359941
0.000359941
0.000382059
0.000382059
0.000382059
0.000360859
0.000360859
0.000360859
0.000356722
0.000356722
0.000356722
0.00036564
0.00036564
0.00036564
0.000374799
0.000374799
0.000374799
0.000376041
0.000376041
0.000376041
0.000364016
0.000364016
0.000364016
0.000362022
0.000362022
0.000362022
0.000363213
0.000363213
0.000363213
0.00037038
0.00037038
0.00037038
0.000372634
0.000372634
0.000372634
0.000371708
0.000371708
0.000371708
0.000366543
0.000366543
0.000366543
0.000368668
0.000368668
0.000368668
0.000365316
0.000365316
0.000365316
0.000366225
0.000366225
0.000366225
0.000369563
0.000369563
0.000369563
0.000368347
0.000368347
0.000368347
0.000307535
0.000307535
0.000307535
0.000313566
0.000313566
0.000313566
0.000315375
0.000315375
0.000315375
0.000306465
0.000306465
0.000306465
0.000309998
0.000309998
0.000309998
0.000308257
0.000308257
0.000308257
0.000311674
0.000311674
0.000311674
0.000324573
0.000324573
0.000324573
0.000307317
0.000307317
0.000307317
0.00030928
0.00030928
0.00030928
0.00030751
0.00030751
0.00030751
0.000306533
0.000306533
0.000306533
0.000304003
0.000304003
0.000304003
0.00030478
0.00030478
0.00030478
0.00030381
0.00030381
0.00030381
0.000316034
0.000316034
0.000316034
0.000312852
0.000312852
0.000312852
0.000310264
0.000310264
0.000310264
0.000312051
0.000312051
0.000312051
0.000310632
0.000310632
0.000310632
0.000312421
0.000312421
0.000312421
0.000307429
0.000307429
0.000307429
0.000305673
0.000305673
0.000305673
0.00030488
0.00030488
0.00030488
0.000367778
0.000367778
0.000367778
0.000362448
0.000362448
0.000362448
0.000356595
0.000356595
0.000356595
0.000354351
0.000354351
0.000354351
0.000356406
0.000356406
0.000356406
0.000357534
0.000357534
0.000357534
0.000360556
0.000360556
0.000360556
0.00035961
0.00035961
0.00035961
0.000354538
0.000354538
0.000354538
0.000353422
0.000353422
0.000353422
0.000342455
0.000342455
0.000342455
0.000355571
0.000355571
0.000355571
0.000356712
0.000356712
0.000356712
0.000358455
0.000358455
0.000358455
0.000354344
0.000354344
0.000354344
0.000436196
0.000436196
0.000436196
0.00043632
0.00043632
0.00043632
0.000434947
0.000434947
0.000434947
0.000432338
0.000432338
0.000432338
0.000431243
0.000431243
0.000431243
0.000374497
0.000374497
0.000374497
0.000370178
0.000370178
0.000370178
0.000373553
0.000373553
0.000373553
0.000371392
0.000371392
0.000371392
0.000371665
0.000371665
0.000371665
0.000370721
0.000370721
0.000370721
0.000430979
0.000430979
0.000430979
0.000435757
0.000435757
0.000435757
0.000433287
0.000433287
0.000433287
0.000397561
0.000397561
0.000397561
0.000398797
0.000398797
0.000398797
0.000426627
0.000426627
0.000426627
0.000434351
0.000434351
0.000434351
0.000431748
0.000431748
0.000431748
0.00042917
0.00042917
0.00042917
0.000314872
0.000314872
0.000314872
0.000305596
0.000305596
0.000305596
0.000343386
0.000343386
0.000343386
0.000341406
0.000341406
0.000341406
0.000353445
0.000353445
0.000353445
0.000416109
0.000416109
0.000416109
0.000343333
0.000343333
0.000343333
0.000341353
0.000341353
0.000341353
0.000359609
0.000359609
0.000359609
0.000358548
0.000358548
0.000358548
0.000361734
0.000361734
0.000361734
0.000359642
0.000359642
0.000359642
0.000359667
0.000359667
0.000359667
0.000358615
0.000358615
0.000358615
0.000363869
0.000363869
0.000363869
0.000361759
0.000361759
0.000361759
0.000362799
0.000362799
0.000362799
0.000364911
0.000364911
0.000364911
0.000365983
0.000365983
0.000365983
0.000362948
0.000362948
0.000362948
0.000363845
0.000363845
0.000363845
0.000388458
0.000388458
0.000388458
0.000374207
0.000374207
0.000374207
0.000373269
0.000373269
0.000373269
0.00037111
0.00037111
0.00037111
0.000377024
0.000377024
0.000377024
0.000375774
0.000375774
0.000375774
0.000383337
0.000383337
0.000383337
0.000396309
0.000396309
0.000396309
0.000390674
0.000390674
0.000390674
0.000368313
0.000368313
0.000368313
0.000364075
0.000364075
0.000364075
0.000364995
0.000364995
0.000364995
0.000367113
0.000367113
0.000367113
0.000367381
0.000367381
0.000367381
0.000365261
0.000365261
0.000365261
0.000358981
0.000358981
0.000358981
0.000358071
0.000358071
0.000358071
0.000361313
0.000361313
0.000361313
0.000359231
0.000359231
0.000359231
0.000353297
0.000353297
0.000353297
0.000352162
0.000352162
0.000352162
0.00035878
0.00035878
0.00035878
0.000351183
0.000351183
0.000351183
0.000336509
0.000336509
0.000336509
0.000338721
0.000338721
0.000338721
0.000338448
0.000338448
0.000338448
0.000339559
0.000339559
0.000339559
0.000309875
0.000309875
0.000309875
0.000309086
0.000309086
0.000309086
0.000310072
0.000310072
0.000310072
0.000311857
0.000311857
0.000311857
0.000319922
0.000319922
0.000319922
0.000313823
0.000313823
0.000313823
0.00031203
0.00031203
0.00031203
0.000321905
0.000321905
0.000321905
0.000320297
0.000320297
0.000320297
0.000322707
0.000322707
0.000322707
0.000369893
0.000369893
0.000369893
0.000360253
0.000360253
0.000360253
0.000361151
0.000361151
0.000361151
0.000359966
0.000359966
0.000359966
0.000357896
0.000357896
0.000357896
0.000351763
0.000351763
0.000351763
0.000353795
0.000353795
0.000353795
0.000360251
0.000360251
0.000360251
0.000362645
0.000362645
0.000362645
0.000362335
0.000362335
0.000362335
0.000363535
0.000363535
0.000363535
0.000355818
0.000355818
0.000355818
0.000357775
0.000357775
0.000357775
0.000369893
0.000369893
0.000369893
0.000373601
0.000373601
0.000373601
0.000372362
0.000372362
0.000372362
0.000378572
0.000378572
0.000378572
0.000376707
0.000376707
0.000376707
0.000379842
0.000379842
0.000379842
0.000378901
0.000378901
0.000378901
0.000383002
0.000383002
0.000383002
0.00038524
0.00038524
0.00038524
0.000386198
0.000386198
0.000386198
0.000306496
0.000306496
0.000306496
0.000308474
0.000308474
0.000308474
0.000304854
0.000304854
0.000304854
0.000305805
0.000305805
0.000305805
0.000303135
0.000303135
0.000303135
0.000308547
0.000308547
0.000308547
0.000313857
0.000313857
0.000313857
0.000310305
0.000310305
0.000310305
0.000311034
0.000311034
0.000311034
0.000312807
0.000312807
0.000312807
0.000317439
0.000317439
0.000317439
0.000320064
0.000320064
0.000320064
0.000319265
0.000319265
0.000319265
0.000319027
0.000319027
0.000319027
0.000324842
0.000324842
0.000324842
0.000323767
0.000323767
0.000323767
0.000316413
0.000316413
0.000316413
0.000315655
0.000315655
0.000315655
0.000309652
0.000309652
0.000309652
0.000309469
0.000309469
0.000309469
0.000310451
0.000310451
0.000310451
0.000304191
0.000304191
0.000304191
0.00030497
0.00030497
0.00030497
0.000306724
0.000306724
0.000306724
0.000307698
0.000307698
0.000307698
0.000303969
0.000303969
0.000303969
0.000306709
0.000306709
0.000306709
0.000305725
0.000305725
0.000305725
0.000303198
0.000303198
0.000303198
0.000306338
0.000306338
0.000306338
0.000304584
0.000304584
0.000304584
0.000314654
0.000314654
0.000314654
0.000315657
0.000315657
0.000315657
0.000328835
0.000328835
0.000328835
0.000329681
0.000329681
0.000329681
0.000323622
0.000323622
0.000323622
0.000317477
0.000317477
0.000317477
0.000318292
0.000318292
0.000318292
0.000317857
0.000317857
0.000317857
0.000322798
0.000322798
0.000322798
0.000320947
0.000320947
0.000320947
0.000320127
0.000320127
0.000320127
0.00032115
0.00032115
0.00032115
0.000313043
0.000313043
0.000313043
0.000315035
0.000315035
0.000315035
0.000313229
0.000313229
0.000313229
0.000312239
0.000312239
0.000312239
0.000315848
0.000315848
0.000315848
0.000314847
0.000314847
0.000314847
0.00030983
0.00030983
0.00030983
0.000308058
0.000308058
0.000308058
0.000307262
0.000307262
0.000307262
0.000308228
0.000308228
0.000308228
0.00031341
0.00031341
0.00031341
0.000315217
0.000315217
0.000315217
0.000316213
0.000316213
0.000316213
0.000333412
0.000333412
0.000333412
0.000335342
0.000335342
0.000335342
0.000374127
0.000374127
0.000374127
0.000365525
0.000365525
0.000365525
0.000375266
0.000375266
0.000375266
0.000374219
0.000374219
0.000374219
0.000364419
0.000364419
0.000364419
0.00036679
0.00036679
0.00036679
0.000367932
0.000367932
0.000367932
0.000357416
0.000357416
0.000357416
0.000358379
0.000358379
0.000358379
0.000360308
0.000360308
0.000360308
0.000355352
0.000355352
0.000355352
0.000354395
0.000354395
0.000354395
0.000352349
0.000352349
0.000352349
0.000351262
0.000351262
0.000351262
0.000363395
0.000363395
0.000363395
0.000360355
0.000360355
0.000360355
0.000359415
0.000359415
0.000359415
0.000357341
0.000357341
0.000357341
0.00035621
0.00035621
0.00035621
0.000348295
0.000348295
0.000348295
0.000349235
0.000349235
0.000349235
0.000353604
0.000353604
0.000353604
0.000351385
0.000351385
0.000351385
0.000357268
0.000357268
0.000357268
0.000358227
0.000358227
0.000358227
0.000347856
0.000347856
0.000347856
0.000348782
0.000348782
0.000348782
0.000353742
0.000353742
0.000353742
0.000355792
0.000355792
0.000355792
0.000352308
0.000352308
0.000352308
0.000336692
0.000336692
0.000336692
0.000436432
0.000436432
0.000436432
0.000435064
0.000435064
0.000435064
0.00043517
0.00043517
0.00043517
0.00040678
0.00040678
0.00040678
0.000411513
0.000411513
0.000411513
0.000409195
0.000409195
0.000409195
0.000431845
0.000431845
0.000431845
0.000431374
0.000431374
0.000431374
0.00043238
0.00043238
0.00043238
0.000374778
0.000374778
0.000374778
0.000373828
0.000373828
0.000373828
0.00037505
0.00037505
0.00037505
0.000377236
0.000377236
0.000377236
0.000371928
0.000371928
0.000371928
0.000374094
0.000374094
0.000374094
0.000434819
0.000434819
0.000434819
0.000432211
0.000432211
0.000432211
0.000436061
0.000436061
0.000436061
0.000434679
0.000434679
0.000434679
0.000431924
0.000431924
0.000431924
0.00043055
0.00043055
0.00043055
0.000427976
0.000427976
0.000427976
0.000427812
0.000427812
0.000427812
0.000426616
0.000426616
0.000426616
0.000422885
0.000422885
0.000422885
0.000424071
0.000424071
0.000424071
0.000435217
0.000435217
0.000435217
0.00043213
0.00043213
0.00043213
0.000395228
0.000395228
0.000395228
0.000390612
0.000390612
0.000390612
0.000429391
0.000429391
0.000429391
0.0004311
0.0004311
0.0004311
0.00042852
0.00042852
0.00042852
0.000432453
0.000432453
0.000432453
0.000326632
0.000326632
0.000326632
0.000322722
0.000322722
0.000322722
0.00031741
0.00031741
0.00031741
0.000317472
0.000317472
0.000317472
0.000318359
0.000318359
0.000318359
0.000323012
0.000323012
0.000323012
0.0003202
0.0003202
0.0003202
0.000321154
0.000321154
0.000321154
0.000318293
0.000318293
0.000318293
0.00031577
0.00031577
0.00031577
0.000320343
0.000320343
0.000320343
0.000322203
0.000322203
0.000322203
0.000306536
0.000306536
0.000306536
0.000311028
0.000311028
0.000311028
0.000309247
0.000309247
0.000309247
0.000308299
0.000308299
0.000308299
0.000314627
0.000314627
0.000314627
0.000311263
0.000311263
0.000311263
0.000309479
0.000309479
0.000309479
0.000344345
0.000344345
0.000344345
0.000343364
0.000343364
0.000343364
0.000344372
0.000344372
0.000344372
0.000338447
0.000338447
0.000338447
0.00034041
0.00034041
0.00034041
0.000337457
0.000337457
0.000337457
0.000338421
0.000338421
0.000338421
0.000341384
0.000341384
0.000341384
0.000340384
0.000340384
0.000340384
0.000352408
0.000352408
0.000352408
0.000350337
0.000350337
0.000350337
0.000351432
0.000351432
0.000351432
0.000353468
0.000353468
0.000353468
0.000352437
0.000352437
0.000352437
0.000416496
0.000416496
0.000416496
0.000398223
0.000398223
0.000398223
0.000402951
0.000402951
0.000402951
0.000390843
0.000390843
0.000390843
0.000388557
0.000388557
0.000388557
0.000390256
0.000390256
0.000390256
0.000383455
0.000383455
0.000383455
0.000381213
0.000381213
0.000381213
0.000397203
0.000397203
0.000397203
0.000399518
0.000399518
0.000399518
0.000401885
0.000401885
0.000401885
0.000399546
0.000399546
0.000399546
0.000398358
0.000398358
0.000398358
0.000399428
0.000399428
0.000399428
0.000401792
0.000401792
0.000401792
0.000405448
0.000405448
0.000405448
0.000403056
0.000403056
0.000403056
0.000401844
0.000401844
0.000401844
0.000403009
0.000403009
0.000403009
0.000413643
0.000413643
0.000413643
0.000337427
0.000337427
0.000337427
0.000335482
0.000335482
0.000335482
0.000355465
0.000355465
0.000355465
0.000356476
0.000356476
0.000356476
0.000353412
0.000353412
0.000353412
0.000352371
0.000352371
0.000352371
0.000359566
0.000359566
0.000359566
0.000376794
0.000376794
0.000376794
0.000377878
0.000377878
0.000377878
0.000378993
0.000378993
0.000378993
0.000378967
0.000378967
0.000378967
0.000377846
0.000377846
0.000377846
0.000365958
0.000365958
0.000365958
0.00036809
0.00036809
0.00036809
0.000375559
0.000375559
0.000375559
0.0003617
0.0003617
0.0003617
0.000365924
0.000365924
0.000365924
0.00036277
0.00036277
0.00036277
0.000364881
0.000364881
0.000364881
0.000394266
0.000394266
0.000394266
0.000391961
0.000391961
0.000391961
0.000379531
0.000379531
0.000379531
0.000386538
0.000386538
0.000386538
0.000385578
0.000385578
0.000385578
0.000380167
0.000380167
0.000380167
0.000382386
0.000382386
0.000382386
0.000379221
0.000379221
0.000379221
0.000380482
0.000380482
0.000380482
0.000380789
0.000380789
0.000380789
0.000383013
0.000383013
0.000383013
0.000393029
0.000393029
0.000393029
0.000395339
0.000395339
0.000395339
0.000357818
0.000357818
0.000357818
0.000358722
0.000358722
0.000358722
0.000357557
0.000357557
0.000357557
0.0003555
0.0003555
0.0003555
0.000354606
0.000354606
0.000354606
0.000355759
0.000355759
0.000355759
0.000358316
0.000358316
0.000358316
0.000356252
0.000356252
0.000356252
0.000356486
0.000356486
0.000356486
0.000355342
0.000355342
0.000355342
0.000362482
0.000362482
0.000362482
0.000365766
0.000365766
0.000365766
0.000364586
0.000364586
0.000364586
0.000353523
0.000353523
0.000353523
0.000352392
0.000352392
0.000352392
0.000352614
0.000352614
0.000352614
0.000339731
0.000339731
0.000339731
0.00033778
0.00033778
0.00033778
0.000347737
0.000347737
0.000347737
0.000350029
0.000350029
0.000350029
0.000351478
0.000351478
0.000351478
0.000350324
0.000350324
0.000350324
0.000350612
0.000350612
0.000350612
0.0003486
0.0003486
0.0003486
0.000341233
0.000341233
0.000341233
0.000338167
0.000338167
0.000338167
0.000339279
0.000339279
0.000339279
0.000332665
0.000332665
0.000332665
0.000327786
0.000327786
0.000327786
0.000329674
0.000329674
0.000329674
0.00033076
0.00033076
0.00033076
0.000329944
0.000329944
0.000329944
0.000324564
0.000324564
0.000324564
0.000311455
0.000311455
0.000311455
0.000309466
0.000309466
0.000309466
0.000311245
0.000311245
0.000311245
0.000312245
0.000312245
0.000312245
0.000312453
0.000312453
0.000312453
0.000312655
0.000312655
0.000312655
0.000311659
0.000311659
0.000311659
0.000314251
0.000314251
0.000314251
0.000311028
0.000311028
0.000311028
0.000308258
0.000308258
0.000308258
0.000309252
0.000309252
0.000309252
0.000311806
0.000311806
0.000311806
0.000316644
0.000316644
0.000316644
0.000314834
0.000314834
0.000314834
0.000314041
0.000314041
0.000314041
0.000315049
0.000315049
0.000315049
0.000324043
0.000324043
0.000324043
0.000322188
0.000322188
0.000322188
0.000321658
0.000321658
0.000321658
0.00031982
0.00031982
0.00031982
0.0003214
0.0003214
0.0003214
0.000322454
0.000322454
0.000322454
0.000367758
0.000367758
0.000367758
0.000363529
0.000363529
0.000363529
0.000364721
0.000364721
0.000364721
0.000366837
0.000366837
0.000366837
0.000363243
0.000363243
0.000363243
0.000367467
0.000367467
0.000367467
0.000364438
0.000364438
0.000364438
0.000366551
0.000366551
0.000366551
0.000364146
0.000364146
0.000364146
0.000366257
0.000366257
0.000366257
0.000372975
0.000372975
0.000372975
0.00037082
0.00037082
0.00037082
0.0003696
0.0003696
0.0003696
0.000373908
0.000373908
0.000373908