<VTKFile type="UnstructuredGrid" version="1.0">
<UnstructuredGrid>
<Piece NumberOfPoints="8859" NumberOfCells="2953">
<Points>
<DataArray type="Float64" NumberOfComponents="3" format="ascii">
3.01 0.5 8.265
3.01 0.487476 8.2875
3.01 0.512524 8.2875
3.01 0.17352 7.3875
3.01 0.148445 7.3875
3.01 0.160827 7.40922
3.01 0.122979 7.43089
3.01 0.135644 7.40922
3.01 0.110383 7.40921
3.01 0.135644 7.40922
3.01 0.123433 7.3875
3.01 0.110383 7.40921
3.01 0.123433 7.3875
3.01 0.135644 7.40922
3.01 0.148445 7.3875
3.01 0.135644 7.40922
3.01 0.160827 7.40922
3.01 0.148445 7.3875
3.01 0.17352 7.3875
3.01 0.185985 7.4092
3.01 0.198629 7.3875
3.01 0.185985 7.4092
3.01 0.17352 7.3875
3.01 0.160827 7.40922
3.01 0.0732297 7.43067
3.01 0.0848754 7.40914
3.01 0.0586606 7.40881
3.01 0.05 8.22027
3.01 0.058509 8.19756
3.01 0.05 8.1751
3.01 0.324276 7.3875
3.01 0.336827 7.40916
3.01 0.349395 7.3875
3.01 0.148138 7.4309
3.01 0.160827 7.40922
3.01 0.135644 7.40922
3.01 0.122979 7.43089
3.01 0.148138 7.4309
3.01 0.135644 7.40922
3.01 0.160827 7.40922
3.01 0.173316 7.43089
3.01 0.185985 7.4092
3.01 0.185806 7.45255
3.01 0.173316 7.43089
3.01 0.160572 7.45255
3.01 0.173316 7.43089
3.01 0.160827 7.40922
3.01 0.148138 7.4309
3.01 0.160572 7.45255
3.01 0.173316 7.43089
3.01 0.148138 7.4309
3.01 0.211137 7.40919
3.01 0.198629 7.3875
3.01 0.185985 7.4092
3.01 0.0979162 7.43084
3.01 0.122979 7.43089
3.01 0.110383 7.40921
3.01 0.122979 7.43089
3.01 0.0979162 7.43084
3.01 0.109875 7.45249
3.01 0.0732297 7.43067
3.01 0.0979162 7.43084
3.01 0.0848754 7.40914
3.01 0.0979162 7.43084
3.01 0.110383 7.40921
3.01 0.0848754 7.40914
3.01 0.0975729 7.47404
3.01 0.122678 7.47414
3.01 0.109875 7.45249
3.01 0.0841718 7.45235
3.01 0.0732297 7.43067
3.01 0.0577122 7.45202
3.01 0.0729308 7.47388
3.01 0.0841718 7.45235
3.01 0.0577122 7.45202
3.01 0.0732297 7.43067
3.01 0.0841718 7.45235
3.01 0.0979162 7.43084
3.01 0.0841718 7.45235
3.01 0.109875 7.45249
3.01 0.0979162 7.43084
3.01 0.0975729 7.47404
3.01 0.0841718 7.45235
3.01 0.0729308 7.47388
3.01 0.0841718 7.45235
3.01 0.0975729 7.47404
3.01 0.109875 7.45249
3.01 0.073948 7.3875
3.01 0.05 7.3875
3.01 0.0586606 7.40881
3.01 0.073948 7.3875
3.01 0.0586606 7.40881
3.01 0.0848754 7.40914
3.01 0.05 8.26329
3.01 0.0603641 8.24197
3.01 0.05 8.22027
3.01 0.0603641 8.24197
3.01 0.05 8.26329
3.01 0.0753197 8.26399
3.01 0.0709395 8.2875
3.01 0.05 8.26329
3.01 0.05 8.2875
3.01 0.05 8.26329
3.01 0.0709395 8.2875
3.01 0.0753197 8.26399
3.01 0.0579641 7.97463
3.01 0.05 7.95261
3.01 0.05 7.99669
3.01 0.0841948 7.8868
3.01 0.109814 7.8868
3.01 0.097638 7.86493
3.01 0.0841948 7.8868
3.01 0.0578646 7.8868
3.01 0.0730539 7.9087
3.01 0.0580261 8.0188
3.01 0.05 7.99669
3.01 0.05 8.04095
3.01 0.942292 7.58236
3.01 0.95 7.60404
3.01 0.95 7.56067
3.01 0.95 7.51726
3.01 0.942332 7.53897
3.01 0.95 7.56067
3.01 0.73872 7.79953
3.01 0.75132 7.77775
3.01 0.726137 7.77776
3.01 0.751305 7.82132
3.01 0.73872 7.79953
3.01 0.726124 7.82133
3.01 0.713546 7.79954
3.01 0.73872 7.79953
3.01 0.726137 7.77776
3.01 0.73872 7.79953
3.01 0.713546 7.79954
3.01 0.726124 7.82133
3.01 0.814318 7.84311
3.01 0.801709 7.8213
3.01 0.789096 7.84312
3.01 0.7765 7.82131
3.01 0.801709 7.8213
3.01 0.789115 7.79951
3.01 0.801709 7.8213
3.01 0.7765 7.82131
3.01 0.789096 7.84312
3.01 0.7765 7.82131
3.01 0.763892 7.84314
3.01 0.789096 7.84312
3.01 0.763892 7.84314
3.01 0.7765 7.82131
3.01 0.751305 7.82132
3.01 0.95 8.2875
3.01 0.95 8.26329
3.01 0.929061 8.2875
3.01 0.95 8.0854
3.01 0.941913 8.06315
3.01 0.926844 8.0854
3.01 0.941913 8.06315
3.01 0.95 8.0854
3.01 0.95 8.04095
3.01 0.926866 8.04094
3.01 0.941913 8.06315
3.01 0.95 8.04095
3.01 0.941974 8.0188
3.01 0.926866 8.04094
3.01 0.95 8.04095
3.01 0.95 7.99669
3.01 0.941974 8.0188
3.01 0.95 8.04095
3.01 0.941974 8.0188
3.01 0.95 7.99669
3.01 0.926895 7.99669
3.01 0.6127 8.2875
3.01 0.637734 8.2875
3.01 0.625238 8.26498
3.01 0.662757 8.2875
3.01 0.650275 8.26497
3.01 0.637734 8.2875
3.01 0.650275 8.26497
3.01 0.625238 8.26498
3.01 0.637734 8.2875
3.01 0.600415 7.82137
3.01 0.575304 7.82137
3.01 0.587856 7.8432
3.01 0.575304 7.82137
3.01 0.562749 7.8432
3.01 0.587856 7.8432
3.01 0.336827 7.40916
3.01 0.361946 7.40916
3.01 0.349395 7.3875
3.01 0.223755 7.3875
3.01 0.198629 7.3875
3.01 0.211137 7.40919
3.01 0.185985 7.4092
3.01 0.198492 7.43088
3.01 0.211137 7.40919
3.01 0.185806 7.45255
3.01 0.198492 7.43088
3.01 0.173316 7.43089
3.01 0.198492 7.43088
3.01 0.185985 7.4092
3.01 0.173316 7.43089
3.01 0.0576202 7.49553
3.01 0.05 7.47374
3.01 0.05 7.51726
3.01 0.05 7.47374
3.01 0.0576202 7.49553
3.01 0.0729308 7.47388
3.01 0.05 7.47374
3.01 0.0729308 7.47388
3.01 0.0577122 7.45202
3.01 0.135283 7.45254
3.01 0.122979 7.43089
3.01 0.109875 7.45249
3.01 0.135283 7.45254
3.01 0.109875 7.45249
3.01 0.122678 7.47414
3.01 0.122979 7.43089
3.01 0.135283 7.45254
3.01 0.148138 7.4309
3.01 0.135283 7.45254
3.01 0.160572 7.45255
3.01 0.148138 7.4309
3.01 0.123433 7.3875
3.01 0.0985513 7.3875
3.01 0.110383 7.40921
3.01 0.110383 7.40921
3.01 0.0985513 7.3875
3.01 0.0848754 7.40914
3.01 0.0848754 7.40914
3.01 0.0985513 7.3875
3.01 0.073948 7.3875
3.01 0.0603641 8.24197
3.01 0.0739464 8.21949
3.01 0.05 8.22027
3.01 0.0739464 8.21949
3.01 0.058509 8.19756
3.01 0.05 8.22027
3.01 0.058509 8.19756
3.01 0.0739464 8.21949
3.01 0.0849548 8.19711
3.01 0.058509 8.19756
3.01 0.0732725 8.17488
3.01 0.05 8.1751
3.01 0.0732725 8.17488
3.01 0.058509 8.19756
3.01 0.0849548 8.19711
3.01 0.5 8.265
3.01 0.47495 8.265
3.01 0.487476 8.2875
3.01 0.097663 7.9087
3.01 0.109814 7.8868
3.01 0.0841948 7.8868
3.01 0.0730539 7.9087
3.01 0.097663 7.9087
3.01 0.0841948 7.8868
3.01 0.0578646 7.8868
3.01 0.05 7.9087
3.01 0.0730539 7.9087
3.01 0.05 7.9087
3.01 0.0578646 7.8868
3.01 0.05 7.86492
3.01 0.05 8.0854
3.01 0.0580869 8.06315
3.01 0.05 8.04095
3.01 0.05 8.04095
3.01 0.073134 8.04094
3.01 0.0580261 8.0188
3.01 0.073134 8.04094
3.01 0.05 8.04095
3.01 0.0580869 8.06315
3.01 0.942268 7.62573
3.01 0.95 7.64741
3.01 0.95 7.60404
3.01 0.942292 7.58236
3.01 0.927025 7.60404
3.01 0.95 7.60404
3.01 0.927025 7.60404
3.01 0.915919 7.62572
3.01 0.942268 7.62573
3.01 0.95 7.60404
3.01 0.927025 7.60404
3.01 0.942268 7.62573
3.01 0.927013 7.64741
3.01 0.95 7.64741
3.01 0.942268 7.62573
3.01 0.915919 7.62572
3.01 0.927013 7.64741
3.01 0.942268 7.62573
3.01 0.801738 7.73425
3.01 0.826957 7.73425
3.01 0.814364 7.71253
3.01 0.852174 7.73424
3.01 0.839609 7.71252
3.01 0.826957 7.73425
3.01 0.839609 7.71252
3.01 0.814364 7.71253
3.01 0.826957 7.73425
3.01 0.776516 7.77775
3.01 0.763923 7.756
3.01 0.75132 7.77775
3.01 0.776516 7.77775
3.01 0.789115 7.79951
3.01 0.801725 7.77774
3.01 0.738704 7.84315
3.01 0.763892 7.84314
3.01 0.751305 7.82132
3.01 0.726124 7.82133
3.01 0.738704 7.84315
3.01 0.751305 7.82132
3.01 0.915617 8.06314
3.01 0.926866 8.04094
3.01 0.902228 8.04094
3.01 0.926866 8.04094
3.01 0.915617 8.06314
3.01 0.941913 8.06315
3.01 0.915617 8.06314
3.01 0.926844 8.0854
3.01 0.941913 8.06315
3.01 0.915617 8.06314
3.01 0.902193 8.08538
3.01 0.926844 8.0854
3.01 0.926866 8.04094
3.01 0.915668 8.01879
3.01 0.902228 8.04094
3.01 0.902267 7.99668
3.01 0.915668 8.01879
3.01 0.926895 7.99669
3.01 0.915668 8.01879
3.01 0.926866 8.04094
3.01 0.941974 8.0188
3.01 0.926895 7.99669
3.01 0.915668 8.01879
3.01 0.941974 8.0188
3.01 0.902267 7.99668
3.01 0.890059 8.01879
3.01 0.915668 8.01879
3.01 0.890059 8.01879
3.01 0.902228 8.04094
3.01 0.915668 8.01879
3.01 0.826927 7.82129
3.01 0.801709 7.8213
3.01 0.814318 7.84311
3.01 0.864816 7.8868
3.01 0.890186 7.8868
3.01 0.877308 7.86493
3.01 0.877308 7.86493
3.01 0.852122 7.86494
3.01 0.864816 7.8868
3.01 0.890186 7.8868
3.01 0.902362 7.86493
3.01 0.877308 7.86493
3.01 0.902362 7.86493
3.01 0.890186 7.8868
3.01 0.915805 7.8868
3.01 0.902362 7.86493
3.01 0.915805 7.8868
3.01 0.926964 7.86492
3.01 0.915835 7.84309
3.01 0.902362 7.86493
3.01 0.926964 7.86492
3.01 0.942171 7.84309
3.01 0.915835 7.84309
3.01 0.926964 7.86492
3.01 0.915835 7.84309
3.01 0.942171 7.84309
3.01 0.926978 7.82127
3.01 0.942171 7.84309
3.01 0.95 7.82127
3.01 0.926978 7.82127
3.01 0.87737 7.69081
3.01 0.902417 7.6908
3.01 0.890277 7.66911
3.01 0.852144 7.82128
3.01 0.864842 7.84309
3.01 0.877329 7.82128
3.01 0.877308 7.86493
3.01 0.864842 7.84309
3.01 0.852122 7.86494
3.01 0.902396 7.77772
3.01 0.890234 7.79949
3.01 0.915858 7.79948
3.01 0.926997 7.73423
3.01 0.95 7.73423
3.01 0.942237 7.71251
3.01 0.91589 7.71251
3.01 0.926997 7.73423
3.01 0.942237 7.71251
3.01 0.942199 7.79948
3.01 0.95 7.82127
3.01 0.95 7.77771
3.01 0.95 7.82127
3.01 0.942199 7.79948
3.01 0.926978 7.82127
3.01 0.942199 7.79948
3.01 0.915858 7.79948
3.01 0.926978 7.82127
3.01 0.95 7.73423
3.01 0.942221 7.75597
3.01 0.95 7.77771
3.01 0.942221 7.75597
3.01 0.95 7.73423
3.01 0.926997 7.73423
3.01 0.915876 7.75597
3.01 0.942221 7.75597
3.01 0.926997 7.73423
3.01 0.926989 7.77771
3.01 0.902396 7.77772
3.01 0.915858 7.79948
3.01 0.902396 7.77772
3.01 0.926989 7.77771
3.01 0.915876 7.75597
3.01 0.926989 7.77771
3.01 0.915858 7.79948
3.01 0.942199 7.79948
3.01 0.95 7.77771
3.01 0.926989 7.77771
3.01 0.942199 7.79948
3.01 0.915876 7.75597
3.01 0.926989 7.77771
3.01 0.942221 7.75597
3.01 0.926989 7.77771
3.01 0.95 7.77771
3.01 0.942221 7.75597
3.01 0.91353 8.24185
3.01 0.939636 8.24197
3.01 0.926054 8.21949
3.01 0.926728 8.17488
3.01 0.941491 8.19756
3.01 0.95 8.1751
3.01 0.926728 8.17488
3.01 0.95 8.1751
3.01 0.941822 8.15254
3.01 0.95 8.22027
3.01 0.939636 8.24197
3.01 0.95 8.26329
3.01 0.95 8.22027
3.01 0.941491 8.19756
3.01 0.926054 8.21949
3.01 0.939636 8.24197
3.01 0.95 8.22027
3.01 0.926054 8.21949
3.01 0.941491 8.19756
3.01 0.95 8.22027
3.01 0.95 8.1751
3.01 0.941869 8.10772
3.01 0.95 8.0854
3.01 0.926844 8.0854
3.01 0.762942 8.24228
3.01 0.737933 8.24234
3.01 0.75028 8.26489
3.01 0.71291 8.24239
3.01 0.737933 8.24234
3.01 0.725533 8.21985
3.01 0.71291 8.24239
3.01 0.725313 8.26492
3.01 0.737933 8.24234
3.01 0.725313 8.26492
3.01 0.75028 8.26489
3.01 0.737933 8.24234
3.01 0.737693 8.2875
3.01 0.725313 8.26492
[...]
<PointData Scalars="View Factor" >
<DataArray type="Float64" Name="View Factor" NumberOfComponents="1" format="ascii">
0.0215384
0.0215384
0.0215384
0.00885104
0.00885104
0.00885104
0.00904041
0.00904041
0.00904041
0.00891891
0.00891891
0.00891891
0.00885649
0.00885649
0.00885649
0.00891389
0.00891389
0.00891389
0.00884466
0.00884466
0.00884466
0.00890789
0.00890789
0.00890789
0.00904582
0.00904582
0.00904582
0.020137
0.020137
0.020137
0.00878733
0.00878733
0.00878733
0.00903532
0.00903532
0.00903532
0.00909942
0.00909942
0.00909942
0.00902918
0.00902918
0.00902918
0.00927761
0.00927761
0.00927761
0.00909376
0.00909376
0.00909376
0.00921802
0.00921802
0.00921802
0.00890096
0.00890096
0.00890096
0.0091039
0.0091039
0.0091039
0.00922816
0.00922816
0.00922816
0.00910677
0.00910677
0.00910677
0.00904421
0.00904421
0.00904421
0.00948269
0.00948269
0.00948269
0.00929412
0.00929412
0.00929412
0.00942137
0.00942137
0.00942137
0.00923089
0.00923089
0.00923089
0.0092926
0.0092926
0.0092926
0.00948539
0.00948539
0.00948539
0.00941983
0.00941983
0.00941983
0.00886609
0.00886609
0.00886609
0.00892484
0.00892484
0.00892484
0.0211636
0.0211636
0.0211636
0.0215138
0.0215138
0.0215138
0.022086
0.022086
0.022086
0.0218872
0.0218872
0.0218872
0.0157911
0.0157911
0.0157911
0.0142804
0.0142804
0.0142804
0.0145048
0.0145048
0.0145048
0.0165534
0.0165534
0.0165534
0.00980706
0.00980706
0.00980706
0.00941352
0.00941352
0.00941352
0.0123338
0.0123338
0.0123338
0.0126994
0.0126994
0.0126994
0.0124452
0.0124452
0.0124452
0.0126284
0.0126284
0.0126284
0.0128646
0.0128646
0.0128646
0.0126082
0.0126082
0.0126082
0.0127945
0.0127945
0.0127945
0.0129129
0.0129129
0.0129129
0.0128417
0.0128417
0.0128417
0.0201096
0.0201096
0.0201096
0.0161547
0.0161547
0.0161547
0.0158791
0.0158791
0.0158791
0.015655
0.015655
0.015655
0.0154128
0.0154128
0.0154128
0.0151537
0.0151537
0.0151537
0.014943
0.014943
0.014943
0.021221
0.021221
0.021221
0.0211494
0.0211494
0.0211494
0.0210064
0.0210064
0.0210064
0.0131317
0.0131317
0.0131317
0.0132476
0.0132476
0.0132476
0.00884029
0.00884029
0.00884029
0.00883736
0.00883736
0.00883736
0.00902208
0.00902208
0.00902208
0.00921124
0.00921124
0.00921124
0.00908708
0.00908708
0.00908708
0.00975174
0.00975174
0.00975174
0.00961776
0.00961776
0.00961776
0.00948636
0.00948636
0.00948636
0.00928899
0.00928899
0.00928899
0.00941627
0.00941627
0.00941627
0.00922372
0.00922372
0.00922372
0.00928389
0.00928389
0.00928389
0.00886097
0.00886097
0.00886097
0.00892279
0.00892279
0.00892279
0.00886435
0.00886435
0.00886435
0.0208156
0.0208156
0.0208156
0.0204719
0.0204719
0.0204719
0.0202921
0.0202921
0.0202921
0.0197977
0.0197977
0.0197977
0.0199573
0.0199573
0.0199573
0.0213835
0.0213835
0.0213835
0.0144988
0.0144988
0.0144988
0.0146127
0.0146127
0.0146127
0.0146177
0.0146177
0.0146177
0.0143983
0.0143983
0.0143983
0.0173645
0.0173645
0.0173645
0.0168165
0.0168165
0.0168165
0.0170867
0.0170867
0.0170867
0.0102209
0.0102209
0.0102209
0.00995524
0.00995524
0.00995524
0.0101824
0.0101824
0.0101824
0.0100934
0.0100934
0.0100934
0.0103769
0.0103769
0.0103769
0.0103245
0.0103245
0.0103245
0.0115177
0.0115177
0.0115177
0.011474
0.011474
0.011474
0.0114143
0.0114143
0.0114143
0.0121135
0.0121135
0.0121135
0.012246
0.012246
0.012246
0.0129599
0.0129599
0.0129599
0.0128875
0.0128875
0.0128875
0.0157271
0.0157271
0.0157271
0.015812
0.015812
0.015812
0.0160626
0.0160626
0.0160626
0.0162297
0.0162297
0.0162297
0.0154834
0.0154834
0.0154834
0.0150109
0.0150109
0.0150109
0.0153262
0.0153262
0.0153262
0.0150907
0.0150907
0.0150907
0.0151608
0.0151608
0.0151608
0.0153977
0.0153977
0.0153977
0.0127459
0.0127459
0.0127459
0.0132865
0.0132865
0.0132865
0.0132161
0.0132161
0.0132161
0.0131605
0.0131605
0.0131605
0.0132293
0.0132293
0.0132293
0.0131038
0.0131038
0.0131038
0.0129118
0.0129118
0.0129118
0.0127876
0.0127876
0.0127876
0.0126015
0.0126015
0.0126015
0.0124848
0.0124848
0.0124848
0.0109099
0.0109099
0.0109099
0.0126447
0.0126447
0.0126447
0.013022
0.013022
0.013022
0.0121164
0.0121164
0.0121164
0.011289
0.011289
0.011289
0.0112309
0.0112309
0.0112309
0.012111
0.012111
0.012111
0.0123044
0.0123044
0.0123044
0.0122398
0.0122398
0.0122398
0.0115998
0.0115998
0.0115998
0.0114506
0.0114506
0.0114506
0.0115551
0.0115551
0.0115551
0.0120043
0.0120043
0.0120043
0.0118327
0.0118327
0.0118327
0.0120639
0.0120639
0.0120639
0.0119535
0.0119535
0.0119535
0.0117216
0.0117216
0.0117216
0.0117828
0.0117828
0.0117828
0.019192
0.019192
0.019192
0.0180814
0.0180814
0.0180814
0.0177878
0.0177878
0.0177878
0.0192725
0.0192725
0.0192725
0.0186848
0.0186848
0.0186848
0.0189944
0.0189944
0.0189944
0.0183548
0.0183548
0.0183548
0.0164126
0.0164126
0.0164126
0.0201432
0.0201432
0.0201432
0.0198858
0.0198858
0.0198858
0.0202228
0.0202228
0.0202228
0.0203543
0.0203543
0.0203543
0.020919
0.020919
0.020919
0.0207017
0.0207017
0.0207017
0.0208371
0.0208371
0.0208371
0.0189336
0.0189336
0.0189336
0.0192331
0.0192331
0.0192331
0.0197577
0.0197577
0.0197577
0.0194307
0.0194307
0.0194307
0.0199022
0.0199022
0.0199022
0.0195725
0.0195725
0.0195725
0.0207222
0.0207222
0.0207222
0.021076
0.021076
0.021076
0.0212899
0.0212899
0.0212899
0.0130161
0.0130161
0.0130161
0.0132109
0.0132109
0.0132109
0.0138922
0.0138922
0.0138922
0.0140654
0.0140654
0.0140654
0.0138549
0.0138549
0.0138549
0.0137699
0.0137699
0.0137699
0.0134462
0.0134462
0.0134462
0.0135652
0.0135652
0.0135652
0.0141033
0.0141033
0.0141033
0.0141915
0.0141915
0.0141915
0.0154618
0.0154618
0.0154618
0.0136902
0.0136902
0.0136902
0.0136098
0.0136098
0.0136098
0.0130557
0.0130557
0.0130557
0.0134491
0.0134491
0.0134491
0.00881004
0.00881004
0.00881004
0.00882005
0.00882005
0.00882005
0.00887469
0.00887469
0.00887469
0.00899524
0.00899524
0.00899524
0.00857513
0.00857513
0.00857513
0.011727
0.011727
0.011727
0.0120698
0.0120698
0.0120698
0.011833
0.011833
0.011833
0.0120048
0.0120048
0.0120048
0.0120474
0.0120474
0.0120474
0.012156
0.012156
0.012156
0.00905094
0.00905094
0.00905094
0.00877463
0.00877463
0.00877463
0.00857741
0.00857741
0.00857741
0.0108846
0.0108846
0.0108846
0.0108157
0.0108157
0.0108157
0.00935711
0.00935711
0.00935711
0.00898521
0.00898521
0.00898521
0.00910651
0.00910651
0.00910651
0.00923066
0.00923066
0.00923066
0.020454
0.020454
0.020454
0.0215936
0.0215936
0.0215936
0.0160385
0.0160385
0.0160385
0.0162925
0.0162925
0.0162925
0.0148378
0.0148378
0.0148378
0.0098551
0.0098551
0.0098551
0.0160252
0.0160252
0.0160252
0.0162789
0.0162789
0.0162789
0.0141693
0.0141693
0.0141693
0.014273
0.014273
0.014273
0.0139635
0.0139635
0.0139635
0.0141757
0.0141757
0.0141757
0.0141805
0.0141805
0.0141805
0.0142862
0.0142862
0.0142862
0.0137612
0.0137612
0.0137612
0.0139682
0.0139682
0.0139682
0.0138617
0.0138617
0.0138617
0.0136554
0.0136554
0.0136554
0.0135557
0.0135557
0.0135557
0.0124612
0.0124612
0.0124612
0.0123453
0.0123453
0.0123453
0.010419
0.010419
0.010419
0.0116837
0.0116837
0.0116837
0.0117898
0.0117898
0.0117898
0.0119608
0.0119608
0.0119608
0.0113703
0.0113703
0.0113703
0.011429
0.011429
0.011429
0.0108549
0.0108549
0.0108549
0.00990535
0.00990535
0.00990535
0.0106927
0.0106927
0.0106927
0.0122905
0.0122905
0.0122905
0.0126545
0.0126545
0.0126545
0.0125395
0.0125395
0.0125395
0.0123579
0.0123579
0.0123579
0.0124022
0.0124022
0.0124022
0.0125847
0.0125847
0.0125847
0.0131529
0.0131529
0.0131529
0.0132744
0.0132744
0.0132744
0.0130054
0.0130054
0.0130054
0.0131993
0.0131993
0.0131993
0.0138513
0.0138513
0.0138513
0.0139322
0.0139322
0.0139322
0.0134081
0.0134081
0.0134081
0.0134274
0.0134274
0.0134274
0.0150785
0.0150785
0.0150785
0.014913
0.014913
0.014913
0.014848
0.014848
0.014848
0.0147667
0.0147667
0.0147667
0.0196026
0.0196026
0.0196026
0.0198075
0.0198075
0.0198075
0.0196815
0.0196815
0.0196815
0.0193559
0.0193559
0.0193559
0.017939
0.017939
0.017939
0.0186066
0.0186066
0.0186066
0.0189163
0.0189163
0.0189163
0.0172558
0.0172558
0.0172558
0.0176122
0.0176122
0.0176122
0.0170802
0.0170802
0.0170802
0.0120248
0.0120248
0.0120248
0.0128148
0.0128148
0.0128148
0.0126959
0.0126959
0.0126959
0.0127637
0.0127637
0.0127637
0.0129528
0.0129528
0.0129528
0.0135425
0.0135425
0.0135425
0.0133421
0.0133421
0.0133421
0.0125386
0.0125386
0.0125386
0.0124097
0.0124097
0.0124097
0.0123572
0.0123572
0.0123572
0.0122933
0.0122933
0.0122933
0.0128559
0.0128559
0.0128559
0.0126514
0.0126514
0.0126514
0.0117722
0.0117722
0.0117722
0.0115933
0.0115933
0.0115933
0.0116529
0.0116529
0.0116529
0.0111201
0.0111201
0.0111201
0.0113252
0.0113252
0.0113252
0.0110648
0.0110648
0.0110648
0.0111656
0.0111656
0.0111656
0.010811
0.010811
0.010811
0.0106605
0.0106605
0.0106605
0.0105653
0.0105653
0.0105653
0.0197986
0.0197986
0.0197986
0.0195569
0.0195569
0.0195569
0.0196199
0.0196199
0.0196199
0.0195119
0.0195119
0.0195119
0.0199684
0.0199684
0.0199684
0.0190806
0.0190806
0.0190806
0.0181628
0.0181628
0.0181628
0.0187675
0.0187675
0.0187675
0.0185695
0.0185695
0.0185695
0.0182685
0.0182685
0.0182685
0.0180073
0.0180073
0.0180073
0.0175361
0.0175361
0.0175361
0.0177172
0.0177172
0.0177172
0.0176394
0.0176394
0.0176394
0.016489
0.016489
0.016489
0.0165797
0.0165797
0.0165797
0.0176816
0.0176816
0.0176816
0.0178695
0.0178695
0.0178695
0.0200343
0.0200343
0.0200343
0.0199613
0.0199613
0.0199613
0.0198313
0.0198313
0.0198313
0.0209984
0.0209984
0.0209984
0.0207818
0.0207818
0.0207818
0.0204331
0.0204331
0.0204331
0.0202997
0.0202997
0.0202997
0.0203565
0.0203565
0.0203565
0.0198886
0.0198886
0.0198886
0.0200124
0.0200124
0.0200124
0.0205772
0.0205772
0.0205772
0.0202728
0.0202728
0.0202728
0.0206191
0.0206191
0.0206191
0.0189171
0.0189171
0.0189171
0.0187973
0.0187973
0.0187973
0.0168399
0.0168399
0.0168399
0.0166767
0.0166767
0.0166767
0.0173674
0.0173674
0.0173674
0.0184905
0.0184905
0.0184905
0.018305
0.018305
0.018305
0.0186242
0.0186242
0.0186242
0.017542
0.017542
0.017542
0.0178285
0.0178285
0.0178285
0.0180085
0.0180085
0.0180085
0.0178962
0.0178962
0.0178962
0.0193059
0.0193059
0.0193059
0.0190574
0.0190574
0.0190574
0.0193761
0.0193761
0.0193761
0.0195029
0.0195029
0.0195029
0.0188667
0.0188667
0.0188667
0.0189885
0.0189885
0.0189885
0.0201046
0.0201046
0.0201046
0.0204455
0.0204455
0.0204455
0.0206539
0.0206539
0.0206539
0.0205145
0.0205145
0.0205145
0.0194438
0.0194438
0.0194438
0.0191237
0.0191237
0.0191237
0.018998
0.018998
0.018998
0.0165239
0.0165239
0.0165239
0.0162645
0.0162645
0.0162645
0.0127012
0.0127012
0.0127012
0.0134752
0.0134752
0.0134752
0.0126158
0.0126158
0.0126158
0.0127157
0.0127157
0.0127157
0.0135677
0.0135677
0.0135677
0.0131262
0.0131262
0.0131262
0.0130426
0.0130426
0.0130426
0.0140539
0.0140539
0.0140539
0.0139341
0.0139341
0.0139341
0.0136972
0.0136972
0.0136972
0.0142682
0.0142682
0.0142682
0.0143912
0.0143912
0.0143912
0.0146122
0.0146122
0.0146122
0.0147095
0.0147095
0.0147095
0.0130947
0.0130947
0.0130947
0.0134088
0.0134088
0.0134088
0.0135282
0.0135282
0.0135282
0.0137322
0.0137322
0.0137322
0.0138161
0.0138161
0.0138161
0.0150674
0.0150674
0.0150674
0.0149369
0.0149369
0.0149369
0.014229
0.014229
0.014229
0.0144086
0.0144086
0.0144086
0.0140248
0.0140248
0.0140248
0.0139045
0.0139045
0.0139045
0.0149697
0.0149697
0.0149697
0.0148374
0.0148374
0.0148374
0.0139418
0.0139418
0.0139418
0.0137337
0.0137337
0.0137337
0.0136515
0.0136515
0.0136515
0.0154844
0.0154844
0.0154844
0.00882916
0.00882916
0.00882916
0.00888436
0.00888436
0.00888436
0.00889311
0.00889311
0.00889311
0.00929814
0.00929814
0.00929814
0.00903873
0.00903873
0.00903873
0.00917304
0.00917304
0.00917304
0.00862328
0.00862328
0.00862328
0.00842691
0.00842691
0.00842691
0.0085058
0.0085058
0.0085058
0.0117691
0.0117691
0.0117691
0.0118748
0.0118748
0.0118748
0.01181
0.01181
0.01181
0.0116417
0.0116417
0.0116417
0.0120888
0.0120888
0.0120888
0.0119154
0.0119154
0.0119154
0.00886413
0.00886413
0.00886413
0.00898446
0.00898446
0.00898446
0.00879913
0.00879913
0.00879913
0.00885266
0.00885266
0.00885266
0.00896017
0.00896017
0.00896017
0.00901415
0.00901415
0.00901415
0.00913691
0.00913691
0.00913691
0.00912256
0.00912256
0.00912256
0.00919194
0.00919194
0.00919194
0.00938867
0.00938867
0.00938867
0.00931768
0.00931768
0.00931768
0.00873124
0.00873124
0.00873124
0.0086461
0.0086461
0.0086461
0.0110396
0.0110396
0.0110396
0.0113578
0.0113578
0.0113578
0.00891604
0.00891604
0.00891604
0.00906136
0.00906136
0.00906136
0.00918502
0.00918502
0.00918502
0.00900511
0.00900511
0.00900511
0.0182914
0.0182914
0.0182914
0.0188553
0.0188553
0.0188553
0.0198837
0.0198837
0.0198837
0.019901
0.019901
0.019901
0.0197276
0.0197276
0.0197276
0.0189363
0.0189363
0.0189363
0.0194027
0.0194027
0.0194027
0.0192511
0.0192511
0.0192511
0.0197092
0.0197092
0.0197092
0.020278
0.020278
0.020278
0.0194697
0.0194697
0.0194697
0.0191517
0.0191517
0.0191517
0.0214369
0.0214369
0.0214369
0.0205726
0.0205726
0.0205726
0.020923
0.020923
0.020923
0.0210759
0.0210759
0.0210759
0.0198935
0.0198935
0.0198935
0.0206632
0.0206632
0.0206632
0.0210155
0.0210155
0.0210155
0.0159044
0.0159044
0.0159044
0.0160328
0.0160328
0.0160328
0.015911
0.015911
0.015911
0.0166809
0.0166809
0.0166809
0.016419
0.016419
0.016419
0.0168104
0.0168104
0.0168104
0.0166738
0.0166738
0.0166738
0.0162867
0.0162867
0.0162867
0.016412
0.016412
0.016412
0.0149488
0.0149488
0.0149488
0.0151725
0.0151725
0.0151725
0.0150739
0.0150739
0.0150739
0.0148428
0.0148428
0.0148428
0.0149549
0.0149549
0.0149549
0.00988703
0.00988703
0.00988703
0.010964
0.010964
0.010964
0.0106592
0.0106592
0.0106592
0.0113882
0.0113882
0.0113882
0.0115522
0.0115522
0.0115522
0.0115434
0.0115434
0.0115434
0.012053
0.012053
0.012053
0.0122281
0.0122281
0.0122281
0.0110602
0.0110602
0.0110602
0.0109004
0.0109004
0.0109004
0.0107477
0.0107477
0.0107477
0.0109039
0.0109039
0.0109039
0.0109798
0.0109798
0.0109798
0.0108901
0.0108901
0.0108901
0.0107376
0.0107376
0.0107376
0.0105216
0.0105216
0.0105216
0.0106703
0.0106703
0.0106703
0.0107432
0.0107432
0.0107432
0.0106653
0.0106653
0.0106653
0.00999211
0.00999211
0.00999211
0.0168023
0.0168023
0.0168023
0.0170722
0.0170722
0.0170722
0.014606
0.014606
0.014606
0.0144913
0.0144913
0.0144913
0.0148309
0.0148309
0.0148309
0.0149409
0.0149409
0.0149409
0.0141611
0.0141611
0.0141611
0.012591
0.012591
0.012591
0.0124966
0.0124966
0.0124966
0.0124074
0.0124074
0.0124074
0.0124034
0.0124034
0.0124034
0.0124917
0.0124917
0.0124917
0.0135512
0.0135512
0.0135512
0.0133508
0.0133508
0.0133508
0.0126616
0.0126616
0.0126616
0.0139572
0.0139572
0.0139572
0.013545
0.013545
0.013545
0.0138561
0.0138561
0.0138561
0.01365
0.01365
0.01365
0.0104878
0.0104878
0.0104878
0.0106354
0.0106354
0.0106354
0.0112531
0.0112531
0.0112531
0.010608
0.010608
0.010608
0.0107037
0.0107037
0.0107037
0.0111091
0.0111091
0.0111091
0.0109534
0.0109534
0.0109534
0.01121
0.01121
0.01121
0.0111524
0.0111524
0.0111524
0.0111946
0.0111946
0.0111946
0.0110373
0.0110373
0.0110373
0.010134
0.010134
0.010134
0.00999513
0.00999513
0.00999513
0.0132268
0.0132268
0.0132268
0.013105
0.013105
0.013105
0.0131777
0.0131777
0.0131777
0.0133749
0.0133749
0.0133749
0.0135003
0.0135003
0.0135003
0.0134249
0.0134249
0.0134249
0.0133205
0.0133205
0.0133205
0.0135204
0.0135204
0.0135204
0.0135659
0.0135659
0.0135659
0.013645
0.013645
0.013645
0.0129318
0.0129318
0.0129318
0.0126708
0.0126708
0.0126708
0.0127429
0.0127429
0.0127429
0.0138974
0.0138974
0.0138974
0.0139795
0.0139795
0.0139795
0.0140251
0.0140251
0.0140251
0.0151576
0.0151576
0.0151576
0.0153943
0.0153943
0.0153943
0.013955
0.013955
0.013955
0.013499
0.013499
0.013499
0.0134857
0.0134857
0.0134857
0.0135579
0.0135579
0.0135579
0.0136157
0.0136157
0.0136157
0.0138214
0.0138214
0.0138214
0.0144782
0.0144782
0.0144782
0.0147818
0.0147818
0.0147818
0.0147012
0.0147012
0.0147012
0.0155537
0.0155537
0.0155537
0.0161384
0.0161384
0.0161384
0.0158864
0.0158864
0.0158864
0.0157987
0.0157987
0.0157987
0.0159586
0.0159586
0.0159586
0.0168092
0.0168092
0.0168092
0.0191984
0.0191984
0.0191984
0.019437
0.019437
0.019437
0.0191158
0.0191158
0.0191158
0.0189991
0.0189991
0.0189991
0.0190797
0.0190797
0.0190797
0.0191577
0.0191577
0.0191577
0.0192784
0.0192784
0.0192784
0.0187667
0.0187667
0.0187667
0.019031
0.019031
0.019031
0.0194684
0.0194684
0.0194684
0.0193504
0.0193504
0.0193504
0.0188313
0.0188313
0.0188313
0.0181943
0.0181943
0.0181943
0.0184948
0.0184948
0.0184948
0.0186878
0.0186878
0.0186878
0.018574
0.018574
0.018574
0.0166583
0.0166583
0.0166583
0.0169264
0.0169264
0.0169264
0.0171797
0.0171797
0.0171797
0.0174585
0.0174585
0.0174585
0.0171024
0.0171024
0.0171024
0.0170041
0.0170041
0.0170041
0.0122001
0.0122001
0.0122001
0.0125605
0.0125605
0.0125605
0.0124929
0.0124929
0.0124929
0.0123123
0.0123123
0.0123123
0.0125115
0.0125115
0.0125115
0.0121529
0.0121529
0.0121529
0.012445
0.012445
0.012445
0.0122653
0.0122653
0.0122653
0.0123958
0.0123958
0.0123958
0.012217
0.012217
0.012217
0.0117454
0.0117454
0.0117454
0.0119156
0.0119156
0.0119156
0.0119785
0.0119785
0.0119785
0.0116391
0.0116391
0.0116391
0.0116998
0.0116998
0.0116998
0.0118691
0.0118691
0.0118691
0.0132705
0.0132705
0.0132705
0.0131272
0.0131272
0.0131272
0.0133234
0.0133234
0.0133234
0.0133963
0.0133963
0.0133963
0.013005
0.013005
0.013005
0.0130753
0.0130753
0.0130753
0.0129675
0.0129675
0.0129675
0.0128993
0.0128993
0.0128993
0.0128443
0.0128443
0.0128443
0.0126572
0.0126572
0.0126572
0.0127111
0.0127111
0.0127111
0.0125922
0.0125922
0.0125922
0.0131704
0.0131704
0.0131704
0.0130468
0.0130468
0.0130468
0.0132231
0.0132231
0.0132231
0.0134398
0.0134398
0.0134398
0.0133674
0.0133674
0.0133674
0.0121045
0.0121045
0.0121045
0.011931
0.011931
0.011931
0.0120549
0.0120549
0.0120549
0.0121674
0.0121674
0.0121674
0.0118823
0.0118823
0.0118823
0.0118213
0.0118213
0.0118213
0.0113361
0.0113361
0.0113361
0.0112788
0.0112788
0.0112788
0.0114987
0.0114987
0.0114987
0.0116047
0.0116047
0.0116047
0.0115465
0.0115465
0.0115465
0.011383
0.011383
0.011383
0.0105223
0.0105223
0.0105223
0.0106161
0.0106161
0.0106161
0.0111156
0.0111156
0.0111156
0.0106565
0.0106565
0.0106565
0.0202064
0.0202064
0.0202064
0.0192619
0.0192619
0.0192619
0.0189443
0.0189443
0.0189443
0.0183533
0.0183533
0.0183533
0.0186569
0.0186569
0.0186569
0.0184389
0.0184389
0.0184389
0.0182467
0.0182467
0.0182467
0.0187447
0.0187447
0.0187447
0.0188562
0.0188562
0.0188562
0.0181148
0.0181148
0.0181148
0.0183307
0.0183307
0.0183307
0.0180337
0.0180337
0.0180337
0.0179278
0.0179278
0.0179278
0.0185235
0.0185235
0.0185235
0.0184135
0.0184135
0.0184135
0.0177648
0.0177648
0.0177648
0.0174797
0.0174797
0.0174797
0.0179516
0.0179516
0.0179516
0.0178469
0.0178469
0.0178469
0.0173797
0.0173797
0.0173797
0.0175601
0.0175601
0.0175601
0.0168465
0.0168465
0.0168465
0.0173975
0.0173975
0.0173975
0.0170241
0.0170241
0.0170241
0.0173001
0.0173001
0.0173001
0.0208593
0.0208593
0.0208593
0.0209342
0.0209342
0.0209342
0.0210752
0.0210752
0.0210752
0.020583
0.020583
0.020583
0.0203739
0.0203739
0.0203739
0.0205094
0.0205094
0.0205094
0.0207527
0.0207527
0.0207527
0.020061
0.020061
0.020061
0.0197266
0.0197266
0.0197266
0.019643
0.019643
0.019643
0.0195211
0.0195211
0.0195211
0.0204464
0.0204464
0.0204464
0.0201886
0.0201886
0.0201886
0.0206661
0.0206661
0.0206661
0.020534
0.020534
0.020534
0.0201019
0.0201019
0.0201019
0.0199761
0.0199761
0.0199761
0.01842
0.01842
0.01842
0.0183471
0.0183471
0.0183471
0.018234
0.018234
0.018234
0.0186509
0.0186509
0.0186509
0.0187253
0.0187253
0.0187253
0.0188432
0.0188432
0.0188432
0.0167798
0.0167798
0.0167798
0.017434
0.017434
0.017434
0.0176083
0.0176083
0.0176083
0.0171557
0.0171557
0.0171557
0.0170502
0.0170502
0.0170502
0.0161341
0.0161341
0.0161341
0.0158824
0.0158824
0.0158824
0.0157279
0.0157279
0.0157279
0.0173302
0.0173302
0.0173302
0.0171548
0.0171548
0.0171548
0.0174735
0.0174735
0.0174735
0.0177586
0.0177586
0.0177586
0.0176783
0.0176783
0.0176783
0.0177933
0.0177933
0.0177933
0.0180245
0.0180245
0.0180245
0.0185586
0.0185586
0.0185586
0.0184397
0.0184397
0.0184397
0.0183736
0.0183736
0.0183736
0.0181405
0.0181405
0.0181405
0.0180757
0.0180757
0.0180757