<VTKFile type="UnstructuredGrid" version="1.0">
<UnstructuredGrid>
<Piece NumberOfPoints="8859" NumberOfCells="2953">
<Points>
<DataArray type="Float64" NumberOfComponents="3" format="ascii">
0.5 3.01 17.67
0.512524 3.01 17.6925
0.487476 3.01 17.6925
0.17352 3.01 16.7925
0.160827 3.01 16.8142
0.148445 3.01 16.7925
0.122979 3.01 16.8359
0.110383 3.01 16.8142
0.135644 3.01 16.8142
0.135644 3.01 16.8142
0.110383 3.01 16.8142
0.123433 3.01 16.7925
0.123433 3.01 16.7925
0.148445 3.01 16.7925
0.135644 3.01 16.8142
0.135644 3.01 16.8142
0.148445 3.01 16.7925
0.160827 3.01 16.8142
0.17352 3.01 16.7925
0.198629 3.01 16.7925
0.185985 3.01 16.8142
0.185985 3.01 16.8142
0.160827 3.01 16.8142
0.17352 3.01 16.7925
0.0732297 3.01 16.8357
0.0586606 3.01 16.8138
0.0848754 3.01 16.8141
0.05 3.01 17.6253
0.05 3.01 17.5801
0.058509 3.01 17.6026
0.324276 3.01 16.7925
0.349395 3.01 16.7925
0.336827 3.01 16.8142
0.148138 3.01 16.8359
0.135644 3.01 16.8142
0.160827 3.01 16.8142
0.122979 3.01 16.8359
0.135644 3.01 16.8142
0.148138 3.01 16.8359
0.160827 3.01 16.8142
0.185985 3.01 16.8142
0.173316 3.01 16.8359
0.185806 3.01 16.8575
0.160572 3.01 16.8576
0.173316 3.01 16.8359
0.173316 3.01 16.8359
0.148138 3.01 16.8359
0.160827 3.01 16.8142
0.160572 3.01 16.8576
0.148138 3.01 16.8359
0.173316 3.01 16.8359
0.211137 3.01 16.8142
0.185985 3.01 16.8142
0.198629 3.01 16.7925
0.0979162 3.01 16.8358
0.110383 3.01 16.8142
0.122979 3.01 16.8359
0.122979 3.01 16.8359
0.109875 3.01 16.8575
0.0979162 3.01 16.8358
0.0732297 3.01 16.8357
0.0848754 3.01 16.8141
0.0979162 3.01 16.8358
0.0979162 3.01 16.8358
0.0848754 3.01 16.8141
0.110383 3.01 16.8142
0.0975729 3.01 16.879
0.109875 3.01 16.8575
0.122678 3.01 16.8791
0.0841718 3.01 16.8573
0.0577122 3.01 16.857
0.0732297 3.01 16.8357
0.0729308 3.01 16.8789
0.0577122 3.01 16.857
0.0841718 3.01 16.8573
0.0732297 3.01 16.8357
0.0979162 3.01 16.8358
0.0841718 3.01 16.8573
0.0841718 3.01 16.8573
0.0979162 3.01 16.8358
0.109875 3.01 16.8575
0.0975729 3.01 16.879
0.0729308 3.01 16.8789
0.0841718 3.01 16.8573
0.0841718 3.01 16.8573
0.109875 3.01 16.8575
0.0975729 3.01 16.879
0.073948 3.01 16.7925
0.0586606 3.01 16.8138
0.05 3.01 16.7925
0.073948 3.01 16.7925
0.0848754 3.01 16.8141
0.0586606 3.01 16.8138
0.05 3.01 17.6683
0.05 3.01 17.6253
0.0603641 3.01 17.647
0.0603641 3.01 17.647
0.0753197 3.01 17.669
0.05 3.01 17.6683
0.0709395 3.01 17.6925
0.05 3.01 17.6925
0.05 3.01 17.6683
0.05 3.01 17.6683
0.0753197 3.01 17.669
0.0709395 3.01 17.6925
0.0579641 3.01 17.3796
0.05 3.01 17.4017
0.05 3.01 17.3576
0.0841948 3.01 17.2918
0.097638 3.01 17.2699
0.109814 3.01 17.2918
0.0841948 3.01 17.2918
0.0730539 3.01 17.3137
0.0578646 3.01 17.2918
0.0580261 3.01 17.4238
0.05 3.01 17.4459
0.05 3.01 17.4017
0.942292 3.01 16.9874
0.95 3.01 16.9657
0.95 3.01 17.009
0.95 3.01 16.9223
0.95 3.01 16.9657
0.942332 3.01 16.944
0.73872 3.01 17.2045
0.726137 3.01 17.1828
0.75132 3.01 17.1828
0.751305 3.01 17.2263
0.726124 3.01 17.2263
0.73872 3.01 17.2045
0.713546 3.01 17.2045
0.726137 3.01 17.1828
0.73872 3.01 17.2045
0.73872 3.01 17.2045
0.726124 3.01 17.2263
0.713546 3.01 17.2045
0.814318 3.01 17.2481
0.789096 3.01 17.2481
0.801709 3.01 17.2263
0.7765 3.01 17.2263
0.789115 3.01 17.2045
0.801709 3.01 17.2263
0.801709 3.01 17.2263
0.789096 3.01 17.2481
0.7765 3.01 17.2263
0.7765 3.01 17.2263
0.789096 3.01 17.2481
0.763892 3.01 17.2481
0.763892 3.01 17.2481
0.751305 3.01 17.2263
0.7765 3.01 17.2263
0.95 3.01 17.6925
0.929061 3.01 17.6925
0.95 3.01 17.6683
0.95 3.01 17.4904
0.926844 3.01 17.4904
0.941913 3.01 17.4682
0.941913 3.01 17.4682
0.95 3.01 17.4459
0.95 3.01 17.4904
0.926866 3.01 17.4459
0.95 3.01 17.4459
0.941913 3.01 17.4682
0.941974 3.01 17.4238
0.95 3.01 17.4459
0.926866 3.01 17.4459
0.95 3.01 17.4017
0.95 3.01 17.4459
0.941974 3.01 17.4238
0.941974 3.01 17.4238
0.926895 3.01 17.4017
0.95 3.01 17.4017
0.6127 3.01 17.6925
0.625238 3.01 17.67
0.637734 3.01 17.6925
0.662757 3.01 17.6925
0.637734 3.01 17.6925
0.650275 3.01 17.67
0.650275 3.01 17.67
0.637734 3.01 17.6925
0.625238 3.01 17.67
0.600415 3.01 17.2264
0.587856 3.01 17.2482
0.575304 3.01 17.2264
0.575304 3.01 17.2264
0.587856 3.01 17.2482
0.562749 3.01 17.2482
0.336827 3.01 16.8142
0.349395 3.01 16.7925
0.361946 3.01 16.8142
0.223755 3.01 16.7925
0.211137 3.01 16.8142
0.198629 3.01 16.7925
0.185985 3.01 16.8142
0.211137 3.01 16.8142
0.198492 3.01 16.8359
0.185806 3.01 16.8575
0.173316 3.01 16.8359
0.198492 3.01 16.8359
0.198492 3.01 16.8359
0.173316 3.01 16.8359
0.185985 3.01 16.8142
0.0576202 3.01 16.9005
0.05 3.01 16.9223
0.05 3.01 16.8787
0.05 3.01 16.8787
0.0729308 3.01 16.8789
0.0576202 3.01 16.9005
0.05 3.01 16.8787
0.0577122 3.01 16.857
0.0729308 3.01 16.8789
0.135283 3.01 16.8575
0.109875 3.01 16.8575
0.122979 3.01 16.8359
0.135283 3.01 16.8575
0.122678 3.01 16.8791
0.109875 3.01 16.8575
0.122979 3.01 16.8359
0.148138 3.01 16.8359
0.135283 3.01 16.8575
0.135283 3.01 16.8575
0.148138 3.01 16.8359
0.160572 3.01 16.8576
0.123433 3.01 16.7925
0.110383 3.01 16.8142
0.0985513 3.01 16.7925
0.110383 3.01 16.8142
0.0848754 3.01 16.8141
0.0985513 3.01 16.7925
0.0848754 3.01 16.8141
0.073948 3.01 16.7925
0.0985513 3.01 16.7925
0.0603641 3.01 17.647
0.05 3.01 17.6253
0.0739464 3.01 17.6245
0.0739464 3.01 17.6245
0.05 3.01 17.6253
0.058509 3.01 17.6026
0.058509 3.01 17.6026
0.0849548 3.01 17.6021
0.0739464 3.01 17.6245
0.058509 3.01 17.6026
0.05 3.01 17.5801
0.0732725 3.01 17.5799
0.0732725 3.01 17.5799
0.0849548 3.01 17.6021
0.058509 3.01 17.6026
0.5 3.01 17.67
0.487476 3.01 17.6925
0.47495 3.01 17.67
0.097663 3.01 17.3137
0.0841948 3.01 17.2918
0.109814 3.01 17.2918
0.0730539 3.01 17.3137
0.0841948 3.01 17.2918
0.097663 3.01 17.3137
0.0578646 3.01 17.2918
0.0730539 3.01 17.3137
0.05 3.01 17.3137
0.05 3.01 17.3137
0.05 3.01 17.2699
0.0578646 3.01 17.2918
0.05 3.01 17.4904
0.05 3.01 17.4459
0.0580869 3.01 17.4682
0.05 3.01 17.4459
0.0580261 3.01 17.4238
0.073134 3.01 17.4459
0.073134 3.01 17.4459
0.0580869 3.01 17.4682
0.05 3.01 17.4459
0.942268 3.01 17.0307
0.95 3.01 17.009
0.95 3.01 17.0524
0.942292 3.01 16.9874
0.95 3.01 17.009
0.927025 3.01 17.009
0.927025 3.01 17.009
0.942268 3.01 17.0307
0.915919 3.01 17.0307
0.95 3.01 17.009
0.942268 3.01 17.0307
0.927025 3.01 17.009
0.927013 3.01 17.0524
0.942268 3.01 17.0307
0.95 3.01 17.0524
0.915919 3.01 17.0307
0.942268 3.01 17.0307
0.927013 3.01 17.0524
0.801738 3.01 17.1393
0.814364 3.01 17.1175
0.826957 3.01 17.1392
0.852174 3.01 17.1392
0.826957 3.01 17.1392
0.839609 3.01 17.1175
0.839609 3.01 17.1175
0.826957 3.01 17.1392
0.814364 3.01 17.1175
0.776516 3.01 17.1827
0.75132 3.01 17.1828
0.763923 3.01 17.161
0.776516 3.01 17.1827
0.801725 3.01 17.1827
0.789115 3.01 17.2045
0.738704 3.01 17.2481
0.751305 3.01 17.2263
0.763892 3.01 17.2481
0.726124 3.01 17.2263
0.751305 3.01 17.2263
0.738704 3.01 17.2481
0.915617 3.01 17.4681
0.902228 3.01 17.4459
0.926866 3.01 17.4459
0.926866 3.01 17.4459
0.941913 3.01 17.4682
0.915617 3.01 17.4681
0.915617 3.01 17.4681
0.941913 3.01 17.4682
0.926844 3.01 17.4904
0.915617 3.01 17.4681
0.926844 3.01 17.4904
0.902193 3.01 17.4904
0.926866 3.01 17.4459
0.902228 3.01 17.4459
0.915668 3.01 17.4238
0.902267 3.01 17.4017
0.926895 3.01 17.4017
0.915668 3.01 17.4238
0.915668 3.01 17.4238
0.941974 3.01 17.4238
0.926866 3.01 17.4459
0.926895 3.01 17.4017
0.941974 3.01 17.4238
0.915668 3.01 17.4238
0.902267 3.01 17.4017
0.915668 3.01 17.4238
0.890059 3.01 17.4238
0.890059 3.01 17.4238
0.915668 3.01 17.4238
0.902228 3.01 17.4459
0.826927 3.01 17.2263
0.814318 3.01 17.2481
0.801709 3.01 17.2263
0.864816 3.01 17.2918
0.877308 3.01 17.2699
0.890186 3.01 17.2918
0.877308 3.01 17.2699
0.864816 3.01 17.2918
0.852122 3.01 17.2699
0.890186 3.01 17.2918
0.877308 3.01 17.2699
0.902362 3.01 17.2699
0.902362 3.01 17.2699
0.915805 3.01 17.2918
0.890186 3.01 17.2918
0.902362 3.01 17.2699
0.926964 3.01 17.2699
0.915805 3.01 17.2918
0.915835 3.01 17.2481
0.926964 3.01 17.2699
0.902362 3.01 17.2699
0.942171 3.01 17.2481
0.926964 3.01 17.2699
0.915835 3.01 17.2481
0.915835 3.01 17.2481
0.926978 3.01 17.2263
0.942171 3.01 17.2481
0.942171 3.01 17.2481
0.926978 3.01 17.2263
0.95 3.01 17.2263
0.87737 3.01 17.0958
0.890277 3.01 17.0741
0.902417 3.01 17.0958
0.852144 3.01 17.2263
0.877329 3.01 17.2263
0.864842 3.01 17.2481
0.877308 3.01 17.2699
0.852122 3.01 17.2699
0.864842 3.01 17.2481
0.902396 3.01 17.1827
0.915858 3.01 17.2045
0.890234 3.01 17.2045
0.926997 3.01 17.1392
0.942237 3.01 17.1175
0.95 3.01 17.1392
0.91589 3.01 17.1175
0.942237 3.01 17.1175
0.926997 3.01 17.1392
0.942199 3.01 17.2045
0.95 3.01 17.1827
0.95 3.01 17.2263
0.95 3.01 17.2263
0.926978 3.01 17.2263
0.942199 3.01 17.2045
0.942199 3.01 17.2045
0.926978 3.01 17.2263
0.915858 3.01 17.2045
0.95 3.01 17.1392
0.95 3.01 17.1827
0.942221 3.01 17.161
0.942221 3.01 17.161
0.926997 3.01 17.1392
0.95 3.01 17.1392
0.915876 3.01 17.161
0.926997 3.01 17.1392
0.942221 3.01 17.161
0.926989 3.01 17.1827
0.915858 3.01 17.2045
0.902396 3.01 17.1827
0.902396 3.01 17.1827
0.915876 3.01 17.161
0.926989 3.01 17.1827
0.926989 3.01 17.1827
0.942199 3.01 17.2045
0.915858 3.01 17.2045
0.95 3.01 17.1827
0.942199 3.01 17.2045
0.926989 3.01 17.1827
0.915876 3.01 17.161
0.942221 3.01 17.161
0.926989 3.01 17.1827
0.926989 3.01 17.1827
0.942221 3.01 17.161
0.95 3.01 17.1827
0.91353 3.01 17.6469
0.926054 3.01 17.6245
0.939636 3.01 17.647
0.926728 3.01 17.5799
0.95 3.01 17.5801
0.941491 3.01 17.6026
0.926728 3.01 17.5799
0.941822 3.01 17.5575
0.95 3.01 17.5801
0.95 3.01 17.6253
0.95 3.01 17.6683
0.939636 3.01 17.647
0.95 3.01 17.6253
0.926054 3.01 17.6245
0.941491 3.01 17.6026
0.939636 3.01 17.647
0.926054 3.01 17.6245
0.95 3.01 17.6253
0.941491 3.01 17.6026
0.95 3.01 17.5801
0.95 3.01 17.6253
0.941869 3.01 17.5127
0.926844 3.01 17.4904
0.95 3.01 17.4904
0.762942 3.01 17.6473
0.75028 3.01 17.6699
0.737933 3.01 17.6473
0.71291 3.01 17.6474
0.725533 3.01 17.6249
0.737933 3.01 17.6473
0.71291 3.01 17.6474
0.737933 3.01 17.6473
0.725313 3.01 17.6699
0.725313 3.01 17.6699
0.737933 3.01 17.6473
[...]
<PointData Scalars="View Factor" >
<DataArray type="Float64" Name="View Factor" NumberOfComponents="1" format="ascii">
9.20049e-06
9.20049e-06
9.20049e-06
1.0633e-05
1.0633e-05
1.0633e-05
1.05953e-05
1.05953e-05
1.05953e-05
1.06207e-05
1.06207e-05
1.06207e-05
1.06333e-05
1.06333e-05
1.06333e-05
1.06204e-05
1.06204e-05
1.06204e-05
1.06327e-05
1.06327e-05
1.06327e-05
1.06201e-05
1.06201e-05
1.06201e-05
1.0596e-05
1.0596e-05
1.0596e-05
9.32986e-06
9.32986e-06
9.32986e-06
1.06299e-05
1.06299e-05
1.06299e-05
1.0595e-05
1.0595e-05
1.0595e-05
1.05825e-05
1.05825e-05
1.05825e-05
1.05948e-05
1.05948e-05
1.05948e-05
1.05442e-05
1.05442e-05
1.05442e-05
1.05822e-05
1.05822e-05
1.05822e-05
1.0557e-05
1.0557e-05
1.0557e-05
1.06198e-05
1.06198e-05
1.06198e-05
1.05828e-05
1.05828e-05
1.05828e-05
1.05575e-05
1.05575e-05
1.05575e-05
1.05831e-05
1.05831e-05
1.05831e-05
1.05956e-05
1.05956e-05
1.05956e-05
1.05074e-05
1.05074e-05
1.05074e-05
1.05457e-05
1.05457e-05
1.05457e-05
1.05206e-05
1.05206e-05
1.05206e-05
1.05579e-05
1.05579e-05
1.05579e-05
1.05452e-05
1.05452e-05
1.05452e-05
1.05078e-05
1.05078e-05
1.05078e-05
1.05201e-05
1.05201e-05
1.05201e-05
1.06341e-05
1.06341e-05
1.06341e-05
1.06213e-05
1.06213e-05
1.06213e-05
9.26404e-06
9.26404e-06
9.26404e-06
9.24244e-06
9.24244e-06
9.24244e-06
9.20852e-06
9.20852e-06
9.20852e-06
9.22003e-06
9.22003e-06
9.22003e-06
9.67096e-06
9.67096e-06
9.67096e-06
9.82102e-06
9.82102e-06
9.82102e-06
9.79792e-06
9.79792e-06
9.79792e-06
9.60218e-06
9.60218e-06
9.60218e-06
1.02789e-05
1.02789e-05
1.02789e-05
1.03524e-05
1.03524e-05
1.03524e-05
9.95555e-06
9.95555e-06
9.95555e-06
9.9086e-06
9.9086e-06
9.9086e-06
9.94439e-06
9.94439e-06
9.94439e-06
9.92091e-06
9.92091e-06
9.92091e-06
9.87043e-06
9.87043e-06
9.87043e-06
9.90613e-06
9.90613e-06
9.90613e-06
9.88274e-06
9.88274e-06
9.88274e-06
9.87169e-06
9.87169e-06
9.87169e-06
9.88399e-06
9.88399e-06
9.88399e-06
9.18273e-06
9.18273e-06
9.18273e-06
9.48411e-06
9.48411e-06
9.48411e-06
9.5063e-06
9.5063e-06
9.5063e-06
9.52945e-06
9.52945e-06
9.52945e-06
9.55217e-06
9.55217e-06
9.55217e-06
9.57446e-06
9.57446e-06
9.57446e-06
9.59772e-06
9.59772e-06
9.59772e-06
9.19639e-06
9.19639e-06
9.19639e-06
9.19547e-06
9.19547e-06
9.19547e-06
9.20696e-06
9.20696e-06
9.20696e-06
9.89162e-06
9.89162e-06
9.89162e-06
9.8804e-06
9.8804e-06
9.8804e-06
1.06169e-05
1.06169e-05
1.06169e-05
1.06324e-05
1.06324e-05
1.06324e-05
1.05944e-05
1.05944e-05
1.05944e-05
1.05567e-05
1.05567e-05
1.05567e-05
1.05819e-05
1.05819e-05
1.05819e-05
1.04582e-05
1.04582e-05
1.04582e-05
1.04832e-05
1.04832e-05
1.04832e-05
1.05083e-05
1.05083e-05
1.05083e-05
1.05448e-05
1.05448e-05
1.05448e-05
1.05197e-05
1.05197e-05
1.05197e-05
1.05573e-05
1.05573e-05
1.05573e-05
1.05445e-05
1.05445e-05
1.05445e-05
1.06335e-05
1.06335e-05
1.06335e-05
1.06209e-05
1.06209e-05
1.06209e-05
1.06337e-05
1.06337e-05
1.06337e-05
9.28569e-06
9.28569e-06
9.28569e-06
9.30773e-06
9.30773e-06
9.30773e-06
9.31921e-06
9.31921e-06
9.31921e-06
9.3525e-06
9.3525e-06
9.3525e-06
9.34145e-06
9.34145e-06
9.34145e-06
9.21188e-06
9.21188e-06
9.21188e-06
9.79778e-06
9.79778e-06
9.79778e-06
9.78626e-06
9.78626e-06
9.78626e-06
9.78637e-06
9.78637e-06
9.78637e-06
9.8096e-06
9.8096e-06
9.8096e-06
9.53372e-06
9.53372e-06
9.53372e-06
9.57932e-06
9.57932e-06
9.57932e-06
9.5565e-06
9.5565e-06
9.5565e-06
1.02061e-05
1.02061e-05
1.02061e-05
1.0255e-05
1.0255e-05
1.0255e-05
1.02194e-05
1.02194e-05
1.02194e-05
1.02308e-05
1.02308e-05
1.02308e-05
1.01824e-05
1.01824e-05
1.01824e-05
1.01952e-05
1.01952e-05
1.01952e-05
1.00463e-05
1.00463e-05
1.00463e-05
1.00449e-05
1.00449e-05
1.00449e-05
1.00574e-05
1.00574e-05
1.00574e-05
9.97788e-06
9.97788e-06
9.97788e-06
9.95306e-06
9.95306e-06
9.95306e-06
9.87292e-06
9.87292e-06
9.87292e-06
9.8852e-06
9.8852e-06
9.8852e-06
9.53087e-06
9.53087e-06
9.53087e-06
9.51876e-06
9.51876e-06
9.51876e-06
9.49609e-06
9.49609e-06
9.49609e-06
9.48552e-06
9.48552e-06
9.48552e-06
9.5536e-06
9.5536e-06
9.5536e-06
9.59915e-06
9.59915e-06
9.59915e-06
9.56421e-06
9.56421e-06
9.56421e-06
9.58699e-06
9.58699e-06
9.58699e-06
9.58844e-06
9.58844e-06
9.58844e-06
9.56566e-06
9.56566e-06
9.56566e-06
9.88145e-06
9.88145e-06
9.88145e-06
9.79663e-06
9.79663e-06
9.79663e-06
9.80893e-06
9.80893e-06
9.80893e-06
9.80752e-06
9.80752e-06
9.80752e-06
9.7952e-06
9.7952e-06
9.7952e-06
9.80607e-06
9.80607e-06
9.80607e-06
9.82928e-06
9.82928e-06
9.82928e-06
9.84011e-06
9.84011e-06
9.84011e-06
9.86339e-06
9.86339e-06
9.86339e-06
9.87436e-06
9.87436e-06
9.87436e-06
1.01135e-05
1.01135e-05
1.01135e-05
9.87873e-06
9.87873e-06
9.87873e-06
9.83214e-06
9.83214e-06
9.83214e-06
9.93506e-06
9.93506e-06
9.93506e-06
1.0039e-05
1.0039e-05
1.0039e-05
1.00515e-05
1.00515e-05
1.00515e-05
9.92064e-06
9.92064e-06
9.92064e-06
9.89771e-06
9.89771e-06
9.89771e-06
9.9101e-06
9.9101e-06
9.9101e-06
9.99118e-06
9.99118e-06
9.99118e-06
1.00153e-05
1.00153e-05
1.00153e-05
1.00042e-05
1.00042e-05
1.00042e-05
9.94607e-06
9.94607e-06
9.94607e-06
9.96959e-06
9.96959e-06
9.96959e-06
9.93353e-06
9.93353e-06
9.93353e-06
9.94458e-06
9.94458e-06
9.94458e-06
9.98057e-06
9.98057e-06
9.98057e-06
9.96809e-06
9.96809e-06
9.96809e-06
9.24986e-06
9.24986e-06
9.24986e-06
9.32632e-06
9.32632e-06
9.32632e-06
9.34876e-06
9.34876e-06
9.34876e-06
9.23781e-06
9.23781e-06
9.23781e-06
9.28175e-06
9.28175e-06
9.28175e-06
9.25983e-06
9.25983e-06
9.25983e-06
9.30331e-06
9.30331e-06
9.30331e-06
9.46148e-06
9.46148e-06
9.46148e-06
9.23576e-06
9.23576e-06
9.23576e-06
9.25898e-06
9.25898e-06
9.25898e-06
9.23677e-06
9.23677e-06
9.23677e-06
9.22518e-06
9.22518e-06
9.22518e-06
9.19249e-06
9.19249e-06
9.19249e-06
9.20303e-06
9.20303e-06
9.20303e-06
9.19144e-06
9.19144e-06
9.19144e-06
9.33948e-06
9.33948e-06
9.33948e-06
9.30353e-06
9.30353e-06
9.30353e-06
9.2706e-06
9.2706e-06
9.2706e-06
9.29287e-06
9.29287e-06
9.29287e-06
9.27253e-06
9.27253e-06
9.27253e-06
9.2948e-06
9.2948e-06
9.2948e-06
9.22997e-06
9.22997e-06
9.22997e-06
9.20787e-06
9.20787e-06
9.20787e-06
9.19728e-06
9.19728e-06
9.19728e-06
9.93145e-06
9.93145e-06
9.93145e-06
9.87945e-06
9.87945e-06
9.87945e-06
9.81138e-06
9.81138e-06
9.81138e-06
9.78726e-06
9.78726e-06
9.78726e-06
9.81048e-06
9.81048e-06
9.81048e-06
9.82256e-06
9.82256e-06
9.82256e-06
9.85704e-06
9.85704e-06
9.85704e-06
9.84584e-06
9.84584e-06
9.84584e-06
9.78816e-06
9.78816e-06
9.78816e-06
9.77612e-06
9.77612e-06
9.77612e-06
9.64973e-06
9.64973e-06
9.64973e-06
9.8065e-06
9.8065e-06
9.8065e-06
9.81864e-06
9.81864e-06
9.81864e-06
9.84712e-06
9.84712e-06
9.84712e-06
9.80065e-06
9.80065e-06
9.80065e-06
1.0631e-05
1.0631e-05
1.0631e-05
1.06315e-05
1.06315e-05
1.06315e-05
1.06186e-05
1.06186e-05
1.06186e-05
1.05932e-05
1.05932e-05
1.05932e-05
1.06036e-05
1.06036e-05
1.06036e-05
1.00239e-05
1.00239e-05
1.00239e-05
9.9766e-06
9.9766e-06
9.9766e-06
1.00127e-05
1.00127e-05
1.00127e-05
9.98904e-06
9.98904e-06
9.98904e-06
9.9903e-06
9.9903e-06
9.9903e-06
9.97911e-06
9.97911e-06
9.97911e-06
1.05803e-05
1.05803e-05
1.05803e-05
1.06293e-05
1.06293e-05
1.06293e-05
1.06193e-05
1.06193e-05
1.06193e-05
1.02451e-05
1.02451e-05
1.02451e-05
1.02575e-05
1.02575e-05
1.02575e-05
1.05337e-05
1.05337e-05
1.05337e-05
1.06091e-05
1.06091e-05
1.06091e-05
1.05838e-05
1.05838e-05
1.05838e-05
1.05587e-05
1.05587e-05
1.05587e-05
9.30828e-06
9.30828e-06
9.30828e-06
9.2012e-06
9.2012e-06
9.2012e-06
9.64799e-06
9.64799e-06
9.64799e-06
9.62506e-06
9.62506e-06
9.62506e-06
9.76309e-06
9.76309e-06
9.76309e-06
1.04313e-05
1.04313e-05
1.04313e-05
9.64773e-06
9.64773e-06
9.64773e-06
9.62481e-06
9.62481e-06
9.62481e-06
9.83256e-06
9.83256e-06
9.83256e-06
9.82083e-06
9.82083e-06
9.82083e-06
9.85603e-06
9.85603e-06
9.85603e-06
9.83272e-06
9.83272e-06
9.83272e-06
9.83284e-06
9.83284e-06
9.83284e-06
9.82116e-06
9.82116e-06
9.82116e-06
9.87951e-06
9.87951e-06
9.87951e-06
9.85614e-06
9.85614e-06
9.85614e-06
9.86776e-06
9.86776e-06
9.86776e-06
9.89114e-06
9.89114e-06
9.89114e-06
9.9029e-06
9.9029e-06
9.9029e-06
9.9021e-06
9.9021e-06
9.9021e-06
9.91308e-06
9.91308e-06
9.91308e-06
1.0184e-05
1.0184e-05
1.0184e-05
1.00225e-05
1.00225e-05
1.00225e-05
1.00114e-05
1.00114e-05
1.00114e-05
9.98774e-06
9.98774e-06
9.98774e-06
1.0056e-05
1.0056e-05
1.0056e-05
1.00435e-05
1.00435e-05
1.00435e-05
1.01262e-05
1.01262e-05
1.01262e-05
1.02679e-05
1.02679e-05
1.02679e-05
1.01938e-05
1.01938e-05
1.01938e-05
9.95432e-06
9.95432e-06
9.95432e-06
9.90738e-06
9.90738e-06
9.90738e-06
9.91847e-06
9.91847e-06
9.91847e-06
9.94194e-06
9.94194e-06
9.94194e-06
9.94319e-06
9.94319e-06
9.94319e-06
9.91971e-06
9.91971e-06
9.91971e-06
9.8496e-06
9.8496e-06
9.8496e-06
9.83856e-06
9.83856e-06
9.83856e-06
9.87411e-06
9.87411e-06
9.87411e-06
9.85078e-06
9.85078e-06
9.85078e-06
9.78221e-06
9.78221e-06
9.78221e-06
9.77008e-06
9.77008e-06
9.77008e-06
9.84191e-06
9.84191e-06
9.84191e-06
9.77205e-06
9.77205e-06
9.77205e-06
9.60056e-06
9.60056e-06
9.60056e-06
9.62476e-06
9.62476e-06
9.62476e-06
9.62339e-06
9.62339e-06
9.62339e-06
9.63551e-06
9.63551e-06
9.63551e-06
9.2686e-06
9.2686e-06
9.2686e-06
9.25798e-06
9.25798e-06
9.25798e-06
9.26961e-06
9.26961e-06
9.26961e-06
9.29188e-06
9.29188e-06
9.29188e-06
9.3921e-06
9.3921e-06
9.3921e-06
9.32167e-06
9.32167e-06
9.32167e-06
9.29938e-06
9.29938e-06
9.29938e-06
9.42188e-06
9.42188e-06
9.42188e-06
9.4006e-06
9.4006e-06
9.4006e-06
9.43251e-06
9.43251e-06
9.43251e-06
9.97528e-06
9.97528e-06
9.97528e-06
9.86911e-06
9.86911e-06
9.86911e-06
9.88011e-06
9.88011e-06
9.88011e-06
9.86776e-06
9.86776e-06
9.86776e-06
9.84446e-06
9.84446e-06
9.84446e-06
9.77487e-06
9.77487e-06
9.77487e-06
9.79802e-06
9.79802e-06
9.79802e-06
9.87584e-06
9.87584e-06
9.87584e-06
9.90067e-06
9.90067e-06
9.90067e-06
9.8992e-06
9.8992e-06
9.8992e-06
9.91162e-06
9.91162e-06
9.91162e-06
9.82781e-06
9.82781e-06
9.82781e-06
9.85058e-06
9.85058e-06
9.85058e-06
9.9821e-06
9.9821e-06
9.9821e-06
1.00198e-05
1.00198e-05
1.00198e-05
1.00072e-05
1.00072e-05
1.00072e-05
1.00769e-05
1.00769e-05
1.00769e-05
1.00546e-05
1.00546e-05
1.00546e-05
1.00896e-05
1.00896e-05
1.00896e-05
1.00784e-05
1.00784e-05
1.00784e-05
1.01247e-05
1.01247e-05
1.01247e-05
1.01486e-05
1.01486e-05
1.01486e-05
1.01599e-05
1.01599e-05
1.01599e-05
9.23155e-06
9.23155e-06
9.23155e-06
9.25487e-06
9.25487e-06
9.25487e-06
9.21679e-06
9.21679e-06
9.21679e-06
9.22798e-06
9.22798e-06
9.22798e-06
9.19468e-06
9.19468e-06
9.19468e-06
9.26169e-06
9.26169e-06
9.26169e-06
9.32812e-06
9.32812e-06
9.32812e-06
9.28378e-06
9.28378e-06
9.28378e-06
9.29387e-06
9.29387e-06
9.29387e-06
9.31601e-06
9.31601e-06
9.31601e-06
9.36637e-06
9.36637e-06
9.36637e-06
9.39941e-06
9.39941e-06
9.39941e-06
9.38879e-06
9.38879e-06
9.38879e-06
9.38756e-06
9.38756e-06
9.38756e-06
9.4629e-06
9.4629e-06
9.4629e-06
9.45084e-06
9.45084e-06
9.45084e-06
9.36075e-06
9.36075e-06
9.36075e-06
9.35042e-06
9.35042e-06
9.35042e-06
9.26094e-06
9.26094e-06
9.26094e-06
9.25997e-06
9.25997e-06
9.25997e-06
9.27157e-06
9.27157e-06
9.27157e-06
9.19352e-06
9.19352e-06
9.19352e-06
9.20406e-06
9.20406e-06
9.20406e-06
9.22619e-06
9.22619e-06
9.22619e-06
9.23777e-06
9.23777e-06
9.23777e-06
9.19871e-06
9.19871e-06
9.19871e-06
9.23263e-06
9.23263e-06
9.23263e-06
9.22098e-06
9.22098e-06
9.22098e-06
9.18812e-06
9.18812e-06
9.18812e-06
9.22415e-06
9.22415e-06
9.22415e-06
9.20197e-06
9.20197e-06
9.20197e-06
9.32587e-06
9.32587e-06
9.32587e-06
9.33755e-06
9.33755e-06
9.33755e-06
9.49627e-06
9.49627e-06
9.49627e-06
9.50711e-06
9.50711e-06
9.50711e-06
9.43713e-06
9.43713e-06
9.43713e-06
9.35995e-06
9.35995e-06
9.35995e-06
9.37067e-06
9.37067e-06
9.37067e-06
9.36189e-06
9.36189e-06
9.36189e-06
9.42639e-06
9.42639e-06
9.42639e-06
9.40386e-06
9.40386e-06
9.40386e-06
9.39313e-06
9.39313e-06
9.39313e-06
9.40489e-06
9.40489e-06
9.40489e-06
9.30452e-06
9.30452e-06
9.30452e-06
9.32782e-06
9.32782e-06
9.32782e-06
9.30548e-06
9.30548e-06
9.30548e-06
9.29385e-06
9.29385e-06
9.29385e-06
9.33853e-06
9.33853e-06
9.33853e-06
9.32686e-06
9.32686e-06
9.32686e-06
9.26188e-06
9.26188e-06
9.26188e-06
9.23969e-06
9.23969e-06
9.23969e-06
9.22907e-06
9.22907e-06
9.22907e-06
9.2406e-06
9.2406e-06
9.2406e-06
9.30642e-06
9.30642e-06
9.30642e-06
9.32876e-06
9.32876e-06
9.32876e-06
9.34041e-06
9.34041e-06
9.34041e-06
9.54553e-06
9.54553e-06
9.54553e-06
9.56833e-06
9.56833e-06
9.56833e-06
9.99483e-06
9.99483e-06
9.99483e-06
9.9007e-06
9.9007e-06
9.9007e-06
1.00069e-05
1.00069e-05
1.00069e-05
9.99526e-06
9.99526e-06
9.99526e-06
9.88877e-06
9.88877e-06
9.88877e-06
9.92008e-06
9.92008e-06
9.92008e-06
9.93218e-06
9.93218e-06
9.93218e-06
9.81531e-06
9.81531e-06
9.81531e-06
9.82659e-06
9.82659e-06
9.82659e-06
9.84916e-06
9.84916e-06
9.84916e-06
9.79207e-06
9.79207e-06
9.79207e-06
9.78081e-06
9.78081e-06
9.78081e-06
9.75765e-06
9.75765e-06
9.75765e-06
9.74574e-06
9.74574e-06
9.74574e-06
9.89065e-06
9.89065e-06
9.89065e-06
9.8561e-06
9.8561e-06
9.8561e-06
9.84492e-06
9.84492e-06
9.84492e-06
9.82163e-06
9.82163e-06
9.82163e-06
9.80954e-06
9.80954e-06
9.80954e-06
9.71144e-06
9.71144e-06
9.71144e-06
9.72264e-06
9.72264e-06
9.72264e-06
9.777e-06
9.777e-06
9.777e-06
9.75297e-06
9.75297e-06
9.75297e-06
9.8146e-06
9.8146e-06
9.8146e-06
9.82586e-06
9.82586e-06
9.82586e-06
9.70928e-06
9.70928e-06
9.70928e-06
9.72042e-06
9.72042e-06
9.72042e-06
9.78435e-06
9.78435e-06
9.78435e-06
9.80755e-06
9.80755e-06
9.80755e-06
9.77749e-06
9.77749e-06
9.77749e-06
9.59487e-06
9.59487e-06
9.59487e-06
1.0632e-05
1.0632e-05
1.0632e-05
1.0619e-05
1.0619e-05
1.0619e-05
1.06194e-05
1.06194e-05
1.06194e-05
1.03776e-05
1.03776e-05
1.03776e-05
1.04267e-05
1.04267e-05
1.04267e-05
1.04023e-05
1.04023e-05
1.04023e-05
1.0606e-05
1.0606e-05
1.0606e-05
1.06115e-05
1.06115e-05
1.06115e-05
1.06156e-05
1.06156e-05
1.06156e-05
1.00252e-05
1.00252e-05
1.00252e-05
1.00139e-05
1.00139e-05
1.00139e-05
1.00264e-05
1.00264e-05
1.00264e-05
1.00501e-05
1.00501e-05
1.00501e-05
9.99151e-06
9.99151e-06
9.99151e-06
1.00152e-05
1.00152e-05
1.00152e-05
1.0618e-05
1.0618e-05
1.0618e-05
1.05927e-05
1.05927e-05
1.05927e-05
1.06305e-05
1.06305e-05
1.06305e-05
1.06175e-05
1.06175e-05
1.06175e-05
1.05915e-05
1.05915e-05
1.05915e-05
1.05786e-05
1.05786e-05
1.05786e-05
1.05533e-05
1.05533e-05
1.05533e-05
1.05527e-05
1.05527e-05
1.05527e-05
1.05404e-05
1.05404e-05
1.05404e-05
1.05031e-05
1.05031e-05
1.05031e-05
1.05153e-05
1.05153e-05
1.05153e-05
1.06271e-05
1.06271e-05
1.06271e-05
1.06072e-05
1.06072e-05
1.06072e-05
1.02209e-05
1.02209e-05
1.02209e-05
1.01725e-05
1.01725e-05
1.01725e-05
1.05739e-05
1.05739e-05
1.05739e-05
1.05808e-05
1.05808e-05
1.05808e-05
1.05555e-05
1.05555e-05
1.05555e-05
1.05937e-05
1.05937e-05
1.05937e-05
9.45278e-06
9.45278e-06
9.45278e-06
9.40672e-06
9.40672e-06
9.40672e-06
9.34069e-06
9.34069e-06
9.34069e-06
9.34108e-06
9.34108e-06
9.34108e-06
9.35209e-06
9.35209e-06
9.35209e-06
9.40843e-06
9.40843e-06
9.40843e-06
9.37453e-06
9.37453e-06
9.37453e-06
9.38594e-06
9.38594e-06
9.38594e-06
9.35168e-06
9.35168e-06
9.35168e-06
9.31941e-06
9.31941e-06
9.31941e-06
9.37504e-06
9.37504e-06
9.37504e-06
9.39756e-06
9.39756e-06
9.39756e-06
9.21257e-06
9.21257e-06
9.21257e-06
9.2683e-06
9.2683e-06
9.2683e-06
9.2461e-06
9.2461e-06
9.2461e-06
9.23468e-06
9.23468e-06
9.23468e-06
9.31287e-06
9.31287e-06
9.31287e-06
9.26958e-06
9.26958e-06
9.26958e-06
9.24737e-06
9.24737e-06
9.24737e-06
9.65929e-06
9.65929e-06
9.65929e-06
9.64789e-06
9.64789e-06
9.64789e-06
9.65942e-06
9.65942e-06
9.65942e-06
9.5907e-06
9.5907e-06
9.5907e-06
9.61357e-06
9.61357e-06
9.61357e-06
9.57922e-06
9.57922e-06
9.57922e-06
9.59058e-06
9.59058e-06
9.59058e-06
9.62496e-06
9.62496e-06
9.62496e-06
9.61344e-06
9.61344e-06
9.61344e-06
9.75145e-06
9.75145e-06
9.75145e-06
9.72817e-06
9.72817e-06
9.72817e-06
9.74009e-06
9.74009e-06
9.74009e-06
9.7632e-06
9.7632e-06
9.7632e-06
9.75159e-06
9.75159e-06
9.75159e-06
1.04332e-05
1.04332e-05
1.04332e-05
1.0248e-05
1.0248e-05
1.0248e-05
1.02968e-05
1.02968e-05
1.02968e-05
1.01736e-05
1.01736e-05
1.01736e-05
1.01495e-05
1.01495e-05
1.01495e-05
1.0164e-05
1.0164e-05
1.0164e-05
1.00921e-05
1.00921e-05
1.00921e-05
1.00682e-05
1.00682e-05
1.00682e-05
1.02366e-05
1.02366e-05
1.02366e-05
1.02607e-05
1.02607e-05
1.02607e-05
1.02851e-05
1.02851e-05
1.02851e-05
1.02609e-05
1.02609e-05
1.02609e-05
1.02487e-05
1.02487e-05
1.02487e-05
1.02603e-05
1.02603e-05
1.02603e-05
1.02847e-05
1.02847e-05
1.02847e-05
1.03218e-05
1.03218e-05
1.03218e-05
1.02973e-05
1.02973e-05
1.02973e-05
1.02849e-05
1.02849e-05
1.02849e-05
1.0297e-05
1.0297e-05
1.0297e-05
1.04066e-05
1.04066e-05
1.04066e-05
9.57907e-06
9.57907e-06
9.57907e-06
9.55626e-06
9.55626e-06
9.55626e-06
9.7861e-06
9.7861e-06
9.7861e-06
9.7976e-06
9.7976e-06
9.7976e-06
9.76293e-06
9.76293e-06
9.76293e-06
9.75127e-06
9.75127e-06
9.75127e-06
9.83235e-06
9.83235e-06
9.83235e-06
1.00207e-05
1.00207e-05
1.00207e-05
1.00325e-05
1.00325e-05
1.00325e-05
1.00444e-05
1.00444e-05
1.00444e-05
1.00443e-05
1.00443e-05
1.00443e-05
1.00324e-05
1.00324e-05
1.00324e-05
9.90278e-06
9.90278e-06
9.90278e-06
9.92623e-06
9.92623e-06
9.92623e-06
1.00082e-05
1.00082e-05
1.00082e-05
9.85587e-06
9.85587e-06
9.85587e-06
9.90262e-06
9.90262e-06
9.90262e-06
9.86762e-06
9.86762e-06
9.86762e-06
9.891e-06
9.891e-06
9.891e-06
1.02307e-05
1.02307e-05
1.02307e-05
1.02065e-05
1.02065e-05
1.02065e-05
1.00812e-05
1.00812e-05
1.00812e-05
1.01614e-05
1.01614e-05
1.01614e-05
1.01501e-05
1.01501e-05
1.01501e-05
1.0091e-05
1.0091e-05
1.0091e-05
1.01149e-05
1.01149e-05
1.01149e-05
1.00798e-05
1.00798e-05
1.00798e-05
1.00925e-05
1.00925e-05
1.00925e-05
1.00939e-05
1.00939e-05
1.00939e-05
1.01178e-05
1.01178e-05
1.01178e-05
1.02323e-05
1.02323e-05
1.02323e-05
1.02566e-05
1.02566e-05
1.02566e-05
9.83736e-06
9.83736e-06
9.83736e-06
9.84838e-06
9.84838e-06
9.84838e-06
9.83612e-06
9.83612e-06
9.83612e-06
9.81288e-06
9.81288e-06
9.81288e-06
9.8019e-06
9.8019e-06
9.8019e-06
9.81411e-06
9.81411e-06
9.81411e-06
9.83971e-06
9.83971e-06
9.83971e-06
9.81646e-06
9.81646e-06
9.81646e-06
9.81757e-06
9.81757e-06
9.81757e-06
9.80541e-06
9.80541e-06
9.80541e-06
9.88637e-06
9.88637e-06
9.88637e-06
9.92207e-06
9.92207e-06
9.92207e-06
9.90977e-06
9.90977e-06
9.90977e-06
9.7833e-06
9.7833e-06
9.7833e-06
9.77118e-06
9.77118e-06
9.77118e-06
9.77225e-06
9.77225e-06
9.77225e-06
9.62973e-06
9.62973e-06
9.62973e-06
9.60686e-06
9.60686e-06
9.60686e-06
9.72869e-06
9.72869e-06
9.72869e-06
9.75979e-06
9.75979e-06
9.75979e-06
9.77349e-06
9.77349e-06
9.77349e-06
9.76123e-06
9.76123e-06
9.76123e-06
9.76263e-06
9.76263e-06
9.76263e-06
9.73954e-06
9.73954e-06
9.73954e-06
9.657e-06
9.657e-06
9.657e-06
9.62198e-06
9.62198e-06
9.62198e-06
9.63411e-06
9.63411e-06
9.63411e-06
9.555e-06
9.555e-06
9.555e-06
9.49754e-06
9.49754e-06
9.49754e-06
9.52021e-06
9.52021e-06
9.52021e-06
9.53227e-06
9.53227e-06
9.53227e-06
9.5216e-06
9.5216e-06
9.5216e-06
9.45504e-06
9.45504e-06
9.45504e-06
9.28984e-06
9.28984e-06
9.28984e-06
9.26652e-06
9.26652e-06
9.26652e-06
9.28879e-06
9.28879e-06
9.28879e-06
9.30046e-06
9.30046e-06
9.30046e-06
9.30151e-06
9.30151e-06
9.30151e-06
9.30253e-06
9.30253e-06
9.30253e-06
9.29087e-06
9.29087e-06
9.29087e-06
9.32383e-06
9.32383e-06
9.32383e-06
9.28769e-06
9.28769e-06
9.28769e-06
9.25377e-06
9.25377e-06
9.25377e-06
9.26544e-06
9.26544e-06
9.26544e-06
9.29823e-06
9.29823e-06
9.29823e-06
9.35575e-06
9.35575e-06
9.35575e-06
9.33339e-06
9.33339e-06
9.33339e-06
9.32277e-06
9.32277e-06
9.32277e-06
9.33448e-06
9.33448e-06
9.33448e-06
9.4523e-06
9.4523e-06
9.4523e-06
9.42975e-06
9.42975e-06
9.42975e-06
9.4206e-06
9.4206e-06
9.4206e-06
9.39813e-06
9.39813e-06
9.39813e-06
9.41922e-06
9.41922e-06
9.41922e-06
9.43117e-06
9.43117e-06
9.43117e-06
9.95174e-06
9.95174e-06
9.95174e-06
9.90483e-06
9.90483e-06
9.90483e-06
9.91719e-06
9.91719e-06
9.91719e-06
9.94065e-06
9.94065e-06
9.94065e-06
9.90348e-06
9.90348e-06
9.90348e-06
9.95039e-06
9.95039e-06
9.95039e-06
9.91587e-06
9.91587e-06
9.91587e-06
9.93932e-06
9.93932e-06
9.93932e-06
9.9145e-06
9.9145e-06
9.9145e-06
9.93795e-06
9.93795e-06
9.93795e-06
1.001e-05
1.001e-05
1.001e-05
9.9864e-06
9.9864e-06
9.9864e-06
9.97392e-06
9.97392e-06
9.97392e-06
1.00212e-05
1.00212e-05
1.00212e-05