<VTKFile type="UnstructuredGrid" version="1.0">
<UnstructuredGrid>
<Piece NumberOfPoints="8859" NumberOfCells="2953">
<Points>
<DataArray type="Float64" NumberOfComponents="3" format="ascii">
0.5 3.01 8.265
0.512524 3.01 8.2875
0.487476 3.01 8.2875
0.17352 3.01 7.3875
0.160827 3.01 7.40922
0.148445 3.01 7.3875
0.122979 3.01 7.43089
0.110383 3.01 7.40921
0.135644 3.01 7.40922
0.135644 3.01 7.40922
0.110383 3.01 7.40921
0.123433 3.01 7.3875
0.123433 3.01 7.3875
0.148445 3.01 7.3875
0.135644 3.01 7.40922
0.135644 3.01 7.40922
0.148445 3.01 7.3875
0.160827 3.01 7.40922
0.17352 3.01 7.3875
0.198629 3.01 7.3875
0.185985 3.01 7.4092
0.185985 3.01 7.4092
0.160827 3.01 7.40922
0.17352 3.01 7.3875
0.0732297 3.01 7.43067
0.0586606 3.01 7.40881
0.0848754 3.01 7.40914
0.05 3.01 8.22027
0.05 3.01 8.1751
0.058509 3.01 8.19756
0.324276 3.01 7.3875
0.349395 3.01 7.3875
0.336827 3.01 7.40916
0.148138 3.01 7.4309
0.135644 3.01 7.40922
0.160827 3.01 7.40922
0.122979 3.01 7.43089
0.135644 3.01 7.40922
0.148138 3.01 7.4309
0.160827 3.01 7.40922
0.185985 3.01 7.4092
0.173316 3.01 7.43089
0.185806 3.01 7.45255
0.160572 3.01 7.45255
0.173316 3.01 7.43089
0.173316 3.01 7.43089
0.148138 3.01 7.4309
0.160827 3.01 7.40922
0.160572 3.01 7.45255
0.148138 3.01 7.4309
0.173316 3.01 7.43089
0.211137 3.01 7.40919
0.185985 3.01 7.4092
0.198629 3.01 7.3875
0.0979162 3.01 7.43084
0.110383 3.01 7.40921
0.122979 3.01 7.43089
0.122979 3.01 7.43089
0.109875 3.01 7.45249
0.0979162 3.01 7.43084
0.0732297 3.01 7.43067
0.0848754 3.01 7.40914
0.0979162 3.01 7.43084
0.0979162 3.01 7.43084
0.0848754 3.01 7.40914
0.110383 3.01 7.40921
0.0975729 3.01 7.47404
0.109875 3.01 7.45249
0.122678 3.01 7.47414
0.0841718 3.01 7.45235
0.0577122 3.01 7.45202
0.0732297 3.01 7.43067
0.0729308 3.01 7.47388
0.0577122 3.01 7.45202
0.0841718 3.01 7.45235
0.0732297 3.01 7.43067
0.0979162 3.01 7.43084
0.0841718 3.01 7.45235
0.0841718 3.01 7.45235
0.0979162 3.01 7.43084
0.109875 3.01 7.45249
0.0975729 3.01 7.47404
0.0729308 3.01 7.47388
0.0841718 3.01 7.45235
0.0841718 3.01 7.45235
0.109875 3.01 7.45249
0.0975729 3.01 7.47404
0.073948 3.01 7.3875
0.0586606 3.01 7.40881
0.05 3.01 7.3875
0.073948 3.01 7.3875
0.0848754 3.01 7.40914
0.0586606 3.01 7.40881
0.05 3.01 8.26329
0.05 3.01 8.22027
0.0603641 3.01 8.24197
0.0603641 3.01 8.24197
0.0753197 3.01 8.26399
0.05 3.01 8.26329
0.0709395 3.01 8.2875
0.05 3.01 8.2875
0.05 3.01 8.26329
0.05 3.01 8.26329
0.0753197 3.01 8.26399
0.0709395 3.01 8.2875
0.0579641 3.01 7.97463
0.05 3.01 7.99669
0.05 3.01 7.95261
0.0841948 3.01 7.8868
0.097638 3.01 7.86493
0.109814 3.01 7.8868
0.0841948 3.01 7.8868
0.0730539 3.01 7.9087
0.0578646 3.01 7.8868
0.0580261 3.01 8.0188
0.05 3.01 8.04095
0.05 3.01 7.99669
0.942292 3.01 7.58236
0.95 3.01 7.56067
0.95 3.01 7.60404
0.95 3.01 7.51726
0.95 3.01 7.56067
0.942332 3.01 7.53897
0.73872 3.01 7.79953
0.726137 3.01 7.77776
0.75132 3.01 7.77775
0.751305 3.01 7.82132
0.726124 3.01 7.82133
0.73872 3.01 7.79953
0.713546 3.01 7.79954
0.726137 3.01 7.77776
0.73872 3.01 7.79953
0.73872 3.01 7.79953
0.726124 3.01 7.82133
0.713546 3.01 7.79954
0.814318 3.01 7.84311
0.789096 3.01 7.84312
0.801709 3.01 7.8213
0.7765 3.01 7.82131
0.789115 3.01 7.79951
0.801709 3.01 7.8213
0.801709 3.01 7.8213
0.789096 3.01 7.84312
0.7765 3.01 7.82131
0.7765 3.01 7.82131
0.789096 3.01 7.84312
0.763892 3.01 7.84314
0.763892 3.01 7.84314
0.751305 3.01 7.82132
0.7765 3.01 7.82131
0.95 3.01 8.2875
0.929061 3.01 8.2875
0.95 3.01 8.26329
0.95 3.01 8.0854
0.926844 3.01 8.0854
0.941913 3.01 8.06315
0.941913 3.01 8.06315
0.95 3.01 8.04095
0.95 3.01 8.0854
0.926866 3.01 8.04094
0.95 3.01 8.04095
0.941913 3.01 8.06315
0.941974 3.01 8.0188
0.95 3.01 8.04095
0.926866 3.01 8.04094
0.95 3.01 7.99669
0.95 3.01 8.04095
0.941974 3.01 8.0188
0.941974 3.01 8.0188
0.926895 3.01 7.99669
0.95 3.01 7.99669
0.6127 3.01 8.2875
0.625238 3.01 8.26498
0.637734 3.01 8.2875
0.662757 3.01 8.2875
0.637734 3.01 8.2875
0.650275 3.01 8.26497
0.650275 3.01 8.26497
0.637734 3.01 8.2875
0.625238 3.01 8.26498
0.600415 3.01 7.82137
0.587856 3.01 7.8432
0.575304 3.01 7.82137
0.575304 3.01 7.82137
0.587856 3.01 7.8432
0.562749 3.01 7.8432
0.336827 3.01 7.40916
0.349395 3.01 7.3875
0.361946 3.01 7.40916
0.223755 3.01 7.3875
0.211137 3.01 7.40919
0.198629 3.01 7.3875
0.185985 3.01 7.4092
0.211137 3.01 7.40919
0.198492 3.01 7.43088
0.185806 3.01 7.45255
0.173316 3.01 7.43089
0.198492 3.01 7.43088
0.198492 3.01 7.43088
0.173316 3.01 7.43089
0.185985 3.01 7.4092
0.0576202 3.01 7.49553
0.05 3.01 7.51726
0.05 3.01 7.47374
0.05 3.01 7.47374
0.0729308 3.01 7.47388
0.0576202 3.01 7.49553
0.05 3.01 7.47374
0.0577122 3.01 7.45202
0.0729308 3.01 7.47388
0.135283 3.01 7.45254
0.109875 3.01 7.45249
0.122979 3.01 7.43089
0.135283 3.01 7.45254
0.122678 3.01 7.47414
0.109875 3.01 7.45249
0.122979 3.01 7.43089
0.148138 3.01 7.4309
0.135283 3.01 7.45254
0.135283 3.01 7.45254
0.148138 3.01 7.4309
0.160572 3.01 7.45255
0.123433 3.01 7.3875
0.110383 3.01 7.40921
0.0985513 3.01 7.3875
0.110383 3.01 7.40921
0.0848754 3.01 7.40914
0.0985513 3.01 7.3875
0.0848754 3.01 7.40914
0.073948 3.01 7.3875
0.0985513 3.01 7.3875
0.0603641 3.01 8.24197
0.05 3.01 8.22027
0.0739464 3.01 8.21949
0.0739464 3.01 8.21949
0.05 3.01 8.22027
0.058509 3.01 8.19756
0.058509 3.01 8.19756
0.0849548 3.01 8.19711
0.0739464 3.01 8.21949
0.058509 3.01 8.19756
0.05 3.01 8.1751
0.0732725 3.01 8.17488
0.0732725 3.01 8.17488
0.0849548 3.01 8.19711
0.058509 3.01 8.19756
0.5 3.01 8.265
0.487476 3.01 8.2875
0.47495 3.01 8.265
0.097663 3.01 7.9087
0.0841948 3.01 7.8868
0.109814 3.01 7.8868
0.0730539 3.01 7.9087
0.0841948 3.01 7.8868
0.097663 3.01 7.9087
0.0578646 3.01 7.8868
0.0730539 3.01 7.9087
0.05 3.01 7.9087
0.05 3.01 7.9087
0.05 3.01 7.86492
0.0578646 3.01 7.8868
0.05 3.01 8.0854
0.05 3.01 8.04095
0.0580869 3.01 8.06315
0.05 3.01 8.04095
0.0580261 3.01 8.0188
0.073134 3.01 8.04094
0.073134 3.01 8.04094
0.0580869 3.01 8.06315
0.05 3.01 8.04095
0.942268 3.01 7.62573
0.95 3.01 7.60404
0.95 3.01 7.64741
0.942292 3.01 7.58236
0.95 3.01 7.60404
0.927025 3.01 7.60404
0.927025 3.01 7.60404
0.942268 3.01 7.62573
0.915919 3.01 7.62572
0.95 3.01 7.60404
0.942268 3.01 7.62573
0.927025 3.01 7.60404
0.927013 3.01 7.64741
0.942268 3.01 7.62573
0.95 3.01 7.64741
0.915919 3.01 7.62572
0.942268 3.01 7.62573
0.927013 3.01 7.64741
0.801738 3.01 7.73425
0.814364 3.01 7.71253
0.826957 3.01 7.73425
0.852174 3.01 7.73424
0.826957 3.01 7.73425
0.839609 3.01 7.71252
0.839609 3.01 7.71252
0.826957 3.01 7.73425
0.814364 3.01 7.71253
0.776516 3.01 7.77775
0.75132 3.01 7.77775
0.763923 3.01 7.756
0.776516 3.01 7.77775
0.801725 3.01 7.77774
0.789115 3.01 7.79951
0.738704 3.01 7.84315
0.751305 3.01 7.82132
0.763892 3.01 7.84314
0.726124 3.01 7.82133
0.751305 3.01 7.82132
0.738704 3.01 7.84315
0.915617 3.01 8.06314
0.902228 3.01 8.04094
0.926866 3.01 8.04094
0.926866 3.01 8.04094
0.941913 3.01 8.06315
0.915617 3.01 8.06314
0.915617 3.01 8.06314
0.941913 3.01 8.06315
0.926844 3.01 8.0854
0.915617 3.01 8.06314
0.926844 3.01 8.0854
0.902193 3.01 8.08538
0.926866 3.01 8.04094
0.902228 3.01 8.04094
0.915668 3.01 8.01879
0.902267 3.01 7.99668
0.926895 3.01 7.99669
0.915668 3.01 8.01879
0.915668 3.01 8.01879
0.941974 3.01 8.0188
0.926866 3.01 8.04094
0.926895 3.01 7.99669
0.941974 3.01 8.0188
0.915668 3.01 8.01879
0.902267 3.01 7.99668
0.915668 3.01 8.01879
0.890059 3.01 8.01879
0.890059 3.01 8.01879
0.915668 3.01 8.01879
0.902228 3.01 8.04094
0.826927 3.01 7.82129
0.814318 3.01 7.84311
0.801709 3.01 7.8213
0.864816 3.01 7.8868
0.877308 3.01 7.86493
0.890186 3.01 7.8868
0.877308 3.01 7.86493
0.864816 3.01 7.8868
0.852122 3.01 7.86494
0.890186 3.01 7.8868
0.877308 3.01 7.86493
0.902362 3.01 7.86493
0.902362 3.01 7.86493
0.915805 3.01 7.8868
0.890186 3.01 7.8868
0.902362 3.01 7.86493
0.926964 3.01 7.86492
0.915805 3.01 7.8868
0.915835 3.01 7.84309
0.926964 3.01 7.86492
0.902362 3.01 7.86493
0.942171 3.01 7.84309
0.926964 3.01 7.86492
0.915835 3.01 7.84309
0.915835 3.01 7.84309
0.926978 3.01 7.82127
0.942171 3.01 7.84309
0.942171 3.01 7.84309
0.926978 3.01 7.82127
0.95 3.01 7.82127
0.87737 3.01 7.69081
0.890277 3.01 7.66911
0.902417 3.01 7.6908
0.852144 3.01 7.82128
0.877329 3.01 7.82128
0.864842 3.01 7.84309
0.877308 3.01 7.86493
0.852122 3.01 7.86494
0.864842 3.01 7.84309
0.902396 3.01 7.77772
0.915858 3.01 7.79948
0.890234 3.01 7.79949
0.926997 3.01 7.73423
0.942237 3.01 7.71251
0.95 3.01 7.73423
0.91589 3.01 7.71251
0.942237 3.01 7.71251
0.926997 3.01 7.73423
0.942199 3.01 7.79948
0.95 3.01 7.77771
0.95 3.01 7.82127
0.95 3.01 7.82127
0.926978 3.01 7.82127
0.942199 3.01 7.79948
0.942199 3.01 7.79948
0.926978 3.01 7.82127
0.915858 3.01 7.79948
0.95 3.01 7.73423
0.95 3.01 7.77771
0.942221 3.01 7.75597
0.942221 3.01 7.75597
0.926997 3.01 7.73423
0.95 3.01 7.73423
0.915876 3.01 7.75597
0.926997 3.01 7.73423
0.942221 3.01 7.75597
0.926989 3.01 7.77771
0.915858 3.01 7.79948
0.902396 3.01 7.77772
0.902396 3.01 7.77772
0.915876 3.01 7.75597
0.926989 3.01 7.77771
0.926989 3.01 7.77771
0.942199 3.01 7.79948
0.915858 3.01 7.79948
0.95 3.01 7.77771
0.942199 3.01 7.79948
0.926989 3.01 7.77771
0.915876 3.01 7.75597
0.942221 3.01 7.75597
0.926989 3.01 7.77771
0.926989 3.01 7.77771
0.942221 3.01 7.75597
0.95 3.01 7.77771
0.91353 3.01 8.24185
0.926054 3.01 8.21949
0.939636 3.01 8.24197
0.926728 3.01 8.17488
0.95 3.01 8.1751
0.941491 3.01 8.19756
0.926728 3.01 8.17488
0.941822 3.01 8.15254
0.95 3.01 8.1751
0.95 3.01 8.22027
0.95 3.01 8.26329
0.939636 3.01 8.24197
0.95 3.01 8.22027
0.926054 3.01 8.21949
0.941491 3.01 8.19756
0.939636 3.01 8.24197
0.926054 3.01 8.21949
0.95 3.01 8.22027
0.941491 3.01 8.19756
0.95 3.01 8.1751
0.95 3.01 8.22027
0.941869 3.01 8.10772
0.926844 3.01 8.0854
0.95 3.01 8.0854
0.762942 3.01 8.24228
0.75028 3.01 8.26489
0.737933 3.01 8.24234
0.71291 3.01 8.24239
0.725533 3.01 8.21985
0.737933 3.01 8.24234
0.71291 3.01 8.24239
0.737933 3.01 8.24234
0.725313 3.01 8.26492
0.725313 3.01 8.26492
0.737933 3.01 8.24234
0.75028 3.01 8.26489
0.737693 3.01 8.2875
0.712746 3.01 8.2875
[...]
<PointData Scalars="View Factor" >
<DataArray type="Float64" Name="View Factor" NumberOfComponents="1" format="ascii">
0.00115697
0.00115697
0.00115697
0.000746798
0.000746798
0.000746798
0.000754783
0.000754783
0.000754783
0.000749591
0.000749591
0.000749591
0.000746946
0.000746946
0.000746946
0.000749456
0.000749456
0.000749456
0.000746625
0.000746625
0.000746625
0.000749293
0.000749293
0.000749293
0.000754896
0.000754896
0.000754896
0.00111655
0.00111655
0.00111655
0.000745067
0.000745067
0.000745067
0.000754647
0.000754647
0.000754647
0.000757328
0.000757328
0.000757328
0.000754481
0.000754481
0.000754481
0.00076498
0.00076498
0.00076498
0.000757177
0.000757177
0.000757177
0.000762426
0.000762426
0.000762426
0.000749105
0.000749105
0.000749105
0.000757444
0.000757444
0.000757444
0.000762689
0.000762689
0.000762689
0.000757508
0.000757508
0.000757508
0.000754878
0.000754878
0.000754878
0.000773302
0.000773302
0.000773302
0.000765372
0.000765372
0.000765372
0.000770676
0.000770676
0.000770676
0.000762745
0.000762745
0.000762745
0.00076536
0.00076536
0.00076536
0.000773354
0.000773354
0.000773354
0.000770664
0.000770664
0.000770664
0.000747187
0.000747187
0.000747187
0.00074973
0.00074973
0.00074973
0.00114287
0.00114287
0.00114287
0.00115168
0.00115168
0.00115168
0.00116585
0.00116585
0.00116585
0.00116097
0.00116097
0.00116097
0.000994704
0.000994704
0.000994704
0.000947592
0.000947592
0.000947592
0.000954726
0.000954726
0.000954726
0.00101747
0.00101747
0.00101747
0.000798118
0.000798118
0.000798118
0.000781652
0.000781652
0.000781652
0.00088989
0.00088989
0.00088989
0.000902817
0.000902817
0.000902817
0.000893573
0.000893573
0.000893573
0.000900041
0.000900041
0.000900041
0.000910106
0.000910106
0.000910106
0.000900809
0.000900809
0.000900809
0.000907345
0.000907345
0.000907345
0.000911159
0.000911159
0.000911159
0.000908376
0.000908376
0.000908376
0.00113317
0.00113317
0.00113317
0.00102111
0.00102111
0.00102111
0.00101296
0.00101296
0.00101296
0.00100577
0.00100577
0.00100577
0.00099823
0.00099823
0.00099823
0.000990342
0.000990342
0.000990342
0.000983388
0.000983388
0.000983388
0.00115174
0.00115174
0.00115174
0.00115056
0.00115056
0.00115056
0.0011466
0.0011466
0.0011466
0.000914676
0.000914676
0.000914676
0.000918398
0.000918398
0.000918398
0.000747462
0.000747462
0.000747462
0.000746427
0.000746427
0.000746427
0.00075429
0.00075429
0.00075429
0.000762246
0.000762246
0.000762246
0.000756997
0.000756997
0.000756997
0.000784221
0.000784221
0.000784221
0.000778761
0.000778761
0.000778761
0.00077335
0.00077335
0.00077335
0.000765276
0.000765276
0.000765276
0.000770585
0.000770585
0.000770585
0.000762577
0.000762577
0.000762577
0.000765145
0.000765145
0.000765145
0.000747067
0.000747067
0.000747067
0.000749692
0.000749692
0.000749692
0.000747155
0.000747155
0.000747155
0.00113406
0.00113406
0.00113406
0.00112525
0.00112525
0.00112525
0.00112063
0.00112063
0.00112063
0.00110769
0.00110769
0.00110769
0.00111191
0.00111191
0.00111191
0.00115284
0.00115284
0.00115284
0.000954604
0.000954604
0.000954604
0.0009582
0.0009582
0.0009582
0.000958302
0.000958302
0.000958302
0.00095128
0.00095128
0.00095128
0.00104099
0.00104099
0.00104099
0.00102519
0.00102519
0.00102519
0.00103303
0.00103303
0.00103303
0.00081501
0.00081501
0.00081501
0.000804016
0.000804016
0.000804016
0.000812958
0.000812958
0.000812958
0.00080965
0.00080965
0.00080965
0.000821066
0.000821066
0.000821066
0.000818671
0.000818671
0.000818671
0.000861895
0.000861895
0.000861895
0.000860878
0.000860878
0.000860878
0.000858333
0.000858333
0.000858333
0.000882563
0.000882563
0.000882563
0.000887925
0.000887925
0.000887925
0.00091218
0.00091218
0.00091218
0.000909375
0.000909375
0.000909375
0.00100716
0.00100716
0.00100716
0.00101023
0.00101023
0.00101023
0.0010179
0.0010179
0.0010179
0.00102253
0.00102253
0.00102253
0.000999607
0.000999607
0.000999607
0.000984735
0.000984735
0.000984735
0.000995129
0.000995129
0.000995129
0.000987701
0.000987701
0.000987701
0.000989085
0.000989085
0.000989085
0.000996528
0.000996528
0.000996528
0.000906282
0.000906282
0.000906282
0.000926724
0.000926724
0.000926724
0.000923951
0.000923951
0.000923951
0.000922759
0.000922759
0.000922759
0.000925503
0.000925503
0.000925503
0.000921542
0.000921542
0.000921542
0.000914872
0.000914872
0.000914872
0.000910917
0.000910917
0.000910917
0.000904352
0.000904352
0.000904352
0.000900541
0.000900541
0.000900541
0.000840705
0.000840705
0.000840705
0.000904061
0.000904061
0.000904061
0.000917255
0.000917255
0.000917255
0.000886218
0.000886218
0.000886218
0.000856561
0.000856561
0.000856561
0.000854039
0.000854039
0.000854039
0.00088731
0.00088731
0.00088731
0.000894077
0.000894077
0.000894077
0.000891412
0.000891412
0.000891412
0.000868477
0.000868477
0.000868477
0.000862668
0.000862668
0.000862668
0.000866264
0.000866264
0.000866264
0.000882485
0.000882485
0.000882485
0.000876192
0.000876192
0.000876192
0.000885035
0.000885035
0.000885035
0.000881335
0.000881335
0.000881335
0.000872462
0.000872462
0.000872462
0.000875054
0.000875054
0.000875054
0.0011079
0.0011079
0.0011079
0.00107757
0.00107757
0.00107757
0.00106922
0.00106922
0.00106922
0.00111087
0.00111087
0.00111087
0.00109446
0.00109446
0.00109446
0.00110297
0.00110297
0.00110297
0.00108556
0.00108556
0.00108556
0.0010289
0.0010289
0.0010289
0.00112737
0.00112737
0.00112737
0.00111986
0.00111986
0.00111986
0.00112872
0.00112872
0.00112872
0.00113252
0.00113252
0.00113252
0.00114674
0.00114674
0.00114674
0.00114153
0.00114153
0.00114153
0.00114539
0.00114539
0.00114539
0.00109261
0.00109261
0.00109261
0.00110241
0.00110241
0.00110241
0.00111611
0.00111611
0.00111611
0.00110738
0.00110738
0.00110738
0.00111859
0.00111859
0.00111859
0.00110984
0.00110984
0.00110984
0.0011387
0.0011387
0.0011387
0.00114775
0.00114775
0.00114775
0.00115287
0.00115287
0.00115287
0.000908526
0.000908526
0.000908526
0.00091761
0.00091761
0.00091761
0.000939535
0.000939535
0.000939535
0.00094568
0.00094568
0.00094568
0.000938756
0.000938756
0.000938756
0.000935712
0.000935712
0.000935712
0.000925116
0.000925116
0.000925116
0.000928888
0.000928888
0.000928888
0.000946468
0.000946468
0.000946468
0.000949569
0.000949569
0.000949569
0.000989604
0.000989604
0.000989604
0.000935291
0.000935291
0.000935291
0.000932335
0.000932335
0.000932335
0.000916733
0.000916733
0.000916733
0.000930186
0.000930186
0.000930186
0.000745685
0.000745685
0.000745685
0.000745956
0.000745956
0.000745956
0.000748394
0.000748394
0.000748394
0.000753567
0.000753567
0.000753567
0.00074022
0.00074022
0.00074022
0.000869055
0.000869055
0.000869055
0.000881575
0.000881575
0.000881575
0.000872653
0.000872653
0.000872653
0.000878918
0.000878918
0.000878918
0.000879885
0.000879885
0.000879885
0.00088352
0.00088352
0.00088352
0.000756027
0.000756027
0.000756027
0.000744722
0.000744722
0.000744722
0.000739324
0.000739324
0.000739324
0.000830148
0.000830148
0.000830148
0.000827408
0.000827408
0.000827408
0.000767974
0.000767974
0.000767974
0.000752284
0.000752284
0.000752284
0.000757454
0.000757454
0.000757454
0.000762692
0.000762692
0.000762692
0.00112485
0.00112485
0.00112485
0.00115788
0.00115788
0.00115788
0.00100218
0.00100218
0.00100218
0.00100977
0.00100977
0.00100977
0.000965322
0.000965322
0.000965322
0.000788934
0.000788934
0.000788934
0.00100192
0.00100192
0.00100192
0.0010095
0.0010095
0.0010095
0.000944039
0.000944039
0.000944039
0.000947439
0.000947439
0.000947439
0.000937265
0.000937265
0.000937265
0.000944173
0.000944173
0.000944173
0.000944273
0.000944273
0.000944273
0.000947711
0.000947711
0.000947711
0.000930549
0.000930549
0.000930549
0.000937363
0.000937363
0.000937363
0.000933894
0.000933894
0.000933894
0.000927088
0.000927088
0.000927088
0.000923751
0.000923751
0.000923751
0.000897561
0.000897561
0.000897561
0.000893765
0.000893765
0.000893765
0.000822102
0.000822102
0.000822102
0.000868058
0.000868058
0.000868058
0.000871665
0.000871665
0.000871665
0.00087792
0.00087792
0.00087792
0.000857306
0.000857306
0.000857306
0.000859833
0.000859833
0.000859833
0.00083826
0.00083826
0.00083826
0.000801681
0.000801681
0.000801681
0.000828786
0.000828786
0.000828786
0.000888924
0.000888924
0.000888924
0.000901829
0.000901829
0.000901829
0.000898076
0.000898076
0.000898076
0.000891629
0.000891629
0.000891629
0.000892617
0.000892617
0.000892617
0.000899074
0.000899074
0.000899074
0.00091883
0.00091883
0.00091883
0.000922686
0.000922686
0.000922686
0.000913168
0.000913168
0.000913168
0.000919829
0.000919829
0.000919829
0.000941213
0.000941213
0.000941213
0.00094418
0.00094418
0.00094418
0.000925547
0.000925547
0.000925547
0.00093228
0.00093228
0.00093228
0.000986073
0.000986073
0.000986073
0.000980041
0.000980041
0.000980041
0.000978741
0.000978741
0.000978741
0.00097575
0.00097575
0.00097575
0.00111343
0.00111343
0.00111343
0.00111851
0.00111851
0.00111851
0.0011148
0.0011148
0.0011148
0.00110608
0.00110608
0.00110608
0.00106737
0.00106737
0.00106737
0.00108832
0.00108832
0.00108832
0.00109684
0.00109684
0.00109684
0.00105045
0.00105045
0.00105045
0.00105994
0.00105994
0.00105994
0.00104574
0.00104574
0.00104574
0.000880557
0.000880557
0.000880557
0.000909021
0.000909021
0.000909021
0.000905187
0.000905187
0.000905187
0.000907904
0.000907904
0.000907904
0.000914507
0.000914507
0.000914507
0.000934714
0.000934714
0.000934714
0.000927911
0.000927911
0.000927911
0.000901728
0.000901728
0.000901728
0.000896418
0.000896418
0.000896418
0.000895252
0.000895252
0.000895252
0.000892607
0.000892607
0.000892607
0.00091366
0.00091366
0.00091366
0.000906691
0.000906691
0.000906691
0.000873621
0.000873621
0.000873621
0.000865974
0.000865974
0.000865974
0.000868521
0.000868521
0.000868521
0.000849122
0.000849122
0.000849122
0.00085625
0.00085625
0.00085625
0.000846668
0.000846668
0.000846668
0.000850198
0.000850198
0.000850198
0.000837205
0.000837205
0.000837205
0.000831327
0.000831327
0.000831327
0.000827897
0.000827897
0.000827897
0.00112147
0.00112147
0.00112147
0.00111418
0.00111418
0.00111418
0.00111992
0.00111992
0.00111992
0.00111655
0.00111655
0.00111655
0.0011291
0.0011291
0.0011291
0.00110439
0.00110439
0.00110439
0.00107896
0.00107896
0.00107896
0.00109581
0.00109581
0.00109581
0.00109082
0.00109082
0.00109082
0.00108241
0.00108241
0.00108241
0.00107157
0.00107157
0.00107157
0.00105855
0.00105855
0.00105855
0.00106333
0.00106333
0.00106333
0.00106192
0.00106192
0.00106192
0.00103033
0.00103033
0.00103033
0.00103351
0.00103351
0.00103351
0.00106576
0.00106576
0.00106576
0.00107065
0.00107065
0.00107065
0.0011224
0.0011224
0.0011224
0.00112115
0.00112115
0.00112115
0.00111737
0.00111737
0.00111737
0.00114806
0.00114806
0.00114806
0.00114286
0.00114286
0.00114286
0.00113385
0.00113385
0.00113385
0.00113003
0.00113003
0.00113003
0.00113574
0.00113574
0.00113574
0.00112302
0.00112302
0.00112302
0.00112671
0.00112671
0.00112671
0.00114107
0.00114107
0.00114107
0.00113114
0.00113114
0.00113114
0.00114015
0.00114015
0.00114015
0.00109383
0.00109383
0.00109383
0.0010902
0.0010902
0.0010902
0.00103406
0.00103406
0.00103406
0.00102956
0.00102956
0.00102956
0.00105106
0.00105106
0.00105106
0.00108175
0.00108175
0.00108175
0.00107694
0.00107694
0.00107694
0.00108414
0.00108414
0.00108414
0.00105573
0.00105573
0.00105573
0.00106389
0.00106389
0.00106389
0.00106864
0.00106864
0.00106864
0.00106513
0.00106513
0.00106513
0.00110368
0.00110368
0.00110368
0.0010963
0.0010963
0.0010963
0.00110491
0.00110491
0.00110491
0.00110863
0.00110863
0.00110863
0.00109143
0.00109143
0.00109143
0.00109509
0.00109509
0.00109509
0.00112359
0.00112359
0.00112359
0.00113249
0.00113249
0.00113249
0.00113756
0.00113756
0.00113756
0.00113365
0.00113365
0.00113365
0.00110608
0.00110608
0.00110608
0.00109746
0.00109746
0.00109746
0.00109375
0.00109375
0.00109375
0.00102246
0.00102246
0.00102246
0.00101473
0.00101473
0.00101473
0.000895669
0.000895669
0.000895669
0.000922044
0.000922044
0.000922044
0.000892606
0.000892606
0.000892606
0.000895988
0.000895988
0.000895988
0.000925235
0.000925235
0.000925235
0.000912122
0.000912122
0.000912122
0.000909101
0.000909101
0.000909101
0.000942911
0.000942911
0.000942911
0.000939157
0.000939157
0.000939157
0.000931683
0.000931683
0.000931683
0.00094988
0.00094988
0.00094988
0.000953685
0.000953685
0.000953685
0.000960765
0.000960765
0.000960765
0.000964033
0.000964033
0.000964033
0.000913875
0.000913875
0.000913875
0.000924319
0.000924319
0.000924319
0.000928104
0.000928104
0.000928104
0.000934919
0.000934919
0.000934919
0.000937941
0.000937941
0.000937941
0.000975146
0.000975146
0.000975146
0.000971221
0.000971221
0.000971221
0.000950343
0.000950343
0.000950343
0.000956605
0.000956605
0.000956605
0.000942306
0.000942306
0.000942306
0.000938537
0.000938537
0.000938537
0.000973187
0.000973187
0.000973187
0.000969217
0.000969217
0.000969217
0.000943105
0.000943105
0.000943105
0.000936209
0.000936209
0.000936209
0.000937015
0.000937015
0.000937015
0.00099546
0.00099546
0.00099546
0.000746204
0.000746204
0.000746204
0.000748655
0.000748655
0.000748655
0.000748893
0.000748893
0.000748893
0.000776557
0.000776557
0.000776557
0.000765582
0.000765582
0.000765582
0.000771199
0.000771199
0.000771199
0.000741544
0.000741544
0.000741544
0.000735159
0.000735159
0.000735159
0.000737347
0.000737347
0.000737347
0.000870022
0.000870022
0.000870022
0.00087361
0.00087361
0.00087361
0.000870958
0.000870958
0.000870958
0.000864766
0.000864766
0.000864766
0.000880821
0.000880821
0.000880821
0.000874536
0.000874536
0.000874536
0.000748108
0.000748108
0.000748108
0.000753277
0.000753277
0.000753277
0.000745388
0.000745388
0.000745388
0.000747797
0.000747797
0.000747797
0.000752623
0.000752623
0.000752623
0.00075504
0.00075504
0.00075504
0.000760266
0.000760266
0.000760266
0.000759884
0.000759884
0.000759884
0.000762706
0.000762706
0.000762706
0.000770852
0.000770852
0.000770852
0.000767997
0.000767997
0.000767997
0.00074354
0.00074354
0.00074354
0.00074217
0.00074217
0.00074217
0.000836034
0.000836034
0.000836034
0.000847967
0.000847967
0.000847967
0.000752403
0.000752403
0.000752403
0.000756306
0.000756306
0.000756306
0.000761546
0.000761546
0.000761546
0.000753832
0.000753832
0.000753832
0.00106787
0.00106787
0.00106787
0.00108377
0.00108377
0.00108377
0.0011106
0.0011106
0.0011106
0.00111088
0.00111088
0.00111088
0.0011064
0.0011064
0.0011064
0.00108517
0.00108517
0.00108517
0.00109778
0.00109778
0.00109778
0.00109365
0.00109365
0.00109365
0.0011061
0.0011061
0.0011061
0.00112034
0.00112034
0.00112034
0.00109901
0.00109901
0.00109901
0.00109049
0.00109049
0.00109049
0.00115372
0.00115372
0.00115372
0.00113153
0.00113153
0.00113153
0.00114051
0.00114051
0.00114051
0.00114461
0.00114461
0.00114461
0.00111385
0.00111385
0.00111385
0.00113306
0.00113306
0.00113306
0.00114205
0.00114205
0.00114205
0.000998238
0.000998238
0.000998238
0.00100207
0.00100207
0.00100207
0.00099837
0.00099837
0.00099837
0.00102125
0.00102125
0.00102125
0.00101354
0.00101354
0.00101354
0.00102507
0.00102507
0.00102507
0.00102112
0.00102112
0.00102112
0.00100965
0.00100965
0.00100965
0.00101341
0.00101341
0.00101341
0.000968847
0.000968847
0.000968847
0.00097592
0.00097592
0.00097592
0.000972652
0.000972652
0.000972652
0.000965425
0.000965425
0.000965425
0.000968971
0.000968971
0.000968971
0.000789711
0.000789711
0.000789711
0.000832049
0.000832049
0.000832049
0.000820394
0.000820394
0.000820394
0.00084868
0.00084868
0.00084868
0.000854736
0.000854736
0.000854736
0.000853411
0.000853411
0.000853411
0.000871887
0.000871887
0.000871887
0.000878137
0.000878137
0.000878137
0.000835432
0.000835432
0.000835432
0.000829441
0.000829441
0.000829441
0.000823606
0.000823606
0.000823606
0.000829524
0.000829524
0.000829524
0.000832425
0.000832425
0.000832425
0.000829194
0.000829194
0.000829194
0.000823365
0.000823365
0.000823365
0.000814904
0.000814904
0.000814904
0.00082066
0.00082066
0.00082066
0.000823499
0.000823499
0.000823499
0.00082054
0.00082054
0.00082054
0.000794453
0.000794453
0.000794453
0.00102492
0.00102492
0.00102492
0.00103275
0.00103275
0.00103275
0.000958063
0.000958063
0.000958063
0.00095445
0.00095445
0.00095445
0.000965183
0.000965183
0.000965183
0.000968689
0.000968689
0.000968689
0.000943871
0.000943871
0.000943871
0.000890884
0.000890884
0.000890884
0.000887619
0.000887619
0.000887619
0.000884469
0.000884469
0.000884469
0.000884379
0.000884379
0.000884379
0.00088751
0.00088751
0.00088751
0.000923655
0.000923655
0.000923655
0.00091695
0.00091695
0.00091695
0.000893617
0.000893617
0.000893617
0.000937132
0.000937132
0.000937132
0.000923525
0.000923525
0.000923525
0.000933777
0.000933777
0.000933777
0.000926972
0.000926972
0.000926972
0.000820511
0.000820511
0.000820511
0.000826297
0.000826297
0.000826297
0.00085226
0.00085226
0.00085226
0.000828938
0.000828938
0.000828938
0.000832372
0.000832372
0.000832372
0.00084772
0.00084772
0.00084772
0.000841745
0.000841745
0.000841745
0.000851244
0.000851244
0.000851244
0.000848744
0.000848744
0.000848744
0.00084974
0.00084974
0.00084974
0.000843745
0.000843745
0.000843745
0.000810665
0.000810665
0.000810665
0.000805021
0.000805021
0.000805021
0.000921665
0.000921665
0.000921665
0.000917798
0.000917798
0.000917798
0.000920611
0.000920611
0.000920611
0.000927343
0.000927343
0.000927343
0.000931275
0.000931275
0.000931275
0.000928409
0.000928409
0.000928409
0.000923673
0.000923673
0.000923673
0.00093044
0.00093044
0.00093044
0.000931405
0.000931405
0.000931405
0.000934338
0.000934338
0.000934338
0.000910341
0.000910341
0.000910341
0.000900975
0.000900975
0.000900975
0.000903772
0.000903772
0.000903772
0.000942177
0.000942177
0.000942177
0.000945166
0.000945166
0.000945166
0.000946117
0.000946117
0.000946117
0.000984918
0.000984918
0.000984918
0.000992319
0.000992319
0.000992319
0.000948529
0.000948529
0.000948529
0.000935084
0.000935084
0.000935084
0.000933514
0.000933514
0.000933514
0.000936327
0.000936327
0.000936327
0.000937544
0.000937544
0.000937544
0.000944445
0.000944445
0.000944445
0.000967225
0.000967225
0.000967225
0.000977417
0.000977417
0.000977417
0.000974435
0.000974435
0.000974435
0.00100097
0.00100097
0.00100097
0.00101934
0.00101934
0.00101934
0.00101166
0.00101166
0.00101166
0.00100854
0.00100854
0.00100854
0.00101304
0.00101304
0.00101304
0.00103778
0.00103778
0.00103778
0.00110332
0.00110332
0.00110332
0.00111056
0.00111056
0.00111056
0.00110188
0.00110188
0.00110188
0.0010983
0.0010983
0.0010983
0.00109972
0.00109972
0.00109972
0.00110109
0.00110109
0.00110109
0.00110473
0.00110473
0.00110473
0.00109117
0.00109117
0.00109117
0.00110039
0.00110039
0.00110039
0.00111265
0.00111265
0.00111265
0.00110905
0.00110905
0.00110905
0.00109535
0.00109535
0.00109535
0.00107644
0.00107644
0.00107644
0.00108482
0.00108482
0.00108482
0.00108976
0.00108976
0.00108976
0.00108623
0.00108623
0.00108623
0.00103497
0.00103497
0.00103497
0.00104291
0.00104291
0.00104291
0.00104905
0.00104905
0.00104905
0.00105713
0.00105713
0.00105713
0.00104764
0.00104764
0.00104764
0.00104434
0.00104434
0.00104434
0.000886896
0.000886896
0.000886896
0.000899757
0.000899757
0.000899757
0.000897045
0.000897045
0.000897045
0.000890609
0.000890609
0.000890609
0.000898674
0.000898674
0.000898674
0.000885836
0.000885836
0.000885836
0.000895983
0.000895983
0.000895983
0.000889559
0.000889559
0.000889559
0.00089489
0.00089489
0.00089489
0.000888477
0.000888477
0.000888477
0.000870648
0.000870648
0.000870648
0.000876892
0.000876892
0.000876892
0.000879508
0.000879508
0.000879508
0.00086703
0.00086703
0.00086703
0.000869599
0.000869599
0.000869599
0.000875833
0.000875833
0.000875833
0.000925113
0.000925113
0.000925113
0.000919524
0.000919524
0.000919524
0.000926244
0.000926244
0.000926244
0.000929065
0.000929065
0.000929065
0.000915636
0.000915636
0.000915636
0.000918405
0.000918405
0.000918405
0.000916076
0.000916076
0.000916076
0.000913345
0.000913345
0.000913345
0.00091215
0.00091215
0.00091215
0.000905572
0.000905572
0.000905572
0.000906755
0.000906755
0.000906755
0.000902907
0.000902907
0.000902907
0.000924244