<VTKFile type="UnstructuredGrid" version="1.0">
<UnstructuredGrid>
<Piece NumberOfPoints="8859" NumberOfCells="2953">
<Points>
<DataArray type="Float64" NumberOfComponents="3" format="ascii">
2.04744 2.20956 15.5426
2.06275 2.19425 15.5546
2.04754 2.20946 15.5683
2.07804 2.17896 15.4917
2.07805 2.17895 15.4665
2.0934 2.1636 15.479
2.06271 2.19429 15.5044
2.07804 2.17896 15.4917
2.07804 2.17896 15.5169
2.01701 2.23999 15.5949
2.03242 2.22458 15.6025
2.00164 2.25536 15.6025
2.01701 2.23999 15.5949
2.03232 2.22468 15.5796
2.03242 2.22458 15.6025
2.04777 2.20923 15.5948
2.06326 2.19374 15.6025
2.03242 2.22458 15.6025
2.04777 2.20923 15.5948
2.03232 2.22468 15.5796
2.04754 2.20946 15.5683
2.03242 2.22458 15.6025
2.03232 2.22468 15.5796
2.04777 2.20923 15.5948
2.04754 2.20946 15.5683
2.06275 2.19425 15.5546
2.06287 2.19413 15.5793
2.06287 2.19413 15.5793
2.04777 2.20923 15.5948
2.04754 2.20946 15.5683
2.06326 2.19374 15.6025
2.04777 2.20923 15.5948
2.06287 2.19413 15.5793
2.06275 2.19425 15.5546
2.04744 2.20956 15.5426
2.06271 2.19429 15.5295
2.06271 2.19429 15.5044
2.07804 2.17896 15.5169
2.06271 2.19429 15.5295
2.07809 2.17891 15.5676
2.06287 2.19413 15.5793
2.06275 2.19425 15.5546
2.0934 2.1636 15.5539
2.0934 2.1636 15.5786
2.07809 2.17891 15.5676
2.0934 2.1636 15.4539
2.0934 2.1636 15.479
2.07805 2.17895 15.4665
2.07804 2.17896 15.4917
2.0934 2.1636 15.479
2.0934 2.1636 15.5041
2.0934 2.1636 15.5041
2.07804 2.17896 15.5169
2.07804 2.17896 15.4917
2.0934 2.1636 14.9265
2.0934 2.1636 14.9517
2.07807 2.17893 14.9391
2.07807 2.17893 15.3911
2.0934 2.1636 15.4036
2.07806 2.17894 15.4162
2.0934 2.1636 15.3785
2.0934 2.1636 15.4036
2.07807 2.17893 15.3911
2.07808 2.17892 15.2654
2.0934 2.1636 15.278
2.07808 2.17892 15.2906
1.61564 2.64136 14.7106
1.63134 2.62566 14.7025
1.63134 2.62566 14.7256
1.5683 2.6887 15.6025
1.53648 2.72052 15.6025
1.55243 2.70457 15.5943
2.07804 2.17896 15.5421
2.06271 2.19429 15.5295
2.07804 2.17896 15.5169
2.06275 2.19425 15.5546
2.06271 2.19429 15.5295
2.07804 2.17896 15.5421
2.07804 2.17896 15.5421
2.07809 2.17891 15.5676
2.06275 2.19425 15.5546
2.0934 2.1636 15.5539
2.07809 2.17891 15.5676
2.07804 2.17896 15.5421
2.07833 2.17867 15.5938
2.0934 2.1636 15.5786
2.0934 2.1636 15.6025
2.07833 2.17867 15.5938
2.07809 2.17891 15.5676
2.0934 2.1636 15.5786
2.0934 2.1636 15.6025
2.06326 2.19374 15.6025
2.07833 2.17867 15.5938
2.06326 2.19374 15.6025
2.06287 2.19413 15.5793
2.07833 2.17867 15.5938
2.06287 2.19413 15.5793
2.07809 2.17891 15.5676
2.07833 2.17867 15.5938
2.07806 2.17894 15.4162
2.0934 2.1636 15.4036
2.0934 2.1636 15.4287
2.07804 2.17896 15.5169
2.0934 2.1636 15.5041
2.0934 2.1636 15.5291
2.0934 2.1636 15.5539
2.07804 2.17896 15.5421
2.0934 2.1636 15.5291
2.0934 2.1636 15.5291
2.07804 2.17896 15.5421
2.07804 2.17896 15.5169
2.0934 2.1636 15.2529
2.0934 2.1636 15.278
2.07808 2.17892 15.2654
2.07807 2.17893 14.9391
2.0934 2.1636 14.9517
2.07807 2.17893 14.9642
2.06275 2.19425 15.3785
2.04743 2.20957 15.366
2.06275 2.19425 15.3534
2.07806 2.17894 15.4414
2.0934 2.1636 15.4539
2.07805 2.17895 15.4665
2.07806 2.17894 15.4414
2.0934 2.1636 15.4287
2.0934 2.1636 15.4539
2.07806 2.17894 15.4414
2.06273 2.19427 15.4288
2.07806 2.17894 15.4162
2.07806 2.17894 15.4162
2.0934 2.1636 15.4287
2.07806 2.17894 15.4414
2.06271 2.19429 15.4792
2.07804 2.17896 15.4917
2.06271 2.19429 15.5044
2.06271 2.19429 15.4792
2.07805 2.17895 15.4665
2.07804 2.17896 15.4917
2.04741 2.20959 15.4415
2.03209 2.22491 15.4541
2.0321 2.2249 15.4289
1.83285 2.42415 15.5684
1.81747 2.43953 15.5549
1.83285 2.42415 15.5428
1.78664 2.47036 15.4038
1.78664 2.47036 15.429
1.77121 2.48579 15.4164
2.0934 2.1636 14.7025
2.0934 2.1636 14.7264
2.07833 2.17867 14.7112
1.56833 2.68867 15.5793
1.5683 2.6887 15.6025
1.55243 2.70457 15.5943
1.63134 2.62566 15.5045
1.61565 2.64135 15.5171
1.61564 2.64136 15.4919
1.55243 2.70457 15.5943
1.53648 2.72052 15.6025
1.53664 2.72036 15.5792
2.06276 2.19424 15.027
2.04745 2.20955 15.0144
2.06276 2.19424 15.0019
2.0934 2.1636 15.1776
2.07808 2.17892 15.165
2.0934 2.1636 15.1525
2.07808 2.17892 15.2152
2.0934 2.1636 15.2027
2.0934 2.1636 15.2278
2.06277 2.19423 15.1274
2.04745 2.20955 15.14
2.04745 2.20955 15.1149
2.06277 2.19423 15.1525
2.04745 2.20955 15.14
2.06277 2.19423 15.1274
2.07808 2.17892 15.165
2.06277 2.19423 15.1776
2.06277 2.19423 15.1525
2.04745 2.20955 15.2906
2.06276 2.19424 15.3031
2.04744 2.20956 15.3157
2.01682 2.24018 15.2655
2.01682 2.24018 15.2906
2.0015 2.2555 15.278
2.04745 2.20955 15.2655
2.03214 2.22486 15.2529
2.04745 2.20955 15.2403
2.04745 2.20955 15.2403
2.06277 2.19423 15.2529
2.04745 2.20955 15.2655
2.03214 2.22486 15.2529
2.03214 2.22486 15.2278
2.04745 2.20955 15.2403
2.04745 2.20955 15.2403
2.03214 2.22486 15.2278
2.04745 2.20955 15.2152
2.0934 2.1636 15.2278
2.0934 2.1636 15.2529
2.07808 2.17892 15.2403
2.07808 2.17892 15.2403
2.07808 2.17892 15.2152
2.0934 2.1636 15.2278
2.07808 2.17892 15.2403
2.0934 2.1636 15.2529
2.07808 2.17892 15.2654
2.07808 2.17892 15.2654
2.06277 2.19423 15.2529
2.07808 2.17892 15.2403
2.04744 2.20956 15.3408
2.03213 2.22487 15.3283
2.04744 2.20956 15.3157
2.04744 2.20956 15.3408
2.06275 2.19425 15.3534
2.04743 2.20957 15.366
2.0015 2.2555 15.3283
2.01681 2.24019 15.3157
2.01681 2.24019 15.3409
2.01681 2.24019 15.3409
2.01681 2.24019 15.3157
2.03213 2.22487 15.3283
2.0934 2.1636 15.3031
2.07808 2.17892 15.2906
2.0934 2.1636 15.278
2.04744 2.20956 15.3157
2.06276 2.19424 15.3031
2.06276 2.19424 15.3282
2.06276 2.19424 15.3282
2.04744 2.20956 15.3408
2.04744 2.20956 15.3157
2.06275 2.19425 15.3534
2.04744 2.20956 15.3408
2.06276 2.19424 15.3282
2.07806 2.17894 15.4162
2.06273 2.19427 15.4288
2.06274 2.19426 15.4037
2.06274 2.19426 15.4037
2.07807 2.17893 15.3911
2.07806 2.17894 15.4162
2.06275 2.19425 15.3785
2.07807 2.17893 15.3911
2.06274 2.19426 15.4037
2.0321 2.2249 15.4289
2.03211 2.22489 15.4038
2.04742 2.20958 15.4163
2.04742 2.20958 15.4163
2.04741 2.20959 15.4415
2.0321 2.2249 15.4289
2.06273 2.19427 15.4288
2.04741 2.20959 15.4415
2.04742 2.20958 15.4163
2.04742 2.20958 15.4163
2.06274 2.19426 15.4037
2.06273 2.19427 15.4288
2.01679 2.24021 15.4164
2.03211 2.22489 15.4038
2.0321 2.2249 15.4289
2.01679 2.24021 15.4164
2.00148 2.25552 15.429
2.00148 2.25552 15.4038
2.06271 2.19429 15.5044
2.06271 2.19429 15.5295
2.04741 2.20959 15.5172
2.04741 2.20959 15.5172
2.06271 2.19429 15.5295
2.04744 2.20956 15.5426
2.03209 2.22491 15.4541
2.04741 2.20959 15.4415
2.0474 2.2096 15.4667
2.0474 2.2096 15.4667
2.03209 2.22491 15.4794
2.03209 2.22491 15.4541
1.97087 2.28613 15.3032
1.95555 2.30145 15.3157
1.95555 2.30145 15.2906
2.00148 2.25552 15.4038
2.00149 2.25551 15.3786
2.0168 2.2402 15.3912
2.0168 2.2402 15.3912
2.01679 2.24021 15.4164
2.00148 2.25552 15.4038
2.03211 2.22489 15.4038
2.01679 2.24021 15.4164
2.0168 2.2402 15.3912
2.03211 2.22489 15.3786
2.03211 2.22489 15.4038
2.0168 2.2402 15.3912
1.86358 2.39342 15.5428
1.86358 2.39342 15.5684
1.84822 2.40878 15.5549
1.84822 2.40878 15.5549
1.86358 2.39342 15.5684
1.84822 2.40878 15.5795
1.84822 2.40878 15.5549
1.84822 2.40878 15.5795
1.83285 2.42415 15.5684
1.83285 2.42415 15.5684
1.83285 2.42415 15.5428
1.84822 2.40878 15.5549
1.81747 2.43953 15.5298
1.83285 2.42415 15.5428
1.81747 2.43953 15.5549
1.80202 2.45498 15.165
1.80202 2.45498 15.1901
1.7866 2.4704 15.1776
1.70922 2.54778 15.2906
1.69367 2.56333 15.278
1.70922 2.54778 15.2654
1.70924 2.54776 15.3408
1.6937 2.5633 15.3534
1.69369 2.56331 15.3282
1.63134 2.62566 15.5045
1.61564 2.64136 15.4919
1.63132 2.62568 15.4792
1.63135 2.62565 15.5297
1.61565 2.64135 15.5171
1.63134 2.62566 15.5045
1.69376 2.56324 15.4541
1.69378 2.56322 15.4793
1.6782 2.5788 15.4667
1.59983 2.65717 15.4036
1.61554 2.64146 15.391
1.61557 2.64143 15.4162
1.59973 2.65727 15.303
1.58397 2.67303 15.3156
1.58396 2.67304 15.2905
1.61564 2.64136 15.5944
1.63134 2.62566 15.6025
1.5999 2.6571 15.6025
1.63134 2.62566 15.5794
1.63134 2.62566 15.6025
1.61564 2.64136 15.5944
1.647 2.61 15.5945
1.63134 2.62566 15.6025
1.63134 2.62566 15.5794
1.59993 2.65707 15.5296
1.59992 2.65708 15.5547
1.58418 2.67282 15.5425
1.84822 2.40878 15.6025
1.81747 2.43953 15.6025
1.83285 2.42415 15.5947
1.83285 2.42415 15.5684
1.84822 2.40878 15.5795
1.83285 2.42415 15.5947
1.83285 2.42415 15.5947
1.84822 2.40878 15.5795
1.84822 2.40878 15.6025
1.81747 2.43953 15.5795
1.81747 2.43953 15.5549
1.83285 2.42415 15.5684
1.83285 2.42415 15.5684
1.83285 2.42415 15.5947
1.81747 2.43953 15.5795
1.81747 2.43953 15.5795
1.83285 2.42415 15.5947
1.81747 2.43953 15.6025
1.70931 2.54769 15.4668
1.69378 2.56322 15.4793
1.69376 2.56324 15.4541
1.7712 2.4858 15.3912
1.78663 2.47037 15.3786
1.78664 2.47036 15.4038
1.78664 2.47036 15.4038
1.77121 2.48579 15.4164
1.7712 2.4858 15.3912
1.77122 2.48578 15.4416
1.77121 2.48579 15.4164
1.78664 2.47036 15.429
1.77122 2.48578 15.4416
1.78664 2.47036 15.429
1.78665 2.47035 15.4542
1.78665 2.47035 15.4542
1.77123 2.48577 15.4668
1.77122 2.48578 15.4416
1.77122 2.48578 15.4416
1.77123 2.48577 15.4668
1.75578 2.50122 15.4542
1.78666 2.47034 15.4794
1.77123 2.48577 15.4668
1.78665 2.47035 15.4542
1.78666 2.47034 15.5046
1.77124 2.48576 15.5173
1.77124 2.48576 15.4921
1.77124 2.48576 15.4921
1.78666 2.47034 15.4794
1.78666 2.47034 15.5046
1.77123 2.48577 15.4668
1.78666 2.47034 15.4794
1.77124 2.48576 15.4921
2.07809 2.17891 14.7374
2.07833 2.17867 14.7112
2.0934 2.1636 14.7264
2.06287 2.19413 14.7257
2.07833 2.17867 14.7112
2.07809 2.17891 14.7374
1.94028 2.31672 14.7255
1.94028 2.31672 14.7025
1.95561 2.30139 14.7102
2.00164 2.25536 14.7025
1.98629 2.27071 14.7102
1.97095 2.28605 14.7025
1.97095 2.28605 14.7025
1.95561 2.30139 14.7102
1.94028 2.31672 14.7025
1.48928 2.76772 14.739
1.48919 2.76781 14.7129
1.50509 2.75191 14.7264
1.50509 2.75191 14.7264
1.5206 2.7364 14.711
1.52092 2.73608 14.7375
1.47362 2.78338 14.7278
1.48919 2.76781 14.7129
1.48928 2.76772 14.739
1.47362 2.78338 14.7278
1.47412 2.78288 14.7025
1.48919 2.76781 14.7129
1.56833 2.68867 14.7257
[...]
<PointData Scalars="View Factor" >
<DataArray type="Float64" Name="View Factor" NumberOfComponents="1" format="ascii">
5.11025e-06
5.11025e-06
5.11025e-06
5.13157e-06
5.13157e-06
5.13157e-06
5.12457e-06
5.12457e-06
5.12457e-06
5.12055e-06
5.12055e-06
5.12055e-06
5.11334e-06
5.11334e-06
5.11334e-06
5.08124e-06
5.08124e-06
5.08124e-06
5.10228e-06
5.10228e-06
5.10228e-06
5.0997e-06
5.0997e-06
5.0997e-06
5.09354e-06
5.09354e-06
5.09354e-06
5.08886e-06
5.08886e-06
5.08886e-06
5.07324e-06
5.07324e-06
5.07324e-06
5.11403e-06
5.11403e-06
5.11403e-06
5.12109e-06
5.12109e-06
5.12109e-06
5.08028e-06
5.08028e-06
5.08028e-06
5.05388e-06
5.05388e-06
5.05388e-06
5.13507e-06
5.13507e-06
5.13507e-06
5.11459e-06
5.11459e-06
5.11459e-06
5.11109e-06
5.11109e-06
5.11109e-06
5.58993e-06
5.58993e-06
5.58993e-06
5.19363e-06
5.19363e-06
5.19363e-06
5.19719e-06
5.19719e-06
5.19719e-06
5.29911e-06
5.29911e-06
5.29911e-06
1.03641e-05
1.03641e-05
1.03641e-05
9.8186e-06
9.8186e-06
9.8186e-06
5.10357e-06
5.10357e-06
5.10357e-06
5.10062e-06
5.10062e-06
5.10062e-06
5.08409e-06
5.08409e-06
5.08409e-06
5.07084e-06
5.07084e-06
5.07084e-06
5.03384e-06
5.03384e-06
5.03384e-06
5.04978e-06
5.04978e-06
5.04978e-06
5.04056e-06
5.04056e-06
5.04056e-06
5.06008e-06
5.06008e-06
5.06008e-06
5.06292e-06
5.06292e-06
5.06292e-06
5.17638e-06
5.17638e-06
5.17638e-06
5.09423e-06
5.09423e-06
5.09423e-06
5.074e-06
5.074e-06
5.074e-06
5.0902e-06
5.0902e-06
5.0902e-06
5.30279e-06
5.30279e-06
5.30279e-06
5.58591e-06
5.58591e-06
5.58591e-06
5.25972e-06
5.25972e-06
5.25972e-06
5.15215e-06
5.15215e-06
5.15215e-06
5.15567e-06
5.15567e-06
5.15567e-06
5.18653e-06
5.18653e-06
5.18653e-06
5.17284e-06
5.17284e-06
5.17284e-06
5.14163e-06
5.14163e-06
5.14163e-06
5.14513e-06
5.14513e-06
5.14513e-06
5.22439e-06
5.22439e-06
5.22439e-06
6.74218e-06
6.74218e-06
6.74218e-06
7.43187e-06
7.43187e-06
7.43187e-06
5.79979e-06
5.79979e-06
5.79979e-06
9.70833e-06
9.70833e-06
9.70833e-06
9.17699e-06
9.17699e-06
9.17699e-06
9.94841e-06
9.94841e-06
9.94841e-06
5.56603e-06
5.56603e-06
5.56603e-06
5.38911e-06
5.38911e-06
5.38911e-06
5.34574e-06
5.34574e-06
5.34574e-06
5.47302e-06
5.47302e-06
5.47302e-06
5.45415e-06
5.45415e-06
5.45415e-06
5.41772e-06
5.41772e-06
5.41772e-06
5.31995e-06
5.31995e-06
5.31995e-06
5.39874e-06
5.39874e-06
5.39874e-06
5.37729e-06
5.37729e-06
5.37729e-06
5.363e-06
5.363e-06
5.363e-06
5.39533e-06
5.39533e-06
5.39533e-06
5.39955e-06
5.39955e-06
5.39955e-06
5.32421e-06
5.32421e-06
5.32421e-06
5.34202e-06
5.34202e-06
5.34202e-06
5.32051e-06
5.32051e-06
5.32051e-06
5.33461e-06
5.33461e-06
5.33461e-06
5.31269e-06
5.31269e-06
5.31269e-06
5.2773e-06
5.2773e-06
5.2773e-06
5.35541e-06
5.35541e-06
5.35541e-06
5.3411e-06
5.3411e-06
5.3411e-06
5.28147e-06
5.28147e-06
5.28147e-06
5.3022e-06
5.3022e-06
5.3022e-06
5.29857e-06
5.29857e-06
5.29857e-06
5.28091e-06
5.28091e-06
5.28091e-06
5.20382e-06
5.20382e-06
5.20382e-06
5.20738e-06
5.20738e-06
5.20738e-06
5.22476e-06
5.22476e-06
5.22476e-06
5.24542e-06
5.24542e-06
5.24542e-06
5.22794e-06
5.22794e-06
5.22794e-06
5.21408e-06
5.21408e-06
5.21408e-06
5.21763e-06
5.21763e-06
5.21763e-06
5.25941e-06
5.25941e-06
5.25941e-06
5.28707e-06
5.28707e-06
5.28707e-06
5.13461e-06
5.13461e-06
5.13461e-06
5.13149e-06
5.13149e-06
5.13149e-06
5.20699e-06
5.20699e-06
5.20699e-06
5.20345e-06
5.20345e-06
5.20345e-06
5.44982e-06
5.44982e-06
5.44982e-06
5.30942e-06
5.30942e-06
5.30942e-06
5.29114e-06
5.29114e-06
5.29114e-06
5.27702e-06
5.27702e-06
5.27702e-06
5.2806e-06
5.2806e-06
5.2806e-06
6.39184e-06
6.39184e-06
6.39184e-06
6.437e-06
6.437e-06
6.437e-06
6.55351e-06
6.55351e-06
6.55351e-06
6.62536e-06
6.62536e-06
6.62536e-06
6.81386e-06
6.81386e-06
6.81386e-06
7.53606e-06
7.53606e-06
7.53606e-06
8.52249e-06
8.52249e-06
8.52249e-06
8.49875e-06
8.49875e-06
8.49875e-06
9.13521e-06
9.13521e-06
9.13521e-06
9.09975e-06
9.09975e-06
9.09975e-06
8.44848e-06
8.44848e-06
8.44848e-06
9.45029e-06
9.45029e-06
9.45029e-06
9.855e-06
9.855e-06
9.855e-06
9.09956e-06
9.09956e-06
9.09956e-06
8.99146e-06
8.99146e-06
8.99146e-06
8.87267e-06
8.87267e-06
8.87267e-06
9.42196e-06
9.42196e-06
9.42196e-06
6.63503e-06
6.63503e-06
6.63503e-06
6.59912e-06
6.59912e-06
6.59912e-06
6.52853e-06
6.52853e-06
6.52853e-06
6.78739e-06
6.78739e-06
6.78739e-06
6.71552e-06
6.71552e-06
6.71552e-06
6.76125e-06
6.76125e-06
6.76125e-06
8.32833e-06
8.32833e-06
8.32833e-06
7.46303e-06
7.46303e-06
7.46303e-06
7.50702e-06
7.50702e-06
7.50702e-06
7.47782e-06
7.47782e-06
7.47782e-06
7.40187e-06
7.40187e-06
7.40187e-06
7.44692e-06
7.44692e-06
7.44692e-06
7.56629e-06
7.56629e-06
7.56629e-06
7.37277e-06
7.37277e-06
7.37277e-06
7.38745e-06
7.38745e-06
7.38745e-06
7.34276e-06
7.34276e-06
7.34276e-06
7.41622e-06
7.41622e-06
7.41622e-06
5.7964e-06
5.7964e-06
5.7964e-06
5.81196e-06
5.81196e-06
5.81196e-06
6.18901e-06
6.18901e-06
6.18901e-06
5.96451e-06
5.96451e-06
5.96451e-06
6.06304e-06
6.06304e-06
6.06304e-06
1.20635e-05
1.20635e-05
1.20635e-05
1.17908e-05
1.17908e-05
1.17908e-05
1.21998e-05
1.21998e-05
1.21998e-05
1.22893e-05
1.22893e-05
1.22893e-05
1.10522e-05
1.10522e-05
1.10522e-05
1.05145e-05
1.05145e-05
1.05145e-05
1.09287e-05
1.09287e-05
1.09287e-05
1.19497e-05
1.19497e-05
1.19497e-05
1.18575e-05
1.18575e-05
1.18575e-05
9.22855e-06
9.22855e-06
9.22855e-06
9.46335e-06
9.46335e-06
9.46335e-06
9.38552e-06
9.38552e-06
9.38552e-06
1.00633e-05
1.00633e-05
1.00633e-05
9.9802e-06
9.9802e-06
9.9802e-06
9.61843e-06
9.61843e-06
9.61843e-06
5.6088e-06
5.6088e-06
5.6088e-06
5.43293e-06
5.43293e-06
5.43293e-06
5.52092e-06
5.52092e-06
5.52092e-06
5.51653e-06
5.51653e-06
5.51653e-06
5.54342e-06
5.54342e-06
5.54342e-06
5.53952e-06
5.53952e-06
5.53952e-06
5.5543e-06
5.5543e-06
5.5543e-06
5.57304e-06
5.57304e-06
5.57304e-06
5.57695e-06
5.57695e-06
5.57695e-06
5.56211e-06
5.56211e-06
5.56211e-06
7.52512e-06
7.52512e-06
7.52512e-06
7.57722e-06
7.57722e-06
7.57722e-06
7.67051e-06
7.67051e-06
7.67051e-06
5.59578e-06
5.59578e-06
5.59578e-06
5.56714e-06
5.56714e-06
5.56714e-06
5.58617e-06
5.58617e-06
5.58617e-06
5.82953e-06
5.82953e-06
5.82953e-06
5.42778e-06
5.42778e-06
5.42778e-06
5.8267e-06
5.8267e-06
5.8267e-06
5.54199e-06
5.54199e-06
5.54199e-06
5.56128e-06
5.56128e-06
5.56128e-06
5.67771e-06
5.67771e-06
5.67771e-06
5.72786e-06
5.72786e-06
5.72786e-06
5.48762e-06
5.48762e-06
5.48762e-06
5.41096e-06
5.41096e-06
5.41096e-06
5.40717e-06
5.40717e-06
5.40717e-06
5.4215e-06
5.4215e-06
5.4215e-06
5.43969e-06
5.43969e-06
5.43969e-06
5.44349e-06
5.44349e-06
5.44349e-06
5.4291e-06
5.4291e-06
5.4291e-06
6.4949e-06
6.4949e-06
6.4949e-06
6.4453e-06
6.4453e-06
6.4453e-06
5.77442e-06
5.77442e-06
5.77442e-06
5.70045e-06
5.70045e-06
5.70045e-06
5.75052e-06
5.75052e-06
5.75052e-06
5.87432e-06
5.87432e-06
5.87432e-06
6.47146e-06
6.47146e-06
6.47146e-06
6.54779e-06
6.54779e-06
6.54779e-06
6.64463e-06
6.64463e-06
6.64463e-06
6.52001e-06
6.52001e-06
6.52001e-06
5.89874e-06
5.89874e-06
5.89874e-06
5.94856e-06
5.94856e-06
5.94856e-06
5.30949e-06
5.30949e-06
5.30949e-06
5.32359e-06
5.32359e-06
5.32359e-06
5.34142e-06
5.34142e-06
5.34142e-06
5.31315e-06
5.31315e-06
5.31315e-06
5.33092e-06
5.33092e-06
5.33092e-06
5.34509e-06
5.34509e-06
5.34509e-06
5.38431e-06
5.38431e-06
5.38431e-06
5.35565e-06
5.35565e-06
5.35565e-06
5.37361e-06
5.37361e-06
5.37361e-06
5.38797e-06
5.38797e-06
5.38797e-06
5.47124e-06
5.47124e-06
5.47124e-06
5.46134e-06
5.46134e-06
5.46134e-06
5.47598e-06
5.47598e-06
5.47598e-06
5.35617e-06
5.35617e-06
5.35617e-06
5.38841e-06
5.38841e-06
5.38841e-06
5.37411e-06
5.37411e-06
5.37411e-06
5.38521e-06
5.38521e-06
5.38521e-06
5.36669e-06
5.36669e-06
5.36669e-06
5.35246e-06
5.35246e-06
5.35246e-06
5.33049e-06
5.33049e-06
5.33049e-06
5.34472e-06
5.34472e-06
5.34472e-06
5.36266e-06
5.36266e-06
5.36266e-06
5.33412e-06
5.33412e-06
5.33412e-06
5.3663e-06
5.3663e-06
5.3663e-06
5.352e-06
5.352e-06
5.352e-06
5.37704e-06
5.37704e-06
5.37704e-06
5.39457e-06
5.39457e-06
5.39457e-06
5.40904e-06
5.40904e-06
5.40904e-06
5.37393e-06
5.37393e-06
5.37393e-06
5.30907e-06
5.30907e-06
5.30907e-06
5.32325e-06
5.32325e-06
5.32325e-06
5.29135e-06
5.29135e-06
5.29135e-06
5.28776e-06
5.28776e-06
5.28776e-06
5.3518e-06
5.3518e-06
5.3518e-06
5.29127e-06
5.29127e-06
5.29127e-06
5.2773e-06
5.2773e-06
5.2773e-06
5.26026e-06
5.26026e-06
5.26026e-06
5.28814e-06
5.28814e-06
5.28814e-06
5.21811e-06
5.21811e-06
5.21811e-06
5.24579e-06
5.24579e-06
5.24579e-06
5.21452e-06
5.21452e-06
5.21452e-06
5.22833e-06
5.22833e-06
5.22833e-06
5.23913e-06
5.23913e-06
5.23913e-06
5.25714e-06
5.25714e-06
5.25714e-06
5.27105e-06
5.27105e-06
5.27105e-06
5.26692e-06
5.26692e-06
5.26692e-06
5.24938e-06
5.24938e-06
5.24938e-06
5.23552e-06
5.23552e-06
5.23552e-06
5.26654e-06
5.26654e-06
5.26654e-06
5.23862e-06
5.23862e-06
5.23862e-06
5.24898e-06
5.24898e-06
5.24898e-06
5.23506e-06
5.23506e-06
5.23506e-06
5.27012e-06
5.27012e-06
5.27012e-06
5.25613e-06
5.25613e-06
5.25613e-06
5.23831e-06
5.23831e-06
5.23831e-06
5.25585e-06
5.25585e-06
5.25585e-06
5.26992e-06
5.26992e-06
5.26992e-06
5.15522e-06
5.15522e-06
5.15522e-06
5.18208e-06
5.18208e-06
5.18208e-06
5.17239e-06
5.17239e-06
5.17239e-06
5.18612e-06
5.18612e-06
5.18612e-06
5.15117e-06
5.15117e-06
5.15117e-06
5.16481e-06
5.16481e-06
5.16481e-06
5.12046e-06
5.12046e-06
5.12046e-06
5.12373e-06
5.12373e-06
5.12373e-06
5.13001e-06
5.13001e-06
5.13001e-06
5.13406e-06
5.13406e-06
5.13406e-06
5.15098e-06
5.15098e-06
5.15098e-06
5.16229e-06
5.16229e-06
5.16229e-06
5.15471e-06
5.15471e-06
5.15471e-06
5.14503e-06
5.14503e-06
5.14503e-06
5.14107e-06
5.14107e-06
5.14107e-06
5.19319e-06
5.19319e-06
5.19319e-06
5.16578e-06
5.16578e-06
5.16578e-06
5.16226e-06
5.16226e-06
5.16226e-06
5.17593e-06
5.17593e-06
5.17593e-06
5.18299e-06
5.18299e-06
5.18299e-06
5.19673e-06
5.19673e-06
5.19673e-06
6.31624e-06
6.31624e-06
6.31624e-06
6.39067e-06
6.39067e-06
6.39067e-06
5.95111e-06
5.95111e-06
5.95111e-06
6.19449e-06
6.19449e-06
6.19449e-06
5.43151e-06
5.43151e-06
5.43151e-06
6.28839e-06
6.28839e-06
6.28839e-06
6.41251e-06
6.41251e-06
6.41251e-06
6.366e-06
6.366e-06
6.366e-06
7.5826e-06
7.5826e-06
7.5826e-06
7.41159e-06
7.41159e-06
7.41159e-06
6.69401e-06
6.69401e-06
6.69401e-06
6.61903e-06
6.61903e-06
6.61903e-06
8.60348e-06
8.60348e-06
8.60348e-06
8.95398e-06
8.95398e-06
8.95398e-06
8.56702e-06
8.56702e-06
8.56702e-06
9.2191e-06
9.2191e-06
9.2191e-06
9.38825e-06
9.38825e-06
9.38825e-06
9.34481e-06
9.34481e-06
9.34481e-06
9.21466e-06
9.21466e-06
9.21466e-06
9.14137e-06
9.14137e-06
9.14137e-06
9.26153e-06
9.26153e-06
9.26153e-06
9.30179e-06
9.30179e-06
9.30179e-06
9.01461e-06
9.01461e-06
9.01461e-06
8.97378e-06
8.97378e-06
8.97378e-06
8.77425e-06
8.77425e-06
8.77425e-06
8.85314e-06
8.85314e-06
8.85314e-06
8.88159e-06
8.88159e-06
8.88159e-06
8.75998e-06
8.75998e-06
8.75998e-06
9.12496e-06
9.12496e-06
9.12496e-06
9.24709e-06
9.24709e-06
9.24709e-06
9.32762e-06
9.32762e-06
9.32762e-06
8.83133e-06
8.83133e-06
8.83133e-06
8.68879e-06
8.68879e-06
8.68879e-06
8.80944e-06
8.80944e-06
8.80944e-06
9.53058e-06
9.53058e-06
9.53058e-06
9.48878e-06
9.48878e-06
9.48878e-06
9.40373e-06
9.40373e-06
9.40373e-06
9.81186e-06
9.81186e-06
9.81186e-06
8.74233e-06
8.74233e-06
8.74233e-06
8.38877e-06
8.38877e-06
8.38877e-06
9.29761e-06
9.29761e-06
9.29761e-06
9.33963e-06
9.33963e-06
9.33963e-06
6.98614e-06
6.98614e-06
6.98614e-06
6.87753e-06
6.87753e-06
6.87753e-06
7.72078e-06
7.72078e-06
7.72078e-06
7.76527e-06
7.76527e-06
7.76527e-06
7.37165e-06
7.37165e-06
7.37165e-06
7.64953e-06
7.64953e-06
7.64953e-06
7.64218e-06
7.64218e-06
7.64218e-06
7.59767e-06
7.59767e-06
7.59767e-06
7.5058e-06
7.5058e-06
7.5058e-06
7.74329e-06
7.74329e-06
7.74329e-06
5.82255e-06
5.82255e-06
5.82255e-06
5.83055e-06
5.83055e-06
5.83055e-06
5.89062e-06
5.89062e-06
5.89062e-06
5.89421e-06
5.89421e-06
5.89421e-06
5.9178e-06
5.9178e-06
5.9178e-06
1.16075e-05
1.16075e-05
1.16075e-05
1.16536e-05
1.16536e-05
1.16536e-05
1.13423e-05
1.13423e-05
1.13423e-05
1.14686e-05
1.14686e-05
1.14686e-05
1.13779e-05
1.13779e-05
1.13779e-05
1.11906e-05
1.11906e-05
1.11906e-05
1.12398e-05
1.12398e-05
1.12398e-05
1.11444e-05
1.11444e-05
1.11444e-05
1.1832e-05
1.1832e-05
1.1832e-05
1.20119e-05
1.20119e-05
1.20119e-05
1.19686e-05
1.19686e-05
1.19686e-05
1.20199e-05
1.20199e-05
1.20199e-05
1.18839e-05
1.18839e-05
1.18839e-05
1.21704e-05
1.21704e-05
1.21704e-05
1.17611e-05
1.17611e-05
1.17611e-05
1.0736e-05
1.0736e-05
1.0736e-05
1.06973e-05
1.06973e-05
1.06973e-05
1.05592e-05
1.05592e-05
1.05592e-05
1.17878e-05
1.17878e-05
1.17878e-05
1.18358e-05
1.18358e-05
1.18358e-05
1.17456e-05
1.17456e-05
1.17456e-05
1.15727e-05
1.15727e-05
1.15727e-05
1.16143e-05
1.16143e-05
1.16143e-05
1.20301e-05
1.20301e-05
1.20301e-05
1.14873e-05
1.14873e-05
1.14873e-05
1.15103e-05
1.15103e-05
1.15103e-05
1.09137e-05
1.09137e-05
1.09137e-05
1.08265e-05
1.08265e-05
1.08265e-05
1.12752e-05
1.12752e-05
1.12752e-05
1.11408e-05
1.11408e-05
1.11408e-05
1.15445e-05
1.15445e-05
1.15445e-05
1.16794e-05
1.16794e-05
1.16794e-05
1.17227e-05
1.17227e-05
1.17227e-05
1.07834e-05
1.07834e-05
1.07834e-05
1.21284e-05
1.21284e-05
1.21284e-05
1.21777e-05
1.21777e-05
1.21777e-05
1.20852e-05
1.20852e-05
1.20852e-05
9.02322e-06
9.02322e-06
9.02322e-06
8.94212e-06
8.94212e-06
8.94212e-06
9.62991e-06
9.62991e-06
9.62991e-06
8.77874e-06
8.77874e-06
8.77874e-06
8.73355e-06
8.73355e-06
8.73355e-06
8.81486e-06
8.81486e-06
8.81486e-06
8.16107e-06
8.16107e-06
8.16107e-06
8.31958e-06
8.31958e-06
8.31958e-06
9.96598e-06
9.96598e-06
9.96598e-06
9.92174e-06
9.92174e-06
9.92174e-06
9.06689e-06
9.06689e-06
9.06689e-06
9.18614e-06
9.18614e-06
9.18614e-06
9.26572e-06
9.26572e-06
9.26572e-06
9.22252e-06
9.22252e-06
9.22252e-06
9.34791e-06
9.34791e-06
9.34791e-06
9.42572e-06
9.42572e-06
9.42572e-06
9.4565e-06
9.4565e-06
9.4565e-06
9.58824e-06
9.58824e-06
9.58824e-06
9.54555e-06
9.54555e-06
9.54555e-06
1.14583e-05
1.14583e-05
1.14583e-05
1.14121e-05
1.14121e-05
1.14121e-05
1.13716e-05
1.13716e-05
1.13716e-05
1.0023e-05
1.0023e-05
1.0023e-05
1.01056e-05
1.01056e-05
1.01056e-05
1.01897e-05
1.01897e-05
1.01897e-05
1.01482e-05
1.01482e-05
1.01482e-05
1.03991e-05
1.03991e-05
1.03991e-05
1.03559e-05
1.03559e-05
1.03559e-05
1.03148e-05
1.03148e-05
1.03148e-05
1.0481e-05
1.0481e-05
1.0481e-05
9.5769e-06
9.5769e-06
9.5769e-06
9.49236e-06
9.49236e-06
9.49236e-06
1.00661e-05
1.00661e-05
1.00661e-05
1.00242e-05
1.00242e-05
1.00242e-05
9.74055e-06
9.74055e-06
9.74055e-06
1.00692e-05
1.00692e-05
1.00692e-05
1.01797e-05
1.01797e-05
1.01797e-05
1.03106e-05
1.03106e-05
1.03106e-05
9.58355e-06
9.58355e-06
9.58355e-06
9.62558e-06
9.62558e-06
9.62558e-06
9.78448e-06
9.78448e-06
9.78448e-06
9.90479e-06
9.90479e-06
9.90479e-06
9.74584e-06
9.74584e-06
9.74584e-06
9.82483e-06
9.82483e-06
9.82483e-06
5.90648e-06
5.90648e-06
5.90648e-06
5.92543e-06
5.92543e-06
5.92543e-06
5.94143e-06
5.94143e-06
5.94143e-06
5.93839e-06
5.93839e-06
5.93839e-06
5.98923e-06
5.98923e-06
5.98923e-06
5.97301e-06
5.97301e-06
5.97301e-06
5.95448e-06
5.95448e-06
5.95448e-06
6.97291e-06
6.97291e-06
6.97291e-06
5.80733e-06
5.80733e-06
5.80733e-06
5.82297e-06
5.82297e-06
5.82297e-06
5.86996e-06
5.86996e-06
5.86996e-06
5.85424e-06
5.85424e-06
5.85424e-06
5.49857e-06
5.49857e-06
5.49857e-06
5.49473e-06
5.49473e-06
5.49473e-06
5.47631e-06
5.47631e-06
5.47631e-06
5.46177e-06
5.46177e-06
5.46177e-06
5.47719e-06
5.47719e-06
5.47719e-06
5.50628e-06
5.50628e-06
5.50628e-06
5.53123e-06
5.53123e-06
5.53123e-06
5.56141e-06
5.56141e-06
5.56141e-06
5.56527e-06
5.56527e-06
5.56527e-06
5.55042e-06
5.55042e-06
5.55042e-06
7.45523e-06
7.45523e-06
7.45523e-06
7.35859e-06
7.35859e-06
7.35859e-06
7.51027e-06
7.51027e-06
7.51027e-06
7.6884e-06
7.6884e-06
7.6884e-06
7.81754e-06
7.81754e-06
7.81754e-06
7.89827e-06
7.89827e-06
7.89827e-06
7.63949e-06
7.63949e-06
7.63949e-06
7.84996e-06
7.84996e-06
7.84996e-06
7.7203e-06
7.7203e-06
7.7203e-06
7.60831e-06
7.60831e-06
7.60831e-06
7.86641e-06
7.86641e-06
7.86641e-06
7.96248e-06
7.96248e-06
7.96248e-06
8.95343e-06
8.95343e-06
8.95343e-06
8.0278e-06
8.0278e-06
8.0278e-06
8.82094e-06
8.82094e-06
8.82094e-06
6.50367e-06
6.50367e-06
6.50367e-06
7.30947e-06
7.30947e-06
7.30947e-06
7.38863e-06
7.38863e-06
7.38863e-06
7.19266e-06
7.19266e-06
7.19266e-06
7.01583e-06
7.01583e-06
7.01583e-06
7.06478e-06
7.06478e-06
7.06478e-06
7.49548e-06
7.49548e-06
7.49548e-06
6.32236e-06
6.32236e-06
6.32236e-06
6.69608e-06
6.69608e-06
6.69608e-06
6.77669e-06
6.77669e-06
6.77669e-06
6.90996e-06
6.90996e-06
6.90996e-06
6.99031e-06
6.99031e-06
6.99031e-06
7.4613e-06
7.4613e-06
7.4613e-06
7.10255e-06
7.10255e-06
7.10255e-06
7.36169e-06
7.36169e-06
7.36169e-06
5.58482e-06
5.58482e-06
5.58482e-06
5.59972e-06
5.59972e-06
5.59972e-06
6.47715e-06
6.47715e-06
6.47715e-06
6.22238e-06
6.22238e-06
6.22238e-06
6.29914e-06
6.29914e-06
6.29914e-06
6.42662e-06
6.42662e-06
6.42662e-06
5.86881e-06
5.86881e-06
5.86881e-06
6.19698e-06
6.19698e-06
6.19698e-06
5.72335e-06
5.72335e-06
5.72335e-06
5.56262e-06
5.56262e-06
5.56262e-06
5.54449e-06
5.54449e-06
5.54449e-06
5.52193e-06
5.52193e-06
5.52193e-06
5.55126e-06
5.55126e-06
5.55126e-06
5.55574e-06
5.55574e-06
5.55574e-06
5.54106e-06
5.54106e-06
5.54106e-06
5.4995e-06
5.4995e-06
5.4995e-06
5.49559e-06
5.49559e-06
5.49559e-06
5.51017e-06
5.51017e-06
5.51017e-06
5.52871e-06
5.52871e-06
5.52871e-06
5.53263e-06
5.53263e-06
5.53263e-06
5.51799e-06
5.51799e-06
5.51799e-06
5.36363e-06
5.36363e-06
5.36363e-06
5.37784e-06
5.37784e-06
5.37784e-06
5.39586e-06
5.39586e-06
5.39586e-06
5.36737e-06
5.36737e-06
5.36737e-06
5.39961e-06
5.39961e-06
5.39961e-06
5.38534e-06
5.38534e-06
5.38534e-06
5.60903e-06
5.60903e-06
5.60903e-06
5.7804e-06
5.7804e-06
5.7804e-06
5.6586e-06
5.6586e-06
5.6586e-06
5.68176e-06
5.68176e-06
5.68176e-06
5.44241e-06
5.44241e-06
5.44241e-06
5.47159e-06
5.47159e-06
5.47159e-06
5.4532e-06
5.4532e-06
5.4532e-06
5.43851e-06
5.43851e-06
5.43851e-06
5.49398e-06
5.49398e-06
5.49398e-06
5.4755e-06
5.4755e-06
5.4755e-06
5.46075e-06
5.46075e-06
5.46075e-06
5.46467e-06
5.46467e-06
5.46467e-06
5.4971e-06
5.4971e-06
5.4971e-06
5.52707e-06
5.52707e-06
5.52707e-06
5.49416e-06
5.49416e-06
5.49416e-06
5.50902e-06
5.50902e-06
5.50902e-06
5.46453e-06
5.46453e-06
5.46453e-06
5.48238e-06
5.48238e-06
5.48238e-06
5.58359e-06
5.58359e-06
5.58359e-06
5.56449e-06
5.56449e-06
5.56449e-06
5.70391e-06
5.70391e-06
5.70391e-06
5.632e-06
5.632e-06
5.632e-06
5.53828e-06
5.53828e-06
5.53828e-06
5.65423e-06
5.65423e-06
5.65423e-06
5.57633e-06
5.57633e-06
5.57633e-06
5.57196e-06
5.57196e-06
5.57196e-06
5.54233e-06
5.54233e-06
5.54233e-06
5.505e-06
5.505e-06
5.505e-06
5.50935e-06
5.50935e-06
5.50935e-06
5.54271e-06
5.54271e-06
5.54271e-06
5.5279e-06
5.5279e-06
5.5279e-06
5.85311e-06
5.85311e-06
5.85311e-06
5.80405e-06
5.80405e-06
5.80405e-06
5.87649e-06
5.87649e-06
5.87649e-06
5.99907e-06
5.99907e-06
5.99907e-06
6.04816e-06
6.04816e-06
6.04816e-06
5.97518e-06
5.97518e-06
5.97518e-06
6.02408e-06
6.02408e-06
6.02408e-06
6.14602e-06
6.14602e-06
6.14602e-06
5.9006e-06
5.9006e-06
5.9006e-06
5.85116e-06
5.85116e-06
5.85116e-06
5.92451e-06
5.92451e-06
5.92451e-06
6.04812e-06
6.04812e-06
6.04812e-06
6.41921e-06
6.41921e-06
6.41921e-06
6.29547e-06
6.29547e-06
6.29547e-06
5.97271e-06
5.97271e-06
5.97271e-06
6.12213e-06
6.12213e-06
6.12213e-06
6.32103e-06
6.32103e-06
6.32103e-06
6.07267e-06
6.07267e-06
6.07267e-06
6.24625e-06
6.24625e-06
6.24625e-06
6.12233e-06
6.12233e-06
6.12233e-06
6.34883e-06
6.34883e-06
6.34883e-06
7.28084e-06
7.28084e-06
7.28084e-06
7.32909e-06
7.32909e-06
7.32909e-06
6.67294e-06
6.67294e-06
6.67294e-06
6.72124e-06
6.72124e-06
6.72124e-06
5.45341e-06
5.45341e-06
5.45341e-06
5.45e-06
5.45e-06
5.45e-06
5.41689e-06
5.41689e-06
5.41689e-06
5.43144e-06
5.43144e-06
5.43144e-06
5.42793e-06
5.42793e-06
5.42793e-06
5.44248e-06
5.44248e-06
5.44248e-06
5.40975e-06
5.40975e-06
5.40975e-06
5.43879e-06
5.43879e-06
5.43879e-06
5.40607e-06
5.40607e-06
5.40607e-06
5.42055e-06
5.42055e-06
5.42055e-06
5.34408e-06
5.34408e-06
5.34408e-06
5.31914e-06
5.31914e-06
5.31914e-06
5.33336e-06
5.33336e-06
5.33336e-06
5.3019e-06
5.3019e-06
5.3019e-06
5.32977e-06
5.32977e-06
5.32977e-06
5.29882e-06