<VTKFile type="UnstructuredGrid" version="1.0">
<UnstructuredGrid>
<Piece NumberOfPoints="8859" NumberOfCells="2953">
<Points>
<DataArray type="Float64" NumberOfComponents="3" format="ascii">
2.75455 1.50245 0.912625
2.76986 1.48714 0.924584
2.75465 1.50235 0.938328
2.78515 1.47185 0.861673
2.78516 1.47184 0.836515
2.8005 1.4565 0.84898
2.76981 1.48719 0.874362
2.78515 1.47185 0.861673
2.78514 1.47186 0.886856
2.72412 1.53288 0.96488
2.73952 1.51748 0.9725
2.70875 1.54825 0.9725
2.72412 1.53288 0.96488
2.73943 1.51757 0.949569
2.73952 1.51748 0.9725
2.75488 1.50212 0.964788
2.77036 1.48664 0.9725
2.73952 1.51748 0.9725
2.75488 1.50212 0.964788
2.73943 1.51757 0.949569
2.75465 1.50235 0.938328
2.73952 1.51748 0.9725
2.73943 1.51757 0.949569
2.75488 1.50212 0.964788
2.75465 1.50235 0.938328
2.76986 1.48714 0.924584
2.76997 1.48703 0.94927
2.76997 1.48703 0.94927
2.75488 1.50212 0.964788
2.75465 1.50235 0.938328
2.77036 1.48664 0.9725
2.75488 1.50212 0.964788
2.76997 1.48703 0.94927
2.76986 1.48714 0.924584
2.75455 1.50245 0.912625
2.76982 1.48718 0.899521
2.76981 1.48719 0.874362
2.78514 1.47186 0.886856
2.76982 1.48718 0.899521
2.7852 1.4718 0.937625
2.76997 1.48703 0.94927
2.76986 1.48714 0.924584
2.8005 1.4565 0.923949
2.8005 1.4565 0.948552
2.7852 1.4718 0.937625
2.8005 1.4565 0.823871
2.8005 1.4565 0.84898
2.78516 1.47184 0.836515
2.78515 1.47185 0.861673
2.8005 1.4565 0.84898
2.8005 1.4565 0.874055
2.8005 1.4565 0.874055
2.78514 1.47186 0.886856
2.78515 1.47185 0.861673
2.8005 1.4565 0.29652
2.8005 1.4565 0.321651
2.78518 1.47182 0.309069
2.78517 1.47183 0.76107
2.8005 1.4565 0.773613
2.78517 1.47183 0.786215
2.8005 1.4565 0.74848
2.8005 1.4565 0.773613
2.78517 1.47183 0.76107
2.78519 1.47181 0.635442
2.8005 1.4565 0.647992
2.78519 1.47181 0.660554
2.32274 1.93426 0.0805869
2.33845 1.91855 0.0725
2.33845 1.91855 0.095634
2.27541 1.98159 0.9725
2.24359 2.01341 0.9725
2.25954 1.99746 0.964321
2.78515 1.47185 0.912117
2.76982 1.48718 0.899521
2.78514 1.47186 0.886856
2.76986 1.48714 0.924584
2.76982 1.48718 0.899521
2.78515 1.47185 0.912117
2.78515 1.47185 0.912117
2.7852 1.4718 0.937625
2.76986 1.48714 0.924584
2.8005 1.4565 0.923949
2.7852 1.4718 0.937625
2.78515 1.47185 0.912117
2.78544 1.47156 0.963839
2.8005 1.4565 0.948552
2.8005 1.4565 0.9725
2.78544 1.47156 0.963839
2.7852 1.4718 0.937625
2.8005 1.4565 0.948552
2.8005 1.4565 0.9725
2.77036 1.48664 0.9725
2.78544 1.47156 0.963839
2.77036 1.48664 0.9725
2.76997 1.48703 0.94927
2.78544 1.47156 0.963839
2.76997 1.48703 0.94927
2.7852 1.4718 0.937625
2.78544 1.47156 0.963839
2.78517 1.47183 0.786215
2.8005 1.4565 0.773613
2.8005 1.4565 0.798745
2.78514 1.47186 0.886856
2.8005 1.4565 0.874055
2.8005 1.4565 0.899067
2.8005 1.4565 0.923949
2.78515 1.47185 0.912117
2.8005 1.4565 0.899067
2.8005 1.4565 0.899067
2.78515 1.47185 0.912117
2.78514 1.47186 0.886856
2.8005 1.4565 0.622885
2.8005 1.4565 0.647992
2.78519 1.47181 0.635442
2.78518 1.47182 0.309069
2.8005 1.4565 0.321651
2.78518 1.47182 0.334202
2.76985 1.48715 0.748526
2.75454 1.50246 0.735977
2.76986 1.48714 0.723383
2.78516 1.47184 0.811363
2.8005 1.4565 0.823871
2.78516 1.47184 0.836515
2.78516 1.47184 0.811363
2.8005 1.4565 0.798745
2.8005 1.4565 0.823871
2.78516 1.47184 0.811363
2.76984 1.48716 0.798839
2.78517 1.47183 0.786215
2.78517 1.47183 0.786215
2.8005 1.4565 0.798745
2.78516 1.47184 0.811363
2.76982 1.48718 0.849184
2.78515 1.47185 0.861673
2.76981 1.48719 0.874362
2.76982 1.48718 0.849184
2.78516 1.47184 0.836515
2.78515 1.47185 0.861673
2.75451 1.50249 0.81149
2.7392 1.5178 0.824146
2.73921 1.51779 0.798941
2.53996 1.71704 0.938376
2.52458 1.73242 0.924896
2.53996 1.71704 0.91275
2.49374 1.76326 0.773805
2.49375 1.76325 0.799
2.47832 1.77868 0.786392
2.8005 1.4565 0.0725
2.8005 1.4565 0.096448
2.78544 1.47156 0.0811606
2.27543 1.98157 0.949328
2.27541 1.98159 0.9725
2.25954 1.99746 0.964321
2.33845 1.91855 0.874462
2.32276 1.93424 0.88714
2.32275 1.93425 0.861854
2.25954 1.99746 0.964321
2.24359 2.01341 0.9725
2.24374 2.01326 0.949228
2.76987 1.48713 0.396996
2.75455 1.50245 0.384429
2.76987 1.48713 0.371878
2.8005 1.4565 0.547592
2.78519 1.47181 0.535047
2.8005 1.4565 0.5225
2.78519 1.47181 0.585237
2.8005 1.4565 0.572686
2.8005 1.4565 0.597784
2.76988 1.48712 0.497406
2.75456 1.50244 0.509952
2.75456 1.50244 0.484856
2.76988 1.48712 0.5225
2.75456 1.50244 0.509952
2.76988 1.48712 0.497406
2.78519 1.47181 0.535047
2.76988 1.48712 0.547594
2.76988 1.48712 0.5225
2.75455 1.50245 0.660571
2.76987 1.48713 0.673122
2.75455 1.50245 0.685697
2.72393 1.53307 0.635467
2.72392 1.53308 0.660589
2.70861 1.54839 0.648033
2.75456 1.50244 0.635455
2.73924 1.51776 0.622905
2.75456 1.50244 0.610346
2.75456 1.50244 0.610346
2.76987 1.48713 0.622894
2.75456 1.50244 0.635455
2.73924 1.51776 0.622905
2.73925 1.51775 0.597797
2.75456 1.50244 0.610346
2.75456 1.50244 0.610346
2.73925 1.51775 0.597797
2.75456 1.50244 0.585242
2.8005 1.4565 0.597784
2.8005 1.4565 0.622885
2.78519 1.47181 0.610337
2.78519 1.47181 0.610337
2.78519 1.47181 0.585237
2.8005 1.4565 0.597784
2.78519 1.47181 0.610337
2.8005 1.4565 0.622885
2.78519 1.47181 0.635442
2.78519 1.47181 0.635442
2.76987 1.48713 0.622894
2.78519 1.47181 0.610337
2.75454 1.50246 0.710831
2.73923 1.51777 0.698277
2.75455 1.50245 0.685697
2.75454 1.50246 0.710831
2.76986 1.48714 0.723383
2.75454 1.50246 0.735977
2.7086 1.5484 0.698302
2.72392 1.53308 0.68572
2.72392 1.53308 0.710864
2.72392 1.53308 0.710864
2.72392 1.53308 0.68572
2.73923 1.51777 0.698277
2.8005 1.4565 0.673105
2.78519 1.47181 0.660554
2.8005 1.4565 0.647992
2.75455 1.50245 0.685697
2.76987 1.48713 0.673122
2.76986 1.48714 0.698248
2.76986 1.48714 0.698248
2.75454 1.50246 0.710831
2.75455 1.50245 0.685697
2.76986 1.48714 0.723383
2.75454 1.50246 0.710831
2.76986 1.48714 0.698248
2.78517 1.47183 0.786215
2.76984 1.48716 0.798839
2.76985 1.48715 0.773678
2.76985 1.48715 0.773678
2.78517 1.47183 0.76107
2.78517 1.47183 0.786215
2.76985 1.48715 0.748526
2.78517 1.47183 0.76107
2.76985 1.48715 0.773678
2.73921 1.51779 0.798941
2.73921 1.51779 0.773753
2.75452 1.50248 0.786304
2.75452 1.50248 0.786304
2.75451 1.50249 0.81149
2.73921 1.51779 0.798941
2.76984 1.48716 0.798839
2.75451 1.50249 0.81149
2.75452 1.50248 0.786304
2.75452 1.50248 0.786304
2.76985 1.48715 0.773678
2.76984 1.48716 0.798839
2.7239 1.5331 0.786381
2.73921 1.51779 0.773753
2.73921 1.51779 0.798941
2.7239 1.5331 0.786381
2.70859 1.54841 0.799009
2.70859 1.54841 0.773807
2.76981 1.48719 0.874362
2.76982 1.48718 0.899521
2.75451 1.50249 0.887217
2.75451 1.50249 0.887217
2.76982 1.48718 0.899521
2.75455 1.50245 0.912625
2.7392 1.5178 0.824146
2.75451 1.50249 0.81149
2.75451 1.50249 0.836694
2.75451 1.50249 0.836694
2.7392 1.5178 0.849368
2.7392 1.5178 0.824146
2.67798 1.57902 0.673174
2.66266 1.59434 0.685749
2.66266 1.59434 0.660611
2.70859 1.54841 0.773807
2.70859 1.54841 0.748623
2.7239 1.5331 0.761192
2.7239 1.5331 0.761192
2.7239 1.5331 0.786381
2.70859 1.54841 0.773807
2.73921 1.51779 0.773753
2.7239 1.5331 0.786381
2.7239 1.5331 0.761192
2.73922 1.51778 0.748581
2.73921 1.51779 0.773753
2.7239 1.5331 0.761192
2.57068 1.68632 0.912763
2.57068 1.68632 0.93839
2.55533 1.70167 0.924907
2.55533 1.70167 0.924907
2.57068 1.68632 0.93839
2.55533 1.70167 0.949497
2.55533 1.70167 0.924907
2.55533 1.70167 0.949497
2.53996 1.71704 0.938376
2.53996 1.71704 0.938376
2.53996 1.71704 0.91275
2.55533 1.70167 0.924907
2.52458 1.73242 0.899845
2.53996 1.71704 0.91275
2.52458 1.73242 0.924896
2.50912 1.74788 0.53505
2.50912 1.74788 0.56015
2.49371 1.76329 0.547599
2.41633 1.84067 0.660564
2.40077 1.85623 0.647996
2.41632 1.84068 0.635447
2.41635 1.84065 0.710832
2.40081 1.85619 0.723393
2.40079 1.85621 0.698249
2.33845 1.91855 0.874462
2.32275 1.93425 0.861854
2.33843 1.91857 0.849241
2.33845 1.91855 0.899657
2.32276 1.93424 0.88714
2.33845 1.91855 0.874462
2.40087 1.85613 0.824121
2.40088 1.85612 0.849338
2.38531 1.87169 0.836717
2.30693 1.95007 0.773576
2.32265 1.93435 0.761025
2.32267 1.93433 0.786199
2.30684 1.95016 0.67303
2.29108 1.96592 0.685563
2.29106 1.96594 0.660458
2.32274 1.93426 0.964413
2.33845 1.91855 0.9725
2.30701 1.94999 0.9725
2.33845 1.91855 0.949366
2.33845 1.91855 0.9725
2.32274 1.93426 0.964413
2.35411 1.90289 0.964474
2.33845 1.91855 0.9725
2.33845 1.91855 0.949366
2.30704 1.94996 0.89961
2.30703 1.94997 0.924693
2.29128 1.96572 0.912459
2.55533 1.70167 0.9725
2.52458 1.73242 0.9725
2.53996 1.71704 0.964721
2.53996 1.71704 0.938376
2.55533 1.70167 0.949497
2.53996 1.71704 0.964721
2.53996 1.71704 0.964721
2.55533 1.70167 0.949497
2.55533 1.70167 0.9725
2.52458 1.73242 0.949489
2.52458 1.73242 0.924896
2.53996 1.71704 0.938376
2.53996 1.71704 0.938376
2.53996 1.71704 0.964721
2.52458 1.73242 0.949489
2.52458 1.73242 0.949489
2.53996 1.71704 0.964721
2.52458 1.73242 0.9725
2.41642 1.84058 0.836759
2.40088 1.85612 0.849338
2.40087 1.85613 0.824121
2.47831 1.77869 0.761204
2.49374 1.76326 0.748624
2.49374 1.76326 0.773805
2.49374 1.76326 0.773805
2.47832 1.77868 0.786392
2.47831 1.77869 0.761204
2.47833 1.77867 0.811596
2.47832 1.77868 0.786392
2.49375 1.76325 0.799
2.47833 1.77867 0.811596
2.49375 1.76325 0.799
2.49376 1.76324 0.824208
2.49376 1.76324 0.824208
2.47834 1.77866 0.836818
2.47833 1.77867 0.811596
2.47833 1.77867 0.811596
2.47834 1.77866 0.836818
2.46289 1.79411 0.824187
2.49377 1.76323 0.849427
2.47834 1.77866 0.836818
2.49376 1.76324 0.824208
2.49377 1.76323 0.874644
2.47835 1.77865 0.887342
2.47834 1.77866 0.862061
2.47834 1.77866 0.862061
2.49377 1.76323 0.849427
2.49377 1.76323 0.874644
2.47834 1.77866 0.836818
2.49377 1.76323 0.849427
2.47834 1.77866 0.862061
2.7852 1.4718 0.107375
2.78544 1.47156 0.0811606
2.8005 1.4565 0.096448
2.76997 1.48703 0.0957297
2.78544 1.47156 0.0811606
2.7852 1.4718 0.107375
2.64739 1.60961 0.0954754
2.64738 1.60962 0.0725
2.66272 1.59428 0.0802084
2.70875 1.54825 0.0725
2.6934 1.5636 0.0801683
2.67805 1.57895 0.0725
2.67805 1.57895 0.0725
2.66272 1.59428 0.0802084
[...]
<PointData Scalars="View Factor" >
<DataArray type="Float64" Name="View Factor" NumberOfComponents="1" format="ascii">
4.06628e-05
4.06628e-05
4.06628e-05
4.30109e-05
4.30109e-05
4.30109e-05
4.22171e-05
4.22171e-05
4.22171e-05
3.8419e-05
3.8419e-05
3.8419e-05
3.90137e-05
3.90137e-05
3.90137e-05
3.99886e-05
3.99886e-05
3.99886e-05
3.98984e-05
3.98984e-05
3.98984e-05
3.95376e-05
3.95376e-05
3.95376e-05
4.08076e-05
4.08076e-05
4.08076e-05
4.04209e-05
4.04209e-05
4.04209e-05
4.0579e-05
4.0579e-05
4.0579e-05
4.10481e-05
4.10481e-05
4.10481e-05
4.18275e-05
4.18275e-05
4.18275e-05
4.13331e-05
4.13331e-05
4.13331e-05
4.23855e-05
4.23855e-05
4.23855e-05
4.34102e-05
4.34102e-05
4.34102e-05
4.31503e-05
4.31503e-05
4.31503e-05
4.27518e-05
4.27518e-05
4.27518e-05
4.93449e-05
4.93449e-05
4.93449e-05
4.37957e-05
4.37957e-05
4.37957e-05
4.42022e-05
4.42022e-05
4.42022e-05
4.51406e-05
4.51406e-05
4.51406e-05
2.91984e-05
2.91984e-05
2.91984e-05
2.39501e-05
2.39501e-05
2.39501e-05
4.19673e-05
4.19673e-05
4.19673e-05
4.15769e-05
4.15769e-05
4.15769e-05
4.17157e-05
4.17157e-05
4.17157e-05
4.22443e-05
4.22443e-05
4.22443e-05
4.21393e-05
4.21393e-05
4.21393e-05
4.19958e-05
4.19958e-05
4.19958e-05
4.1543e-05
4.1543e-05
4.1543e-05
4.11022e-05
4.11022e-05
4.11022e-05
4.14722e-05
4.14722e-05
4.14722e-05
4.39362e-05
4.39362e-05
4.39362e-05
4.28925e-05
4.28925e-05
4.28925e-05
4.26374e-05
4.26374e-05
4.26374e-05
4.24991e-05
4.24991e-05
4.24991e-05
4.55617e-05
4.55617e-05
4.55617e-05
4.88856e-05
4.88856e-05
4.88856e-05
4.2814e-05
4.2814e-05
4.2814e-05
4.3272e-05
4.3272e-05
4.3272e-05
4.36721e-05
4.36721e-05
4.36721e-05
4.29874e-05
4.29874e-05
4.29874e-05
4.35307e-05
4.35307e-05
4.35307e-05
4.20766e-05
4.20766e-05
4.20766e-05
4.24735e-05
4.24735e-05
4.24735e-05
4.09665e-05
4.09665e-05
4.09665e-05
2.90972e-05
2.90972e-05
2.90972e-05
2.76273e-05
2.76273e-05
2.76273e-05
5.21978e-05
5.21978e-05
5.21978e-05
2.39353e-05
2.39353e-05
2.39353e-05
2.41232e-05
2.41232e-05
2.41232e-05
2.40544e-05
2.40544e-05
2.40544e-05
4.66387e-05
4.66387e-05
4.66387e-05
4.66858e-05
4.66858e-05
4.66858e-05
4.61196e-05
4.61196e-05
4.61196e-05
4.50736e-05
4.50736e-05
4.50736e-05
4.52253e-05
4.52253e-05
4.52253e-05
4.55308e-05
4.55308e-05
4.55308e-05
4.31913e-05
4.31913e-05
4.31913e-05
4.12064e-05
4.12064e-05
4.12064e-05
4.31534e-05
4.31534e-05
4.31534e-05
4.37194e-05
4.37194e-05
4.37194e-05
4.29997e-05
4.29997e-05
4.29997e-05
4.34169e-05
4.34169e-05
4.34169e-05
4.58397e-05
4.58397e-05
4.58397e-05
4.56961e-05
4.56961e-05
4.56961e-05
4.54174e-05
4.54174e-05
4.54174e-05
4.48513e-05
4.48513e-05
4.48513e-05
4.23758e-05
4.23758e-05
4.23758e-05
4.26691e-05
4.26691e-05
4.26691e-05
4.07063e-05
4.07063e-05
4.07063e-05
4.12617e-05
4.12617e-05
4.12617e-05
4.52858e-05
4.52858e-05
4.52858e-05
4.33406e-05
4.33406e-05
4.33406e-05
4.29315e-05
4.29315e-05
4.29315e-05
4.30786e-05
4.30786e-05
4.30786e-05
4.2845e-05
4.2845e-05
4.2845e-05
4.32493e-05
4.32493e-05
4.32493e-05
4.31078e-05
4.31078e-05
4.31078e-05
4.1212e-05
4.1212e-05
4.1212e-05
4.13588e-05
4.13588e-05
4.13588e-05
4.19015e-05
4.19015e-05
4.19015e-05
4.23005e-05
4.23005e-05
4.23005e-05
4.06682e-05
4.06682e-05
4.06682e-05
3.95836e-05
3.95836e-05
3.95836e-05
4.12954e-05
4.12954e-05
4.12954e-05
4.09035e-05
4.09035e-05
4.09035e-05
4.11111e-05
4.11111e-05
4.11111e-05
4.07186e-05
4.07186e-05
4.07186e-05
3.81626e-05
3.81626e-05
3.81626e-05
3.98224e-05
3.98224e-05
3.98224e-05
3.99761e-05
3.99761e-05
3.99761e-05
4.05214e-05
4.05214e-05
4.05214e-05
4.09177e-05
4.09177e-05
4.09177e-05
3.06751e-05
3.06751e-05
3.06751e-05
3.03219e-05
3.03219e-05
3.03219e-05
2.97979e-05
2.97979e-05
2.97979e-05
2.96228e-05
2.96228e-05
2.96228e-05
2.89242e-05
2.89242e-05
2.89242e-05
3.01268e-05
3.01268e-05
3.01268e-05
2.50316e-05
2.50316e-05
2.50316e-05
2.46806e-05
2.46806e-05
2.46806e-05
2.41683e-05
2.41683e-05
2.41683e-05
2.40241e-05
2.40241e-05
2.40241e-05
2.39983e-05
2.39983e-05
2.39983e-05
2.47647e-05
2.47647e-05
2.47647e-05
2.54864e-05
2.54864e-05
2.54864e-05
2.36109e-05
2.36109e-05
2.36109e-05
2.36004e-05
2.36004e-05
2.36004e-05
2.35473e-05
2.35473e-05
2.35473e-05
2.40459e-05
2.40459e-05
2.40459e-05
2.90547e-05
2.90547e-05
2.90547e-05
2.94431e-05
2.94431e-05
2.94431e-05
2.96253e-05
2.96253e-05
2.96253e-05
2.87496e-05
2.87496e-05
2.87496e-05
2.89206e-05
2.89206e-05
2.89206e-05
2.85832e-05
2.85832e-05
2.85832e-05
2.39486e-05
2.39486e-05
2.39486e-05
2.77929e-05
2.77929e-05
2.77929e-05
2.74382e-05
2.74382e-05
2.74382e-05
2.72739e-05
2.72739e-05
2.72739e-05
2.74627e-05
2.74627e-05
2.74627e-05
2.71097e-05
2.71097e-05
2.71097e-05
2.65699e-05
2.65699e-05
2.65699e-05
2.72965e-05
2.72965e-05
2.72965e-05
2.67854e-05
2.67854e-05
2.67854e-05
2.71342e-05
2.71342e-05
2.71342e-05
2.69466e-05
2.69466e-05
2.69466e-05
5.17223e-05
5.17223e-05
5.17223e-05
5.10824e-05
5.10824e-05
5.10824e-05
4.31496e-05
4.31496e-05
4.31496e-05
4.58273e-05
4.58273e-05
4.58273e-05
4.38769e-05
4.38769e-05
4.38769e-05
2.99843e-05
2.99843e-05
2.99843e-05
2.98414e-05
2.98414e-05
2.98414e-05
3.00578e-05
3.00578e-05
3.00578e-05
3.01859e-05
3.01859e-05
3.01859e-05
2.9533e-05
2.9533e-05
2.9533e-05
2.93198e-05
2.93198e-05
2.93198e-05
2.95179e-05
2.95179e-05
2.95179e-05
2.89141e-05
2.89141e-05
2.89141e-05
2.87885e-05
2.87885e-05
2.87885e-05
2.37096e-05
2.37096e-05
2.37096e-05
2.40014e-05
2.40014e-05
2.40014e-05
2.39038e-05
2.39038e-05
2.39038e-05
2.56533e-05
2.56533e-05
2.56533e-05
2.55466e-05
2.55466e-05
2.55466e-05
2.45825e-05
2.45825e-05
2.45825e-05
4.91914e-05
4.91914e-05
4.91914e-05
4.72607e-05
4.72607e-05
4.72607e-05
4.60664e-05
4.60664e-05
4.60664e-05
4.56298e-05
4.56298e-05
4.56298e-05
4.63507e-05
4.63507e-05
4.63507e-05
4.59111e-05
4.59111e-05
4.59111e-05
4.53166e-05
4.53166e-05
4.53166e-05
4.51567e-05
4.51567e-05
4.51567e-05
4.55981e-05
4.55981e-05
4.55981e-05
4.61961e-05
4.61961e-05
4.61961e-05
3.66888e-05
3.66888e-05
3.66888e-05
3.62637e-05
3.62637e-05
3.62637e-05
3.61077e-05
3.61077e-05
3.61077e-05
4.54359e-05
4.54359e-05
4.54359e-05
4.904e-05
4.904e-05
4.904e-05
3.78343e-05
3.78343e-05
3.78343e-05
3.67096e-05
3.67096e-05
3.67096e-05
4.00821e-05
4.00821e-05
4.00821e-05
3.7558e-05
3.7558e-05
3.7558e-05
3.95097e-05
3.95097e-05
3.95097e-05
3.93398e-05
3.93398e-05
3.93398e-05
3.8764e-05
3.8764e-05
3.8764e-05
3.8359e-05
3.8359e-05
3.8359e-05
4.44902e-05
4.44902e-05
4.44902e-05
4.69722e-05
4.69722e-05
4.69722e-05
4.65387e-05
4.65387e-05
4.65387e-05
4.59586e-05
4.59586e-05
4.59586e-05
4.5807e-05
4.5807e-05
4.5807e-05
4.62407e-05
4.62407e-05
4.62407e-05
4.68243e-05
4.68243e-05
4.68243e-05
3.51287e-05
3.51287e-05
3.51287e-05
3.55269e-05
3.55269e-05
3.55269e-05
3.88301e-05
3.88301e-05
3.88301e-05
3.90026e-05
3.90026e-05
3.90026e-05
3.85962e-05
3.85962e-05
3.85962e-05
3.80187e-05
3.80187e-05
3.80187e-05
3.57446e-05
3.57446e-05
3.57446e-05
3.55594e-05
3.55594e-05
3.55594e-05
3.47651e-05
3.47651e-05
3.47651e-05
3.53462e-05
3.53462e-05
3.53462e-05
3.8249e-05
3.8249e-05
3.8249e-05
3.7844e-05
3.7844e-05
3.7844e-05
4.41624e-05
4.41624e-05
4.41624e-05
4.36015e-05
4.36015e-05
4.36015e-05
4.34529e-05
4.34529e-05
4.34529e-05
4.45781e-05
4.45781e-05
4.45781e-05
4.4433e-05
4.4433e-05
4.4433e-05
4.38688e-05
4.38688e-05
4.38688e-05
4.17686e-05
4.17686e-05
4.17686e-05
4.28905e-05
4.28905e-05
4.28905e-05
4.27418e-05
4.27418e-05
4.27418e-05
4.21778e-05
4.21778e-05
4.21778e-05
4.05726e-05
4.05726e-05
4.05726e-05
4.15497e-05
4.15497e-05
4.15497e-05
4.09789e-05
4.09789e-05
4.09789e-05
4.51267e-05
4.51267e-05
4.51267e-05
4.44075e-05
4.44075e-05
4.44075e-05
4.49787e-05
4.49787e-05
4.49787e-05
4.39862e-05
4.39862e-05
4.39862e-05
4.41364e-05
4.41364e-05
4.41364e-05
4.47041e-05
4.47041e-05
4.47041e-05
4.2223e-05
4.2223e-05
4.2223e-05
4.16657e-05
4.16657e-05
4.16657e-05
4.15143e-05
4.15143e-05
4.15143e-05
4.26323e-05
4.26323e-05
4.26323e-05
4.19222e-05
4.19222e-05
4.19222e-05
4.2483e-05
4.2483e-05
4.2483e-05
4.09555e-05
4.09555e-05
4.09555e-05
4.07998e-05
4.07998e-05
4.07998e-05
4.02394e-05
4.02394e-05
4.02394e-05
4.05515e-05
4.05515e-05
4.05515e-05
4.1969e-05
4.1969e-05
4.1969e-05
4.14151e-05
4.14151e-05
4.14151e-05
4.21168e-05
4.21168e-05
4.21168e-05
4.17141e-05
4.17141e-05
4.17141e-05
4.03091e-05
4.03091e-05
4.03091e-05
4.43127e-05
4.43127e-05
4.43127e-05
4.4872e-05
4.4872e-05
4.4872e-05
4.5012e-05
4.5012e-05
4.5012e-05
4.38981e-05
4.38981e-05
4.38981e-05
4.44702e-05
4.44702e-05
4.44702e-05
4.3365e-05
4.3365e-05
4.3365e-05
4.40611e-05
4.40611e-05
4.40611e-05
4.35116e-05
4.35116e-05
4.35116e-05
4.474e-05
4.474e-05
4.474e-05
4.45947e-05
4.45947e-05
4.45947e-05
4.40388e-05
4.40388e-05
4.40388e-05
4.3633e-05
4.3633e-05
4.3633e-05
4.37773e-05
4.37773e-05
4.37773e-05
4.433e-05
4.433e-05
4.433e-05
4.1465e-05
4.1465e-05
4.1465e-05
4.256e-05
4.256e-05
4.256e-05
4.16112e-05
4.16112e-05
4.16112e-05
4.2157e-05
4.2157e-05
4.2157e-05
4.18652e-05
4.18652e-05
4.18652e-05
4.24144e-05
4.24144e-05
4.24144e-05
4.04258e-05
4.04258e-05
4.04258e-05
4.02744e-05
4.02744e-05
4.02744e-05
3.97324e-05
3.97324e-05
3.97324e-05
4.15414e-05
4.15414e-05
4.15414e-05
4.04754e-05
4.04754e-05
4.04754e-05
4.14013e-05
4.14013e-05
4.14013e-05
4.08652e-05
4.08652e-05
4.08652e-05
4.11527e-05
4.11527e-05
4.11527e-05
4.06199e-05
4.06199e-05
4.06199e-05
3.97592e-05
3.97592e-05
3.97592e-05
4.01369e-05
4.01369e-05
4.01369e-05
3.8852e-05
3.8852e-05
3.8852e-05
3.92351e-05
3.92351e-05
3.92351e-05
3.90844e-05
3.90844e-05
3.90844e-05
4.02304e-05
4.02304e-05
4.02304e-05
3.94645e-05
3.94645e-05
3.94645e-05
4.03741e-05
4.03741e-05
4.03741e-05
3.99916e-05
3.99916e-05
3.99916e-05
4.16504e-05
4.16504e-05
4.16504e-05
4.27317e-05
4.27317e-05
4.27317e-05
4.23323e-05
4.23323e-05
4.23323e-05
4.1794e-05
4.1794e-05
4.1794e-05
4.259e-05
4.259e-05
4.259e-05
4.20485e-05
4.20485e-05
4.20485e-05
3.44626e-05
3.44626e-05
3.44626e-05
3.42867e-05
3.42867e-05
3.42867e-05
3.61477e-05
3.61477e-05
3.61477e-05
3.50243e-05
3.50243e-05
3.50243e-05
3.83254e-05
3.83254e-05
3.83254e-05
3.06149e-05
3.06149e-05
3.06149e-05
3.01464e-05
3.01464e-05
3.01464e-05
3.04879e-05
3.04879e-05
3.04879e-05
2.97457e-05
2.97457e-05
2.97457e-05
3.07034e-05
3.07034e-05
3.07034e-05
3.43682e-05
3.43682e-05
3.43682e-05
3.45512e-05
3.45512e-05
3.45512e-05
2.51329e-05
2.51329e-05
2.51329e-05
2.47395e-05
2.47395e-05
2.47395e-05
2.49796e-05
2.49796e-05
2.49796e-05
2.5602e-05
2.5602e-05
2.5602e-05
2.56095e-05
2.56095e-05
2.56095e-05
2.56578e-05
2.56578e-05
2.56578e-05
2.42674e-05
2.42674e-05
2.42674e-05
2.39775e-05
2.39775e-05
2.39775e-05
2.40325e-05
2.40325e-05
2.40325e-05
2.39899e-05
2.39899e-05
2.39899e-05
2.41142e-05
2.41142e-05
2.41142e-05
2.4158e-05
2.4158e-05
2.4158e-05
2.40075e-05
2.40075e-05
2.40075e-05
2.41049e-05
2.41049e-05
2.41049e-05
2.44436e-05
2.44436e-05
2.44436e-05
2.43911e-05
2.43911e-05
2.43911e-05
2.45513e-05
2.45513e-05
2.45513e-05
2.46063e-05
2.46063e-05
2.46063e-05
2.47082e-05
2.47082e-05
2.47082e-05
2.46864e-05
2.46864e-05
2.46864e-05
2.40998e-05
2.40998e-05
2.40998e-05
2.41519e-05
2.41519e-05
2.41519e-05
2.48678e-05
2.48678e-05
2.48678e-05
2.49139e-05
2.49139e-05
2.49139e-05
2.5007e-05
2.5007e-05
2.5007e-05
2.55333e-05
2.55333e-05
2.55333e-05
2.34559e-05
2.34559e-05
2.34559e-05
2.33029e-05
2.33029e-05
2.33029e-05
2.41785e-05
2.41785e-05
2.41785e-05
2.41334e-05
2.41334e-05
2.41334e-05
2.74888e-05
2.74888e-05
2.74888e-05
2.80619e-05
2.80619e-05
2.80619e-05
2.73819e-05
2.73819e-05
2.73819e-05
2.70201e-05
2.70201e-05
2.70201e-05
2.85127e-05
2.85127e-05
2.85127e-05
2.47373e-05
2.47373e-05
2.47373e-05
2.63799e-05
2.63799e-05
2.63799e-05
2.67307e-05
2.67307e-05
2.67307e-05
2.62522e-05
2.62522e-05
2.62522e-05
2.5187e-05
2.5187e-05
2.5187e-05
5.16691e-05
5.16691e-05
5.16691e-05
5.09211e-05
5.09211e-05
5.09211e-05
4.7871e-05
4.7871e-05
4.7871e-05
4.83298e-05
4.83298e-05
4.83298e-05
4.77769e-05
4.77769e-05
4.77769e-05
2.98185e-05
2.98185e-05
2.98185e-05
2.97688e-05
2.97688e-05
2.97688e-05
2.97322e-05
2.97322e-05
2.97322e-05
2.97457e-05
2.97457e-05
2.97457e-05
2.96253e-05
2.96253e-05
2.96253e-05
2.96032e-05
2.96032e-05
2.96032e-05
2.9554e-05
2.9554e-05
2.9554e-05
2.94209e-05
2.94209e-05
2.94209e-05
2.97787e-05
2.97787e-05
2.97787e-05
2.97955e-05
2.97955e-05
2.97955e-05
2.98507e-05
2.98507e-05
2.98507e-05
3.00376e-05
3.00376e-05
3.00376e-05
2.99667e-05
2.99667e-05
2.99667e-05
3.01727e-05
3.01727e-05
3.01727e-05
2.99513e-05
2.99513e-05
2.99513e-05
2.85078e-05
2.85078e-05
2.85078e-05
2.6794e-05
2.6794e-05
2.6794e-05
2.82653e-05
2.82653e-05
2.82653e-05
2.77313e-05
2.77313e-05
2.77313e-05
2.79003e-05
2.79003e-05
2.79003e-05
2.77787e-05
2.77787e-05
2.77787e-05
2.77537e-05
2.77537e-05
2.77537e-05
2.77057e-05
2.77057e-05
2.77057e-05
2.85886e-05
2.85886e-05
2.85886e-05
2.78527e-05
2.78527e-05
2.78527e-05
2.69504e-05
2.69504e-05
2.69504e-05
2.69756e-05
2.69756e-05
2.69756e-05
2.68604e-05
2.68604e-05
2.68604e-05
2.85507e-05
2.85507e-05
2.85507e-05
2.84809e-05
2.84809e-05
2.84809e-05
2.86932e-05
2.86932e-05
2.86932e-05
2.87658e-05
2.87658e-05
2.87658e-05
2.87145e-05
2.87145e-05
2.87145e-05
2.79963e-05
2.79963e-05
2.79963e-05
2.89397e-05
2.89397e-05
2.89397e-05
2.91167e-05
2.91167e-05
2.91167e-05
2.89898e-05
2.89898e-05
2.89898e-05
2.62245e-05
2.62245e-05
2.62245e-05
2.61178e-05
2.61178e-05
2.61178e-05
2.6136e-05
2.6136e-05
2.6136e-05
2.59055e-05
2.59055e-05
2.59055e-05
2.59584e-05
2.59584e-05
2.59584e-05
2.60647e-05
2.60647e-05
2.60647e-05
2.72374e-05
2.72374e-05
2.72374e-05
2.68226e-05
2.68226e-05
2.68226e-05
2.65753e-05
2.65753e-05
2.65753e-05
2.66249e-05
2.66249e-05
2.66249e-05
2.3692e-05
2.3692e-05
2.3692e-05
2.37463e-05
2.37463e-05
2.37463e-05
2.38481e-05
2.38481e-05
2.38481e-05
2.38905e-05
2.38905e-05
2.38905e-05
2.3765e-05
2.3765e-05
2.3765e-05
2.38566e-05
2.38566e-05
2.38566e-05
2.37793e-05
2.37793e-05
2.37793e-05
2.38774e-05
2.38774e-05
2.38774e-05
2.39134e-05
2.39134e-05
2.39134e-05
2.6583e-05
2.6583e-05
2.6583e-05
2.64239e-05
2.64239e-05
2.64239e-05
2.64681e-05
2.64681e-05
2.64681e-05
2.55002e-05
2.55002e-05
2.55002e-05
2.54068e-05
2.54068e-05
2.54068e-05
2.55142e-05
2.55142e-05
2.55142e-05
2.55617e-05
2.55617e-05
2.55617e-05
2.56863e-05
2.56863e-05
2.56863e-05
2.55325e-05
2.55325e-05
2.55325e-05
2.55768e-05
2.55768e-05
2.55768e-05
2.55962e-05
2.55962e-05
2.55962e-05
2.46274e-05
2.46274e-05
2.46274e-05
2.47189e-05
2.47189e-05
2.47189e-05
2.50597e-05
2.50597e-05
2.50597e-05
2.51027e-05
2.51027e-05
2.51027e-05
2.46409e-05
2.46409e-05
2.46409e-05
2.41153e-05
2.41153e-05
2.41153e-05
2.41327e-05
2.41327e-05
2.41327e-05
2.4239e-05
2.4239e-05
2.4239e-05
2.40584e-05
2.40584e-05
2.40584e-05
2.40176e-05
2.40176e-05
2.40176e-05
2.40294e-05
2.40294e-05
2.40294e-05
2.40887e-05
2.40887e-05
2.40887e-05
2.40757e-05
2.40757e-05
2.40757e-05
2.41766e-05
2.41766e-05
2.41766e-05
4.7225e-05
4.7225e-05
4.7225e-05
4.70359e-05
4.70359e-05
4.70359e-05
4.63875e-05
4.63875e-05
4.63875e-05
4.59315e-05
4.59315e-05
4.59315e-05
4.44431e-05
4.44431e-05
4.44431e-05
4.50905e-05
4.50905e-05
4.50905e-05
4.52858e-05
4.52858e-05
4.52858e-05
3.6551e-05
3.6551e-05
3.6551e-05
5.05901e-05
5.05901e-05
5.05901e-05
4.99518e-05
4.99518e-05
4.99518e-05
4.80307e-05
4.80307e-05
4.80307e-05
4.86719e-05
4.86719e-05
4.86719e-05
4.57829e-05
4.57829e-05
4.57829e-05
4.53507e-05
4.53507e-05
4.53507e-05
4.55061e-05
4.55061e-05
4.55061e-05
4.60914e-05
4.60914e-05
4.60914e-05
4.78445e-05
4.78445e-05
4.78445e-05
4.66591e-05
4.66591e-05
4.66591e-05
4.50391e-05
4.50391e-05
4.50391e-05
4.38593e-05
4.38593e-05
4.38593e-05
4.42904e-05
4.42904e-05
4.42904e-05
4.48828e-05
4.48828e-05
4.48828e-05
3.16592e-05
3.16592e-05
3.16592e-05
3.24486e-05
3.24486e-05
3.24486e-05
3.34643e-05
3.34643e-05
3.34643e-05
3.24468e-05
3.24468e-05
3.24468e-05
3.18371e-05
3.18371e-05
3.18371e-05
3.16302e-05
3.16302e-05
3.16302e-05
3.28532e-05
3.28532e-05
3.28532e-05
3.20353e-05
3.20353e-05
3.20353e-05
3.26487e-05
3.26487e-05
3.26487e-05
3.26512e-05
3.26512e-05
3.26512e-05
3.14347e-05
3.14347e-05
3.14347e-05
3.06366e-05
3.06366e-05
3.06366e-05
2.8032e-05
2.8032e-05
2.8032e-05
3.10184e-05
3.10184e-05
3.10184e-05
2.86611e-05
2.86611e-05
2.86611e-05
3.76926e-05
3.76926e-05
3.76926e-05
3.28433e-05
3.28433e-05
3.28433e-05
3.26464e-05
3.26464e-05
3.26464e-05
3.42606e-05
3.42606e-05
3.42606e-05
3.52718e-05
3.52718e-05
3.52718e-05
3.48638e-05
3.48638e-05
3.48638e-05
3.64651e-05
3.64651e-05
3.64651e-05
4.25029e-05
4.25029e-05
4.25029e-05
4.03183e-05
4.03183e-05
4.03183e-05
4.01298e-05
4.01298e-05
4.01298e-05
3.94854e-05
3.94854e-05
3.94854e-05
3.9272e-05
3.9272e-05
3.9272e-05
3.38748e-05
3.38748e-05
3.38748e-05
3.59345e-05
3.59345e-05
3.59345e-05
3.47026e-05
3.47026e-05
3.47026e-05
4.64803e-05
4.64803e-05
4.64803e-05
4.58786e-05
4.58786e-05
4.58786e-05
3.74591e-05
3.74591e-05
3.74591e-05
3.86627e-05
3.86627e-05
3.86627e-05
3.8482e-05
3.8482e-05
3.8482e-05
3.7879e-05
3.7879e-05
3.7879e-05
3.97958e-05
3.97958e-05
3.97958e-05
3.75439e-05
3.75439e-05
3.75439e-05
3.92432e-05
3.92432e-05
3.92432e-05
4.85888e-05
4.85888e-05
4.85888e-05
4.87377e-05
4.87377e-05
4.87377e-05
4.84375e-05
4.84375e-05
4.84375e-05
4.72388e-05
4.72388e-05
4.72388e-05
4.7681e-05
4.7681e-05
4.7681e-05
4.8283e-05
4.8283e-05
4.8283e-05
4.81399e-05
4.81399e-05
4.81399e-05
4.76946e-05
4.76946e-05
4.76946e-05
4.71e-05
4.71e-05
4.71e-05
4.6947e-05
4.6947e-05
4.6947e-05
4.73926e-05
4.73926e-05
4.73926e-05
4.79908e-05
4.79908e-05
4.79908e-05
4.59723e-05
4.59723e-05
4.59723e-05
4.53993e-05
4.53993e-05
4.53993e-05
4.52507e-05
4.52507e-05
4.52507e-05
4.64017e-05
4.64017e-05
4.64017e-05
4.56787e-05
4.56787e-05
4.56787e-05
4.62552e-05
4.62552e-05
4.62552e-05
3.80623e-05
3.80623e-05
3.80623e-05
3.71029e-05
3.71029e-05
3.71029e-05
3.76664e-05
3.76664e-05
3.76664e-05
3.78947e-05
3.78947e-05
3.78947e-05
3.95201e-05
3.95201e-05
3.95201e-05
3.83963e-05
3.83963e-05
3.83963e-05
3.856e-05
3.856e-05
3.856e-05
3.91201e-05
3.91201e-05
3.91201e-05
3.86276e-05
3.86276e-05
3.86276e-05
3.87935e-05
3.87935e-05
3.87935e-05
3.93572e-05
3.93572e-05
3.93572e-05
3.97583e-05
3.97583e-05
3.97583e-05
4.12322e-05
4.12322e-05
4.12322e-05
4.00839e-05
4.00839e-05
4.00839e-05
4.08191e-05
4.08191e-05
4.08191e-05
4.02467e-05
4.02467e-05
4.02467e-05
4.19656e-05
4.19656e-05
4.19656e-05
4.18066e-05
4.18066e-05
4.18066e-05
3.95821e-05
3.95821e-05
3.95821e-05
3.97502e-05
3.97502e-05
3.97502e-05
3.81285e-05
3.81285e-05
3.81285e-05
3.82958e-05
3.82958e-05
3.82958e-05
3.91033e-05
3.91033e-05
3.91033e-05
3.8531e-05
3.8531e-05
3.8531e-05
4.32688e-05
4.32688e-05
4.32688e-05
4.28419e-05
4.28419e-05
4.28419e-05
4.17375e-05
4.17375e-05
4.17375e-05
4.4334e-05
4.4334e-05
4.4334e-05
4.47636e-05
4.47636e-05
4.47636e-05
4.40179e-05
4.40179e-05
4.40179e-05
4.46066e-05
4.46066e-05
4.46066e-05
3.69332e-05
3.69332e-05
3.69332e-05
3.73278e-05
3.73278e-05
3.73278e-05
3.71596e-05
3.71596e-05
3.71596e-05
3.6591e-05
3.6591e-05
3.6591e-05
3.61939e-05
3.61939e-05
3.61939e-05
3.63679e-05
3.63679e-05
3.63679e-05
3.59746e-05
3.59746e-05
3.59746e-05
3.54112e-05
3.54112e-05
3.54112e-05
3.7384e-05
3.7384e-05
3.7384e-05
3.7785e-05
3.7785e-05
3.7785e-05
3.7615e-05
3.7615e-05
3.7615e-05
3.70393e-05
3.70393e-05
3.70393e-05
3.53108e-05
3.53108e-05
3.53108e-05
3.58866e-05
3.58866e-05
3.58866e-05
3.80747e-05
3.80747e-05
3.80747e-05
3.77247e-05
3.77247e-05
3.77247e-05
3.61062e-05
3.61062e-05
3.61062e-05
3.72648e-05
3.72648e-05
3.72648e-05
3.6285e-05
3.6285e-05
3.6285e-05
3.68625e-05
3.68625e-05
3.68625e-05
3.71856e-05
3.71856e-05
3.71856e-05
3.26424e-05
3.26424e-05
3.26424e-05
3.22482e-05
3.22482e-05
3.22482e-05
3.49747e-05
3.49747e-05
3.49747e-05
3.45789e-05
3.45789e-05
3.45789e-05
4.0733e-05
4.0733e-05
4.0733e-05
4.03237e-05
4.03237e-05
4.03237e-05
4.10485e-05
4.10485e-05
4.10485e-05
4.04846e-05
4.04846e-05
4.04846e-05
4.2277e-05
4.2277e-05
4.2277e-05
4.17079e-05
4.17079e-05
4.17079e-05
4.24322e-05
4.24322e-05
4.24322e-05
4.13003e-05
4.13003e-05
4.13003e-05
4.20219e-05
4.20219e-05
4.20219e-05
4.14563e-05
4.14563e-05
4.14563e-05
3.9514e-05
3.9514e-05
3.9514e-05
4.10165e-05
4.10165e-05
4.10165e-05
4.04645e-05
4.04645e-05
4.04645e-05
4.11636e-05
4.11636e-05
4.11636e-05
4.00641e-05
4.00641e-05
4.00641e-05
4.07633e-05
4.07633e-05
4.07633e-05