<VTKFile type="UnstructuredGrid" version="1.0">
<UnstructuredGrid>
<Piece NumberOfPoints="8859" NumberOfCells="2953">
<Points>
<DataArray type="Float64" NumberOfComponents="3" format="ascii">
2.75455 1.50245 4.04763
2.76986 1.48714 4.05958
2.75465 1.50235 4.07333
2.78515 1.47185 3.99667
2.78516 1.47184 3.97151
2.8005 1.4565 3.98398
2.76981 1.48719 4.00936
2.78515 1.47185 3.99667
2.78514 1.47186 4.02186
2.72412 1.53288 4.09988
2.73952 1.51748 4.1075
2.70875 1.54825 4.1075
2.72412 1.53288 4.09988
2.73943 1.51757 4.08457
2.73952 1.51748 4.1075
2.75488 1.50212 4.09979
2.77036 1.48664 4.1075
2.73952 1.51748 4.1075
2.75488 1.50212 4.09979
2.73943 1.51757 4.08457
2.75465 1.50235 4.07333
2.73952 1.51748 4.1075
2.73943 1.51757 4.08457
2.75488 1.50212 4.09979
2.75465 1.50235 4.07333
2.76986 1.48714 4.05958
2.76997 1.48703 4.08427
2.76997 1.48703 4.08427
2.75488 1.50212 4.09979
2.75465 1.50235 4.07333
2.77036 1.48664 4.1075
2.75488 1.50212 4.09979
2.76997 1.48703 4.08427
2.76986 1.48714 4.05958
2.75455 1.50245 4.04763
2.76982 1.48718 4.03452
2.76981 1.48719 4.00936
2.78514 1.47186 4.02186
2.76982 1.48718 4.03452
2.7852 1.4718 4.07262
2.76997 1.48703 4.08427
2.76986 1.48714 4.05958
2.8005 1.4565 4.05895
2.8005 1.4565 4.08355
2.7852 1.4718 4.07262
2.8005 1.4565 3.95887
2.8005 1.4565 3.98398
2.78516 1.47184 3.97151
2.78515 1.47185 3.99667
2.8005 1.4565 3.98398
2.8005 1.4565 4.00906
2.8005 1.4565 4.00906
2.78514 1.47186 4.02186
2.78515 1.47185 3.99667
2.8005 1.4565 3.43152
2.8005 1.4565 3.45665
2.78518 1.47182 3.44407
2.78517 1.47183 3.89607
2.8005 1.4565 3.90861
2.78517 1.47183 3.92121
2.8005 1.4565 3.88348
2.8005 1.4565 3.90861
2.78517 1.47183 3.89607
2.78519 1.47181 3.77044
2.8005 1.4565 3.78299
2.78519 1.47181 3.79555
2.32274 1.93426 3.21559
2.33845 1.91855 3.2075
2.33845 1.91855 3.23063
2.27541 1.98159 4.1075
2.24359 2.01341 4.1075
2.25954 1.99746 4.09932
2.78515 1.47185 4.04712
2.76982 1.48718 4.03452
2.78514 1.47186 4.02186
2.76986 1.48714 4.05958
2.76982 1.48718 4.03452
2.78515 1.47185 4.04712
2.78515 1.47185 4.04712
2.7852 1.4718 4.07262
2.76986 1.48714 4.05958
2.8005 1.4565 4.05895
2.7852 1.4718 4.07262
2.78515 1.47185 4.04712
2.78544 1.47156 4.09884
2.8005 1.4565 4.08355
2.8005 1.4565 4.1075
2.78544 1.47156 4.09884
2.7852 1.4718 4.07262
2.8005 1.4565 4.08355
2.8005 1.4565 4.1075
2.77036 1.48664 4.1075
2.78544 1.47156 4.09884
2.77036 1.48664 4.1075
2.76997 1.48703 4.08427
2.78544 1.47156 4.09884
2.76997 1.48703 4.08427
2.7852 1.4718 4.07262
2.78544 1.47156 4.09884
2.78517 1.47183 3.92121
2.8005 1.4565 3.90861
2.8005 1.4565 3.93375
2.78514 1.47186 4.02186
2.8005 1.4565 4.00906
2.8005 1.4565 4.03407
2.8005 1.4565 4.05895
2.78515 1.47185 4.04712
2.8005 1.4565 4.03407
2.8005 1.4565 4.03407
2.78515 1.47185 4.04712
2.78514 1.47186 4.02186
2.8005 1.4565 3.75788
2.8005 1.4565 3.78299
2.78519 1.47181 3.77044
2.78518 1.47182 3.44407
2.8005 1.4565 3.45665
2.78518 1.47182 3.4692
2.76985 1.48715 3.88353
2.75454 1.50246 3.87098
2.76986 1.48714 3.85838
2.78516 1.47184 3.94636
2.8005 1.4565 3.95887
2.78516 1.47184 3.97151
2.78516 1.47184 3.94636
2.8005 1.4565 3.93375
2.8005 1.4565 3.95887
2.78516 1.47184 3.94636
2.76984 1.48716 3.93384
2.78517 1.47183 3.92121
2.78517 1.47183 3.92121
2.8005 1.4565 3.93375
2.78516 1.47184 3.94636
2.76982 1.48718 3.98418
2.78515 1.47185 3.99667
2.76981 1.48719 4.00936
2.76982 1.48718 3.98418
2.78516 1.47184 3.97151
2.78515 1.47185 3.99667
2.75451 1.50249 3.94649
2.7392 1.5178 3.95915
2.73921 1.51779 3.93394
2.53996 1.71704 4.07338
2.52458 1.73242 4.0599
2.53996 1.71704 4.04775
2.49374 1.76326 3.9088
2.49375 1.76325 3.934
2.47832 1.77868 3.92139
2.8005 1.4565 3.2075
2.8005 1.4565 3.23145
2.78544 1.47156 3.21616
2.27543 1.98157 4.08433
2.27541 1.98159 4.1075
2.25954 1.99746 4.09932
2.33845 1.91855 4.00946
2.32276 1.93424 4.02214
2.32275 1.93425 3.99685
2.25954 1.99746 4.09932
2.24359 2.01341 4.1075
2.24374 2.01326 4.08423
2.76987 1.48713 3.532
2.75455 1.50245 3.51943
2.76987 1.48713 3.50688
2.8005 1.4565 3.68259
2.78519 1.47181 3.67005
2.8005 1.4565 3.6575
2.78519 1.47181 3.72024
2.8005 1.4565 3.70769
2.8005 1.4565 3.73278
2.76988 1.48712 3.63241
2.75456 1.50244 3.64495
2.75456 1.50244 3.61986
2.76988 1.48712 3.6575
2.75456 1.50244 3.64495
2.76988 1.48712 3.63241
2.78519 1.47181 3.67005
2.76988 1.48712 3.68259
2.76988 1.48712 3.6575
2.75455 1.50245 3.79557
2.76987 1.48713 3.80812
2.75455 1.50245 3.8207
2.72393 1.53307 3.77047
2.72392 1.53308 3.79559
2.70861 1.54839 3.78303
2.75456 1.50244 3.77045
2.73924 1.51776 3.7579
2.75456 1.50244 3.74535
2.75456 1.50244 3.74535
2.76987 1.48713 3.75789
2.75456 1.50244 3.77045
2.73924 1.51776 3.7579
2.73925 1.51775 3.7328
2.75456 1.50244 3.74535
2.75456 1.50244 3.74535
2.73925 1.51775 3.7328
2.75456 1.50244 3.72024
2.8005 1.4565 3.73278
2.8005 1.4565 3.75788
2.78519 1.47181 3.74534
2.78519 1.47181 3.74534
2.78519 1.47181 3.72024
2.8005 1.4565 3.73278
2.78519 1.47181 3.74534
2.8005 1.4565 3.75788
2.78519 1.47181 3.77044
2.78519 1.47181 3.77044
2.76987 1.48713 3.75789
2.78519 1.47181 3.74534
2.75454 1.50246 3.84583
2.73923 1.51777 3.83328
2.75455 1.50245 3.8207
2.75454 1.50246 3.84583
2.76986 1.48714 3.85838
2.75454 1.50246 3.87098
2.7086 1.5484 3.8333
2.72392 1.53308 3.82072
2.72392 1.53308 3.84586
2.72392 1.53308 3.84586
2.72392 1.53308 3.82072
2.73923 1.51777 3.83328
2.8005 1.4565 3.8081
2.78519 1.47181 3.79555
2.8005 1.4565 3.78299
2.75455 1.50245 3.8207
2.76987 1.48713 3.80812
2.76986 1.48714 3.83325
2.76986 1.48714 3.83325
2.75454 1.50246 3.84583
2.75455 1.50245 3.8207
2.76986 1.48714 3.85838
2.75454 1.50246 3.84583
2.76986 1.48714 3.83325
2.78517 1.47183 3.92121
2.76984 1.48716 3.93384
2.76985 1.48715 3.90868
2.76985 1.48715 3.90868
2.78517 1.47183 3.89607
2.78517 1.47183 3.92121
2.76985 1.48715 3.88353
2.78517 1.47183 3.89607
2.76985 1.48715 3.90868
2.73921 1.51779 3.93394
2.73921 1.51779 3.90875
2.75452 1.50248 3.9213
2.75452 1.50248 3.9213
2.75451 1.50249 3.94649
2.73921 1.51779 3.93394
2.76984 1.48716 3.93384
2.75451 1.50249 3.94649
2.75452 1.50248 3.9213
2.75452 1.50248 3.9213
2.76985 1.48715 3.90868
2.76984 1.48716 3.93384
2.7239 1.5331 3.92138
2.73921 1.51779 3.90875
2.73921 1.51779 3.93394
2.7239 1.5331 3.92138
2.70859 1.54841 3.93401
2.70859 1.54841 3.90881
2.76981 1.48719 4.00936
2.76982 1.48718 4.03452
2.75451 1.50249 4.02222
2.75451 1.50249 4.02222
2.76982 1.48718 4.03452
2.75455 1.50245 4.04763
2.7392 1.5178 3.95915
2.75451 1.50249 3.94649
2.75451 1.50249 3.97169
2.75451 1.50249 3.97169
2.7392 1.5178 3.98437
2.7392 1.5178 3.95915
2.67798 1.57902 3.80817
2.66266 1.59434 3.82075
2.66266 1.59434 3.79561
2.70859 1.54841 3.90881
2.70859 1.54841 3.88362
2.7239 1.5331 3.89619
2.7239 1.5331 3.89619
2.7239 1.5331 3.92138
2.70859 1.54841 3.90881
2.73921 1.51779 3.90875
2.7239 1.5331 3.92138
2.7239 1.5331 3.89619
2.73922 1.51778 3.88358
2.73921 1.51779 3.90875
2.7239 1.5331 3.89619
2.57068 1.68632 4.04776
2.57068 1.68632 4.07339
2.55533 1.70167 4.05991
2.55533 1.70167 4.05991
2.57068 1.68632 4.07339
2.55533 1.70167 4.0845
2.55533 1.70167 4.05991
2.55533 1.70167 4.0845
2.53996 1.71704 4.07338
2.53996 1.71704 4.07338
2.53996 1.71704 4.04775
2.55533 1.70167 4.05991
2.52458 1.73242 4.03484
2.53996 1.71704 4.04775
2.52458 1.73242 4.0599
2.50912 1.74788 3.67005
2.50912 1.74788 3.69515
2.49371 1.76329 3.6826
2.41633 1.84067 3.79556
2.40077 1.85623 3.783
2.41632 1.84068 3.77045
2.41635 1.84065 3.84583
2.40081 1.85619 3.85839
2.40079 1.85621 3.83325
2.33845 1.91855 4.00946
2.32275 1.93425 3.99685
2.33843 1.91857 3.98424
2.33845 1.91855 4.03466
2.32276 1.93424 4.02214
2.33845 1.91855 4.00946
2.40087 1.85613 3.95912
2.40088 1.85612 3.98434
2.38531 1.87169 3.97172
2.30693 1.95007 3.90858
2.32265 1.93435 3.89603
2.32267 1.93433 3.9212
2.30684 1.95016 3.80803
2.29108 1.96592 3.82056
2.29106 1.96594 3.79546
2.32274 1.93426 4.09941
2.33845 1.91855 4.1075
2.30701 1.94999 4.1075
2.33845 1.91855 4.08437
2.33845 1.91855 4.1075
2.32274 1.93426 4.09941
2.35411 1.90289 4.09947
2.33845 1.91855 4.1075
2.33845 1.91855 4.08437
2.30704 1.94996 4.03461
2.30703 1.94997 4.05969
2.29128 1.96572 4.04746
2.55533 1.70167 4.1075
2.52458 1.73242 4.1075
2.53996 1.71704 4.09972
2.53996 1.71704 4.07338
2.55533 1.70167 4.0845
2.53996 1.71704 4.09972
2.53996 1.71704 4.09972
2.55533 1.70167 4.0845
2.55533 1.70167 4.1075
2.52458 1.73242 4.08449
2.52458 1.73242 4.0599
2.53996 1.71704 4.07338
2.53996 1.71704 4.07338
2.53996 1.71704 4.09972
2.52458 1.73242 4.08449
2.52458 1.73242 4.08449
2.53996 1.71704 4.09972
2.52458 1.73242 4.1075
2.41642 1.84058 3.97176
2.40088 1.85612 3.98434
2.40087 1.85613 3.95912
2.47831 1.77869 3.8962
2.49374 1.76326 3.88362
2.49374 1.76326 3.9088
2.49374 1.76326 3.9088
2.47832 1.77868 3.92139
2.47831 1.77869 3.8962
2.47833 1.77867 3.9466
2.47832 1.77868 3.92139
2.49375 1.76325 3.934
2.47833 1.77867 3.9466
2.49375 1.76325 3.934
2.49376 1.76324 3.95921
2.49376 1.76324 3.95921
2.47834 1.77866 3.97182
2.47833 1.77867 3.9466
2.47833 1.77867 3.9466
2.47834 1.77866 3.97182
2.46289 1.79411 3.95919
2.49377 1.76323 3.98443
2.47834 1.77866 3.97182
2.49376 1.76324 3.95921
2.49377 1.76323 4.00964
2.47835 1.77865 4.02234
2.47834 1.77866 3.99706
2.47834 1.77866 3.99706
2.49377 1.76323 3.98443
2.49377 1.76323 4.00964
2.47834 1.77866 3.97182
2.49377 1.76323 3.98443
2.47834 1.77866 3.99706
2.7852 1.4718 3.24238
2.78544 1.47156 3.21616
2.8005 1.4565 3.23145
2.76997 1.48703 3.23073
2.78544 1.47156 3.21616
2.7852 1.4718 3.24238
2.64739 1.60961 3.23048
2.64738 1.60962 3.2075
2.66272 1.59428 3.21521
2.70875 1.54825 3.2075
2.6934 1.5636 3.21517
2.67805 1.57895 3.2075
2.67805 1.57895 3.2075
2.66272 1.59428 3.21521
2.64738 1.60962 3.2075
2.19638 2.06062 3.24397
2.1963 2.0607 3.21786
2.2122 2.0448 3.23145
2.2122 2.0448 3.23145
2.22771 2.02929 3.21601
2.22802 2.02898 3.24245
2.18073 2.07627 3.23282
2.1963 2.0607 3.21786
2.19638 2.06062 3.24397
2.18073 2.07627 3.23282
2.18123 2.07577 3.2075
2.1963 2.0607 3.21786
2.27543 1.98157 3.23067
2.27541 1.98159 3.2075
2.29123 1.96577 3.21563
2.30701 1.94999 3.2075
[...]
<PointData Scalars="View Factor" >
<DataArray type="Float64" Name="View Factor" NumberOfComponents="1" format="ascii">
0.0170895
0.0170895
0.0170895
0.0165261
0.0165261
0.0165261
0.0167097
0.0167097
0.0167097
0.0169787
0.0169787
0.0169787
0.0171051
0.0171051
0.0171051
0.0177616
0.0177616
0.0177616
0.0172898
0.0172898
0.0172898
0.0173634
0.0173634
0.0173634
0.017428
0.017428
0.017428
0.0175419
0.0175419
0.0175419
0.0178781
0.0178781
0.0178781
0.0169897
0.0169897
0.0169897
0.0168017
0.0168017
0.0168017
0.0176739
0.0176739
0.0176739
0.0181653
0.0181653
0.0181653
0.0164351
0.0164351
0.0164351
0.0168484
0.0168484
0.0168484
0.0169435
0.0169435
0.0169435
0.0100655
0.0100655
0.0100655
0.0153483
0.0153483
0.0153483
0.0152673
0.0152673
0.0152673
0.0136083
0.0136083
0.0136083
0.00409189
0.00409189
0.00409189
0.00873657
0.00873657
0.00873657
0.0171353
0.0171353
0.0171353
0.017231
0.017231
0.017231
0.0175769
0.0175769
0.0175769
0.0178204
0.0178204
0.0178204
0.018632
0.018632
0.018632
0.0182868
0.0182868
0.0182868
0.0185302
0.0185302
0.0185302
0.0181287
0.0181287
0.0181287
0.0180386
0.0180386
0.0180386
0.0156449
0.0156449
0.0156449
0.0172744
0.0172744
0.0172744
0.0177132
0.0177132
0.0177132
0.0173741
0.0173741
0.0173741
0.0135413
0.0135413
0.0135413
0.0101074
0.0101074
0.0101074
0.0142852
0.0142852
0.0142852
0.0161213
0.0161213
0.0161213
0.016034
0.016034
0.016034
0.015511
0.015511
0.015511
0.0157291
0.0157291
0.0157291
0.0163862
0.0163862
0.0163862
0.0162975
0.0162975
0.0162975
0.0149298
0.0149298
0.0149298
0.0116504
0.0116504
0.0116504
0.00921422
0.00921422
0.00921422
0.00829414
0.00829414
0.00829414
0.00869004
0.00869004
0.00869004
0.00814042
0.00814042
0.00814042
0.00865707
0.00865707
0.00865707
0.0103155
0.0103155
0.0103155
0.0123328
0.0123328
0.0123328
0.0129195
0.0129195
0.0129195
0.0113401
0.0113401
0.0113401
0.0115541
0.0115541
0.0115541
0.011993
0.011993
0.011993
0.0133553
0.0133553
0.0133553
0.0122849
0.0122849
0.0122849
0.0125522
0.0125522
0.0125522
0.0127369
0.0127369
0.0127369
0.0123143
0.0123143
0.0123143
0.0122608
0.0122608
0.0122608
0.0132258
0.0132258
0.0132258
0.0129814
0.0129814
0.0129814
0.0132903
0.0132903
0.0132903
0.0131059
0.0131059
0.0131059
0.0134801
0.0134801
0.0134801
0.0140119
0.0140119
0.0140119
0.012885
0.012885
0.012885
0.0130835
0.0130835
0.0130835
0.0138662
0.0138662
0.0138662
0.0136136
0.0136136
0.0136136
0.0136785
0.0136785
0.0136785
0.0139441
0.0139441
0.0139441
0.0152141
0.0152141
0.0152141
0.0151354
0.0151354
0.0151354
0.0148466
0.0148466
0.0148466
0.0145669
0.0145669
0.0145669
0.0148563
0.0148563
0.0148563
0.0150747
0.0150747
0.0150747
0.0149985
0.0149985
0.0149985
0.014351
0.014351
0.014351
0.0139188
0.0139188
0.0139188
0.0165653
0.0165653
0.0165653
0.0166578
0.0166578
0.0166578
0.0152277
0.0152277
0.0152277
0.0153046
0.0153046
0.0153046
0.0116128
0.0116128
0.0116128
0.0135825
0.0135825
0.0135825
0.013856
0.013856
0.013856
0.0140694
0.0140694
0.0140694
0.014004
0.014004
0.014004
0.0123844
0.0123844
0.0123844
0.0124137
0.0124137
0.0124137
0.0121656
0.0121656
0.0121656
0.0118945
0.0118945
0.0118945
0.0113813
0.0113813
0.0113813
0.00761829
0.00761829
0.00761829
0.00687969
0.00687969
0.00687969
0.00726919
0.00726919
0.00726919
0.008061
0.008061
0.008061
0.00825759
0.00825759
0.00825759
0.00813733
0.00813733
0.00813733
0.00737337
0.00737337
0.00737337
0.00668117
0.00668117
0.00668117
0.00890515
0.00890515
0.00890515
0.00887911
0.00887911
0.00887911
0.00892361
0.00892361
0.00892361
0.00835683
0.00835683
0.00835683
0.0123128
0.0123128
0.0123128
0.0122038
0.0122038
0.0122038
0.0124719
0.0124719
0.0124719
0.0116711
0.0116711
0.0116711
0.0119531
0.0119531
0.0119531
0.0119645
0.0119645
0.0119645
0.00819208
0.00819208
0.00819208
0.00899404
0.00899404
0.00899404
0.00899988
0.00899988
0.00899988
0.00922095
0.00922095
0.00922095
0.00944135
0.00944135
0.00944135
0.0094491
0.0094491
0.0094491
0.00923226
0.00923226
0.00923226
0.00967594
0.00967594
0.00967594
0.00992758
0.00992758
0.00992758
0.00991776
0.00991776
0.00991776
0.00968457
0.00968457
0.00968457
0.00831834
0.00831834
0.00831834
0.00820247
0.00820247
0.00820247
0.00670567
0.00670567
0.00670567
0.00711142
0.00711142
0.00711142
0.00677503
0.00677503
0.00677503
0.00408472
0.00408472
0.00408472
0.00407506
0.00407506
0.00407506
0.00409124
0.00409124
0.00409124
0.00405518
0.00405518
0.00405518
0.00404744
0.00404744
0.00404744
0.00405534
0.00405534
0.00405534
0.00402906
0.00402906
0.00402906
0.0046657
0.0046657
0.0046657
0.00470975
0.00470975
0.00470975
0.00880122
0.00880122
0.00880122
0.00844578
0.00844578
0.00844578
0.00856085
0.00856085
0.00856085
0.0065812
0.0065812
0.0065812
0.00666352
0.00666352
0.00666352
0.00767425
0.00767425
0.00767425
0.00988672
0.00988672
0.00988672
0.0117787
0.0117787
0.0117787
0.0107904
0.0107904
0.0107904
0.0108349
0.0108349
0.0108349
0.0105497
0.0105497
0.0105497
0.0105926
0.0105926
0.0105926
0.0104394
0.0104394
0.0104394
0.0102469
0.0102469
0.0102469
0.0102071
0.0102071
0.0102071
0.0103569
0.0103569
0.0103569
0.00558956
0.00558956
0.00558956
0.00558667
0.00558667
0.00558667
0.00544464
0.00544464
0.00544464
0.0100196
0.0100196
0.0100196
0.0102906
0.0102906
0.0102906
0.0111517
0.0111517
0.0111517
0.0107753
0.0107753
0.0107753
0.0119068
0.0119068
0.0119068
0.0102502
0.0102502
0.0102502
0.0105349
0.0105349
0.0105349
0.0103282
0.0103282
0.0103282
0.0101569
0.0101569
0.0101569
0.0101883
0.0101883
0.0101883
0.011176
0.011176
0.011176
0.0120518
0.0120518
0.0120518
0.0121074
0.0121074
0.0121074
0.0119395
0.0119395
0.0119395
0.0117201
0.0117201
0.0117201
0.0116683
0.0116683
0.0116683
0.0118323
0.0118323
0.0118323
0.00894497
0.00894497
0.00894497
0.00892591
0.00892591
0.00892591
0.00972987
0.00972987
0.00972987
0.00992555
0.00992555
0.00992555
0.00995565
0.00995565
0.00995565
0.00978659
0.00978659
0.00978659
0.00872451
0.00872451
0.00872451
0.00854608
0.00854608
0.00854608
0.00857889
0.00857889
0.00857889
0.0087425
0.0087425
0.0087425
0.00956476
0.00956476
0.00956476
0.00959144
0.00959144
0.00959144
0.0134842
0.0134842
0.0134842
0.0132929
0.0132929
0.0132929
0.0130416
0.0130416
0.0130416
0.0134195
0.0134195
0.0134195
0.0131682
0.0131682
0.0131682
0.0129814
0.0129814
0.0129814
0.012474
0.012474
0.012474
0.0128525
0.0128525
0.0128525
0.0126077
0.0126077
0.0126077
0.0124208
0.0124208
0.0124208
0.0113593
0.0113593
0.0113593
0.0114947
0.0114947
0.0114947
0.0113166
0.0113166
0.0113166
0.0128014
0.0128014
0.0128014
0.0123854
0.0123854
0.0123854
0.0125635
0.0125635
0.0125635
0.0124411
0.0124411
0.0124411
0.0126791
0.0126791
0.0126791
0.0128614
0.0128614
0.0128614
0.0132218
0.0132218
0.0132218
0.0130258
0.0130258
0.0130258
0.0127742
0.0127742
0.0127742
0.0131616
0.0131616
0.0131616
0.0127187
0.0127187
0.0127187
0.0129101
0.0129101
0.0129101
0.0125805
0.0125805
0.0125805
0.012336
0.012336
0.012336
0.0121446
0.0121446
0.0121446
0.0126336
0.0126336
0.0126336
0.0135428
0.0135428
0.0135428
0.0133419
0.0133419
0.0133419
0.0138087
0.0138087
0.0138087
0.0138738
0.0138738
0.0138738
0.0129401
0.0129401
0.0129401
0.0137421
0.0137421
0.0137421
0.0139354
0.0139354
0.0139354
0.0142009
0.0142009
0.0142009
0.0138094
0.0138094
0.0138094
0.0149011
0.0149011
0.0149011
0.0144907
0.0144907
0.0144907
0.014979
0.014979
0.014979
0.0147712
0.0147712
0.0147712
0.0145457
0.0145457
0.0145457
0.0142733
0.0142733
0.0142733
0.0140752
0.0140752
0.0140752
0.0141448
0.0141448
0.0141448
0.0144177
0.0144177
0.0144177
0.0146206
0.0146206
0.0146206
0.0142148
0.0142148
0.0142148
0.0146361
0.0146361
0.0146361
0.0144961
0.0144961
0.0144961
0.0147093
0.0147093
0.0147093
0.014147
0.014147
0.014147
0.0143551
0.0143551
0.0143551
0.0147086
0.0147086
0.0147086
0.0144192
0.0144192
0.0144192
0.0142006
0.0142006
0.0142006
0.0161549
0.0161549
0.0161549
0.0156915
0.0156915
0.0156915
0.01584
0.01584
0.01584
0.0156111
0.0156111
0.0156111
0.0162418
0.0162418
0.0162418
0.0160075
0.0160075
0.0160075
0.0169308
0.0169308
0.0169308
0.016844
0.016844
0.016844
0.0167807
0.0167807
0.0167807
0.0166806
0.0166806
0.0166806
0.0163502
0.0163502
0.0163502
0.0160915
0.0160915
0.0160915
0.0162611
0.0162611
0.0162611
0.016418
0.016418
0.016418
0.0165048
0.0165048
0.0165048
0.0154513
0.0154513
0.0154513
0.015898
0.015898
0.015898
0.0159832
0.0159832
0.0159832
0.0157571
0.0157571
0.0157571
0.0155925
0.0155925
0.0155925
0.0153717
0.0153717
0.0153717
0.010025
0.010025
0.010025
0.0098153
0.0098153
0.0098153
0.0105873
0.0105873
0.0105873
0.0102122
0.0102122
0.0102122
0.0118499
0.0118499
0.0118499
0.0130824
0.0130824
0.0130824
0.0127264
0.0127264
0.0127264
0.0127069
0.0127069
0.0127069
0.00762187
0.00762187
0.00762187
0.00778506
0.00778506
0.00778506
0.00859479
0.00859479
0.00859479
0.00877743
0.00877743
0.00877743
0.00677904
0.00677904
0.00677904
0.00726744
0.00726744
0.00726744
0.00693768
0.00693768
0.00693768
0.00638946
0.00638946
0.00638946
0.00641768
0.00641768
0.00641768
0.00635991
0.00635991
0.00635991
0.0079474
0.0079474
0.0079474
0.00833985
0.00833985
0.00833985
0.00830436
0.00830436
0.00830436
0.00838785
0.00838785
0.00838785
0.00809937
0.00809937
0.00809937
0.00802278
0.00802278
0.00802278
0.00818555
0.00818555
0.00818555
0.00806508
0.00806508
0.00806508
0.00761784
0.00761784
0.00761784
0.0076607
0.0076607
0.0076607
0.0075406
0.0075406
0.0075406
0.00750622
0.00750622
0.00750622
0.00740281
0.00740281
0.00740281
0.00730734
0.00730734
0.00730734
0.00803645
0.00803645
0.00803645
0.00799045
0.00799045
0.00799045
0.00727452
0.00727452
0.00727452
0.00720375
0.00720375
0.00720375
0.00706647
0.00706647
0.00706647
0.00661572
0.00661572
0.00661572
0.00903942
0.00903942
0.00903942
0.00920634
0.00920634
0.00920634
0.00810621
0.00810621
0.00810621
0.00818796
0.00818796
0.00818796
0.0115487
0.0115487
0.0115487
0.0117116
0.0117116
0.0117116
0.00818498
0.00818498
0.00818498
0.00818608
0.00818608
0.00818608
0.00897985
0.00897985
0.00897985
0.00996983
0.00996983
0.00996983
0.00901316
0.00901316
0.00901316
0.00900952
0.00900952
0.00900952
0.00969935
0.00969935
0.00969935
0.00924485
0.00924485
0.00924485
0.00812772
0.00812772
0.00812772
0.00806769
0.00806769
0.00806769
0.00762551
0.00762551
0.00762551
0.00761079
0.00761079
0.00761079
0.00744945
0.00744945
0.00744945
0.00403603
0.00403603
0.00403603
0.00407333
0.00407333
0.00407333
0.00401423
0.00401423
0.00401423
0.00403666
0.00403666
0.00403666
0.00407453
0.00407453
0.00407453
0.0040425
0.0040425
0.0040425
0.00407749
0.00407749
0.00407749
0.00412269
0.00412269
0.00412269
0.00411957
0.00411957
0.00411957
0.00416777
0.00416777
0.00416777
0.00412424
0.00412424
0.00412424
0.00404386
0.00404386
0.00404386
0.00403885
0.00403885
0.00403885
0.00402284
0.00402284
0.00402284
0.00401184
0.00401184
0.00401184
0.00452668
0.00452668
0.00452668
0.00573971
0.00573971
0.00573971
0.00462981
0.00462981
0.00462981
0.00546594
0.00546594
0.00546594
0.00535174
0.00535174
0.00535174
0.00540316
0.00540316
0.00540316
0.00533373
0.00533373
0.00533373
0.00539409
0.00539409
0.00539409
0.00492406
0.00492406
0.00492406
0.00521672
0.00521672
0.00521672
0.00601368
0.00601368
0.00601368
0.00567341
0.00567341
0.00567341
0.0057359
0.0057359
0.0057359
0.0046484
0.0046484
0.0046484
0.00465005
0.00465005
0.00465005
0.00465021
0.00465021
0.00465021
0.00465366
0.00465366
0.00465366
0.00470378
0.00470378
0.00470378
0.00485544
0.00485544
0.00485544
0.00472676
0.00472676
0.00472676
0.0046321
0.0046321
0.0046321
0.00467422
0.00467422
0.00467422
0.00580374
0.00580374
0.00580374
0.0058845
0.0058845
0.0058845
0.00597824
0.00597824
0.00597824
0.00605193
0.00605193
0.00605193
0.00600268
0.00600268
0.00600268
0.0059184
0.0059184
0.0059184
0.00679111
0.00679111
0.00679111
0.00647859
0.00647859
0.00647859
0.0056831
0.0056831
0.0056831
0.00563053
0.00563053
0.00563053
0.00875987
0.00875987
0.00875987
0.00872159
0.00872159
0.00872159
0.00859307
0.00859307
0.00859307
0.00850896
0.00850896
0.00850896
0.00876772
0.00876772
0.00876772
0.00865589
0.00865589
0.00865589
0.00880356
0.00880356
0.00880356
0.00871226
0.00871226
0.00871226
0.0086286
0.0086286
0.0086286
0.00635754
0.00635754
0.00635754
0.00649941
0.00649941
0.00649941
0.00642185
0.00642185
0.00642185
0.0067313
0.0067313
0.0067313
0.00687136
0.00687136
0.00687136
0.00678767
0.00678767
0.00678767
0.00671728
0.00671728
0.00671728
0.00669734
0.00669734
0.00669734
0.00685028
0.00685028
0.00685028
0.00677742
0.00677742
0.00677742
0.00684393
0.00684393
0.00684393
0.00759662
0.00759662
0.00759662
0.00744621
0.00744621
0.00744621
0.0072696
0.0072696
0.0072696
0.00719329
0.00719329
0.00719329
0.00765172
0.00765172
0.00765172
0.00864568
0.00864568
0.00864568
0.00870368
0.00870368
0.00870368
0.00863469
0.00863469
0.00863469
0.0084195
0.0084195
0.0084195
0.00850734
0.00850734
0.00850734
0.00858495
0.00858495
0.00858495
0.00856871
0.00856871
0.00856871
0.00848596
0.00848596
0.00848596
0.00837735
0.00837735
0.00837735
0.00751097
0.00751097
0.00751097
0.00738347
0.00738347
0.00738347
0.00727017
0.00727017
0.00727017
0.00728232
0.00728232
0.00728232
0.00693106
0.00693106
0.00693106
0.00704395
0.00704395
0.00704395
0.00716811
0.00716811
0.00716811
0.00687967
0.00687967
0.00687967
0.00823428
0.00823428
0.00823428
0.0081171
0.0081171
0.0081171
0.00776866
0.00776866
0.00776866
0.00788463
0.00788463
0.00788463
0.0110379
0.0110379
0.0110379
0.0110839
0.0110839
0.0110839
0.0112922
0.0112922
0.0112922
0.0114544
0.0114544
0.0114544
0.011255
0.011255
0.011255
0.0109453
0.0109453
0.0109453
0.0106781
0.0106781
0.0106781
0.0103646
0.0103646
0.0103646
0.0103254
0.0103254
0.0103254
0.0104804
0.0104804
0.0104804
0.00726879
0.00726879
0.00726879
0.00725837
0.00725837
0.00725837
0.00650053
0.00650053
0.00650053
0.00636832
0.00636832
0.00636832
0.00623305
0.00623305
0.00623305
0.00609887
0.00609887
0.00609887
0.00636633
0.00636633
0.00636633
0.00609906
0.00609906
0.00609906
0.00623128
0.00623128
0.00623128
0.00650669
0.00650669
0.00650669
0.00623312
0.00623312
0.00623312
0.00623155
0.00623155
0.00623155
0.00475047
0.00475047
0.00475047
0.00596565
0.00596565
0.00596565
0.00487023
0.00487023
0.00487023
0.00776838
0.00776838
0.00776838
0.00725252
0.00725252
0.00725252
0.00709855
0.00709855
0.00709855
0.00707334
0.00707334
0.00707334
0.00720586
0.00720586
0.00720586
0.00721476
0.00721476
0.00721476
0.00570503
0.00570503
0.00570503
0.00659324
0.00659324
0.00659324
0.00638668
0.00638668
0.00638668
0.00625986
0.00625986
0.00625986
0.00614711
0.00614711
0.00614711
0.00603364
0.00603364
0.00603364
0.00649666
0.00649666
0.00649666
0.00674866
0.00674866
0.00674866
0.00648742
0.00648742
0.00648742
0.0101277
0.0101277
0.0101277
0.00998131
0.00998131
0.00998131
0.00794226
0.00794226
0.00794226
0.00823153
0.00823153
0.00823153
0.00806906
0.00806906
0.00806906
0.00792604
0.00792604
0.00792604
0.00888709
0.00888709
0.00888709
0.00882476
0.00882476
0.00882476
0.0097008
0.0097008
0.0097008
0.0103337
0.0103337
0.0103337
0.0105219
0.0105219
0.0105219
0.0107596
0.0107596
0.0107596
0.0104635
0.0104635
0.0104635
0.0104206
0.0104206
0.0104206
0.0105669
0.0105669
0.0105669
0.0110039
0.0110039
0.0110039
0.011052
0.011052
0.011052
0.0108989
0.0108989
0.0108989
0.0107011
0.0107011
0.0107011
0.0106563
0.0106563
0.0106563
0.010806
0.010806
0.010806
0.0126818
0.0126818
0.0126818
0.0125059
0.0125059
0.0125059
0.0122743
0.0122743
0.0122743
0.0126219
0.0126219
0.0126219
0.0122186
0.0122186
0.0122186
0.0123904
0.0123904
0.0123904
0.0108921
0.0108921
0.0108921
0.0107418
0.0107418
0.0107418
0.0109279
0.0109279
0.0109279
0.0106741
0.0106741
0.0106741
0.0117179
0.0117179
0.0117179
0.0113403
0.0113403
0.0113403
0.011571
0.011571
0.011571
0.011762
0.011762
0.011762
0.0110761
0.0110761
0.0110761
0.0113004
0.0113004
0.0113004
0.011487
0.011487
0.011487
0.0114447
0.0114447
0.0114447
0.0110561
0.0110561
0.0110561
0.0107086
0.0107086
0.0107086
0.0110974
0.0110974
0.0110974
0.0109216
0.0109216
0.0109216
0.0114493
0.0114493
0.0114493
0.0112301
0.0112301
0.0112301
0.0100929
0.0100929
0.0100929
0.0102944
0.0102944
0.0102944
0.0104275
0.0104275
0.0104275
0.0106397
0.0106397
0.0106397
0.0105701
0.0105701
0.0105701
0.0103946
0.0103946
0.0103946
0.0102079
0.0102079
0.0102079
0.0102451
0.0102451
0.0102451
0.0105578
0.0105578
0.0105578
0.0109677
0.0109677
0.0109677
0.0109235
0.0109235
0.0109235
0.0105622
0.0105622
0.0105622
0.0107207
0.0107207
0.0107207
0.0105244
0.0105244
0.0105244
0.0104925
0.0104925
0.0104925
0.0102808
0.0102808
0.0102808
0.0101017
0.0101017
0.0101017
0.01013
0.01013
0.01013
0.0103409
0.0103409
0.0103409
0.0103705
0.0103705
0.0103705
0.0101852
0.0101852
0.0101852
0.0100444
0.0100444
0.0100444
0.0100152
0.0100152
0.0100152
0.00981454
0.00981454
0.00981454
0.0096438
0.0096438
0.0096438
0.00913312
0.00913312
0.00913312
0.00930311
0.00930311
0.00930311
0.0093746
0.0093746
0.0093746
0.00900451
0.00900451
0.00900451
0.0090919
0.0090919
0.0090919
0.00942469
0.00942469
0.00942469
0.00928084
0.00928084
0.00928084
0.00944923
0.00944923
0.00944923
0.00847456
0.00847456
0.00847456
0.00741645
0.00741645
0.00741645
0.00742293
0.00742293
0.00742293
0.00838627
0.00838627
0.00838627
0.00840114
0.00840114
0.00840114
0.0115843
0.0115843
0.0115843
0.0116292
0.0116292
0.0116292
0.0120472
0.0120472
0.0120472
0.0118603
0.0118603
0.0118603
0.0119002
0.0119002
0.0119002
0.0117199
0.0117199
0.0117199
0.0121318
0.0121318
0.0121318
0.0117667
0.0117667
0.0117667
0.0121829
0.0121829
0.0121829
0.0119983
0.0119983
0.0119983
0.0130507
0.0130507
0.0130507
0.0134019
0.0134019
0.0134019
0.0131986
0.0131986
0.0131986
0.0136681
0.0136681
0.0136681
0.0132564
0.0132564
0.0132564
0.0137309
0.0137309
0.0137309
0.0135226
0.0135226
0.0135226
0.0165877
0.0165877
0.0165877
0.0165252
0.0165252
0.0165252
0.0159366
0.0159366
0.0159366
0.0158538
0.0158538
0.0158538
0.0089433
0.0089433
0.0089433
0.0105396
0.0105396
0.0105396
0.0105124
0.0105124
0.0105124
0.0110338
0.0110338
0.0110338
0.0114196
0.0114196
0.0114196
0.0111893
0.0111893
0.0111893
0.0109988
0.0109988
0.0109988
0.0115749
0.0115749
0.0115749
0.0120457
0.0120457
0.0120457
0.0124376
0.0124376
0.0124376
0.0119996
0.0119996
0.0119996
0.0121931
0.0121931
0.0121931
0.0123379
0.0123379
0.0123379
0.012589
0.012589
0.012589
0.0127922
0.0127922
0.0127922
0.0127393
0.0127393
0.0127393
0.0124881
0.0124881
0.0124881
0.0122898
0.0122898
0.0122898
0.0121373
0.0121373
0.0121373
0.0121828
0.0121828
0.0121828
0.0119799
0.0119799
0.0119799
0.0118935
0.0118935
0.0118935
0.0133716
0.0133716
0.0133716
0.0131059
0.0131059
0.0131059
0.0122734
0.0122734
0.0122734
0.0118179
0.0118179
0.0118179
0.012023
0.012023
0.012023
0.0118581
0.0118581
0.0118581
0.0123183
0.0123183
0.0123183
0.0121081
0.0121081
0.0121081
0.0101673
0.0101673
0.0101673
0.0103995
0.0103995
0.0103995
0.0104246
0.0104246
0.0104246
0.0101786
0.0101786
0.0101786
0.0111411
0.0111411
0.0111411
0.0108851
0.0108851
0.0108851
0.0106629
0.0106629
0.0106629
0.0106489
0.0106489
0.0106489
0.00708866
0.00708866
0.00708866
0.00720795
0.00720795
0.00720795
0.00704145
0.00704145
0.00704145
0.00710093
0.00710093
0.00710093
0.00745472
0.00745472
0.00745472
0.00965151
0.00965151
0.00965151
0.00963085
0.00963085
0.00963085
0.00974412
0.00974412
0.00974412
0.00956582
0.00956582
0.00956582
0.00958807
0.00958807
0.00958807
0.00994911
0.00994911
0.00994911
0.00979226
0.00979226
0.00979226
0.00997493
0.00997493
0.00997493
0.00904909
0.00904909
0.00904909
0.00940807
0.00940807
0.00940807
0.0094277
0.0094277
0.0094277
0.00924604
0.00924604
0.00924604
0.00936751
0.00936751
0.00936751
0.00934651
0.00934651
0.00934651
0.00915295
0.00915295
0.00915295
0.00795945
0.00795945
0.00795945
0.00812886
0.00812886
0.00812886
0.00830879
0.00830879
0.00830879
0.00831822
0.00831822
0.00831822
0.0067228
0.0067228
0.0067228
0.00662709
0.00662709
0.00662709
0.00662006
0.00662006
0.00662006
0.00647136
0.00647136
0.00647136
0.00689471
0.00689471
0.00689471
0.00650495
0.00650495
0.00650495
0.00627532
0.00627532
0.00627532
0.00621897
0.00621897
0.00621897
0.00613678
0.00613678
0.00613678
0.00790737
0.00790737
0.00790737
0.0078704
0.0078704
0.0078704
0.00768811
0.00768811
0.00768811
0.00780133
0.00780133
0.00780133
0.00787358
0.00787358