<VTKFile type="UnstructuredGrid" version="1.0">
<UnstructuredGrid>
<Piece NumberOfPoints="8859" NumberOfCells="2953">
<Points>
<DataArray type="Float64" NumberOfComponents="3" format="ascii">
2.04744 2.20956 6.13763
2.06275 2.19425 6.14958
2.04754 2.20946 6.16333
2.07804 2.17896 6.08667
2.07805 2.17895 6.06151
2.0934 2.1636 6.07398
2.06271 2.19429 6.09936
2.07804 2.17896 6.08667
2.07804 2.17896 6.11186
2.01701 2.23999 6.18988
2.03242 2.22458 6.1975
2.00164 2.25536 6.1975
2.01701 2.23999 6.18988
2.03232 2.22468 6.17457
2.03242 2.22458 6.1975
2.04777 2.20923 6.18979
2.06326 2.19374 6.1975
2.03242 2.22458 6.1975
2.04777 2.20923 6.18979
2.03232 2.22468 6.17457
2.04754 2.20946 6.16333
2.03242 2.22458 6.1975
2.03232 2.22468 6.17457
2.04777 2.20923 6.18979
2.04754 2.20946 6.16333
2.06275 2.19425 6.14958
2.06287 2.19413 6.17427
2.06287 2.19413 6.17427
2.04777 2.20923 6.18979
2.04754 2.20946 6.16333
2.06326 2.19374 6.1975
2.04777 2.20923 6.18979
2.06287 2.19413 6.17427
2.06275 2.19425 6.14958
2.04744 2.20956 6.13763
2.06271 2.19429 6.12452
2.06271 2.19429 6.09936
2.07804 2.17896 6.11186
2.06271 2.19429 6.12452
2.07809 2.17891 6.16262
2.06287 2.19413 6.17427
2.06275 2.19425 6.14958
2.0934 2.1636 6.14895
2.0934 2.1636 6.17355
2.07809 2.17891 6.16262
2.0934 2.1636 6.04887
2.0934 2.1636 6.07398
2.07805 2.17895 6.06151
2.07804 2.17896 6.08667
2.0934 2.1636 6.07398
2.0934 2.1636 6.09906
2.0934 2.1636 6.09906
2.07804 2.17896 6.11186
2.07804 2.17896 6.08667
2.0934 2.1636 5.52152
2.0934 2.1636 5.54665
2.07807 2.17893 5.53407
2.07807 2.17893 5.98607
2.0934 2.1636 5.99861
2.07806 2.17894 6.01121
2.0934 2.1636 5.97348
2.0934 2.1636 5.99861
2.07807 2.17893 5.98607
2.07808 2.17892 5.86044
2.0934 2.1636 5.87299
2.07808 2.17892 5.88555
1.61564 2.64136 5.30559
1.63134 2.62566 5.2975
1.63134 2.62566 5.32063
1.5683 2.6887 6.1975
1.53648 2.72052 6.1975
1.55243 2.70457 6.18932
2.07804 2.17896 6.13712
2.06271 2.19429 6.12452
2.07804 2.17896 6.11186
2.06275 2.19425 6.14958
2.06271 2.19429 6.12452
2.07804 2.17896 6.13712
2.07804 2.17896 6.13712
2.07809 2.17891 6.16262
2.06275 2.19425 6.14958
2.0934 2.1636 6.14895
2.07809 2.17891 6.16262
2.07804 2.17896 6.13712
2.07833 2.17867 6.18884
2.0934 2.1636 6.17355
2.0934 2.1636 6.1975
2.07833 2.17867 6.18884
2.07809 2.17891 6.16262
2.0934 2.1636 6.17355
2.0934 2.1636 6.1975
2.06326 2.19374 6.1975
2.07833 2.17867 6.18884
2.06326 2.19374 6.1975
2.06287 2.19413 6.17427
2.07833 2.17867 6.18884
2.06287 2.19413 6.17427
2.07809 2.17891 6.16262
2.07833 2.17867 6.18884
2.07806 2.17894 6.01121
2.0934 2.1636 5.99861
2.0934 2.1636 6.02375
2.07804 2.17896 6.11186
2.0934 2.1636 6.09906
2.0934 2.1636 6.12407
2.0934 2.1636 6.14895
2.07804 2.17896 6.13712
2.0934 2.1636 6.12407
2.0934 2.1636 6.12407
2.07804 2.17896 6.13712
2.07804 2.17896 6.11186
2.0934 2.1636 5.84789
2.0934 2.1636 5.87299
2.07808 2.17892 5.86044
2.07807 2.17893 5.53407
2.0934 2.1636 5.54665
2.07807 2.17893 5.5592
2.06275 2.19425 5.97353
2.04743 2.20957 5.96098
2.06275 2.19425 5.94838
2.07806 2.17894 6.03636
2.0934 2.1636 6.04887
2.07805 2.17895 6.06151
2.07806 2.17894 6.03636
2.0934 2.1636 6.02375
2.0934 2.1636 6.04887
2.07806 2.17894 6.03636
2.06273 2.19427 6.02384
2.07806 2.17894 6.01121
2.07806 2.17894 6.01121
2.0934 2.1636 6.02375
2.07806 2.17894 6.03636
2.06271 2.19429 6.07418
2.07804 2.17896 6.08667
2.06271 2.19429 6.09936
2.06271 2.19429 6.07418
2.07805 2.17895 6.06151
2.07804 2.17896 6.08667
2.04741 2.20959 6.03649
2.03209 2.22491 6.04915
2.0321 2.2249 6.02394
1.83285 2.42415 6.16338
1.81747 2.43953 6.1499
1.83285 2.42415 6.13775
1.78664 2.47036 5.9988
1.78664 2.47036 6.024
1.77121 2.48579 6.01139
2.0934 2.1636 5.2975
2.0934 2.1636 5.32145
2.07833 2.17867 5.30616
1.56833 2.68867 6.17433
1.5683 2.6887 6.1975
1.55243 2.70457 6.18932
1.63134 2.62566 6.09946
1.61565 2.64135 6.11214
1.61564 2.64136 6.08685
1.55243 2.70457 6.18932
1.53648 2.72052 6.1975
1.53664 2.72036 6.17423
2.06276 2.19424 5.622
2.04745 2.20955 5.60943
2.06276 2.19424 5.59688
2.0934 2.1636 5.77259
2.07808 2.17892 5.76005
2.0934 2.1636 5.7475
2.07808 2.17892 5.81024
2.0934 2.1636 5.79769
2.0934 2.1636 5.82278
2.06277 2.19423 5.72241
2.04745 2.20955 5.73495
2.04745 2.20955 5.70986
2.06277 2.19423 5.7475
2.04745 2.20955 5.73495
2.06277 2.19423 5.72241
2.07808 2.17892 5.76005
2.06277 2.19423 5.77259
2.06277 2.19423 5.7475
2.04745 2.20955 5.88557
2.06276 2.19424 5.89812
2.04744 2.20956 5.9107
2.01682 2.24018 5.86047
2.01682 2.24018 5.88559
2.0015 2.2555 5.87303
2.04745 2.20955 5.86045
2.03214 2.22486 5.8479
2.04745 2.20955 5.83535
2.04745 2.20955 5.83535
2.06277 2.19423 5.84789
2.04745 2.20955 5.86045
2.03214 2.22486 5.8479
2.03214 2.22486 5.8228
2.04745 2.20955 5.83535
2.04745 2.20955 5.83535
2.03214 2.22486 5.8228
2.04745 2.20955 5.81024
2.0934 2.1636 5.82278
2.0934 2.1636 5.84789
2.07808 2.17892 5.83534
2.07808 2.17892 5.83534
2.07808 2.17892 5.81024
2.0934 2.1636 5.82278
2.07808 2.17892 5.83534
2.0934 2.1636 5.84789
2.07808 2.17892 5.86044
2.07808 2.17892 5.86044
2.06277 2.19423 5.84789
2.07808 2.17892 5.83534
2.04744 2.20956 5.93583
2.03213 2.22487 5.92328
2.04744 2.20956 5.9107
2.04744 2.20956 5.93583
2.06275 2.19425 5.94838
2.04743 2.20957 5.96098
2.0015 2.2555 5.9233
2.01681 2.24019 5.91072
2.01681 2.24019 5.93586
2.01681 2.24019 5.93586
2.01681 2.24019 5.91072
2.03213 2.22487 5.92328
2.0934 2.1636 5.8981
2.07808 2.17892 5.88555
2.0934 2.1636 5.87299
2.04744 2.20956 5.9107
2.06276 2.19424 5.89812
2.06276 2.19424 5.92325
2.06276 2.19424 5.92325
2.04744 2.20956 5.93583
2.04744 2.20956 5.9107
2.06275 2.19425 5.94838
2.04744 2.20956 5.93583
2.06276 2.19424 5.92325
2.07806 2.17894 6.01121
2.06273 2.19427 6.02384
2.06274 2.19426 5.99868
2.06274 2.19426 5.99868
2.07807 2.17893 5.98607
2.07806 2.17894 6.01121
2.06275 2.19425 5.97353
2.07807 2.17893 5.98607
2.06274 2.19426 5.99868
2.0321 2.2249 6.02394
2.03211 2.22489 5.99875
2.04742 2.20958 6.0113
2.04742 2.20958 6.0113
2.04741 2.20959 6.03649
2.0321 2.2249 6.02394
2.06273 2.19427 6.02384
2.04741 2.20959 6.03649
2.04742 2.20958 6.0113
2.04742 2.20958 6.0113
2.06274 2.19426 5.99868
2.06273 2.19427 6.02384
2.01679 2.24021 6.01138
2.03211 2.22489 5.99875
2.0321 2.2249 6.02394
2.01679 2.24021 6.01138
2.00148 2.25552 6.02401
2.00148 2.25552 5.99881
2.06271 2.19429 6.09936
2.06271 2.19429 6.12452
2.04741 2.20959 6.11222
2.04741 2.20959 6.11222
2.06271 2.19429 6.12452
2.04744 2.20956 6.13763
2.03209 2.22491 6.04915
2.04741 2.20959 6.03649
2.0474 2.2096 6.06169
2.0474 2.2096 6.06169
2.03209 2.22491 6.07437
2.03209 2.22491 6.04915
1.97087 2.28613 5.89817
1.95555 2.30145 5.91075
1.95555 2.30145 5.88561
2.00148 2.25552 5.99881
2.00149 2.25551 5.97362
2.0168 2.2402 5.98619
2.0168 2.2402 5.98619
2.01679 2.24021 6.01138
2.00148 2.25552 5.99881
2.03211 2.22489 5.99875
2.01679 2.24021 6.01138
2.0168 2.2402 5.98619
2.03211 2.22489 5.97358
2.03211 2.22489 5.99875
2.0168 2.2402 5.98619
1.86358 2.39342 6.13776
1.86358 2.39342 6.16339
1.84822 2.40878 6.14991
1.84822 2.40878 6.14991
1.86358 2.39342 6.16339
1.84822 2.40878 6.1745
1.84822 2.40878 6.14991
1.84822 2.40878 6.1745
1.83285 2.42415 6.16338
1.83285 2.42415 6.16338
1.83285 2.42415 6.13775
1.84822 2.40878 6.14991
1.81747 2.43953 6.12485
1.83285 2.42415 6.13775
1.81747 2.43953 6.1499
1.80202 2.45498 5.76005
1.80202 2.45498 5.78515
1.7866 2.4704 5.7726
1.70922 2.54778 5.88556
1.69367 2.56333 5.873
1.70922 2.54778 5.86045
1.70924 2.54776 5.93583
1.6937 2.5633 5.94839
1.69369 2.56331 5.92325
1.63134 2.62566 6.09946
1.61564 2.64136 6.08685
1.63132 2.62568 6.07424
1.63135 2.62565 6.12466
1.61565 2.64135 6.11214
1.63134 2.62566 6.09946
1.69376 2.56324 6.04912
1.69378 2.56322 6.07434
1.6782 2.5788 6.06172
1.59983 2.65717 5.99858
1.61554 2.64146 5.98603
1.61557 2.64143 6.0112
1.59973 2.65727 5.89803
1.58397 2.67303 5.91056
1.58396 2.67304 5.88546
1.61564 2.64136 6.18941
1.63134 2.62566 6.1975
1.5999 2.6571 6.1975
1.63134 2.62566 6.17437
1.63134 2.62566 6.1975
1.61564 2.64136 6.18941
1.647 2.61 6.18947
1.63134 2.62566 6.1975
1.63134 2.62566 6.17437
1.59993 2.65707 6.12461
1.59992 2.65708 6.14969
1.58418 2.67282 6.13746
1.84822 2.40878 6.1975
1.81747 2.43953 6.1975
1.83285 2.42415 6.18972
1.83285 2.42415 6.16338
1.84822 2.40878 6.1745
1.83285 2.42415 6.18972
1.83285 2.42415 6.18972
1.84822 2.40878 6.1745
1.84822 2.40878 6.1975
1.81747 2.43953 6.17449
1.81747 2.43953 6.1499
1.83285 2.42415 6.16338
1.83285 2.42415 6.16338
1.83285 2.42415 6.18972
1.81747 2.43953 6.17449
1.81747 2.43953 6.17449
1.83285 2.42415 6.18972
1.81747 2.43953 6.1975
1.70931 2.54769 6.06176
1.69378 2.56322 6.07434
1.69376 2.56324 6.04912
1.7712 2.4858 5.9862
1.78663 2.47037 5.97362
1.78664 2.47036 5.9988
1.78664 2.47036 5.9988
1.77121 2.48579 6.01139
1.7712 2.4858 5.9862
1.77122 2.48578 6.0366
1.77121 2.48579 6.01139
1.78664 2.47036 6.024
1.77122 2.48578 6.0366
1.78664 2.47036 6.024
1.78665 2.47035 6.04921
1.78665 2.47035 6.04921
1.77123 2.48577 6.06182
1.77122 2.48578 6.0366
1.77122 2.48578 6.0366
1.77123 2.48577 6.06182
1.75578 2.50122 6.04919
1.78666 2.47034 6.07443
1.77123 2.48577 6.06182
1.78665 2.47035 6.04921
1.78666 2.47034 6.09964
1.77124 2.48576 6.11234
1.77124 2.48576 6.08706
1.77124 2.48576 6.08706
1.78666 2.47034 6.07443
1.78666 2.47034 6.09964
1.77123 2.48577 6.06182
1.78666 2.47034 6.07443
1.77124 2.48576 6.08706
2.07809 2.17891 5.33238
2.07833 2.17867 5.30616
2.0934 2.1636 5.32145
2.06287 2.19413 5.32073
2.07833 2.17867 5.30616
2.07809 2.17891 5.33238
1.94028 2.31672 5.32048
1.94028 2.31672 5.2975
1.95561 2.30139 5.30521
2.00164 2.25536 5.2975
1.98629 2.27071 5.30517
1.97095 2.28605 5.2975
1.97095 2.28605 5.2975
1.95561 2.30139 5.30521
1.94028 2.31672 5.2975
1.48928 2.76772 5.33397
1.48919 2.76781 5.30786
1.50509 2.75191 5.32145
1.50509 2.75191 5.32145
1.5206 2.7364 5.30601
1.52092 2.73608 5.33245
1.47362 2.78338 5.32282
1.48919 2.76781 5.30786
1.48928 2.76772 5.33397
1.47362 2.78338 5.32282
1.47412 2.78288 5.2975
1.48919 2.76781 5.30786
1.56833 2.68867 5.32067
1.5683 2.6887 5.2975
1.58412 2.67288 5.30563
[...]
<PointData Scalars="View Factor" >
<DataArray type="Float64" Name="View Factor" NumberOfComponents="1" format="ascii">
0.00174773
0.00174773
0.00174773
0.00164459
0.00164459
0.00164459
0.00167772
0.00167772
0.00167772
0.00182885
0.00182885
0.00182885
0.00181079
0.00181079
0.00181079
0.00180249
0.00180249
0.00180249
0.00178479
0.00178479
0.00178479
0.00180208
0.00180208
0.00180208
0.00175762
0.00175762
0.00175762
0.00177667
0.00177667
0.00177667
0.00178571
0.00178571
0.00178571
0.00172957
0.00172957
0.00172957
0.00169469
0.00169469
0.00169469
0.00174996
0.00174996
0.00174996
0.0017357
0.0017357
0.0017357
0.00162845
0.00162845
0.00162845
0.00165454
0.00165454
0.00165454
0.00167102
0.00167102
0.00167102
0.00118132
0.00118132
0.00118132
0.00156832
0.00156832
0.00156832
0.00155311
0.00155311
0.00155311
0.0014507
0.0014507
0.0014507
0.00197327
0.00197327
0.00197327
0.00378774
0.00378774
0.00378774
0.0017049
0.0017049
0.0017049
0.00172211
0.00172211
0.00172211
0.00173256
0.00173256
0.00173256
0.00172551
0.00172551
0.00172551
0.00176365
0.00176365
0.00176365
0.00175386
0.00175386
0.00175386
0.00177949
0.00177949
0.00177949
0.00177781
0.00177781
0.00177781
0.00176106
0.00176106
0.00176106
0.00157774
0.00157774
0.00157774
0.00168111
0.00168111
0.00168111
0.00170818
0.00170818
0.00170818
0.00169802
0.00169802
0.00169802
0.00143688
0.00143688
0.00143688
0.00119222
0.00119222
0.00119222
0.00154728
0.00154728
0.00154728
0.00161867
0.00161867
0.00161867
0.00160285
0.00160285
0.00160285
0.00159951
0.00159951
0.00159951
0.00159325
0.00159325
0.00159325
0.00166777
0.00166777
0.00166777
0.00165113
0.00165113
0.00165113
0.00163684
0.00163684
0.00163684
0.00241581
0.00241581
0.00241581
0.0023975
0.0023975
0.0023975
0.00103678
0.00103678
0.00103678
0.00371787
0.00371787
0.00371787
0.00324913
0.00324913
0.00324913
0.00381856
0.00381856
0.00381856
0.00124927
0.00124927
0.00124927
0.0013516
0.0013516
0.0013516
0.00139343
0.00139343
0.00139343
0.0013394
0.0013394
0.0013394
0.00134682
0.00134682
0.00134682
0.00136191
0.00136191
0.00136191
0.00149122
0.00149122
0.00149122
0.00149549
0.00149549
0.00149549
0.00145204
0.00145204
0.00145204
0.00144576
0.00144576
0.00144576
0.0014441
0.0014441
0.0014441
0.00142981
0.00142981
0.00142981
0.00141495
0.00141495
0.00141495
0.00140674
0.00140674
0.00140674
0.00142851
0.00142851
0.00142851
0.00143399
0.00143399
0.00143399
0.00152127
0.00152127
0.00152127
0.00153848
0.00153848
0.00153848
0.0015429
0.0015429
0.0015429
0.00153541
0.00153541
0.00153541
0.00145924
0.00145924
0.00145924
0.00149967
0.00149967
0.00149967
0.00151462
0.00151462
0.00151462
0.00152324
0.00152324
0.00152324
0.00159014
0.00159014
0.00159014
0.00157446
0.00157446
0.00157446
0.00156526
0.00156526
0.00156526
0.00161104
0.00161104
0.00161104
0.00162016
0.00162016
0.00162016
0.00161297
0.00161297
0.00161297
0.0015968
0.0015968
0.0015968
0.00161861
0.00161861
0.00161861
0.0016347
0.0016347
0.0016347
0.00170197
0.00170197
0.00170197
0.00171956
0.00171956
0.00171956
0.00164615
0.00164615
0.00164615
0.00166316
0.00166316
0.00166316
0.00155979
0.00155979
0.00155979
0.00160887
0.00160887
0.00160887
0.00161763
0.00161763
0.00161763
0.00160969
0.00160969
0.00160969
0.00159317
0.00159317
0.00159317
0.00227843
0.00227843
0.00227843
0.00231982
0.00231982
0.00231982
0.00236593
0.00236593
0.00236593
0.0023699
0.0023699
0.0023699
0.00241845
0.00241845
0.00241845
0.00200737
0.00200737
0.00200737
0.00248849
0.00248849
0.00248849
0.00261038
0.00261038
0.00261038
0.00319915
0.00319915
0.00319915
0.00325253
0.00325253
0.00325253
0.00287583
0.00287583
0.00287583
0.00308612
0.00308612
0.00308612
0.00297518
0.00297518
0.00297518
0.00348591
0.00348591
0.00348591
0.00341835
0.00341835
0.00341835
0.00336887
0.00336887
0.00336887
0.00345127
0.00345127
0.00345127
0.00246407
0.00246407
0.00246407
0.00240983
0.00240983
0.00240983
0.00240447
0.00240447
0.00240447
0.00245848
0.00245848
0.00245848
0.00245656
0.00245656
0.00245656
0.00249863
0.00249863
0.00249863
0.00283104
0.00283104
0.00283104
0.00235897
0.00235897
0.00235897
0.00239921
0.00239921
0.00239921
0.00243831
0.00243831
0.00243831
0.00243673
0.00243673
0.00243673
0.00247837
0.00247837
0.00247837
0.00252195
0.00252195
0.00252195
0.00247672
0.00247672
0.00247672
0.00256092
0.00256092
0.00256092
0.00251765
0.00251765
0.00251765
0.00251929
0.00251929
0.00251929
0.00104552
0.00104552
0.00104552
0.00104919
0.00104919
0.00104919
0.00113252
0.00113252
0.00113252
0.00107632
0.00107632
0.00107632
0.00110157
0.00110157
0.00110157
0.00234619
0.00234619
0.00234619
0.00228746
0.00228746
0.00228746
0.00237539
0.00237539
0.00237539
0.00237212
0.00237212
0.00237212
0.00211469
0.00211469
0.00211469
0.00199242
0.00199242
0.00199242
0.00207685
0.00207685
0.00207685
0.00263585
0.00263585
0.00263585
0.00263968
0.00263968
0.00263968
0.00351782
0.00351782
0.00351782
0.00350507
0.00350507
0.00350507
0.0035093
0.0035093
0.0035093
0.00301266
0.00301266
0.00301266
0.00301629
0.00301629
0.00301629
0.00327918
0.00327918
0.00327918
0.00117476
0.00117476
0.00117476
0.0013113
0.0013113
0.0013113
0.00128722
0.00128722
0.00128722
0.00129964
0.00129964
0.00129964
0.00126808
0.00126808
0.00126808
0.00128024
0.00128024
0.00128024
0.00128567
0.00128567
0.00128567
0.00127884
0.00127884
0.00127884
0.00126655
0.00126655
0.00126655
0.00126122
0.00126122
0.00126122
0.00139696
0.00139696
0.00139696
0.00141973
0.00141973
0.00141973
0.00141735
0.00141735
0.00141735
0.00125985
0.00125985
0.00125985
0.0011989
0.0011989
0.0011989
0.00157068
0.00157068
0.00157068
0.00164487
0.00164487
0.00164487
0.00151071
0.00151071
0.00151071
0.00156413
0.00156413
0.00156413
0.00145029
0.00145029
0.00145029
0.00144311
0.00144311
0.00144311
0.00147603
0.00147603
0.00147603
0.00150496
0.00150496
0.00150496
0.00134514
0.00134514
0.00134514
0.00133126
0.00133126
0.00133126
0.00134385
0.00134385
0.00134385
0.00134896
0.00134896
0.00134896
0.00134139
0.00134139
0.00134139
0.00132868
0.00132868
0.00132868
0.00132366
0.00132366
0.00132366
0.00169047
0.00169047
0.00169047
0.00166014
0.00166014
0.00166014
0.00145933
0.00145933
0.00145933
0.00145351
0.00145351
0.00145351
0.00148196
0.00148196
0.00148196
0.00151649
0.00151649
0.00151649
0.00163476
0.00163476
0.00163476
0.00163917
0.00163917
0.00163917
0.0016992
0.0016992
0.0016992
0.00166466
0.00166466
0.00166466
0.00149331
0.00149331
0.00149331
0.001522
0.001522
0.001522
0.00147051
0.00147051
0.00147051
0.00147656
0.00147656
0.00147656
0.00146827
0.00146827
0.00146827
0.00145628
0.00145628
0.00145628
0.00144795
0.00144795
0.00144795
0.00145389
0.00145389
0.00145389
0.00148828
0.00148828
0.00148828
0.00147467
0.00147467
0.00147467
0.00146657
0.00146657
0.00146657
0.00147332
0.00147332
0.00147332
0.00146459
0.00146459
0.00146459
0.00144228
0.00144228
0.00144228
0.00144952
0.00144952
0.00144952
0.00141212
0.00141212
0.00141212
0.00140984
0.00140984
0.00140984
0.00140411
0.00140411
0.00140411
0.00142365
0.00142365
0.00142365
0.00143165
0.00143165
0.00143165
0.00142582
0.00142582
0.00142582
0.00151284
0.00151284
0.00151284
0.00151985
0.00151985
0.00151985
0.00151161
0.00151161
0.00151161
0.00149774
0.00149774
0.00149774
0.00149635
0.00149635
0.00149635
0.00148948
0.00148948
0.00148948
0.00151897
0.00151897
0.00151897
0.00151095
0.00151095
0.00151095
0.00151863
0.00151863
0.00151863
0.00153465
0.00153465
0.00153465
0.00153667
0.00153667
0.00153667
0.00154381
0.00154381
0.00154381
0.00154526
0.00154526
0.00154526
0.00156096
0.00156096
0.00156096
0.00155893
0.00155893
0.00155893
0.00147904
0.00147904
0.00147904
0.00147335
0.00147335
0.00147335
0.00148203
0.00148203
0.00148203
0.00149351
0.00149351
0.00149351
0.00152896
0.00152896
0.00152896
0.00154088
0.00154088
0.00154088
0.00154387
0.00154387
0.00154387
0.00154989
0.00154989
0.00154989
0.00150526
0.00150526
0.00150526
0.00149635
0.00149635
0.00149635
0.00150214
0.00150214
0.00150214
0.00151696
0.00151696
0.00151696
0.0015258
0.0015258
0.0015258
0.00151989
0.00151989
0.00151989
0.00158575
0.00158575
0.00158575
0.00157179
0.00157179
0.00157179
0.00159469
0.00159469
0.00159469
0.00158765
0.00158765
0.00158765
0.00156973
0.00156973
0.00156973
0.00156282
0.00156282
0.00156282
0.00164456
0.00164456
0.00164456
0.00163546
0.00163546
0.00163546
0.00164357
0.00164357
0.00164357
0.00167488
0.00167488
0.00167488
0.00169007
0.00169007
0.00169007
0.00166518
0.00166518
0.00166518
0.00167267
0.00167267
0.00167267
0.00169214
0.00169214
0.00169214
0.0016998
0.0016998
0.0016998
0.00177372
0.00177372
0.00177372
0.00175572
0.00175572
0.00175572
0.001802
0.001802
0.001802
0.00178225
0.00178225
0.00178225
0.00177262
0.00177262
0.00177262
0.0017174
0.0017174
0.0017174
0.00175374
0.00175374
0.00175374
0.00172738
0.00172738
0.00172738
0.00174537
0.00174537
0.00174537
0.00163881
0.00163881
0.00163881
0.00162506
0.00162506
0.00162506
0.00164138
0.00164138
0.00164138
0.00164833
0.00164833
0.00164833
0.00161551
0.00161551
0.00161551
0.00162231
0.00162231
0.00162231
0.00179457
0.00179457
0.00179457
0.00179917
0.00179917
0.00179917
0.00168213
0.00168213
0.00168213
0.00175699
0.00175699
0.00175699
0.00156767
0.00156767
0.00156767
0.00232256
0.00232256
0.00232256
0.0023576
0.0023576
0.0023576
0.00231684
0.00231684
0.00231684
0.00204133
0.00204133
0.00204133
0.00197129
0.00197129
0.00197129
0.00172976
0.00172976
0.00172976
0.00172557
0.00172557
0.00172557
0.00248827
0.00248827
0.00248827
0.0028209
0.0028209
0.0028209
0.00252826
0.00252826
0.00252826
0.00260292
0.00260292
0.00260292
0.00268217
0.00268217
0.00268217
0.00264161
0.00264161
0.00264161
0.00319575
0.00319575
0.00319575
0.0033036
0.0033036
0.0033036
0.00335115
0.00335115
0.00335115
0.00340317
0.00340317
0.00340317
0.00315297
0.00315297
0.00315297
0.00310409
0.00310409
0.00310409
0.00306085
0.00306085
0.00306085
0.00305844
0.00305844
0.00305844
0.00291389
0.00291389
0.00291389
0.00287028
0.00287028
0.00287028
0.00300147
0.00300147
0.00300147
0.00304537
0.00304537
0.00304537
0.00304244
0.00304244
0.00304244
0.0027787
0.0027787
0.0027787
0.00296575
0.00296575
0.00296575
0.00301087
0.00301087
0.00301087
0.00308286
0.00308286
0.00308286
0.0030364
0.0030364
0.0030364
0.00294544
0.00294544
0.00294544
0.00293113
0.00293113
0.00293113
0.0033367
0.0033367
0.0033367
0.00318838
0.00318838
0.00318838
0.00329586
0.00329586
0.00329586
0.00334686
0.00334686
0.00334686
0.00260643
0.00260643
0.00260643
0.0025459
0.0025459
0.0025459
0.00232638
0.00232638
0.00232638
0.00236536
0.00236536
0.00236536
0.00228042
0.00228042
0.00228042
0.00283485
0.00283485
0.00283485
0.00252307
0.00252307
0.00252307
0.00248117
0.00248117
0.00248117
0.002606
0.002606
0.002606
0.00269648
0.00269648
0.00269648
0.00103572
0.00103572
0.00103572
0.00104416
0.00104416
0.00104416
0.00107039
0.00107039
0.00107039
0.00106108
0.00106108
0.00106108
0.00106114
0.00106114
0.00106114
0.00222912
0.00222912
0.00222912
0.00225856
0.00225856
0.00225856
0.00216209
0.00216209
0.00216209
0.00220033
0.00220033
0.00220033
0.0022007
0.0022007
0.0022007
0.0021432
0.0021432
0.0021432
0.00217195
0.00217195
0.00217195
0.00217449
0.00217449
0.00217449
0.00231982
0.00231982
0.00231982
0.00238173
0.00238173
0.00238173
0.00234945
0.00234945
0.00234945
0.00231573
0.00231573
0.00231573
0.0022866
0.0022866
0.0022866
0.00233267
0.00233267
0.00233267
0.00224781
0.00224781
0.00224781
0.00227994
0.00227994
0.00227994
0.00285126
0.00285126
0.00285126
0.0022834
0.0022834
0.0022834
0.00301124
0.00301124
0.00301124
0.00296485
0.00296485
0.00296485
0.00297014
0.00297014
0.00297014
0.00289409
0.00289409
0.00289409
0.00293449
0.00293449
0.00293449
0.00278795
0.00278795
0.00278795
0.00281487
0.00281487
0.00281487
0.00321217
0.00321217
0.00321217
0.00288442
0.00288442
0.00288442
0.0028885
0.0028885
0.0028885
0.00247536
0.00247536
0.00247536
0.00244348
0.00244348
0.00244348
0.00253935
0.00253935
0.00253935
0.00257144
0.00257144
0.00257144
0.00260728
0.00260728
0.00260728
0.00245372
0.00245372
0.00245372
0.00270458
0.00270458
0.00270458
0.00266416
0.00266416
0.00266416
0.00266811
0.00266811
0.00266811
0.00230027
0.00230027
0.00230027
0.00230031
0.00230031
0.00230031
0.0025956
0.0025956
0.0025956
0.00230024
0.00230024
0.00230024
0.00226447
0.00226447
0.00226447
0.00226471
0.00226471
0.00226471
0.00218913
0.00218913
0.00218913
0.00219133
0.00219133
0.00219133
0.00258812
0.00258812
0.00258812
0.00255005
0.00255005
0.00255005
0.003417
0.003417
0.003417
0.00346629
0.00346629
0.00346629
0.00346031
0.00346031
0.00346031
0.00340805
0.00340805
0.00340805
0.00356766
0.00356766
0.00356766
0.00356515
0.00356515
0.00356515
0.00363638
0.00363638
0.00363638
0.00366766
0.00366766
0.00366766
0.00361477
0.00361477
0.00361477
0.00336237
0.00336237
0.00336237
0.00341653
0.00341653
0.00341653
0.00336905
0.00336905
0.00336905
0.0030613
0.0030613
0.0030613
0.00315329
0.00315329
0.00315329
0.0031489
0.0031489
0.0031489
0.00310285
0.00310285
0.00310285
0.00318612
0.00318612
0.00318612
0.00323789
0.00323789
0.00323789
0.00319087
0.00319087
0.00319087
0.00328028
0.00328028
0.00328028
0.0032299
0.0032299
0.0032299
0.00313342
0.00313342
0.00313342
0.00330557
0.00330557
0.00330557
0.003257
0.003257
0.003257
0.00332455
0.00332455
0.00332455
0.00386879
0.00386879
0.00386879
0.00394002
0.00394002
0.00394002
0.00396889
0.00396889
0.00396889
0.00355375
0.00355375
0.00355375
0.00360756
0.00360756
0.00360756
0.00371435
0.00371435
0.00371435
0.00376414
0.00376414
0.00376414
0.00365676
0.00365676
0.00365676
0.00365118
0.00365118
0.00365118
0.00107524
0.00107524
0.00107524
0.00107074
0.00107074
0.00107074
0.0010758
0.0010758
0.0010758
0.00108544
0.00108544
0.00108544
0.001092
0.001092
0.001092
0.00108644
0.00108644
0.00108644
0.00109079
0.00109079
0.00109079
0.00148578
0.00148578
0.00148578
0.0010591
0.0010591
0.0010591
0.00106306
0.00106306
0.00106306
0.00107624
0.00107624
0.00107624
0.00107166
0.00107166
0.00107166
0.00130673
0.00130673
0.00130673
0.00131934
0.00131934
0.00131934
0.00132659
0.00132659
0.00132659
0.00132126
0.00132126
0.00132126
0.00127247
0.00127247
0.00127247
0.00128208
0.00128208
0.00128208
0.00130517
0.00130517
0.00130517
0.00131688
0.00131688
0.00131688
0.001304
0.001304
0.001304
0.00129819
0.00129819
0.00129819
0.00185031
0.00185031
0.00185031
0.00178869
0.00178869
0.00178869
0.00165779
0.00165779
0.00165779
0.00171711
0.00171711
0.00171711
0.00174839
0.00174839
0.00174839
0.00175076
0.00175076
0.00175076
0.0016887
0.0016887
0.0016887
0.00172214
0.00172214
0.00172214
0.00169135
0.00169135
0.00169135
0.00171443
0.00171443
0.00171443
0.00177745
0.00177745
0.00177745
0.0018368
0.0018368
0.0018368
0.00185495
0.00185495
0.00185495
0.0017819
0.0017819
0.0017819
0.00182525
0.00182525
0.00182525
0.00146099
0.00146099
0.00146099
0.00175854
0.00175854
0.00175854
0.00176155
0.00176155
0.00176155
0.00164518
0.00164518
0.00164518
0.00158565
0.00158565
0.00158565
0.00161353
0.00161353
0.00161353
0.00141708
0.00141708
0.00141708
0.00115869
0.00115869
0.00115869
0.0012553
0.0012553
0.0012553
0.001259
0.001259
0.001259
0.00128563
0.00128563
0.00128563
0.00129042
0.00129042
0.00129042
0.00163001
0.00163001
0.00163001
0.00151564
0.00151564
0.00151564
0.0015756
0.0015756
0.0015756
0.00124254
0.00124254
0.00124254
0.00124778
0.00124778
0.00124778
0.00148322
0.00148322
0.00148322
0.00142042
0.00142042
0.00142042
0.00142528
0.00142528
0.00142528
0.00145644
0.00145644
0.00145644
0.00137309
0.00137309
0.00137309
0.00151446
0.00151446
0.00151446
0.00143141
0.00143141
0.00143141
0.00121002
0.00121002
0.00121002
0.0012168
0.0012168
0.0012168
0.00123502
0.00123502
0.00123502
0.00124431
0.00124431
0.00124431
0.00123266
0.00123266
0.00123266
0.00122806
0.00122806
0.00122806
0.00125357
0.00125357
0.00125357
0.00126528
0.00126528
0.00126528
0.00127004
0.00127004
0.00127004
0.00126302
0.00126302
0.00126302
0.0012512
0.0012512
0.0012512
0.00124651
0.00124651
0.00124651
0.00138538
0.00138538
0.00138538
0.00139067
0.00139067
0.00139067
0.00138281
0.00138281
0.00138281
0.00137232
0.00137232
0.00137232
0.00136962
0.00136962
0.00136962
0.00136442
0.00136442
0.00136442
0.00154631
0.00154631
0.00154631
0.0016136
0.0016136
0.0016136
0.00157679
0.00157679
0.00157679
0.00155237
0.00155237
0.00155237
0.00151872
0.00151872
0.00151872
0.00153556
0.00153556
0.00153556
0.00154328
0.00154328
0.00154328
0.00153479
0.00153479
0.00153479
0.00151176
0.00151176
0.00151176
0.00151933
0.00151933
0.00151933
0.001511
0.001511
0.001511
0.00149525
0.00149525
0.00149525
0.00142746
0.00142746
0.00142746
0.00144243
0.00144243
0.00144243
0.00144211
0.00144211
0.00144211
0.00144968
0.00144968
0.00144968
0.00142776
0.00142776
0.00142776
0.00142035
0.00142035
0.00142035
0.00142112
0.00142112
0.00142112
0.00142814
0.00142814
0.00142814
0.00152849
0.00152849
0.00152849
0.00152242
0.00152242
0.00152242
0.00146558
0.00146558
0.00146558
0.00149903
0.00149903
0.00149903
0.00132309
0.00132309
0.00132309
0.00133638
0.00133638
0.00133638
0.0013844
0.0013844
0.0013844
0.00133798
0.00133798
0.00133798
0.00132497
0.00132497
0.00132497
0.00132381
0.00132381
0.00132381
0.00131788
0.00131788
0.00131788
0.00161934
0.00161934
0.00161934
0.00158859
0.00158859
0.00158859
0.00159431
0.00159431
0.00159431
0.00163039
0.00163039
0.00163039
0.00166136
0.00166136
0.00166136
0.001656
0.001656
0.001656
0.00168752
0.00168752
0.00168752
0.00172465
0.00172465
0.00172465
0.00156973
0.00156973
0.00156973
0.00154003
0.00154003
0.00154003
0.00154564
0.00154564
0.00154564
0.00158058
0.00158058
0.00158058
0.00168599
0.00168599
0.00168599
0.00165076
0.00165076
0.00165076
0.00149881
0.00149881
0.00149881
0.00150937
0.00150937
0.00150937
0.00162546
0.00162546
0.00162546
0.0015564
0.0015564
0.0015564
0.00162061
0.00162061
0.00162061
0.0015858
0.0015858
0.0015858
0.00152419
0.00152419
0.00152419
0.0017856
0.0017856
0.0017856
0.00181632
0.00181632
0.00181632
0.00167317
0.00167317
0.00167317
0.00170329
0.00170329
0.00170329
0.00147213
0.00147213
0.00147213
0.00148739
0.00148739
0.00148739
0.0014876
0.0014876
0.0014876
0.00149514
0.00149514
0.00149514
0.00144296
0.00144296
0.00144296
0.0014499
0.0014499
0.0014499
0.00145072
0.00145072
0.00145072
0.00146473
0.00146473
0.00146473
0.0014654
0.0014654
0.0014654
0.00147248
0.00147248
0.00147248
0.00159185
0.00159185
0.00159185
0.00155972
0.00155972
0.00155972
0.00156735
0.00156735
0.00156735
0.00156825
0.00156825
0.00156825
0.0015837
0.0015837
0.0015837
0.0015844
0.0015844
0.0015844
0.00159219
0.00159219
0.00159219
0.00182916
0.00182916
0.00182916
0.00181111
0.00181111
0.00181111
0.001744
0.001744
0.001744
0.00172561
0.00172561
0.00172561
0.00212975
0.00212975
0.00212975
0.00188649
0.00188649
0.00188649
0.00185215
0.00185215
0.00185215
0.0016709
0.0016709
0.0016709
0.00159549
0.00159549
0.00159549
0.00160167
0.00160167
0.00160167
0.00163909
0.00163909
0.00163909
0.00172458
0.00172458
0.00172458
0.00155901
0.00155901
0.00155901
0.00154248
0.00154248
0.00154248
0.00154266
0.00154266
0.00154266
0.00153449
0.00153449
0.00153449
0.00158374
0.00158374
0.00158374
0.00159194
0.00159194
0.00159194
0.00158345
0.00158345
0.00158345
0.00156692
0.00156692
0.00156692
0.00155872
0.00155872
0.00155872
0.00156705
0.00156705
0.00156705
0.00159256
0.00159256
0.00159256
0.00160974
0.00160974
0.00160974
0.00164665
0.00164665
0.00164665
0.00158451
0.00158451
0.00158451
0.00161717
0.00161717
0.00161717
0.00160865
0.00160865
0.00160865
0.00167303
0.00167303
0.00167303
0.00171864
0.00171864
0.00171864
0.00167936
0.00167936
0.00167936
0.00175224
0.00175224
0.00175224
0.00170633
0.00170633
0.00170633
0.00174626
0.00174626
0.00174626
0.00255938
0.00255938
0.00255938
0.00251409
0.00251409
0.00251409
0.00260193
0.00260193
0.00260193
0.00260355
0.00260355
0.00260355
0.00246416
0.00246416
0.00246416
0.00246677
0.00246677
0.00246677
0.00255586
0.00255586
0.00255586
0.00251226
0.00251226
0.00251226
0.0024883
0.0024883
0.0024883
0.0025691
0.0025691
0.0025691
0.00252835
0.00252835
0.00252835
0.00256888
0.00256888
0.00256888
0.0021835
0.0021835
0.0021835
0.00187003
0.00187003
0.00187003
0.0018366
0.0018366
0.0018366
0.00170287
0.00170287
0.00170287
0.00173925
0.00173925