<VTKFile type="UnstructuredGrid" version="1.0">
<UnstructuredGrid>
<Piece NumberOfPoints="8859" NumberOfCells="2953">
<Points>
<DataArray type="Float64" NumberOfComponents="3" format="ascii">
2.75455 1.50245 3.00263
2.76986 1.48714 3.01458
2.75465 1.50235 3.02833
2.78515 1.47185 2.95167
2.78516 1.47184 2.92651
2.8005 1.4565 2.93898
2.76981 1.48719 2.96436
2.78515 1.47185 2.95167
2.78514 1.47186 2.97686
2.72412 1.53288 3.05488
2.73952 1.51748 3.0625
2.70875 1.54825 3.0625
2.72412 1.53288 3.05488
2.73943 1.51757 3.03957
2.73952 1.51748 3.0625
2.75488 1.50212 3.05479
2.77036 1.48664 3.0625
2.73952 1.51748 3.0625
2.75488 1.50212 3.05479
2.73943 1.51757 3.03957
2.75465 1.50235 3.02833
2.73952 1.51748 3.0625
2.73943 1.51757 3.03957
2.75488 1.50212 3.05479
2.75465 1.50235 3.02833
2.76986 1.48714 3.01458
2.76997 1.48703 3.03927
2.76997 1.48703 3.03927
2.75488 1.50212 3.05479
2.75465 1.50235 3.02833
2.77036 1.48664 3.0625
2.75488 1.50212 3.05479
2.76997 1.48703 3.03927
2.76986 1.48714 3.01458
2.75455 1.50245 3.00263
2.76982 1.48718 2.98952
2.76981 1.48719 2.96436
2.78514 1.47186 2.97686
2.76982 1.48718 2.98952
2.7852 1.4718 3.02762
2.76997 1.48703 3.03927
2.76986 1.48714 3.01458
2.8005 1.4565 3.01395
2.8005 1.4565 3.03855
2.7852 1.4718 3.02762
2.8005 1.4565 2.91387
2.8005 1.4565 2.93898
2.78516 1.47184 2.92651
2.78515 1.47185 2.95167
2.8005 1.4565 2.93898
2.8005 1.4565 2.96406
2.8005 1.4565 2.96406
2.78514 1.47186 2.97686
2.78515 1.47185 2.95167
2.8005 1.4565 2.38652
2.8005 1.4565 2.41165
2.78518 1.47182 2.39907
2.78517 1.47183 2.85107
2.8005 1.4565 2.86361
2.78517 1.47183 2.87621
2.8005 1.4565 2.83848
2.8005 1.4565 2.86361
2.78517 1.47183 2.85107
2.78519 1.47181 2.72544
2.8005 1.4565 2.73799
2.78519 1.47181 2.75055
2.32274 1.93426 2.17059
2.33845 1.91855 2.1625
2.33845 1.91855 2.18563
2.27541 1.98159 3.0625
2.24359 2.01341 3.0625
2.25954 1.99746 3.05432
2.78515 1.47185 3.00212
2.76982 1.48718 2.98952
2.78514 1.47186 2.97686
2.76986 1.48714 3.01458
2.76982 1.48718 2.98952
2.78515 1.47185 3.00212
2.78515 1.47185 3.00212
2.7852 1.4718 3.02762
2.76986 1.48714 3.01458
2.8005 1.4565 3.01395
2.7852 1.4718 3.02762
2.78515 1.47185 3.00212
2.78544 1.47156 3.05384
2.8005 1.4565 3.03855
2.8005 1.4565 3.0625
2.78544 1.47156 3.05384
2.7852 1.4718 3.02762
2.8005 1.4565 3.03855
2.8005 1.4565 3.0625
2.77036 1.48664 3.0625
2.78544 1.47156 3.05384
2.77036 1.48664 3.0625
2.76997 1.48703 3.03927
2.78544 1.47156 3.05384
2.76997 1.48703 3.03927
2.7852 1.4718 3.02762
2.78544 1.47156 3.05384
2.78517 1.47183 2.87621
2.8005 1.4565 2.86361
2.8005 1.4565 2.88875
2.78514 1.47186 2.97686
2.8005 1.4565 2.96406
2.8005 1.4565 2.98907
2.8005 1.4565 3.01395
2.78515 1.47185 3.00212
2.8005 1.4565 2.98907
2.8005 1.4565 2.98907
2.78515 1.47185 3.00212
2.78514 1.47186 2.97686
2.8005 1.4565 2.71288
2.8005 1.4565 2.73799
2.78519 1.47181 2.72544
2.78518 1.47182 2.39907
2.8005 1.4565 2.41165
2.78518 1.47182 2.4242
2.76985 1.48715 2.83853
2.75454 1.50246 2.82598
2.76986 1.48714 2.81338
2.78516 1.47184 2.90136
2.8005 1.4565 2.91387
2.78516 1.47184 2.92651
2.78516 1.47184 2.90136
2.8005 1.4565 2.88875
2.8005 1.4565 2.91387
2.78516 1.47184 2.90136
2.76984 1.48716 2.88884
2.78517 1.47183 2.87621
2.78517 1.47183 2.87621
2.8005 1.4565 2.88875
2.78516 1.47184 2.90136
2.76982 1.48718 2.93918
2.78515 1.47185 2.95167
2.76981 1.48719 2.96436
2.76982 1.48718 2.93918
2.78516 1.47184 2.92651
2.78515 1.47185 2.95167
2.75451 1.50249 2.90149
2.7392 1.5178 2.91415
2.73921 1.51779 2.88894
2.53996 1.71704 3.02838
2.52458 1.73242 3.0149
2.53996 1.71704 3.00275
2.49374 1.76326 2.8638
2.49375 1.76325 2.889
2.47832 1.77868 2.87639
2.8005 1.4565 2.1625
2.8005 1.4565 2.18645
2.78544 1.47156 2.17116
2.27543 1.98157 3.03933
2.27541 1.98159 3.0625
2.25954 1.99746 3.05432
2.33845 1.91855 2.96446
2.32276 1.93424 2.97714
2.32275 1.93425 2.95185
2.25954 1.99746 3.05432
2.24359 2.01341 3.0625
2.24374 2.01326 3.03923
2.76987 1.48713 2.487
2.75455 1.50245 2.47443
2.76987 1.48713 2.46188
2.8005 1.4565 2.63759
2.78519 1.47181 2.62505
2.8005 1.4565 2.6125
2.78519 1.47181 2.67524
2.8005 1.4565 2.66269
2.8005 1.4565 2.68778
2.76988 1.48712 2.58741
2.75456 1.50244 2.59995
2.75456 1.50244 2.57486
2.76988 1.48712 2.6125
2.75456 1.50244 2.59995
2.76988 1.48712 2.58741
2.78519 1.47181 2.62505
2.76988 1.48712 2.63759
2.76988 1.48712 2.6125
2.75455 1.50245 2.75057
2.76987 1.48713 2.76312
2.75455 1.50245 2.7757
2.72393 1.53307 2.72547
2.72392 1.53308 2.75059
2.70861 1.54839 2.73803
2.75456 1.50244 2.72545
2.73924 1.51776 2.7129
2.75456 1.50244 2.70035
2.75456 1.50244 2.70035
2.76987 1.48713 2.71289
2.75456 1.50244 2.72545
2.73924 1.51776 2.7129
2.73925 1.51775 2.6878
2.75456 1.50244 2.70035
2.75456 1.50244 2.70035
2.73925 1.51775 2.6878
2.75456 1.50244 2.67524
2.8005 1.4565 2.68778
2.8005 1.4565 2.71288
2.78519 1.47181 2.70034
2.78519 1.47181 2.70034
2.78519 1.47181 2.67524
2.8005 1.4565 2.68778
2.78519 1.47181 2.70034
2.8005 1.4565 2.71288
2.78519 1.47181 2.72544
2.78519 1.47181 2.72544
2.76987 1.48713 2.71289
2.78519 1.47181 2.70034
2.75454 1.50246 2.80083
2.73923 1.51777 2.78828
2.75455 1.50245 2.7757
2.75454 1.50246 2.80083
2.76986 1.48714 2.81338
2.75454 1.50246 2.82598
2.7086 1.5484 2.7883
2.72392 1.53308 2.77572
2.72392 1.53308 2.80086
2.72392 1.53308 2.80086
2.72392 1.53308 2.77572
2.73923 1.51777 2.78828
2.8005 1.4565 2.7631
2.78519 1.47181 2.75055
2.8005 1.4565 2.73799
2.75455 1.50245 2.7757
2.76987 1.48713 2.76312
2.76986 1.48714 2.78825
2.76986 1.48714 2.78825
2.75454 1.50246 2.80083
2.75455 1.50245 2.7757
2.76986 1.48714 2.81338
2.75454 1.50246 2.80083
2.76986 1.48714 2.78825
2.78517 1.47183 2.87621
2.76984 1.48716 2.88884
2.76985 1.48715 2.86368
2.76985 1.48715 2.86368
2.78517 1.47183 2.85107
2.78517 1.47183 2.87621
2.76985 1.48715 2.83853
2.78517 1.47183 2.85107
2.76985 1.48715 2.86368
2.73921 1.51779 2.88894
2.73921 1.51779 2.86375
2.75452 1.50248 2.8763
2.75452 1.50248 2.8763
2.75451 1.50249 2.90149
2.73921 1.51779 2.88894
2.76984 1.48716 2.88884
2.75451 1.50249 2.90149
2.75452 1.50248 2.8763
2.75452 1.50248 2.8763
2.76985 1.48715 2.86368
2.76984 1.48716 2.88884
2.7239 1.5331 2.87638
2.73921 1.51779 2.86375
2.73921 1.51779 2.88894
2.7239 1.5331 2.87638
2.70859 1.54841 2.88901
2.70859 1.54841 2.86381
2.76981 1.48719 2.96436
2.76982 1.48718 2.98952
2.75451 1.50249 2.97722
2.75451 1.50249 2.97722
2.76982 1.48718 2.98952
2.75455 1.50245 3.00263
2.7392 1.5178 2.91415
2.75451 1.50249 2.90149
2.75451 1.50249 2.92669
2.75451 1.50249 2.92669
2.7392 1.5178 2.93937
2.7392 1.5178 2.91415
2.67798 1.57902 2.76317
2.66266 1.59434 2.77575
2.66266 1.59434 2.75061
2.70859 1.54841 2.86381
2.70859 1.54841 2.83862
2.7239 1.5331 2.85119
2.7239 1.5331 2.85119
2.7239 1.5331 2.87638
2.70859 1.54841 2.86381
2.73921 1.51779 2.86375
2.7239 1.5331 2.87638
2.7239 1.5331 2.85119
2.73922 1.51778 2.83858
2.73921 1.51779 2.86375
2.7239 1.5331 2.85119
2.57068 1.68632 3.00276
2.57068 1.68632 3.02839
2.55533 1.70167 3.01491
2.55533 1.70167 3.01491
2.57068 1.68632 3.02839
2.55533 1.70167 3.0395
2.55533 1.70167 3.01491
2.55533 1.70167 3.0395
2.53996 1.71704 3.02838
2.53996 1.71704 3.02838
2.53996 1.71704 3.00275
2.55533 1.70167 3.01491
2.52458 1.73242 2.98984
2.53996 1.71704 3.00275
2.52458 1.73242 3.0149
2.50912 1.74788 2.62505
2.50912 1.74788 2.65015
2.49371 1.76329 2.6376
2.41633 1.84067 2.75056
2.40077 1.85623 2.738
2.41632 1.84068 2.72545
2.41635 1.84065 2.80083
2.40081 1.85619 2.81339
2.40079 1.85621 2.78825
2.33845 1.91855 2.96446
2.32275 1.93425 2.95185
2.33843 1.91857 2.93924
2.33845 1.91855 2.98966
2.32276 1.93424 2.97714
2.33845 1.91855 2.96446
2.40087 1.85613 2.91412
2.40088 1.85612 2.93934
2.38531 1.87169 2.92672
2.30693 1.95007 2.86358
2.32265 1.93435 2.85103
2.32267 1.93433 2.8762
2.30684 1.95016 2.76303
2.29108 1.96592 2.77556
2.29106 1.96594 2.75046
2.32274 1.93426 3.05441
2.33845 1.91855 3.0625
2.30701 1.94999 3.0625
2.33845 1.91855 3.03937
2.33845 1.91855 3.0625
2.32274 1.93426 3.05441
2.35411 1.90289 3.05447
2.33845 1.91855 3.0625
2.33845 1.91855 3.03937
2.30704 1.94996 2.98961
2.30703 1.94997 3.01469
2.29128 1.96572 3.00246
2.55533 1.70167 3.0625
2.52458 1.73242 3.0625
2.53996 1.71704 3.05472
2.53996 1.71704 3.02838
2.55533 1.70167 3.0395
2.53996 1.71704 3.05472
2.53996 1.71704 3.05472
2.55533 1.70167 3.0395
2.55533 1.70167 3.0625
2.52458 1.73242 3.03949
2.52458 1.73242 3.0149
2.53996 1.71704 3.02838
2.53996 1.71704 3.02838
2.53996 1.71704 3.05472
2.52458 1.73242 3.03949
2.52458 1.73242 3.03949
2.53996 1.71704 3.05472
2.52458 1.73242 3.0625
2.41642 1.84058 2.92676
2.40088 1.85612 2.93934
2.40087 1.85613 2.91412
2.47831 1.77869 2.8512
2.49374 1.76326 2.83862
2.49374 1.76326 2.8638
2.49374 1.76326 2.8638
2.47832 1.77868 2.87639
2.47831 1.77869 2.8512
2.47833 1.77867 2.9016
2.47832 1.77868 2.87639
2.49375 1.76325 2.889
2.47833 1.77867 2.9016
2.49375 1.76325 2.889
2.49376 1.76324 2.91421
2.49376 1.76324 2.91421
2.47834 1.77866 2.92682
2.47833 1.77867 2.9016
2.47833 1.77867 2.9016
2.47834 1.77866 2.92682
2.46289 1.79411 2.91419
2.49377 1.76323 2.93943
2.47834 1.77866 2.92682
2.49376 1.76324 2.91421
2.49377 1.76323 2.96464
2.47835 1.77865 2.97734
2.47834 1.77866 2.95206
2.47834 1.77866 2.95206
2.49377 1.76323 2.93943
2.49377 1.76323 2.96464
2.47834 1.77866 2.92682
2.49377 1.76323 2.93943
2.47834 1.77866 2.95206
2.7852 1.4718 2.19738
2.78544 1.47156 2.17116
2.8005 1.4565 2.18645
2.76997 1.48703 2.18573
2.78544 1.47156 2.17116
2.7852 1.4718 2.19738
2.64739 1.60961 2.18548
2.64738 1.60962 2.1625
2.66272 1.59428 2.17021
2.70875 1.54825 2.1625
2.6934 1.5636 2.17017
2.67805 1.57895 2.1625
2.67805 1.57895 2.1625
2.66272 1.59428 2.17021
2.64738 1.60962 2.1625
2.19638 2.06062 2.19897
2.1963 2.0607 2.17286
2.2122 2.0448 2.18645
2.2122 2.0448 2.18645
2.22771 2.02929 2.17101
2.22802 2.02898 2.19745
2.18073 2.07627 2.18782
2.1963 2.0607 2.17286
2.19638 2.06062 2.19897
2.18073 2.07627 2.18782
2.18123 2.07577 2.1625
2.1963 2.0607 2.17286
2.27543 1.98157 2.18567
2.27541 1.98159 2.1625
2.29123 1.96577 2.17063
2.30701 1.94999 2.1625
[...]
<PointData Scalars="View Factor" >
<DataArray type="Float64" Name="View Factor" NumberOfComponents="1" format="ascii">
0.000556383
0.000556383
0.000556383
0.000559243
0.000559243
0.000559243
0.000558318
0.000558318
0.000558318
0.000541342
0.000541342
0.000541342
0.000547018
0.000547018
0.000547018
0.000564197
0.000564197
0.000564197
0.000555496
0.000555496
0.000555496
0.000554597
0.000554597
0.000554597
0.000563226
0.000563226
0.000563226
0.000562971
0.000562971
0.000562971
0.000569753
0.000569753
0.000569753
0.000556825
0.000556825
0.000556825
0.000557807
0.000557807
0.000557807
0.000570622
0.000570622
0.000570622
0.000585438
0.000585438
0.000585438
0.000559687
0.000559687
0.000559687
0.000566
0.000566
0.000566
0.000565573
0.000565573
0.000565573
0.000445204
0.000445204
0.000445204
0.0005408
0.0005408
0.0005408
0.000541252
0.000541252
0.000541252
0.000511723
0.000511723
0.000511723
0.000220937
0.000220937
0.000220937
0.000324432
0.000324432
0.000324432
0.000564644
0.000564644
0.000564644
0.000564165
0.000564165
0.000564165
0.00057113
0.00057113
0.00057113
0.000578515
0.000578515
0.000578515
0.000592122
0.000592122
0.000592122
0.000585251
0.000585251
0.000585251
0.000586823
0.000586823
0.000586823
0.000577215
0.000577215
0.000577215
0.000577815
0.000577815
0.000577815
0.000547314
0.000547314
0.000547314
0.000572394
0.000572394
0.000572394
0.000578872
0.000578872
0.000578872
0.000571968
0.000571968
0.000571968
0.000512177
0.000512177
0.000512177
0.000444735
0.000444735
0.000444735
0.000514822
0.000514822
0.000514822
0.000553
0.000553
0.000553
0.000553458
0.000553458
0.000553458
0.000539852
0.000539852
0.000539852
0.000546873
0.000546873
0.000546873
0.000551577
0.000551577
0.000551577
0.000552065
0.000552065
0.000552065
0.000518184
0.000518184
0.000518184
0.000393788
0.000393788
0.000393788
0.000339213
0.000339213
0.000339213
0.000405213
0.000405213
0.000405213
0.000322818
0.000322818
0.000322818
0.000308513
0.000308513
0.000308513
0.00032386
0.00032386
0.00032386
0.000442114
0.000442114
0.000442114
0.000490321
0.000490321
0.000490321
0.000501099
0.000501099
0.000501099
0.000460944
0.000460944
0.000460944
0.000466534
0.000466534
0.000466534
0.00047783
0.00047783
0.00047783
0.000497472
0.000497472
0.000497472
0.000465826
0.000465826
0.000465826
0.000480195
0.000480195
0.000480195
0.000486677
0.000486677
0.000486677
0.000474365
0.000474365
0.000474365
0.00047498
0.00047498
0.00047498
0.0005066
0.0005066
0.0005066
0.000500622
0.000500622
0.000500622
0.000506135
0.000506135
0.000506135
0.000499647
0.000499647
0.000499647
0.000496272
0.000496272
0.000496272
0.00050858
0.00050858
0.00050858
0.000476198
0.000476198
0.000476198
0.000482892
0.000482892
0.000482892
0.000517831
0.000517831
0.000517831
0.000503542
0.000503542
0.000503542
0.000502974
0.000502974
0.000502974
0.000509129
0.000509129
0.000509129
0.00053336
0.00053336
0.00053336
0.000533858
0.000533858
0.000533858
0.000527437
0.000527437
0.000527437
0.000512446
0.000512446
0.000512446
0.000518816
0.000518816
0.000518816
0.000525825
0.000525825
0.000525825
0.000526385
0.000526385
0.000526385
0.000505482
0.000505482
0.000505482
0.000491544
0.000491544
0.000491544
0.000550533
0.000550533
0.000550533
0.000550049
0.000550049
0.000550049
0.000524645
0.000524645
0.000524645
0.000524036
0.000524036
0.000524036
0.000437917
0.000437917
0.000437917
0.000486111
0.000486111
0.000486111
0.000492273
0.000492273
0.000492273
0.000499194
0.000499194
0.000499194
0.000499867
0.000499867
0.000499867
0.00041585
0.00041585
0.00041585
0.000414448
0.000414448
0.000414448
0.000407048
0.000407048
0.000407048
0.000401139
0.000401139
0.000401139
0.000387869
0.000387869
0.000387869
0.000315085
0.000315085
0.000315085
0.000278231
0.000278231
0.000278231
0.000285943
0.000285943
0.000285943
0.000306667
0.000306667
0.000306667
0.000310076
0.000310076
0.000310076
0.000302191
0.000302191
0.000302191
0.000295564
0.000295564
0.000295564
0.000283728
0.000283728
0.000283728
0.000321904
0.000321904
0.000321904
0.000320506
0.000320506
0.000320506
0.000320243
0.000320243
0.000320243
0.000314527
0.000314527
0.000314527
0.000405452
0.000405452
0.000405452
0.000405754
0.000405754
0.000405754
0.000411561
0.000411561
0.000411561
0.000392263
0.000392263
0.000392263
0.000398317
0.000398317
0.000398317
0.00039661
0.00039661
0.00039661
0.000302111
0.000302111
0.000302111
0.000335484
0.000335484
0.000335484
0.000333907
0.000333907
0.000333907
0.00033763
0.00033763
0.00033763
0.000342995
0.000342995
0.000342995
0.000341412
0.000341412
0.000341412
0.000334407
0.000334407
0.000334407
0.00034685
0.00034685
0.00034685
0.000349135
0.000349135
0.000349135
0.00035074
0.00035074
0.00035074
0.000345249
0.000345249
0.000345249
0.000404589
0.000404589
0.000404589
0.000399401
0.000399401
0.000399401
0.000333296
0.000333296
0.000333296
0.000352675
0.000352675
0.000352675
0.000337365
0.000337365
0.000337365
0.000227002
0.000227002
0.000227002
0.000225911
0.000225911
0.000225911
0.000227567
0.000227567
0.000227567
0.000226713
0.000226713
0.000226713
0.000222507
0.000222507
0.000222507
0.000220519
0.000220519
0.000220519
0.000221472
0.000221472
0.000221472
0.000243465
0.000243465
0.000243465
0.000244416
0.000244416
0.000244416
0.000321132
0.000321132
0.000321132
0.000316499
0.000316499
0.000316499
0.000318018
0.000318018
0.000318018
0.000282814
0.000282814
0.000282814
0.000284122
0.000284122
0.000284122
0.000302821
0.000302821
0.000302821
0.000440031
0.000440031
0.000440031
0.000479828
0.000479828
0.000479828
0.000451693
0.000451693
0.000451693
0.000451123
0.000451123
0.000451123
0.000446877
0.000446877
0.000446877
0.000446308
0.000446308
0.000446308
0.000440372
0.000440372
0.000440372
0.000435077
0.000435077
0.000435077
0.000435675
0.000435675
0.000435675
0.000441546
0.000441546
0.000441546
0.000282247
0.000282247
0.000282247
0.000281004
0.000281004
0.000281004
0.000276303
0.000276303
0.000276303
0.00043045
0.00043045
0.00043045
0.000449959
0.000449959
0.000449959
0.000426604
0.000426604
0.000426604
0.000413563
0.000413563
0.000413563
0.00045274
0.00045274
0.00045274
0.00040561
0.00040561
0.00040561
0.000420073
0.000420073
0.000420073
0.000414695
0.000414695
0.000414695
0.000408448
0.000408448
0.000408448
0.000407526
0.000407526
0.000407526
0.000454811
0.000454811
0.000454811
0.000485039
0.000485039
0.000485039
0.000484567
0.000484567
0.000484567
0.000478361
0.000478361
0.000478361
0.000472703
0.000472703
0.000472703
0.000473217
0.000473217
0.000473217
0.000479355
0.000479355
0.000479355
0.000365936
0.000365936
0.000365936
0.000367041
0.000367041
0.000367041
0.000398812
0.000398812
0.000398812
0.000404049
0.000404049
0.000404049
0.000403124
0.000403124
0.000403124
0.000396917
0.000396917
0.000396917
0.000363112
0.000363112
0.000363112
0.000358153
0.000358153
0.000358153
0.000355879
0.000355879
0.000355879
0.000362001
0.000362001
0.000362001
0.000392672
0.000392672
0.000392672
0.000391701
0.000391701
0.000391701
0.000504646
0.000504646
0.000504646
0.000498051
0.000498051
0.000498051
0.000492046
0.000492046
0.000492046
0.000505163
0.000505163
0.000505163
0.000499129
0.000499129
0.000499129
0.000492608
0.000492608
0.000492608
0.000472372
0.000472372
0.000472372
0.000485492
0.000485492
0.000485492
0.000479563
0.000479563
0.000479563
0.000473048
0.000473048
0.000473048
0.000442957
0.000442957
0.000442957
0.000450113
0.000450113
0.000450113
0.000443749
0.000443749
0.000443749
0.000494208
0.000494208
0.000494208
0.000481953
0.000481953
0.000481953
0.00048833
0.00048833
0.00048833
0.00048139
0.00048139
0.00048139
0.000487248
0.000487248
0.000487248
0.000493697
0.000493697
0.000493697
0.000490231
0.000490231
0.000490231
0.000483568
0.000483568
0.000483568
0.000477595
0.000477595
0.000477595
0.000490845
0.000490845
0.000490845
0.000478263
0.000478263
0.000478263
0.000484851
0.000484851
0.000484851
0.000470975
0.000470975
0.000470975
0.000465105
0.000465105
0.000465105
0.000458526
0.000458526
0.000458526
0.000470254
0.000470254
0.000470254
0.000495658
0.000495658
0.000495658
0.000488922
0.000488922
0.000488922
0.000501803
0.000501803
0.000501803
0.000501182
0.000501182
0.000501182
0.00047545
0.00047545
0.00047545
0.000510716
0.000510716
0.000510716
0.000517351
0.000517351
0.000517351
0.000523566
0.000523566
0.000523566
0.000510211
0.000510211
0.000510211
0.000535275
0.000535275
0.000535275
0.000521644
0.000521644
0.000521644
0.00053482
0.00053482
0.00053482
0.000527956
0.000527956
0.000527956
0.000529379
0.000529379
0.000529379
0.000523125
0.000523125
0.000523125
0.000516415
0.000516415
0.000516415
0.000515874
0.000515874
0.000515874
0.000522127
0.000522127
0.000522127
0.000528912
0.000528912
0.000528912
0.000506755
0.000506755
0.000506755
0.00052054
0.00052054
0.00052054
0.000513055
0.000513055
0.000513055
0.000519986
0.000519986
0.000519986
0.000507375
0.000507375
0.000507375
0.000514229
0.000514229
0.000514229
0.000511142
0.000511142
0.000511142
0.000504811
0.000504811
0.000504811
0.000497813
0.000497813
0.000497813
0.000544373
0.000544373
0.000544373
0.000529959
0.000529959
0.000529959
0.000537721
0.000537721
0.000537721
0.000530562
0.000530562
0.000530562
0.000543821
0.000543821
0.000543821
0.000536585
0.000536585
0.000536585
0.000548372
0.000548372
0.000548372
0.000549
0.000549
0.000549
0.000540457
0.000540457
0.000540457
0.000540927
0.000540927
0.000540927
0.000534209
0.000534209
0.000534209
0.000536009
0.000536009
0.000536009
0.000534793
0.000534793
0.000534793
0.00054274
0.00054274
0.00054274
0.000542145
0.000542145
0.000542145
0.000531728
0.000531728
0.000531728
0.000545901
0.000545901
0.000545901
0.000545409
0.000545409
0.000545409
0.000538279
0.000538279
0.000538279
0.000539328
0.000539328
0.000539328
0.000532275
0.000532275
0.000532275
0.000387502
0.000387502
0.000387502
0.000382149
0.000382149
0.000382149
0.000407041
0.000407041
0.000407041
0.000394011
0.000394011
0.000394011
0.000443651
0.000443651
0.000443651
0.000427978
0.000427978
0.000427978
0.000419046
0.000419046
0.000419046
0.000420644
0.000420644
0.000420644
0.00031368
0.00031368
0.00031368
0.000321288
0.000321288
0.000321288
0.000354728
0.000354728
0.000354728
0.000359745
0.000359745
0.000359745
0.000276769
0.000276769
0.000276769
0.000289622
0.000289622
0.000289622
0.000279793
0.000279793
0.000279793
0.000273013
0.000273013
0.000273013
0.000274822
0.000274822
0.000274822
0.000273237
0.000273237
0.000273237
0.00030513
0.00030513
0.00030513
0.000311964
0.000311964
0.000311964
0.000312278
0.000312278
0.000312278
0.000314164
0.000314164
0.000314164
0.000306403
0.000306403
0.000306403
0.000304607
0.000304607
0.000304607
0.000305976
0.000305976
0.000305976
0.000304391
0.000304391
0.000304391
0.000296024
0.000296024
0.000296024
0.00029585
0.00029585
0.00029585
0.000296463
0.000296463
0.000296463
0.000296727
0.000296727
0.000296727
0.000295254
0.000295254
0.000295254
0.000289444
0.000289444
0.000289444
0.00030244
0.00030244
0.00030244
0.000302612
0.000302612
0.000302612
0.000294125
0.000294125
0.000294125
0.000292365
0.000292365
0.000292365
0.000288901
0.000288901
0.000288901
0.000282023
0.000282023
0.000282023
0.000321082
0.000321082
0.000321082
0.000320603
0.000320603
0.000320603
0.000308826
0.000308826
0.000308826
0.000310707
0.000310707
0.000310707
0.000382995
0.000382995
0.000382995
0.000389138
0.000389138
0.000389138
0.000316432
0.000316432
0.000316432
0.000314853
0.000314853
0.000314853
0.000338535
0.000338535
0.000338535
0.000338921
0.000338921
0.000338921
0.000329063
0.000329063
0.000329063
0.000330703
0.000330703
0.000330703
0.000341969
0.000341969
0.000341969
0.000327636
0.000327636
0.000327636
0.000398815
0.000398815
0.000398815
0.000394983
0.000394983
0.000394983
0.000373501
0.000373501
0.000373501
0.000374365
0.000374365
0.000374365
0.000368051
0.000368051
0.000368051
0.000224149
0.000224149
0.000224149
0.000225426
0.000225426
0.000225426
0.000222584
0.000222584
0.000222584
0.000223702
0.000223702
0.000223702
0.000224524
0.000224524
0.000224524
0.000222883
0.000222883
0.000222883
0.000224115
0.000224115
0.000224115
0.000225123
0.000225123
0.000225123
0.000227375
0.000227375
0.000227375
0.000229345
0.000229345
0.000229345
0.00022792
0.00022792
0.00022792
0.000225647
0.000225647
0.000225647
0.000225101
0.000225101
0.000225101
0.000225425
0.000225425
0.000225425
0.000223909
0.000223909
0.000223909
0.00023517
0.00023517
0.00023517
0.000266677
0.000266677
0.000266677
0.000237256
0.000237256
0.000237256
0.000264065
0.000264065
0.000264065
0.000261326
0.000261326
0.000261326
0.000262362
0.000262362
0.000262362
0.000260053
0.000260053
0.000260053
0.000261722
0.000261722
0.000261722
0.000250727
0.000250727
0.000250727
0.000256757
0.000256757
0.000256757
0.00027649
0.00027649
0.00027649
0.000266034
0.000266034
0.000266034
0.000267177
0.000267177
0.000267177
0.000240764
0.000240764
0.000240764
0.000240297
0.000240297
0.000240297
0.000241772
0.000241772
0.000241772
0.000242312
0.000242312
0.000242312
0.000243839
0.000243839
0.000243839
0.000244446
0.000244446
0.000244446
0.000245639
0.000245639
0.000245639
0.000243151
0.000243151
0.000243151
0.000244076
0.000244076
0.000244076
0.000258329
0.000258329
0.000258329
0.000259638
0.000259638
0.000259638
0.000266435
0.000266435
0.000266435
0.000262308
0.000262308
0.000262308
0.000260866
0.000260866
0.000260866
0.000259523
0.000259523
0.000259523
0.000284098
0.000284098
0.000284098
0.000274932
0.000274932
0.000274932
0.000261455
0.000261455
0.000261455
0.000259924
0.000259924
0.000259924
0.000319025
0.000319025
0.000319025
0.000319341
0.000319341
0.000319341
0.000317653
0.000317653
0.000317653
0.000315765
0.000315765
0.000315765
0.000321498
0.000321498
0.000321498
0.000320078
0.000320078
0.000320078
0.000322991
0.000322991
0.000322991
0.000322346
0.000322346
0.000322346
0.000320498
0.000320498
0.000320498
0.000284259
0.000284259
0.000284259
0.000287297
0.000287297
0.000287297
0.000285417
0.000285417
0.000285417
0.000285861
0.000285861
0.000285861
0.000289406
0.000289406
0.000289406
0.000288083
0.000288083
0.000288083
0.000286299
0.000286299
0.000286299
0.000287268
0.000287268
0.000287268
0.00029037
0.00029037
0.00029037
0.000288566
0.000288566
0.000288566
0.000290898
0.000290898
0.000290898
0.000300978
0.000300978
0.000300978
0.000297347
0.000297347
0.000297347
0.000297565
0.000297565
0.000297565
0.000295733
0.000295733
0.000295733
0.000303224
0.000303224
0.000303224
0.000324425
0.000324425
0.000324425
0.000326155
0.000326155
0.000326155
0.000325654
0.000325654
0.000325654
0.000316914
0.000316914
0.000316914
0.000318852
0.000318852
0.000318852
0.000321435
0.000321435
0.000321435
0.000321954
0.000321954
0.000321954
0.000319318
0.000319318
0.000319318
0.000317828
0.000317828
0.000317828
0.000368337
0.000368337
0.000368337
0.000364058
0.000364058
0.000364058
0.000358921
0.000358921
0.000358921
0.000358026
0.000358026
0.000358026
0.000343538
0.000343538
0.000343538
0.000348664
0.000348664
0.000348664
0.000352872
0.000352872
0.000352872
0.000318925
0.000318925
0.000318925
0.000398919
0.000398919
0.000398919
0.000393703
0.000393703
0.000393703
0.000378131
0.000378131
0.000378131
0.000383318
0.000383318
0.000383318
0.000456581
0.000456581
0.000456581
0.000456002
0.000456002
0.000456002
0.000461507
0.000461507
0.000461507
0.000467609
0.000467609
0.000467609
0.00046961
0.00046961
0.00046961
0.000457664
0.000457664
0.000457664
0.000445122
0.000445122
0.000445122
0.000433118
0.000433118
0.000433118
0.000433782
0.000433782
0.000433782
0.000439747
0.000439747
0.000439747
0.000312452
0.000312452
0.000312452
0.000315036
0.000315036
0.000315036
0.000298784
0.000298784
0.000298784
0.000291922
0.000291922
0.000291922
0.000286296
0.000286296
0.000286296
0.000281995
0.000281995
0.000281995
0.000293187
0.000293187
0.000293187
0.000283298
0.000283298
0.000283298
0.000288864
0.000288864
0.000288864
0.000296289
0.000296289
0.000296289
0.000284982
0.000284982
0.000284982
0.000282291
0.000282291
0.000282291
0.00023294
0.00023294
0.00023294
0.000276403
0.000276403
0.000276403
0.00023829
0.00023829
0.00023829
0.000346298
0.000346298
0.000346298
0.000316314
0.000316314
0.000316314
0.000311711
0.000311711
0.000311711
0.000316605
0.000316605
0.000316605
0.00032349
0.00032349
0.00032349
0.000322332
0.000322332
0.000322332
0.000285112
0.000285112
0.000285112
0.000328179
0.000328179
0.000328179
0.000316023
0.000316023
0.000316023
0.000311736
0.000311736
0.000311736
0.000306607
0.000306607
0.000306607
0.00030264
0.00030264
0.00030264
0.000299999
0.000299999
0.000299999
0.000313405
0.000313405
0.000313405
0.00030237
0.00030237
0.00030237
0.000436863
0.000436863
0.000436863
0.000431054
0.000431054
0.000431054
0.00035
0.00035
0.00035
0.000361542
0.000361542
0.000361542
0.000356746
0.000356746
0.000356746
0.000351003
0.000351003
0.000351003
0.000382053
0.000382053
0.000382053
0.000372315
0.000372315
0.000372315
0.00039971
0.00039971
0.00039971
0.000449466
0.000449466
0.000449466
0.000454777
0.000454777
0.000454777
0.000459657
0.000459657
0.000459657
0.000447958
0.000447958
0.000447958
0.000448504
0.000448504
0.000448504
0.000454319
0.000454319
0.000454319
0.000464601
0.000464601
0.000464601
0.000464127
0.000464127
0.000464127
0.000458186
0.000458186
0.000458186
0.000452783
0.000452783
0.000452783
0.000453297
0.000453297
0.000453297
0.000459173
0.000459173
0.000459173
0.000495213
0.000495213
0.000495213
0.000488868
0.000488868
0.000488868
0.000483062
0.000483062
0.000483062
0.000495674
0.000495674
0.000495674
0.000483575
0.000483575
0.000483575
0.00048985
0.00048985
0.00048985
0.000421983
0.000421983
0.000421983
0.000414552
0.000414552
0.000414552
0.00042104
0.00042104
0.00042104
0.000416478
0.000416478
0.000416478
0.000446202
0.000446202
0.000446202
0.000433134
0.000433134
0.000433134
0.000438797
0.000438797
0.000438797
0.000445367
0.000445367
0.000445367
0.000428441
0.000428441
0.000428441
0.000434027
0.000434027
0.000434027
0.000440525
0.000440525
0.000440525
0.000441364
0.000441364
0.000441364
0.000438938
0.000438938
0.000438938
0.000426359
0.000426359
0.000426359
0.000438172
0.000438172
0.000438172
0.000431848
0.000431848
0.000431848
0.000450822
0.000450822
0.000450822
0.000445232
0.000445232
0.000445232
0.000410228
0.000410228
0.000410228
0.000415558
0.000415558
0.000415558
0.000411956
0.000411956
0.000411956
0.000417402
0.000417402
0.000417402
0.000419198
0.000419198
0.000419198
0.000412882
0.000412882
0.000412882
0.000427124
0.000427124
0.000427124
0.000426412
0.000426412
0.000426412
0.000429548
0.000429548
0.000429548
0.000449315
0.000449315
0.000449315
0.000449935
0.000449935
0.000449935
0.000438474
0.000438474
0.000438474
0.000444504
0.000444504
0.000444504
0.00040907
0.00040907
0.00040907
0.000410061
0.000410061
0.000410061
0.00040463
0.00040463
0.00040463
0.000398254
0.000398254
0.000398254
0.000397236
0.000397236
0.000397236
0.000402621
0.000402621
0.000402621
0.00040159
0.00040159
0.00040159
0.000395111
0.000395111
0.000395111
0.000400275
0.000400275
0.000400275
0.000401249
0.000401249
0.000401249
0.000395948
0.000395948
0.000395948
0.000389711
0.000389711
0.000389711
0.000371022
0.000371022
0.000371022
0.000377251
0.000377251
0.000377251
0.000387511
0.000387511
0.000387511
0.000377319
0.000377319
0.000377319
0.000373202
0.000373202
0.000373202
0.000385532
0.000385532
0.000385532
0.000378318
0.000378318
0.000378318
0.000384518
0.000384518
0.000384518
0.000362403
0.000362403
0.000362403
0.000319704
0.000319704
0.000319704
0.000318427
0.000318427
0.000318427
0.000352096
0.000352096
0.000352096
0.000350935
0.000350935
0.000350935
0.000448594
0.000448594
0.000448594
0.000447831
0.000447831
0.000447831
0.000460037
0.000460037
0.000460037
0.000453529
0.000453529
0.000453529
0.000462174
0.000462174
0.000462174
0.000455771
0.000455771
0.000455771
0.000467922
0.000467922
0.000467922
0.000455028
0.000455028
0.000455028
0.000467239
0.000467239
0.000467239
0.000460765
0.000460765
0.000460765
0.000473943
0.000473943
0.000473943
0.000488228
0.000488228
0.000488228
0.000481459
0.000481459
0.000481459
0.00049437
0.00049437
0.00049437
0.000480745
0.000480745
0.000480745