<VTKFile type="UnstructuredGrid" version="1.0">
<UnstructuredGrid>
<Piece NumberOfPoints="8859" NumberOfCells="2953">
<Points>
<DataArray type="Float64" NumberOfComponents="3" format="ascii">
0.5 3.01 1.995
0.512524 3.01 2.0175
0.487476 3.01 2.0175
0.17352 3.01 1.1175
0.160827 3.01 1.13922
0.148445 3.01 1.1175
0.122979 3.01 1.16089
0.110383 3.01 1.13921
0.135644 3.01 1.13922
0.135644 3.01 1.13922
0.110383 3.01 1.13921
0.123433 3.01 1.1175
0.123433 3.01 1.1175
0.148445 3.01 1.1175
0.135644 3.01 1.13922
0.135644 3.01 1.13922
0.148445 3.01 1.1175
0.160827 3.01 1.13922
0.17352 3.01 1.1175
0.198629 3.01 1.1175
0.185985 3.01 1.1392
0.185985 3.01 1.1392
0.160827 3.01 1.13922
0.17352 3.01 1.1175
0.0732297 3.01 1.16067
0.0586606 3.01 1.13881
0.0848754 3.01 1.13914
0.05 3.01 1.95027
0.05 3.01 1.9051
0.058509 3.01 1.92756
0.324276 3.01 1.1175
0.349395 3.01 1.1175
0.336827 3.01 1.13916
0.148138 3.01 1.1609
0.135644 3.01 1.13922
0.160827 3.01 1.13922
0.122979 3.01 1.16089
0.135644 3.01 1.13922
0.148138 3.01 1.1609
0.160827 3.01 1.13922
0.185985 3.01 1.1392
0.173316 3.01 1.16089
0.185806 3.01 1.18255
0.160572 3.01 1.18255
0.173316 3.01 1.16089
0.173316 3.01 1.16089
0.148138 3.01 1.1609
0.160827 3.01 1.13922
0.160572 3.01 1.18255
0.148138 3.01 1.1609
0.173316 3.01 1.16089
0.211137 3.01 1.13919
0.185985 3.01 1.1392
0.198629 3.01 1.1175
0.0979162 3.01 1.16084
0.110383 3.01 1.13921
0.122979 3.01 1.16089
0.122979 3.01 1.16089
0.109875 3.01 1.18249
0.0979162 3.01 1.16084
0.0732297 3.01 1.16067
0.0848754 3.01 1.13914
0.0979162 3.01 1.16084
0.0979162 3.01 1.16084
0.0848754 3.01 1.13914
0.110383 3.01 1.13921
0.0975729 3.01 1.20404
0.109875 3.01 1.18249
0.122678 3.01 1.20414
0.0841718 3.01 1.18235
0.0577122 3.01 1.18202
0.0732297 3.01 1.16067
0.0729308 3.01 1.20388
0.0577122 3.01 1.18202
0.0841718 3.01 1.18235
0.0732297 3.01 1.16067
0.0979162 3.01 1.16084
0.0841718 3.01 1.18235
0.0841718 3.01 1.18235
0.0979162 3.01 1.16084
0.109875 3.01 1.18249
0.0975729 3.01 1.20404
0.0729308 3.01 1.20388
0.0841718 3.01 1.18235
0.0841718 3.01 1.18235
0.109875 3.01 1.18249
0.0975729 3.01 1.20404
0.073948 3.01 1.1175
0.0586606 3.01 1.13881
0.05 3.01 1.1175
0.073948 3.01 1.1175
0.0848754 3.01 1.13914
0.0586606 3.01 1.13881
0.05 3.01 1.99329
0.05 3.01 1.95027
0.0603641 3.01 1.97197
0.0603641 3.01 1.97197
0.0753197 3.01 1.99399
0.05 3.01 1.99329
0.0709395 3.01 2.0175
0.05 3.01 2.0175
0.05 3.01 1.99329
0.05 3.01 1.99329
0.0753197 3.01 1.99399
0.0709395 3.01 2.0175
0.0579641 3.01 1.70463
0.05 3.01 1.72669
0.05 3.01 1.68261
0.0841948 3.01 1.6168
0.097638 3.01 1.59493
0.109814 3.01 1.6168
0.0841948 3.01 1.6168
0.0730539 3.01 1.6387
0.0578646 3.01 1.6168
0.0580261 3.01 1.7488
0.05 3.01 1.77095
0.05 3.01 1.72669
0.942292 3.01 1.31236
0.95 3.01 1.29067
0.95 3.01 1.33404
0.95 3.01 1.24726
0.95 3.01 1.29067
0.942332 3.01 1.26897
0.73872 3.01 1.52953
0.726137 3.01 1.50776
0.75132 3.01 1.50775
0.751305 3.01 1.55132
0.726124 3.01 1.55133
0.73872 3.01 1.52953
0.713546 3.01 1.52954
0.726137 3.01 1.50776
0.73872 3.01 1.52953
0.73872 3.01 1.52953
0.726124 3.01 1.55133
0.713546 3.01 1.52954
0.814318 3.01 1.57311
0.789096 3.01 1.57312
0.801709 3.01 1.5513
0.7765 3.01 1.55131
0.789115 3.01 1.52951
0.801709 3.01 1.5513
0.801709 3.01 1.5513
0.789096 3.01 1.57312
0.7765 3.01 1.55131
0.7765 3.01 1.55131
0.789096 3.01 1.57312
0.763892 3.01 1.57314
0.763892 3.01 1.57314
0.751305 3.01 1.55132
0.7765 3.01 1.55131
0.95 3.01 2.0175
0.929061 3.01 2.0175
0.95 3.01 1.99329
0.95 3.01 1.8154
0.926844 3.01 1.8154
0.941913 3.01 1.79315
0.941913 3.01 1.79315
0.95 3.01 1.77095
0.95 3.01 1.8154
0.926866 3.01 1.77094
0.95 3.01 1.77095
0.941913 3.01 1.79315
0.941974 3.01 1.7488
0.95 3.01 1.77095
0.926866 3.01 1.77094
0.95 3.01 1.72669
0.95 3.01 1.77095
0.941974 3.01 1.7488
0.941974 3.01 1.7488
0.926895 3.01 1.72669
0.95 3.01 1.72669
0.6127 3.01 2.0175
0.625238 3.01 1.99498
0.637734 3.01 2.0175
0.662757 3.01 2.0175
0.637734 3.01 2.0175
0.650275 3.01 1.99497
0.650275 3.01 1.99497
0.637734 3.01 2.0175
0.625238 3.01 1.99498
0.600415 3.01 1.55137
0.587856 3.01 1.5732
0.575304 3.01 1.55137
0.575304 3.01 1.55137
0.587856 3.01 1.5732
0.562749 3.01 1.5732
0.336827 3.01 1.13916
0.349395 3.01 1.1175
0.361946 3.01 1.13916
0.223755 3.01 1.1175
0.211137 3.01 1.13919
0.198629 3.01 1.1175
0.185985 3.01 1.1392
0.211137 3.01 1.13919
0.198492 3.01 1.16088
0.185806 3.01 1.18255
0.173316 3.01 1.16089
0.198492 3.01 1.16088
0.198492 3.01 1.16088
0.173316 3.01 1.16089
0.185985 3.01 1.1392
0.0576202 3.01 1.22553
0.05 3.01 1.24726
0.05 3.01 1.20374
0.05 3.01 1.20374
0.0729308 3.01 1.20388
0.0576202 3.01 1.22553
0.05 3.01 1.20374
0.0577122 3.01 1.18202
0.0729308 3.01 1.20388
0.135283 3.01 1.18254
0.109875 3.01 1.18249
0.122979 3.01 1.16089
0.135283 3.01 1.18254
0.122678 3.01 1.20414
0.109875 3.01 1.18249
0.122979 3.01 1.16089
0.148138 3.01 1.1609
0.135283 3.01 1.18254
0.135283 3.01 1.18254
0.148138 3.01 1.1609
0.160572 3.01 1.18255
0.123433 3.01 1.1175
0.110383 3.01 1.13921
0.0985513 3.01 1.1175
0.110383 3.01 1.13921
0.0848754 3.01 1.13914
0.0985513 3.01 1.1175
0.0848754 3.01 1.13914
0.073948 3.01 1.1175
0.0985513 3.01 1.1175
0.0603641 3.01 1.97197
0.05 3.01 1.95027
0.0739464 3.01 1.94949
0.0739464 3.01 1.94949
0.05 3.01 1.95027
0.058509 3.01 1.92756
0.058509 3.01 1.92756
0.0849548 3.01 1.92711
0.0739464 3.01 1.94949
0.058509 3.01 1.92756
0.05 3.01 1.9051
0.0732725 3.01 1.90488
0.0732725 3.01 1.90488
0.0849548 3.01 1.92711
0.058509 3.01 1.92756
0.5 3.01 1.995
0.487476 3.01 2.0175
0.47495 3.01 1.995
0.097663 3.01 1.6387
0.0841948 3.01 1.6168
0.109814 3.01 1.6168
0.0730539 3.01 1.6387
0.0841948 3.01 1.6168
0.097663 3.01 1.6387
0.0578646 3.01 1.6168
0.0730539 3.01 1.6387
0.05 3.01 1.6387
0.05 3.01 1.6387
0.05 3.01 1.59492
0.0578646 3.01 1.6168
0.05 3.01 1.8154
0.05 3.01 1.77095
0.0580869 3.01 1.79315
0.05 3.01 1.77095
0.0580261 3.01 1.7488
0.073134 3.01 1.77094
0.073134 3.01 1.77094
0.0580869 3.01 1.79315
0.05 3.01 1.77095
0.942268 3.01 1.35573
0.95 3.01 1.33404
0.95 3.01 1.37741
0.942292 3.01 1.31236
0.95 3.01 1.33404
0.927025 3.01 1.33404
0.927025 3.01 1.33404
0.942268 3.01 1.35573
0.915919 3.01 1.35572
0.95 3.01 1.33404
0.942268 3.01 1.35573
0.927025 3.01 1.33404
0.927013 3.01 1.37741
0.942268 3.01 1.35573
0.95 3.01 1.37741
0.915919 3.01 1.35572
0.942268 3.01 1.35573
0.927013 3.01 1.37741
0.801738 3.01 1.46425
0.814364 3.01 1.44253
0.826957 3.01 1.46425
0.852174 3.01 1.46424
0.826957 3.01 1.46425
0.839609 3.01 1.44252
0.839609 3.01 1.44252
0.826957 3.01 1.46425
0.814364 3.01 1.44253
0.776516 3.01 1.50775
0.75132 3.01 1.50775
0.763923 3.01 1.486
0.776516 3.01 1.50775
0.801725 3.01 1.50774
0.789115 3.01 1.52951
0.738704 3.01 1.57315
0.751305 3.01 1.55132
0.763892 3.01 1.57314
0.726124 3.01 1.55133
0.751305 3.01 1.55132
0.738704 3.01 1.57315
0.915617 3.01 1.79314
0.902228 3.01 1.77094
0.926866 3.01 1.77094
0.926866 3.01 1.77094
0.941913 3.01 1.79315
0.915617 3.01 1.79314
0.915617 3.01 1.79314
0.941913 3.01 1.79315
0.926844 3.01 1.8154
0.915617 3.01 1.79314
0.926844 3.01 1.8154
0.902193 3.01 1.81538
0.926866 3.01 1.77094
0.902228 3.01 1.77094
0.915668 3.01 1.74879
0.902267 3.01 1.72668
0.926895 3.01 1.72669
0.915668 3.01 1.74879
0.915668 3.01 1.74879
0.941974 3.01 1.7488
0.926866 3.01 1.77094
0.926895 3.01 1.72669
0.941974 3.01 1.7488
0.915668 3.01 1.74879
0.902267 3.01 1.72668
0.915668 3.01 1.74879
0.890059 3.01 1.74879
0.890059 3.01 1.74879
0.915668 3.01 1.74879
0.902228 3.01 1.77094
0.826927 3.01 1.55129
0.814318 3.01 1.57311
0.801709 3.01 1.5513
0.864816 3.01 1.6168
0.877308 3.01 1.59493
0.890186 3.01 1.6168
0.877308 3.01 1.59493
0.864816 3.01 1.6168
0.852122 3.01 1.59494
0.890186 3.01 1.6168
0.877308 3.01 1.59493
0.902362 3.01 1.59493
0.902362 3.01 1.59493
0.915805 3.01 1.6168
0.890186 3.01 1.6168
0.902362 3.01 1.59493
0.926964 3.01 1.59492
0.915805 3.01 1.6168
0.915835 3.01 1.57309
0.926964 3.01 1.59492
0.902362 3.01 1.59493
0.942171 3.01 1.57309
0.926964 3.01 1.59492
0.915835 3.01 1.57309
0.915835 3.01 1.57309
0.926978 3.01 1.55127
0.942171 3.01 1.57309
0.942171 3.01 1.57309
0.926978 3.01 1.55127
0.95 3.01 1.55127
0.87737 3.01 1.42081
0.890277 3.01 1.39911
0.902417 3.01 1.4208
0.852144 3.01 1.55128
0.877329 3.01 1.55128
0.864842 3.01 1.57309
0.877308 3.01 1.59493
0.852122 3.01 1.59494
0.864842 3.01 1.57309
0.902396 3.01 1.50772
0.915858 3.01 1.52948
0.890234 3.01 1.52949
0.926997 3.01 1.46423
0.942237 3.01 1.44251
0.95 3.01 1.46423
0.91589 3.01 1.44251
0.942237 3.01 1.44251
0.926997 3.01 1.46423
0.942199 3.01 1.52948
0.95 3.01 1.50771
0.95 3.01 1.55127
0.95 3.01 1.55127
0.926978 3.01 1.55127
0.942199 3.01 1.52948
0.942199 3.01 1.52948
0.926978 3.01 1.55127
0.915858 3.01 1.52948
0.95 3.01 1.46423
0.95 3.01 1.50771
0.942221 3.01 1.48597
0.942221 3.01 1.48597
0.926997 3.01 1.46423
0.95 3.01 1.46423
0.915876 3.01 1.48597
0.926997 3.01 1.46423
0.942221 3.01 1.48597
0.926989 3.01 1.50771
0.915858 3.01 1.52948
0.902396 3.01 1.50772
0.902396 3.01 1.50772
0.915876 3.01 1.48597
0.926989 3.01 1.50771
0.926989 3.01 1.50771
0.942199 3.01 1.52948
0.915858 3.01 1.52948
0.95 3.01 1.50771
0.942199 3.01 1.52948
0.926989 3.01 1.50771
0.915876 3.01 1.48597
0.942221 3.01 1.48597
0.926989 3.01 1.50771
0.926989 3.01 1.50771
0.942221 3.01 1.48597
0.95 3.01 1.50771
0.91353 3.01 1.97185
0.926054 3.01 1.94949
0.939636 3.01 1.97197
0.926728 3.01 1.90488
0.95 3.01 1.9051
0.941491 3.01 1.92756
0.926728 3.01 1.90488
0.941822 3.01 1.88254
0.95 3.01 1.9051
0.95 3.01 1.95027
0.95 3.01 1.99329
0.939636 3.01 1.97197
0.95 3.01 1.95027
0.926054 3.01 1.94949
0.941491 3.01 1.92756
0.939636 3.01 1.97197
0.926054 3.01 1.94949
0.95 3.01 1.95027
0.941491 3.01 1.92756
0.95 3.01 1.9051
0.95 3.01 1.95027
0.941869 3.01 1.83772
0.926844 3.01 1.8154
0.95 3.01 1.8154
0.762942 3.01 1.97228
0.75028 3.01 1.99489
0.737933 3.01 1.97234
0.71291 3.01 1.97239
0.725533 3.01 1.94985
0.737933 3.01 1.97234
0.71291 3.01 1.97239
0.737933 3.01 1.97234
0.725313 3.01 1.99492
0.725313 3.01 1.99492
0.737933 3.01 1.97234
0.75028 3.01 1.99489
0.737693 3.01 2.0175
0.712746 3.01 2.0175
[...]
<PointData Scalars="View Factor" >
<DataArray type="Float64" Name="View Factor" NumberOfComponents="1" format="ascii">
0.000102213
0.000102213
0.000102213
7.97934e-05
7.97934e-05
7.97934e-05
8.02772e-05
8.02772e-05
8.02772e-05
7.99596e-05
7.99596e-05
7.99596e-05
7.97989e-05
7.97989e-05
7.97989e-05
7.99546e-05
7.99546e-05
7.99546e-05
7.9787e-05
7.9787e-05
7.9787e-05
7.99486e-05
7.99486e-05
7.99486e-05
8.02793e-05
8.02793e-05
8.02793e-05
0.000100052
0.000100052
0.000100052
7.97291e-05
7.97291e-05
7.97291e-05
8.02722e-05
8.02722e-05
8.02722e-05
8.04341e-05
8.04341e-05
8.04341e-05
8.02661e-05
8.02661e-05
8.02661e-05
8.0905e-05
8.0905e-05
8.0905e-05
8.04285e-05
8.04285e-05
8.04285e-05
8.0748e-05
8.0748e-05
8.0748e-05
7.99415e-05
7.99415e-05
7.99415e-05
8.04382e-05
8.04382e-05
8.04382e-05
8.07572e-05
8.07572e-05
8.07572e-05
8.04396e-05
8.04396e-05
8.04396e-05
8.02803e-05
8.02803e-05
8.02803e-05
8.13993e-05
8.13993e-05
8.13993e-05
8.09165e-05
8.09165e-05
8.09165e-05
8.12374e-05
8.12374e-05
8.12374e-05
8.07582e-05
8.07582e-05
8.07582e-05
8.0918e-05
8.0918e-05
8.0918e-05
8.14e-05
8.14e-05
8.14e-05
8.12389e-05
8.12389e-05
8.12389e-05
7.98067e-05
7.98067e-05
7.98067e-05
7.99633e-05
7.99633e-05
7.99633e-05
0.000101343
0.000101343
0.000101343
0.000101773
0.000101773
0.000101773
0.000102457
0.000102457
0.000102457
0.000102222
0.000102222
0.000102222
9.38435e-05
9.38435e-05
9.38435e-05
9.13353e-05
9.13353e-05
9.13353e-05
9.17174e-05
9.17174e-05
9.17174e-05
9.50342e-05
9.50342e-05
9.50342e-05
8.33423e-05
8.33423e-05
8.33423e-05
8.2351e-05
8.2351e-05
8.2351e-05
8.84736e-05
8.84736e-05
8.84736e-05
8.91982e-05
8.91982e-05
8.91982e-05
8.86699e-05
8.86699e-05
8.86699e-05
8.90323e-05
8.90323e-05
8.90323e-05
8.96621e-05
8.96621e-05
8.96621e-05
8.91314e-05
8.91314e-05
8.91314e-05
8.94964e-05
8.94964e-05
8.94964e-05
8.9697e-05
8.9697e-05
8.9697e-05
8.95306e-05
8.95306e-05
8.95306e-05
0.000101524
0.000101524
0.000101524
9.58094e-05
9.58094e-05
9.58094e-05
9.53907e-05
9.53907e-05
9.53907e-05
9.50018e-05
9.50018e-05
9.50018e-05
9.46021e-05
9.46021e-05
9.46021e-05
9.41919e-05
9.41919e-05
9.41919e-05
9.38108e-05
9.38108e-05
9.38108e-05
0.000102064
0.000102064
0.000102064
0.000102031
0.000102031
0.000102031
0.000101825
0.000101825
0.000101825
8.97387e-05
8.97387e-05
8.97387e-05
8.99356e-05
8.99356e-05
8.99356e-05
7.98805e-05
7.98805e-05
7.98805e-05
7.97796e-05
7.97796e-05
7.97796e-05
8.02589e-05
8.02589e-05
8.02589e-05
8.07413e-05
8.07413e-05
8.07413e-05
8.04218e-05
8.04218e-05
8.04218e-05
8.20505e-05
8.20505e-05
8.20505e-05
8.17236e-05
8.17236e-05
8.17236e-05
8.1398e-05
8.1398e-05
8.1398e-05
8.09156e-05
8.09156e-05
8.09156e-05
8.12368e-05
8.12368e-05
8.12368e-05
8.07534e-05
8.07534e-05
8.07534e-05
8.09111e-05
8.09111e-05
8.09111e-05
7.98034e-05
7.98034e-05
7.98034e-05
7.99631e-05
7.99631e-05
7.99631e-05
7.98064e-05
7.98064e-05
7.98064e-05
0.000100914
0.000100914
0.000100914
0.000100481
0.000100481
0.000100481
0.000100255
0.000100255
0.000100255
9.96143e-05
9.96143e-05
9.96143e-05
9.98244e-05
9.98244e-05
9.98244e-05
0.000102003
0.000102003
0.000102003
9.17136e-05
9.17136e-05
9.17136e-05
9.19056e-05
9.19056e-05
9.19056e-05
9.19088e-05
9.19088e-05
9.19088e-05
9.15303e-05
9.15303e-05
9.15303e-05
9.6249e-05
9.6249e-05
9.6249e-05
9.54352e-05
9.54352e-05
9.54352e-05
9.58401e-05
9.58401e-05
9.58401e-05
8.43481e-05
8.43481e-05
8.43481e-05
8.36872e-05
8.36872e-05
8.36872e-05
8.42076e-05
8.42076e-05
8.42076e-05
8.40225e-05
8.40225e-05
8.40225e-05
8.46982e-05
8.46982e-05
8.46982e-05
8.45455e-05
8.45455e-05
8.45455e-05
8.69509e-05
8.69509e-05
8.69509e-05
8.69161e-05
8.69161e-05
8.69161e-05
8.67581e-05
8.67581e-05
8.67581e-05
8.80822e-05
8.80822e-05
8.80822e-05
8.84077e-05
8.84077e-05
8.84077e-05
8.97307e-05
8.97307e-05
8.97307e-05
8.95637e-05
8.95637e-05
8.95637e-05
9.5045e-05
9.5045e-05
9.5045e-05
9.52229e-05
9.52229e-05
9.52229e-05
9.56268e-05
9.56268e-05
9.56268e-05
9.5853e-05
9.5853e-05
9.5853e-05
9.46451e-05
9.46451e-05
9.46451e-05
9.38532e-05
9.38532e-05
9.38532e-05
9.44233e-05
9.44233e-05
9.44233e-05
9.40275e-05
9.40275e-05
9.40275e-05
9.4071e-05
9.4071e-05
9.4071e-05
9.44671e-05
9.44671e-05
9.44671e-05
8.94611e-05
8.94611e-05
8.94611e-05
9.06598e-05
9.06598e-05
9.06598e-05
9.04932e-05
9.04932e-05
9.04932e-05
9.0454e-05
9.0454e-05
9.0454e-05
9.06198e-05
9.06198e-05
9.06198e-05
9.04141e-05
9.04141e-05
9.04141e-05
9.00437e-05
9.00437e-05
9.00437e-05
8.98381e-05
8.98381e-05
8.98381e-05
8.94712e-05
8.94712e-05
8.94712e-05
8.92701e-05
8.92701e-05
8.92701e-05
8.5799e-05
8.5799e-05
8.5799e-05
8.93873e-05
8.93873e-05
8.93873e-05
9.01223e-05
9.01223e-05
9.01223e-05
8.8423e-05
8.8423e-05
8.8423e-05
8.67681e-05
8.67681e-05
8.67681e-05
8.66106e-05
8.66106e-05
8.66106e-05
8.85328e-05
8.85328e-05
8.85328e-05
8.89065e-05
8.89065e-05
8.89065e-05
8.87438e-05
8.87438e-05
8.87438e-05
8.74609e-05
8.74609e-05
8.74609e-05
8.71195e-05
8.71195e-05
8.71195e-05
8.73138e-05
8.73138e-05
8.73138e-05
8.82245e-05
8.82245e-05
8.82245e-05
8.78669e-05
8.78669e-05
8.78669e-05
8.83832e-05
8.83832e-05
8.83832e-05
8.81857e-05
8.81857e-05
8.81857e-05
8.76682e-05
8.76682e-05
8.76682e-05
8.78283e-05
8.78283e-05
8.78283e-05
0.000100242
0.000100242
0.000100242
9.8727e-05
9.8727e-05
9.8727e-05
9.83012e-05
9.83012e-05
9.83012e-05
0.000100419
0.000100419
0.000100419
9.95831e-05
9.95831e-05
9.95831e-05
0.000100011
0.000100011
0.000100011
9.91437e-05
9.91437e-05
9.91437e-05
9.62174e-05
9.62174e-05
9.62174e-05
0.000100995
0.000100995
0.000100995
0.000100596
0.000100596
0.000100596
0.000101035
0.000101035
0.000101035
0.000101236
0.000101236
0.000101236
0.000101921
0.000101921
0.000101921
0.000101679
0.000101679
0.000101679
0.000101883
0.000101883
0.000101883
9.91731e-05
9.91731e-05
9.91731e-05
9.97267e-05
9.97267e-05
9.97267e-05
0.000100397
0.000100397
0.000100397
9.99622e-05
9.99622e-05
9.99622e-05
0.00010047
0.00010047
0.00010047
0.000100035
0.000100035
0.000100035
0.000101415
0.000101415
0.000101415
0.000101858
0.000101858
0.000101858
0.000102097
0.000102097
0.000102097
8.93134e-05
8.93134e-05
8.93134e-05
8.99098e-05
8.99098e-05
8.99098e-05
9.10776e-05
9.10776e-05
9.10776e-05
9.14292e-05
9.14292e-05
9.14292e-05
9.10524e-05
9.10524e-05
9.10524e-05
9.08776e-05
9.08776e-05
9.08776e-05
9.03056e-05
9.03056e-05
9.03056e-05
9.05041e-05
9.05041e-05
9.05041e-05
9.14546e-05
9.14546e-05
9.14546e-05
9.16314e-05
9.16314e-05
9.16314e-05
9.37673e-05
9.37673e-05
9.37673e-05
9.09399e-05
9.09399e-05
9.09399e-05
9.07677e-05
9.07677e-05
9.07677e-05
9.00302e-05
9.00302e-05
9.00302e-05
9.07732e-05
9.07732e-05
9.07732e-05
7.9752e-05
7.9752e-05
7.9752e-05
7.97621e-05
7.97621e-05
7.97621e-05
7.99151e-05
7.99151e-05
7.99151e-05
8.0232e-05
8.0232e-05
8.0232e-05
7.9611e-05
7.9611e-05
7.9611e-05
8.73374e-05
8.73374e-05
8.73374e-05
8.80489e-05
8.80489e-05
8.80489e-05
8.75312e-05
8.75312e-05
8.75312e-05
8.7887e-05
8.7887e-05
8.7887e-05
8.79197e-05
8.79197e-05
8.79197e-05
8.81145e-05
8.81145e-05
8.81145e-05
8.03858e-05
8.03858e-05
8.03858e-05
7.97163e-05
7.97163e-05
7.97163e-05
7.95151e-05
7.95151e-05
7.95151e-05
8.48116e-05
8.48116e-05
8.48116e-05
8.4648e-05
8.4648e-05
8.4648e-05
8.10729e-05
8.10729e-05
8.10729e-05
8.01185e-05
8.01185e-05
8.01185e-05
8.04346e-05
8.04346e-05
8.04346e-05
8.07532e-05
8.07532e-05
8.07532e-05
0.000100465
0.000100465
0.000100465
0.000102239
0.000102239
0.000102239
9.42367e-05
9.42367e-05
9.42367e-05
9.46335e-05
9.46335e-05
9.46335e-05
9.22873e-05
9.22873e-05
9.22873e-05
8.23532e-05
8.23532e-05
8.23532e-05
9.42286e-05
9.42286e-05
9.42286e-05
9.46254e-05
9.46254e-05
9.46254e-05
9.11448e-05
9.11448e-05
9.11448e-05
9.13305e-05
9.13305e-05
9.13305e-05
9.07742e-05
9.07742e-05
9.07742e-05
9.1149e-05
9.1149e-05
9.1149e-05
9.11522e-05
9.11522e-05
9.11522e-05
9.13392e-05
9.13392e-05
9.13392e-05
9.04057e-05
9.04057e-05
9.04057e-05
9.07774e-05
9.07774e-05
9.07774e-05
9.05895e-05
9.05895e-05
9.05895e-05
9.02181e-05
9.02181e-05
9.02181e-05
9.00344e-05
9.00344e-05
9.00344e-05
8.9023e-05
8.9023e-05
8.9023e-05
8.88226e-05
8.88226e-05
8.88226e-05
8.47347e-05
8.47347e-05
8.47347e-05
8.73035e-05
8.73035e-05
8.73035e-05
8.74977e-05
8.74977e-05
8.74977e-05
8.78533e-05
8.78533e-05
8.78533e-05
8.67229e-05
8.67229e-05
8.67229e-05
8.68803e-05
8.68803e-05
8.68803e-05
8.56446e-05
8.56446e-05
8.56446e-05
8.35367e-05
8.35367e-05
8.35367e-05
8.49696e-05
8.49696e-05
8.49696e-05
8.84412e-05
8.84412e-05
8.84412e-05
8.91653e-05
8.91653e-05
8.91653e-05
8.89667e-05
8.89667e-05
8.89667e-05
8.86048e-05
8.86048e-05
8.86048e-05
8.86379e-05
8.86379e-05
8.86379e-05
8.9e-05
8.9e-05
8.9e-05
9.00994e-05
9.00994e-05
9.00994e-05
9.03011e-05
9.03011e-05
9.03011e-05
8.97634e-05
8.97634e-05
8.97634e-05
9.01322e-05
9.01322e-05
9.01322e-05
9.12847e-05
9.12847e-05
9.12847e-05
9.14573e-05
9.14573e-05
9.14573e-05
9.0395e-05
9.0395e-05
9.0395e-05
9.09936e-05
9.09936e-05
9.09936e-05
9.38954e-05
9.38954e-05
9.38954e-05
9.35443e-05
9.35443e-05
9.35443e-05
9.35031e-05
9.35031e-05
9.35031e-05
9.33285e-05
9.33285e-05
9.33285e-05
0.000100318
0.000100318
0.000100318
0.000100556
0.000100556
0.000100556
0.000100358
0.000100358
0.000100358
9.99234e-05
9.99234e-05
9.99234e-05
9.79832e-05
9.79832e-05
9.79832e-05
9.91302e-05
9.91302e-05
9.91302e-05
9.95594e-05
9.95594e-05
9.95594e-05
9.72133e-05
9.72133e-05
9.72133e-05
9.76719e-05
9.76719e-05
9.76719e-05
9.69849e-05
9.69849e-05
9.69849e-05
8.80145e-05
8.80145e-05
8.80145e-05
8.96261e-05
8.96261e-05
8.96261e-05
8.94247e-05
8.94247e-05
8.94247e-05
8.95891e-05
8.95891e-05
8.95891e-05
8.99567e-05
8.99567e-05
8.99567e-05
9.1073e-05
9.1073e-05
9.1073e-05
9.06986e-05
9.06986e-05
9.06986e-05
8.93096e-05
8.93096e-05
8.93096e-05
8.89848e-05
8.89848e-05
8.89848e-05
8.89458e-05
8.89458e-05
8.89458e-05
8.87838e-05
8.87838e-05
8.87838e-05
9.00037e-05
9.00037e-05
9.00037e-05
8.96234e-05
8.96234e-05
8.96234e-05
8.77076e-05
8.77076e-05
8.77076e-05
8.72324e-05
8.72324e-05
8.72324e-05
8.73907e-05
8.73907e-05
8.73907e-05
8.63002e-05
8.63002e-05
8.63002e-05
8.66866e-05
8.66866e-05
8.66866e-05
8.61453e-05
8.61453e-05
8.61453e-05
8.63374e-05
8.63374e-05
8.63374e-05
8.56079e-05
8.56079e-05
8.56079e-05
8.52644e-05
8.52644e-05
8.52644e-05
8.50754e-05
8.50754e-05
8.50754e-05
0.000100821
0.000100821
0.000100821
0.000100427
0.000100427
0.000100427
0.000100859
0.000100859
0.000100859
0.000100674
0.000100674
0.000100674
0.000101311
0.000101311
0.000101311
0.000100049
0.000100049
0.000100049
9.87649e-05
9.87649e-05
9.87649e-05
9.96176e-05
9.96176e-05
9.96176e-05
9.93834e-05
9.93834e-05
9.93834e-05
9.89578e-05
9.89578e-05
9.89578e-05
9.82807e-05
9.82807e-05
9.82807e-05
9.76296e-05
9.76296e-05
9.76296e-05
9.78601e-05
9.78601e-05
9.78601e-05
9.78173e-05
9.78173e-05
9.78173e-05
9.62611e-05
9.62611e-05
9.62611e-05
9.6443e-05
9.6443e-05
9.6443e-05
9.81088e-05
9.81088e-05
9.81088e-05
9.83417e-05
9.83417e-05
9.83417e-05
0.000100671
0.000100671
0.000100671
0.000100634
0.000100634
0.000100634
0.000100434
0.000100434
0.000100434
0.000101959
0.000101959
0.000101959
0.000101718
0.000101718
0.000101718
0.000101275
0.000101275
0.000101275
0.000101073
0.000101073
0.000101073
0.000101511
0.000101511
0.000101511
0.000100867
0.000100867
0.000100867
0.000101065
0.000101065
0.000101065
0.000101758
0.000101758
0.000101758
0.000101196
0.000101196
0.000101196
0.000101639
0.000101639
0.000101639
9.92963e-05
9.92963e-05
9.92963e-05
9.91011e-05
9.91011e-05
9.91011e-05
9.62088e-05
9.62088e-05
9.62088e-05
9.59874e-05
9.59874e-05
9.59874e-05
9.71479e-05
9.71479e-05
9.71479e-05
9.86747e-05
9.86747e-05
9.86747e-05
9.84437e-05
9.84437e-05
9.84437e-05
9.87463e-05
9.87463e-05
9.87463e-05
9.73748e-05
9.73748e-05
9.73748e-05
9.77927e-05
9.77927e-05
9.77927e-05
9.80216e-05
9.80216e-05
9.80216e-05
9.78302e-05
9.78302e-05
9.78302e-05
9.97646e-05
9.97646e-05
9.97646e-05
9.93701e-05
9.93701e-05
9.93701e-05
9.98009e-05
9.98009e-05
9.98009e-05
9.99993e-05
9.99993e-05
9.99993e-05
9.91379e-05
9.91379e-05
9.91379e-05
9.93339e-05
9.93339e-05
9.93339e-05
0.000100706
0.000100706
0.000100706
0.000101145
0.000101145
0.000101145
0.000101382
0.000101382
0.000101382
0.000101178
0.000101178
0.000101178
9.98356e-05
9.98356e-05
9.98356e-05
9.94047e-05
9.94047e-05
9.94047e-05
9.92069e-05
9.92069e-05
9.92069e-05
9.55206e-05
9.55206e-05
9.55206e-05
9.51175e-05
9.51175e-05
9.51175e-05
8.85203e-05
8.85203e-05
8.85203e-05
8.99794e-05
8.99794e-05
8.99794e-05
8.83456e-05
8.83456e-05
8.83456e-05
8.85308e-05
8.85308e-05
8.85308e-05
9.01585e-05
9.01585e-05
9.01585e-05
8.95059e-05
8.95059e-05
8.95059e-05
8.93323e-05
8.93323e-05
8.93323e-05
9.11865e-05
9.11865e-05
9.11865e-05
9.09889e-05
9.09889e-05
9.09889e-05
9.05949e-05
9.05949e-05
9.05949e-05
9.15641e-05
9.15641e-05
9.15641e-05
9.17632e-05
9.17632e-05
9.17632e-05
9.21444e-05
9.21444e-05
9.21444e-05
9.23265e-05
9.23265e-05
9.23265e-05
8.97124e-05
8.97124e-05
8.97124e-05
9.02796e-05
9.02796e-05
9.02796e-05
9.04785e-05
9.04785e-05
9.04785e-05
9.08518e-05
9.08518e-05
9.08518e-05
9.1026e-05
9.1026e-05
9.1026e-05
9.29142e-05
9.29142e-05
9.29142e-05
9.27113e-05
9.27113e-05
9.27113e-05
9.16563e-05
9.16563e-05
9.16563e-05
9.20118e-05
9.20118e-05
9.20118e-05
9.1167e-05
9.1167e-05
9.1167e-05
9.0969e-05
9.0969e-05
9.0969e-05
9.28525e-05
9.28525e-05
9.28525e-05
9.2648e-05
9.2648e-05
9.2648e-05
9.1346e-05
9.1346e-05
9.1346e-05
9.09697e-05
9.09697e-05
9.09697e-05
9.1148e-05
9.1148e-05
9.1148e-05
9.42719e-05
9.42719e-05
9.42719e-05
7.97713e-05
7.97713e-05
7.97713e-05
7.99248e-05
7.99248e-05
7.99248e-05
7.99336e-05
7.99336e-05
7.99336e-05
8.20347e-05
8.20347e-05
8.20347e-05
8.13728e-05
8.13728e-05
8.13728e-05
8.17087e-05
8.17087e-05
8.17087e-05
7.96604e-05
7.96604e-05
7.96604e-05
7.93591e-05
7.93591e-05
7.93591e-05
7.94412e-05
7.94412e-05
7.94412e-05
8.73703e-05
8.73703e-05
8.73703e-05
8.75637e-05
8.75637e-05
8.75637e-05
8.74021e-05
8.74021e-05
8.74021e-05
8.7049e-05
8.7049e-05
8.7049e-05
8.79513e-05
8.79513e-05
8.79513e-05
8.7595e-05
8.7595e-05
8.7595e-05
7.99045e-05
7.99045e-05
7.99045e-05
8.02213e-05
8.02213e-05
8.02213e-05
7.9741e-05
7.9741e-05
7.9741e-05
7.98929e-05
7.98929e-05
7.98929e-05
8.01971e-05
8.01971e-05
8.01971e-05
8.03493e-05
8.03493e-05
8.03493e-05
8.06682e-05
8.06682e-05
8.06682e-05
8.06541e-05
8.06541e-05
8.06541e-05
8.08213e-05
8.08213e-05
8.08213e-05
8.13106e-05
8.13106e-05
8.13106e-05
8.11424e-05
8.11424e-05
8.11424e-05
7.96723e-05
7.96723e-05
7.96723e-05
7.96838e-05
7.96838e-05
7.96838e-05
8.5153e-05
8.5153e-05
8.5153e-05
8.58413e-05
8.58413e-05
8.58413e-05
8.0252e-05
8.0252e-05
8.0252e-05
8.03961e-05
8.03961e-05
8.03961e-05
8.07154e-05
8.07154e-05
8.07154e-05
8.02419e-05
8.02419e-05
8.02419e-05
9.76516e-05
9.76516e-05
9.76516e-05
9.84713e-05
9.84713e-05
9.84713e-05
9.97844e-05
9.97844e-05
9.97844e-05
9.97917e-05
9.97917e-05
9.97917e-05
9.95727e-05
9.95727e-05
9.95727e-05
9.85097e-05
9.85097e-05
9.85097e-05
9.91438e-05
9.91438e-05
9.91438e-05
9.89342e-05
9.89342e-05
9.89342e-05
9.95647e-05
9.95647e-05
9.95647e-05
0.000100244
0.000100244
0.000100244
9.9183e-05
9.9183e-05
9.9183e-05
9.87572e-05
9.87572e-05
9.87572e-05
0.000102028
0.000102028
0.000102028
0.000100935
0.000100935
0.000100935
0.000101375
0.000101375
0.000101375
0.000101584
0.000101584
0.000101584
0.000100063
0.000100063
0.000100063
0.000100979
0.000100979
0.000100979
0.000101419
0.000101419
0.000101419
9.40337e-05
9.40337e-05
9.40337e-05
9.42332e-05
9.42332e-05
9.42332e-05
9.40378e-05
9.40378e-05
9.40378e-05
9.52323e-05
9.52323e-05
9.52323e-05
9.48315e-05
9.48315e-05
9.48315e-05
9.54316e-05
9.54316e-05
9.54316e-05
9.5228e-05
9.5228e-05
9.5228e-05
9.463e-05
9.463e-05
9.463e-05
9.48273e-05
9.48273e-05
9.48273e-05
9.24771e-05
9.24771e-05
9.24771e-05
9.28576e-05
9.28576e-05
9.28576e-05
9.26759e-05
9.26759e-05
9.26759e-05
9.22906e-05
9.22906e-05
9.22906e-05
9.24811e-05
9.24811e-05
9.24811e-05
8.23788e-05
8.23788e-05
8.23788e-05
8.48773e-05
8.48773e-05
8.48773e-05
8.41989e-05
8.41989e-05
8.41989e-05
8.58657e-05
8.58657e-05
8.58657e-05
8.62126e-05
8.62126e-05
8.62126e-05
8.6097e-05
8.6097e-05
8.6097e-05
8.71476e-05
8.71476e-05
8.71476e-05
8.75007e-05
8.75007e-05
8.75007e-05
8.50629e-05
8.50629e-05
8.50629e-05
8.47181e-05
8.47181e-05
8.47181e-05
8.43786e-05
8.43786e-05
8.43786e-05
8.4721e-05
8.4721e-05
8.4721e-05
8.48901e-05
8.48901e-05
8.48901e-05
8.47097e-05
8.47097e-05
8.47097e-05
8.43704e-05
8.43704e-05
8.43704e-05
8.3871e-05
8.3871e-05
8.3871e-05
8.42079e-05
8.42079e-05
8.42079e-05
8.4375e-05
8.4375e-05
8.4375e-05
8.42038e-05
8.42038e-05
8.42038e-05
8.26819e-05
8.26819e-05
8.26819e-05
9.54268e-05
9.54268e-05
9.54268e-05
9.58316e-05
9.58316e-05
9.58316e-05
9.19012e-05
9.19012e-05
9.19012e-05
9.17087e-05
9.17087e-05
9.17087e-05
9.2283e-05
9.2283e-05
9.2283e-05
9.24722e-05
9.24722e-05
9.24722e-05
9.11394e-05
9.11394e-05
9.11394e-05
8.82153e-05
8.82153e-05
8.82153e-05
8.80341e-05
8.80341e-05
8.80341e-05
8.78566e-05
8.78566e-05
8.78566e-05
8.78536e-05
8.78536e-05
8.78536e-05
8.80304e-05
8.80304e-05
8.80304e-05
9.00313e-05
9.00313e-05
9.00313e-05
8.96632e-05
8.96632e-05
8.96632e-05
8.83789e-05
8.83789e-05
8.83789e-05
9.077e-05
9.077e-05
9.077e-05
9.00271e-05
9.00271e-05
9.00271e-05
9.05857e-05
9.05857e-05
9.05857e-05
9.02143e-05
9.02143e-05
9.02143e-05
8.44747e-05
8.44747e-05
8.44747e-05
8.4814e-05
8.4814e-05
8.4814e-05
8.64085e-05
8.64085e-05
8.64085e-05
8.51119e-05
8.51119e-05
8.51119e-05
8.53009e-05
8.53009e-05
8.53009e-05
8.61817e-05
8.61817e-05
8.61817e-05
8.58352e-05
8.58352e-05
8.58352e-05
8.63734e-05
8.63734e-05
8.63734e-05
8.62171e-05
8.62171e-05
8.62171e-05
8.62515e-05
8.62515e-05
8.62515e-05
8.59046e-05
8.59046e-05
8.59046e-05
8.40585e-05
8.40585e-05
8.40585e-05
8.3723e-05
8.3723e-05
8.3723e-05
9.02676e-05
9.02676e-05
9.02676e-05
9.00653e-05
9.00653e-05
9.00653e-05
9.02329e-05
9.02329e-05
9.02329e-05
9.06045e-05
9.06045e-05
9.06045e-05
9.08088e-05
9.08088e-05
9.08088e-05
9.06394e-05
9.06394e-05
9.06394e-05
9.03336e-05
9.03336e-05
9.03336e-05
9.07059e-05
9.07059e-05
9.07059e-05
9.07374e-05
9.07374e-05
9.07374e-05
9.09088e-05
9.09088e-05
9.09088e-05
8.95957e-05
8.95957e-05
8.95957e-05
8.90634e-05
8.90634e-05
8.90634e-05
8.923e-05
8.923e-05
8.923e-05
9.13159e-05
9.13159e-05
9.13159e-05
9.14893e-05
9.14893e-05
9.14893e-05
9.15201e-05
9.15201e-05
9.15201e-05
9.36991e-05
9.36991e-05
9.36991e-05
9.40927e-05
9.40927e-05
9.40927e-05
9.18287e-05
9.18287e-05
9.18287e-05
9.11615e-05
9.11615e-05
9.11615e-05
9.10339e-05
9.10339e-05
9.10339e-05
9.1202e-05
9.1202e-05
9.1202e-05
9.12416e-05
9.12416e-05
9.12416e-05
9.16194e-05
9.16194e-05
9.16194e-05
9.28984e-05
9.28984e-05
9.28984e-05
9.34612e-05
9.34612e-05
9.34612e-05
9.32867e-05
9.32867e-05
9.32867e-05
9.46877e-05
9.46877e-05
9.46877e-05
9.56711e-05
9.56711e-05
9.56711e-05
9.52671e-05
9.52671e-05
9.52671e-05
9.50878e-05
9.50878e-05
9.50878e-05
9.53099e-05
9.53099e-05
9.53099e-05
9.65727e-05
9.65727e-05
9.65727e-05
9.98409e-05
9.98409e-05
9.98409e-05
0.000100232
0.000100232
0.000100232
9.97974e-05
9.97974e-05
9.97974e-05
9.96034e-05
9.96034e-05
9.96034e-05
9.9646e-05
9.9646e-05
9.9646e-05
9.96872e-05
9.96872e-05
9.96872e-05
9.9883e-05
9.9883e-05
9.9883e-05
9.92161e-05
9.92161e-05
9.92161e-05
9.97526e-05
9.97526e-05
9.97526e-05
0.000100382
0.000100382
0.000100382
0.000100186
0.000100186
0.000100186
9.95145e-05
9.95145e-05
9.95145e-05
9.85135e-05
9.85135e-05
9.85135e-05
9.89385e-05
9.89385e-05
9.89385e-05
9.91737e-05
9.91737e-05
9.91737e-05
9.89813e-05
9.89813e-05
9.89813e-05
9.64873e-05
9.64873e-05
9.64873e-05
9.68994e-05
9.68994e-05
9.68994e-05
9.71708e-05
9.71708e-05
9.71708e-05
9.75868e-05
9.75868e-05
9.75868e-05
9.71282e-05
9.71282e-05
9.71282e-05
9.69424e-05
9.69424e-05
9.69424e-05
8.83731e-05
8.83731e-05
8.83731e-05
8.90963e-05
8.90963e-05
8.90963e-05
8.89323e-05
8.89323e-05
8.89323e-05
8.85706e-05
8.85706e-05
8.85706e-05
8.90602e-05
8.90602e-05
8.90602e-05
8.83374e-05
8.83374e-05
8.83374e-05
8.88968e-05
8.88968e-05
8.88968e-05
8.85353e-05
8.85353e-05
8.85353e-05
8.88602e-05
8.88602e-05
8.88602e-05
8.8499e-05
8.8499e-05
8.8499e-05
8.7463e-05
8.7463e-05
8.7463e-05
8.78185e-05
8.78185e-05
8.78185e-05
8.79791e-05
8.79791e-05
8.79791e-05
8.72685e-05