<VTKFile type="UnstructuredGrid" version="1.0">
<UnstructuredGrid>
<Piece NumberOfPoints="8859" NumberOfCells="2953">
<Points>
<DataArray type="Float64" NumberOfComponents="3" format="ascii">
0.5 3.01 13.49
0.512524 3.01 13.5125
0.487476 3.01 13.5125
0.17352 3.01 12.6125
0.160827 3.01 12.6342
0.148445 3.01 12.6125
0.122979 3.01 12.6559
0.110383 3.01 12.6342
0.135644 3.01 12.6342
0.135644 3.01 12.6342
0.110383 3.01 12.6342
0.123433 3.01 12.6125
0.123433 3.01 12.6125
0.148445 3.01 12.6125
0.135644 3.01 12.6342
0.135644 3.01 12.6342
0.148445 3.01 12.6125
0.160827 3.01 12.6342
0.17352 3.01 12.6125
0.198629 3.01 12.6125
0.185985 3.01 12.6342
0.185985 3.01 12.6342
0.160827 3.01 12.6342
0.17352 3.01 12.6125
0.0732297 3.01 12.6557
0.0586606 3.01 12.6338
0.0848754 3.01 12.6341
0.05 3.01 13.4453
0.05 3.01 13.4001
0.058509 3.01 13.4226
0.324276 3.01 12.6125
0.349395 3.01 12.6125
0.336827 3.01 12.6342
0.148138 3.01 12.6559
0.135644 3.01 12.6342
0.160827 3.01 12.6342
0.122979 3.01 12.6559
0.135644 3.01 12.6342
0.148138 3.01 12.6559
0.160827 3.01 12.6342
0.185985 3.01 12.6342
0.173316 3.01 12.6559
0.185806 3.01 12.6775
0.160572 3.01 12.6776
0.173316 3.01 12.6559
0.173316 3.01 12.6559
0.148138 3.01 12.6559
0.160827 3.01 12.6342
0.160572 3.01 12.6776
0.148138 3.01 12.6559
0.173316 3.01 12.6559
0.211137 3.01 12.6342
0.185985 3.01 12.6342
0.198629 3.01 12.6125
0.0979162 3.01 12.6558
0.110383 3.01 12.6342
0.122979 3.01 12.6559
0.122979 3.01 12.6559
0.109875 3.01 12.6775
0.0979162 3.01 12.6558
0.0732297 3.01 12.6557
0.0848754 3.01 12.6341
0.0979162 3.01 12.6558
0.0979162 3.01 12.6558
0.0848754 3.01 12.6341
0.110383 3.01 12.6342
0.0975729 3.01 12.699
0.109875 3.01 12.6775
0.122678 3.01 12.6991
0.0841718 3.01 12.6773
0.0577122 3.01 12.677
0.0732297 3.01 12.6557
0.0729308 3.01 12.6989
0.0577122 3.01 12.677
0.0841718 3.01 12.6773
0.0732297 3.01 12.6557
0.0979162 3.01 12.6558
0.0841718 3.01 12.6773
0.0841718 3.01 12.6773
0.0979162 3.01 12.6558
0.109875 3.01 12.6775
0.0975729 3.01 12.699
0.0729308 3.01 12.6989
0.0841718 3.01 12.6773
0.0841718 3.01 12.6773
0.109875 3.01 12.6775
0.0975729 3.01 12.699
0.073948 3.01 12.6125
0.0586606 3.01 12.6338
0.05 3.01 12.6125
0.073948 3.01 12.6125
0.0848754 3.01 12.6341
0.0586606 3.01 12.6338
0.05 3.01 13.4883
0.05 3.01 13.4453
0.0603641 3.01 13.467
0.0603641 3.01 13.467
0.0753197 3.01 13.489
0.05 3.01 13.4883
0.0709395 3.01 13.5125
0.05 3.01 13.5125
0.05 3.01 13.4883
0.05 3.01 13.4883
0.0753197 3.01 13.489
0.0709395 3.01 13.5125
0.0579641 3.01 13.1996
0.05 3.01 13.2217
0.05 3.01 13.1776
0.0841948 3.01 13.1118
0.097638 3.01 13.0899
0.109814 3.01 13.1118
0.0841948 3.01 13.1118
0.0730539 3.01 13.1337
0.0578646 3.01 13.1118
0.0580261 3.01 13.2438
0.05 3.01 13.2659
0.05 3.01 13.2217
0.942292 3.01 12.8074
0.95 3.01 12.7857
0.95 3.01 12.829
0.95 3.01 12.7423
0.95 3.01 12.7857
0.942332 3.01 12.764
0.73872 3.01 13.0245
0.726137 3.01 13.0028
0.75132 3.01 13.0028
0.751305 3.01 13.0463
0.726124 3.01 13.0463
0.73872 3.01 13.0245
0.713546 3.01 13.0245
0.726137 3.01 13.0028
0.73872 3.01 13.0245
0.73872 3.01 13.0245
0.726124 3.01 13.0463
0.713546 3.01 13.0245
0.814318 3.01 13.0681
0.789096 3.01 13.0681
0.801709 3.01 13.0463
0.7765 3.01 13.0463
0.789115 3.01 13.0245
0.801709 3.01 13.0463
0.801709 3.01 13.0463
0.789096 3.01 13.0681
0.7765 3.01 13.0463
0.7765 3.01 13.0463
0.789096 3.01 13.0681
0.763892 3.01 13.0681
0.763892 3.01 13.0681
0.751305 3.01 13.0463
0.7765 3.01 13.0463
0.95 3.01 13.5125
0.929061 3.01 13.5125
0.95 3.01 13.4883
0.95 3.01 13.3104
0.926844 3.01 13.3104
0.941913 3.01 13.2882
0.941913 3.01 13.2882
0.95 3.01 13.2659
0.95 3.01 13.3104
0.926866 3.01 13.2659
0.95 3.01 13.2659
0.941913 3.01 13.2882
0.941974 3.01 13.2438
0.95 3.01 13.2659
0.926866 3.01 13.2659
0.95 3.01 13.2217
0.95 3.01 13.2659
0.941974 3.01 13.2438
0.941974 3.01 13.2438
0.926895 3.01 13.2217
0.95 3.01 13.2217
0.6127 3.01 13.5125
0.625238 3.01 13.49
0.637734 3.01 13.5125
0.662757 3.01 13.5125
0.637734 3.01 13.5125
0.650275 3.01 13.49
0.650275 3.01 13.49
0.637734 3.01 13.5125
0.625238 3.01 13.49
0.600415 3.01 13.0464
0.587856 3.01 13.0682
0.575304 3.01 13.0464
0.575304 3.01 13.0464
0.587856 3.01 13.0682
0.562749 3.01 13.0682
0.336827 3.01 12.6342
0.349395 3.01 12.6125
0.361946 3.01 12.6342
0.223755 3.01 12.6125
0.211137 3.01 12.6342
0.198629 3.01 12.6125
0.185985 3.01 12.6342
0.211137 3.01 12.6342
0.198492 3.01 12.6559
0.185806 3.01 12.6775
0.173316 3.01 12.6559
0.198492 3.01 12.6559
0.198492 3.01 12.6559
0.173316 3.01 12.6559
0.185985 3.01 12.6342
0.0576202 3.01 12.7205
0.05 3.01 12.7423
0.05 3.01 12.6987
0.05 3.01 12.6987
0.0729308 3.01 12.6989
0.0576202 3.01 12.7205
0.05 3.01 12.6987
0.0577122 3.01 12.677
0.0729308 3.01 12.6989
0.135283 3.01 12.6775
0.109875 3.01 12.6775
0.122979 3.01 12.6559
0.135283 3.01 12.6775
0.122678 3.01 12.6991
0.109875 3.01 12.6775
0.122979 3.01 12.6559
0.148138 3.01 12.6559
0.135283 3.01 12.6775
0.135283 3.01 12.6775
0.148138 3.01 12.6559
0.160572 3.01 12.6776
0.123433 3.01 12.6125
0.110383 3.01 12.6342
0.0985513 3.01 12.6125
0.110383 3.01 12.6342
0.0848754 3.01 12.6341
0.0985513 3.01 12.6125
0.0848754 3.01 12.6341
0.073948 3.01 12.6125
0.0985513 3.01 12.6125
0.0603641 3.01 13.467
0.05 3.01 13.4453
0.0739464 3.01 13.4445
0.0739464 3.01 13.4445
0.05 3.01 13.4453
0.058509 3.01 13.4226
0.058509 3.01 13.4226
0.0849548 3.01 13.4221
0.0739464 3.01 13.4445
0.058509 3.01 13.4226
0.05 3.01 13.4001
0.0732725 3.01 13.3999
0.0732725 3.01 13.3999
0.0849548 3.01 13.4221
0.058509 3.01 13.4226
0.5 3.01 13.49
0.487476 3.01 13.5125
0.47495 3.01 13.49
0.097663 3.01 13.1337
0.0841948 3.01 13.1118
0.109814 3.01 13.1118
0.0730539 3.01 13.1337
0.0841948 3.01 13.1118
0.097663 3.01 13.1337
0.0578646 3.01 13.1118
0.0730539 3.01 13.1337
0.05 3.01 13.1337
0.05 3.01 13.1337
0.05 3.01 13.0899
0.0578646 3.01 13.1118
0.05 3.01 13.3104
0.05 3.01 13.2659
0.0580869 3.01 13.2882
0.05 3.01 13.2659
0.0580261 3.01 13.2438
0.073134 3.01 13.2659
0.073134 3.01 13.2659
0.0580869 3.01 13.2882
0.05 3.01 13.2659
0.942268 3.01 12.8507
0.95 3.01 12.829
0.95 3.01 12.8724
0.942292 3.01 12.8074
0.95 3.01 12.829
0.927025 3.01 12.829
0.927025 3.01 12.829
0.942268 3.01 12.8507
0.915919 3.01 12.8507
0.95 3.01 12.829
0.942268 3.01 12.8507
0.927025 3.01 12.829
0.927013 3.01 12.8724
0.942268 3.01 12.8507
0.95 3.01 12.8724
0.915919 3.01 12.8507
0.942268 3.01 12.8507
0.927013 3.01 12.8724
0.801738 3.01 12.9593
0.814364 3.01 12.9375
0.826957 3.01 12.9592
0.852174 3.01 12.9592
0.826957 3.01 12.9592
0.839609 3.01 12.9375
0.839609 3.01 12.9375
0.826957 3.01 12.9592
0.814364 3.01 12.9375
0.776516 3.01 13.0027
0.75132 3.01 13.0028
0.763923 3.01 12.981
0.776516 3.01 13.0027
0.801725 3.01 13.0027
0.789115 3.01 13.0245
0.738704 3.01 13.0681
0.751305 3.01 13.0463
0.763892 3.01 13.0681
0.726124 3.01 13.0463
0.751305 3.01 13.0463
0.738704 3.01 13.0681
0.915617 3.01 13.2881
0.902228 3.01 13.2659
0.926866 3.01 13.2659
0.926866 3.01 13.2659
0.941913 3.01 13.2882
0.915617 3.01 13.2881
0.915617 3.01 13.2881
0.941913 3.01 13.2882
0.926844 3.01 13.3104
0.915617 3.01 13.2881
0.926844 3.01 13.3104
0.902193 3.01 13.3104
0.926866 3.01 13.2659
0.902228 3.01 13.2659
0.915668 3.01 13.2438
0.902267 3.01 13.2217
0.926895 3.01 13.2217
0.915668 3.01 13.2438
0.915668 3.01 13.2438
0.941974 3.01 13.2438
0.926866 3.01 13.2659
0.926895 3.01 13.2217
0.941974 3.01 13.2438
0.915668 3.01 13.2438
0.902267 3.01 13.2217
0.915668 3.01 13.2438
0.890059 3.01 13.2438
0.890059 3.01 13.2438
0.915668 3.01 13.2438
0.902228 3.01 13.2659
0.826927 3.01 13.0463
0.814318 3.01 13.0681
0.801709 3.01 13.0463
0.864816 3.01 13.1118
0.877308 3.01 13.0899
0.890186 3.01 13.1118
0.877308 3.01 13.0899
0.864816 3.01 13.1118
0.852122 3.01 13.0899
0.890186 3.01 13.1118
0.877308 3.01 13.0899
0.902362 3.01 13.0899
0.902362 3.01 13.0899
0.915805 3.01 13.1118
0.890186 3.01 13.1118
0.902362 3.01 13.0899
0.926964 3.01 13.0899
0.915805 3.01 13.1118
0.915835 3.01 13.0681
0.926964 3.01 13.0899
0.902362 3.01 13.0899
0.942171 3.01 13.0681
0.926964 3.01 13.0899
0.915835 3.01 13.0681
0.915835 3.01 13.0681
0.926978 3.01 13.0463
0.942171 3.01 13.0681
0.942171 3.01 13.0681
0.926978 3.01 13.0463
0.95 3.01 13.0463
0.87737 3.01 12.9158
0.890277 3.01 12.8941
0.902417 3.01 12.9158
0.852144 3.01 13.0463
0.877329 3.01 13.0463
0.864842 3.01 13.0681
0.877308 3.01 13.0899
0.852122 3.01 13.0899
0.864842 3.01 13.0681
0.902396 3.01 13.0027
0.915858 3.01 13.0245
0.890234 3.01 13.0245
0.926997 3.01 12.9592
0.942237 3.01 12.9375
0.95 3.01 12.9592
0.91589 3.01 12.9375
0.942237 3.01 12.9375
0.926997 3.01 12.9592
0.942199 3.01 13.0245
0.95 3.01 13.0027
0.95 3.01 13.0463
0.95 3.01 13.0463
0.926978 3.01 13.0463
0.942199 3.01 13.0245
0.942199 3.01 13.0245
0.926978 3.01 13.0463
0.915858 3.01 13.0245
0.95 3.01 12.9592
0.95 3.01 13.0027
0.942221 3.01 12.981
0.942221 3.01 12.981
0.926997 3.01 12.9592
0.95 3.01 12.9592
0.915876 3.01 12.981
0.926997 3.01 12.9592
0.942221 3.01 12.981
0.926989 3.01 13.0027
0.915858 3.01 13.0245
0.902396 3.01 13.0027
0.902396 3.01 13.0027
0.915876 3.01 12.981
0.926989 3.01 13.0027
0.926989 3.01 13.0027
0.942199 3.01 13.0245
0.915858 3.01 13.0245
0.95 3.01 13.0027
0.942199 3.01 13.0245
0.926989 3.01 13.0027
0.915876 3.01 12.981
0.942221 3.01 12.981
0.926989 3.01 13.0027
0.926989 3.01 13.0027
0.942221 3.01 12.981
0.95 3.01 13.0027
0.91353 3.01 13.4669
0.926054 3.01 13.4445
0.939636 3.01 13.467
0.926728 3.01 13.3999
0.95 3.01 13.4001
0.941491 3.01 13.4226
0.926728 3.01 13.3999
0.941822 3.01 13.3775
0.95 3.01 13.4001
0.95 3.01 13.4453
0.95 3.01 13.4883
0.939636 3.01 13.467
0.95 3.01 13.4453
0.926054 3.01 13.4445
0.941491 3.01 13.4226
0.939636 3.01 13.467
0.926054 3.01 13.4445
0.95 3.01 13.4453
0.941491 3.01 13.4226
0.95 3.01 13.4001
0.95 3.01 13.4453
0.941869 3.01 13.3327
0.926844 3.01 13.3104
0.95 3.01 13.3104
0.762942 3.01 13.4673
0.75028 3.01 13.4899
0.737933 3.01 13.4673
0.71291 3.01 13.4674
0.725533 3.01 13.4449
0.737933 3.01 13.4673
0.71291 3.01 13.4674
0.737933 3.01 13.4673
0.725313 3.01 13.4899
0.725313 3.01 13.4899
0.737933 3.01 13.4673
[...]
<PointData Scalars="View Factor" >
<DataArray type="Float64" Name="View Factor" NumberOfComponents="1" format="ascii">
0.0110791
0.0110791
0.0110791
0.0272452
0.0272452
0.0272452
0.026634
0.026634
0.026634
0.0270575
0.0270575
0.0270575
0.0272641
0.0272641
0.0272641
0.0270402
0.0270402
0.0270402
0.0272231
0.0272231
0.0272231
0.02702
0.02702
0.02702
0.0266655
0.0266655
0.0266655
0.0121753
0.0121753
0.0121753
0.0270225
0.0270225
0.0270225
0.0266169
0.0266169
0.0266169
0.0264173
0.0264173
0.0264173
0.0265971
0.0265971
0.0265971
0.0257759
0.0257759
0.0257759
0.026399
0.026399
0.026399
0.0259883
0.0259883
0.0259883
0.0269965
0.0269965
0.0269965
0.0264332
0.0264332
0.0264332
0.0260225
0.0260225
0.0260225
0.0264481
0.0264481
0.0264481
0.0266492
0.0266492
0.0266492
0.0252246
0.0252246
0.0252246
0.0258443
0.0258443
0.0258443
0.0254451
0.0254451
0.0254451
0.0260377
0.0260377
0.0260377
0.0258281
0.0258281
0.0258281
0.0252396
0.0252396
0.0252396
0.0254292
0.0254292
0.0254292
0.027306
0.027306
0.027306
0.0270875
0.0270875
0.0270875
0.0116904
0.0116904
0.0116904
0.0115349
0.0115349
0.0115349
0.0112962
0.0112962
0.0112962
0.0113761
0.0113761
0.0113761
0.015032
0.015032
0.015032
0.0164868
0.0164868
0.0164868
0.0162574
0.0162574
0.0162574
0.0144062
0.0144062
0.0144062
0.0205666
0.0205666
0.0205666
0.0215131
0.0215131
0.0215131
0.0172886
0.0172886
0.0172886
0.0167976
0.0167976
0.0167976
0.0171919
0.0171919
0.0171919
0.0169459
0.0169459
0.0169459
0.016303
0.016303
0.016303
0.0166858
0.0166858
0.0166858
0.0164484
0.0164484
0.0164484
0.016359
0.016359
0.016359
0.0165041
0.0165041
0.0165041
0.0105544
0.0105544
0.0105544
0.0126804
0.0126804
0.0126804
0.0128409
0.0128409
0.0128409
0.0130349
0.0130349
0.0130349
0.0132163
0.0132163
0.0132163
0.0133843
0.0133843
0.0133843
0.0135877
0.0135877
0.0135877
0.0109602
0.0109602
0.0109602
0.0109334
0.0109334
0.0109334
0.0110212
0.0110212
0.0110212
0.0168463
0.0168463
0.0168463
0.0167464
0.0167464
0.0167464
0.0267886
0.0267886
0.0267886
0.0271977
0.0271977
0.0271977
0.0265742
0.0265742
0.0265742
0.0259674
0.0259674
0.0259674
0.0263778
0.0263778
0.0263778
0.0244819
0.0244819
0.0244819
0.0248627
0.0248627
0.0248627
0.0252537
0.0252537
0.0252537
0.0258124
0.0258124
0.0258124
0.0254134
0.0254134
0.0254134
0.0260064
0.0260064
0.0260064
0.0257953
0.0257953
0.0257953
0.02728
0.02728
0.02728
0.0270725
0.0270725
0.0270725
0.0272933
0.0272933
0.0272933
0.0118471
0.0118471
0.0118471
0.0120095
0.0120095
0.0120095
0.0120938
0.0120938
0.0120938
0.0123461
0.0123461
0.0123461
0.0122611
0.0122611
0.0122611
0.0111651
0.0111651
0.0111651
0.0162515
0.0162515
0.0162515
0.0161384
0.0161384
0.0161384
0.0161432
0.0161432
0.0161432
0.0163778
0.0163778
0.0163778
0.0138094
0.0138094
0.0138094
0.0142033
0.0142033
0.0142033
0.0140044
0.0140044
0.0140044
0.0196706
0.0196706
0.0196706
0.0202897
0.0202897
0.0202897
0.0198819
0.0198819
0.0198819
0.0199906
0.0199906
0.0199906
0.0194082
0.0194082
0.0194082
0.01959
0.01959
0.01959
0.0181322
0.0181322
0.0181322
0.018065
0.018065
0.018065
0.018231
0.018231
0.018231
0.0174823
0.0174823
0.0174823
0.0171727
0.0171727
0.0171727
0.0164134
0.0164134
0.0164134
0.0165582
0.0165582
0.0165582
0.013084
0.013084
0.013084
0.012968
0.012968
0.012968
0.0127903
0.0127903
0.0127903
0.0127278
0.0127278
0.0127278
0.0132663
0.0132663
0.0132663
0.0136394
0.0136394
0.0136394
0.0133316
0.0133316
0.0133316
0.0135177
0.0135177
0.0135177
0.0135701
0.0135701
0.0135701
0.0133831
0.0133831
0.0133831
0.016391
0.016391
0.016391
0.0154524
0.0154524
0.0154524
0.0155917
0.0155917
0.0155917
0.0155327
0.0155327
0.0155327
0.0153928
0.0153928
0.0153928
0.0154723
0.0154723
0.0154723
0.0156929
0.0156929
0.0156929
0.0157711
0.0157711
0.0157711
0.0159966
0.0159966
0.0159966
0.0160809
0.0160809
0.0160809
0.0187261
0.0187261
0.0187261
0.0162711
0.0162711
0.0162711
0.0158144
0.0158144
0.0158144
0.0167646
0.0167646
0.0167646
0.0177798
0.0177798
0.0177798
0.0179432
0.0179432
0.0179432
0.0165249
0.0165249
0.0165249
0.0163115
0.0163115
0.0163115
0.0164589
0.0164589
0.0164589
0.0172514
0.0172514
0.0172514
0.0175245
0.0175245
0.0175245
0.0174315
0.0174315
0.0174315
0.0168522
0.0168522
0.0168522
0.0170959
0.0170959
0.0170959
0.0166959
0.0166959
0.0166959
0.0167844
0.0167844
0.0167844
0.0171821
0.0171821
0.0171821
0.0170269
0.0170269
0.0170269
0.011014
0.011014
0.011014
0.011521
0.011521
0.011521
0.0116791
0.0116791
0.0116791
0.010909
0.010909
0.010909
0.0112135
0.0112135
0.0112135
0.0110659
0.0110659
0.0110659
0.011351
0.011351
0.011351
0.0125072
0.0125072
0.0125072
0.0111139
0.0111139
0.0111139
0.0112975
0.0112975
0.0112975
0.0111452
0.0111452
0.0111452
0.0110544
0.0110544
0.0110544
0.0108475
0.0108475
0.0108475
0.0109058
0.0109058
0.0109058
0.010817
0.010817
0.010817
0.0119303
0.0119303
0.0119303
0.0116095
0.0116095
0.0116095
0.0113903
0.0113903
0.0113903
0.0115465
0.0115465
0.0115465
0.0114508
0.0114508
0.0114508
0.0116081
0.0116081
0.0116081
0.0111985
0.0111985
0.0111985
0.0110477
0.0110477
0.0110477
0.010986
0.010986
0.010986
0.0174297
0.0174297
0.0174297
0.016704
0.016704
0.016704
0.0160794
0.0160794
0.0160794
0.0158133
0.0158133
0.0158133
0.0160409
0.0160409
0.0160409
0.0161757
0.0161757
0.0161757
0.0165073
0.0165073
0.0165073
0.0164093
0.0164093
0.0164093
0.0158512
0.0158512
0.0158512
0.0157199
0.0157199
0.0157199
0.0145568
0.0145568
0.0145568
0.0158704
0.0158704
0.0158704
0.016007
0.016007
0.016007
0.016072
0.016072
0.016072
0.0156212
0.0156212
0.0156212
0.0271022
0.0271022
0.0271022
0.0271373
0.0271373
0.0271373
0.0269069
0.0269069
0.0269069
0.0264866
0.0264866
0.0264866
0.0258658
0.0258658
0.0258658
0.0179347
0.0179347
0.0179347
0.0174223
0.0174223
0.0174223
0.017836
0.017836
0.017836
0.0175793
0.0175793
0.0175793
0.0176389
0.0176389
0.0176389
0.0175405
0.0175405
0.0175405
0.0262621
0.0262621
0.0262621
0.0269779
0.0269779
0.0269779
0.0262801
0.0262801
0.0262801
0.0212994
0.0212994
0.0212994
0.0214758
0.0214758
0.0214758
0.0256564
0.0256564
0.0256564
0.0268875
0.0268875
0.0268875
0.0264671
0.0264671
0.0264671
0.0260562
0.0260562
0.0260562
0.0120109
0.0120109
0.0120109
0.0110999
0.0110999
0.0110999
0.0148192
0.0148192
0.0148192
0.0146106
0.0146106
0.0146106
0.0159087
0.0159087
0.0159087
0.0240065
0.0240065
0.0240065
0.0148089
0.0148089
0.0148089
0.0146005
0.0146005
0.0146005
0.0166021
0.0166021
0.0166021
0.0164789
0.0164789
0.0164789
0.0168502
0.0168502
0.0168502
0.016609
0.016609
0.016609
0.0166141
0.0166141
0.0166141
0.0164928
0.0164928
0.0164928
0.0171019
0.0171019
0.0171019
0.0168554
0.0168554
0.0168554
0.0169754
0.0169754
0.0169754
0.0172227
0.0172227
0.0172227
0.0173502
0.0173502
0.0173502
0.0165052
0.0165052
0.0165052
0.0165917
0.0165917
0.0165917
0.0194897
0.0194897
0.0194897
0.0178706
0.0178706
0.0178706
0.0177734
0.0177734
0.0177734
0.0175178
0.0175178
0.0175178
0.0181622
0.0181622
0.0181622
0.0179959
0.0179959
0.0179959
0.0189015
0.0189015
0.0189015
0.0204816
0.0204816
0.0204816
0.0200138
0.0200138
0.0200138
0.0172315
0.0172315
0.0172315
0.0167426
0.0167426
0.0167426
0.0168348
0.0168348
0.0168348
0.0170788
0.0170788
0.0170788
0.0171363
0.0171363
0.0171363
0.0168913
0.0168913
0.0168913
0.0161804
0.0161804
0.0161804
0.0160911
0.0160911
0.0160911
0.0164661
0.0164661
0.0164661
0.0162321
0.0162321
0.0162321
0.0156002
0.0156002
0.0156002
0.0154665
0.0154665
0.0154665
0.0162374
0.0162374
0.0162374
0.015177
0.015177
0.015177
0.0136907
0.0136907
0.0136907
0.0139337
0.0139337
0.0139337
0.0138826
0.0138826
0.0138826
0.0140055
0.0140055
0.0140055
0.0113262
0.0113262
0.0113262
0.0112657
0.0112657
0.0112657
0.0113587
0.0113587
0.0113587
0.0115143
0.0115143
0.0115143
0.0122279
0.0122279
0.0122279
0.0116287
0.0116287
0.0116287
0.0114718
0.0114718
0.0114718
0.0123453
0.0123453
0.0123453
0.0122175
0.0122175
0.0122175
0.0124091
0.0124091
0.0124091
0.0173605
0.0173605
0.0173605
0.0162452
0.0162452
0.0162452
0.0163319
0.0163319
0.0163319
0.0161858
0.0161858
0.0161858
0.0159569
0.0159569
0.0159569
0.0152925
0.0152925
0.0152925
0.0155103
0.0155103
0.0155103
0.0161451
0.0161451
0.0161451
0.0164417
0.0164417
0.0164417
0.0163768
0.0163768
0.0163768
0.0165263
0.0165263
0.0165263
0.015631
0.015631
0.015631
0.0158341
0.0158341
0.0158341
0.0172533
0.0172533
0.0172533
0.0177367
0.0177367
0.0177367
0.0175743
0.0175743
0.0175743
0.0182825
0.0182825
0.0182825
0.0180914
0.0180914
0.0180914
0.0184544
0.0184544
0.0184544
0.0183567
0.0183567
0.0183567
0.0188245
0.0188245
0.0188245
0.0191027
0.0191027
0.0191027
0.0192047
0.0192047
0.0192047
0.0109805
0.0109805
0.0109805
0.0111651
0.0111651
0.0111651
0.0107809
0.0107809
0.0107809
0.0108691
0.0108691
0.0108691
0.0106412
0.0106412
0.0106412
0.0111092
0.0111092
0.0111092
0.011566
0.011566
0.011566
0.0112589
0.0112589
0.0112589
0.0113112
0.0113112
0.0113112
0.0114642
0.0114642
0.0114642
0.0119499
0.0119499
0.0119499
0.0121773
0.0121773
0.0121773
0.0121143
0.0121143
0.0121143
0.0120738
0.0120738
0.0120738
0.0125538
0.0125538
0.0125538
0.0124431
0.0124431
0.0124431
0.0117799
0.0117799
0.0117799
0.0117237
0.0117237
0.0117237
0.0113584
0.0113584
0.0113584
0.0113284
0.0113284
0.0113284
0.011421
0.011421
0.011421
0.0108771
0.0108771
0.0108771
0.010936
0.010936
0.010936
0.0110851
0.0110851
0.0110851
0.0111756
0.0111756
0.0111756
0.010777
0.010777
0.010777
0.0110151
0.0110151
0.0110151
0.0109238
0.0109238
0.0109238
0.0107208
0.0107208
0.0107208
0.011023
0.011023
0.011023
0.0108747
0.0108747
0.0108747
0.0117691
0.0117691
0.0117691
0.0118665
0.0118665
0.0118665
0.013106
0.013106
0.013106
0.0131789
0.0131789
0.0131789
0.0125693
0.0125693
0.0125693
0.0120303
0.0120303
0.0120303
0.0120961
0.0120961
0.0120961
0.0120953
0.0120953
0.0120953
0.0125014
0.0125014
0.0125014
0.0123303
0.0123303
0.0123303
0.0122635
0.0122635
0.0122635
0.0123657
0.0123657
0.0123657
0.0116415
0.0116415
0.0116415
0.0118333
0.0118333
0.0118333
0.0116725
0.0116725
0.0116725
0.0115778
0.0115778
0.0115778
0.0118989
0.0118989
0.0118989
0.0118017
0.0118017
0.0118017
0.0113875
0.0113875
0.0113875
0.0112337
0.0112337
0.0112337
0.0111715
0.0111715
0.0111715
0.0112613
0.0112613
0.0112613
0.0117026
0.0117026
0.0117026
0.011864
0.011864
0.011864
0.0119607
0.0119607
0.0119607
0.0136167
0.0136167
0.0136167
0.0138087
0.0138087
0.0138087
0.0182879
0.0182879
0.0182879
0.0172535
0.0172535
0.0172535
0.0184326
0.0184326
0.0184326
0.0183079
0.0183079
0.0183079
0.0171191
0.0171191
0.0171191
0.0173205
0.0173205
0.0173205
0.0174628
0.0174628
0.0174628
0.0162475
0.0162475
0.0162475
0.0163495
0.0163495
0.0163495
0.0165542
0.0165542
0.0165542
0.0160163
0.0160163
0.0160163
0.0159162
0.0159162
0.0159162
0.0156904
0.0156904
0.0156904
0.015565
0.015565
0.015565
0.0168026
0.0168026
0.0168026
0.0164657
0.0164657
0.0164657
0.0163688
0.0163688
0.0163688
0.016136
0.016136
0.016136
0.0160007
0.0160007
0.0160007
0.0152494
0.0152494
0.0152494
0.0153448
0.0153448
0.0153448
0.0157566
0.0157566
0.0157566
0.0154975
0.0154975
0.0154975
0.0162172
0.0162172
0.0162172
0.0163181
0.0163181
0.0163181
0.0151632
0.0151632
0.0151632
0.0152555
0.0152555
0.0152555
0.0156902
0.0156902
0.0156902
0.0159155
0.0159155
0.0159155
0.0154013
0.0154013
0.0154013
0.0138088
0.0138088
0.0138088
0.0271691
0.0271691
0.0271691
0.02694
0.02694
0.02694
0.0269699
0.0269699
0.0269699
0.0218702
0.0218702
0.0218702
0.0225146
0.0225146
0.0225146
0.0222044
0.0222044
0.0222044
0.0260345
0.0260345
0.0260345
0.0257424
0.0257424
0.0257424
0.0260248
0.0260248
0.0260248
0.0179969
0.0179969
0.0179969
0.0178967
0.0178967
0.0178967
0.0180572
0.0180572
0.0180572
0.0183223
0.0183223
0.0183223
0.0176967
0.0176967
0.0176967
0.0179556
0.0179556
0.0179556
0.0268706
0.0268706
0.0268706
0.026451
0.026451
0.026451
0.027064
0.027064
0.027064
0.0268312
0.0268312
0.0268312
0.0263706
0.0263706
0.0263706
0.0261426
0.0261426
0.0261426
0.0257367
0.0257367
0.0257367
0.0256916
0.0256916
0.0256916
0.0255146
0.0255146
0.0255146
0.0249473
0.0249473
0.0249473
0.0251203
0.0251203
0.0251203
0.0268251
0.0268251
0.0268251
0.0261143
0.0261143
0.0261143
0.0209818
0.0209818
0.0209818
0.0203635
0.0203635
0.0203635
0.0258211
0.0258211
0.0258211
0.0262958
0.0262958
0.0262958
0.0258869
0.0258869
0.0258869
0.0265189
0.0265189
0.0265189
0.0130979
0.0130979
0.0130979
0.0127113
0.0127113
0.0127113
0.0122301
0.0122301
0.0122301
0.0122399
0.0122399
0.0122399
0.0123201
0.0123201
0.0123201
0.0127596
0.0127596
0.0127596
0.0124919
0.0124919
0.0124919
0.0125836
0.0125836
0.0125836
0.0123095
0.0123095
0.0123095
0.0120921
0.0120921
0.0120921
0.0125193
0.0125193
0.0125193
0.0126953
0.0126953
0.0126953
0.0111855
0.0111855
0.0111855
0.0115835
0.0115835
0.0115835
0.0114263
0.0114263
0.0114263
0.0113387
0.0113387
0.0113387
0.0119055
0.0119055
0.0119055
0.0116219
0.0116219
0.0116219
0.011464
0.011464
0.011464
0.0149176
0.0149176
0.0149176
0.0148148
0.0148148
0.0148148
0.0149228
0.0149228
0.0149228
0.0143022
0.0143022
0.0143022
0.0145058
0.0145058
0.0145058
0.0141992
0.0141992
0.0141992
0.0142972
0.0142972
0.0142972
0.0146064
0.0146064
0.0146064
0.0145007
0.0145007
0.0145007
0.0157924
0.0157924
0.0157924
0.015561
0.015561
0.015561
0.0156885
0.0156885
0.0156885
0.0159135
0.0159135
0.0159135
0.0157981
0.0157981
0.0157981
0.0241031
0.0241031
0.0241031
0.0214603
0.0214603
0.0214603
0.0221188
0.0221188
0.0221188
0.0204182
0.0204182
0.0204182
0.0201162
0.0201162
0.0201162
0.0203978
0.0203978
0.0203978
0.0195083
0.0195083
0.0195083
0.0192208
0.0192208
0.0192208
0.021336
0.021336
0.021336
0.0216517
0.0216517
0.0216517
0.0219817
0.0219817
0.0219817
0.0216586
0.0216586
0.0216586
0.0214929
0.0214929
0.0214929
0.0216298
0.0216298
0.0216298
0.0219592
0.0219592
0.0219592
0.0224834
0.0224834
0.0224834
0.0221444
0.0221444
0.0221444
0.0219718
0.0219718
0.0219718
0.0221329
0.0221329
0.0221329
0.0236403
0.0236403
0.0236403
0.0141936
0.0141936
0.0141936
0.0139949
0.0139949
0.0139949
0.0161317
0.0161317
0.0161317
0.0162438
0.0162438
0.0162438
0.0159022
0.0159022
0.0159022
0.0157849
0.0157849
0.0157849
0.0165933
0.0165933
0.0165933
0.0186645
0.0186645
0.0186645
0.0187983
0.0187983
0.0187983
0.0189395
0.0189395
0.0189395
0.0189336
0.0189336
0.0189336
0.0187912
0.0187912
0.0187912
0.0173449
0.0173449
0.0173449
0.0175986
0.0175986
0.0175986
0.0184973
0.0184973
0.0184973
0.0168432
0.0168432
0.0168432
0.0173376
0.0173376
0.0173376
0.0169691
0.0169691
0.0169691
0.0172164
0.0172164
0.0172164
0.0204999
0.0204999
0.0204999
0.0201968
0.0201968
0.0201968
0.018499
0.018499
0.018499
0.019284
0.019284
0.019284
0.0191811
0.0191811
0.0191811
0.0185279
0.0185279
0.0185279
0.018801
0.018801
0.018801
0.0184289
0.0184289
0.0184289
0.0185996
0.0185996
0.0185996
0.0186693
0.0186693
0.0186693
0.018945
0.018945
0.018945
0.0200751
0.0200751
0.0200751
0.0203758
0.0203758
0.0203758
0.0160391
0.0160391
0.0160391
0.016127
0.016127
0.016127
0.0159854
0.0159854
0.0159854
0.0157595
0.0157595
0.0157595
0.0156743
0.0156743
0.0156743
0.0158122
0.0158122
0.0158122
0.0161415
0.0161415
0.0161415
0.0159128
0.0159128
0.0159128
0.0159607
0.0159607
0.0159607
0.0158238
0.0158238
0.0158238
0.0166105
0.0166105
0.0166105
0.0169988
0.0169988
0.0169988
0.0168509
0.0168509
0.0168509
0.015646
0.015646
0.015646
0.0155126
0.0155126
0.0155126
0.0155572
0.0155572
0.0155572
0.014124
0.014124
0.014124
0.0139277
0.0139277
0.0139277
0.0148672
0.0148672
0.0148672
0.0150419
0.0150419
0.0150419
0.0152356
0.0152356
0.0152356
0.0151001
0.0151001
0.0151001
0.015157
0.015157
0.015157
0.0149449
0.0149449
0.0149449
0.0141489
0.0141489
0.0141489
0.0138304
0.0138304
0.0138304
0.0139529
0.0139529
0.0139529
0.0133159
0.0133159
0.0133159
0.0128393
0.0128393
0.0128393
0.0130177
0.0130177
0.0130177
0.0131328
0.0131328
0.0131328
0.0130659
0.0130659
0.0130659
0.0125808
0.0125808
0.0125808
0.0114472
0.0114472
0.0114472
0.0112585
0.0112585
0.0112585
0.0114122
0.0114122
0.0114122
0.0115078
0.0115078
0.0115078
0.0115426
0.0115426
0.0115426
0.0115765
0.0115765
0.0115765
0.0114812
0.0114812
0.0114812
0.011701
0.011701
0.011701
0.0113761
0.0113761
0.0113761
0.0111297
0.0111297
0.0111297
0.0112232
0.0112232
0.0112232
0.0114347
0.0114347
0.0114347
0.0118878
0.0118878
0.0118878
0.0117268
0.0117268
0.0117268
0.0116654
0.0116654
0.0116654
0.0117633
0.0117633
0.0117633
0.0124905
0.0124905
0.0124905
0.0123202
0.0123202
0.0123202
0.0123029
0.0123029
0.0123029
0.0121357
0.0121357
0.0121357
0.012259
0.012259
0.012259
0.0123655
0.0123655
0.0123655
0.017112
0.017112
0.017112
0.0166273
0.0166273
0.0166273
0.0167767
0.0167767
0.0167767
0.0170195
0.0170195
0.0170195
0.0165671
0.0165671
0.0165671
0.0170495
0.0170495
0.0170495
0.0167168
0.0167168
0.0167168
0.0169585
0.0169585
0.0169585
0.0166551
0.0166551
0.0166551
0.0168957
0.0168957
0.0168957
0.0177089
0.0177089
0.0177089
0.0174545
0.0174545
0.0174545
0.0172969
0.0172969
0.0172969
0.0178046
0.0178046
0.0178046
0.0176426
0.0176426
0.0176426
0.0173894
0.0173894
0.0173894
0.0156492
0.0156492
0.0156492
0.01593
0.01593
0.01593
0.0157052
0.0157052
0.0157052
0.0155666
0.0155666
0.0155666
0.0160153
0.0160153
0.0160153
0.015873
0.015873
0.015873
0.0157543
0.0157543
0.0157543
0.0158969
0.0158969
0.0158969
0.015835
0.015835
0.015835
0.0160616
0.0160616
0.0160616
0.0161246
0.0161246
0.0161246
0.0162088
0.0162088
0.0162088
0.0153312
0.0153312
0.0153312
0.0154116
0.0154116
0.0154116
0.0151767
0.0151767
0.0151767
0.0149832
0.0149832
0.0149832
0.0151165
0.0151165
0.0151165
0.0169853
0.0169853
0.0169853
0.0172315
0.0172315
0.0172315
0.0169195
0.0169195
0.0169195
0.0168311
0.0168311
0.0168311
0.0171644
0.0171644
0.0171644
0.0173223
0.0173223
0.0173223
0.0178527
0.0178527
0.0178527
0.0180185
0.0180185
0.0180185
0.0175961
0.0175961
0.0175961
0.017504
0.017504
0.017504
0.0176671
0.0176671
0.0176671
0.017925
0.017925
0.017925
0.0191247
0.0191247
0.0191247
0.0190216
0.0190216
0.0190216
0.018016
0.018016
0.018016
0.0188214
0.0188214
0.0188214
0.0105864
0.0105864
0.0105864
0.0111867
0.0111867
0.0111867
0.0113387
0.0113387
0.0113387
0.0115093
0.0115093
0.0115093
0.0113552
0.0113552
0.0113552
0.011551
0.011551
0.011551
0.011609
0.011609
0.011609
0.0113959
0.0113959
0.0113959
0.0112997
0.0112997
0.0112997
0.0118492
0.0118492
0.0118492
0.0116499
0.0116499
0.0116499
0.0118092
0.0118092
0.0118092
0.0119102
0.0119102
0.0119102
0.0115907
0.0115907
0.0115907
0.011689
0.011689
0.011689
0.0118255
0.0118255
0.0118255
0.0119877
0.0119877
0.0119877
0.0117674
0.0117674
0.0117674
0.0118689
0.0118689
0.0118689
0.0120925
0.0120925
0.0120925
0.0120317
0.0120317
0.0120317
0.0122734
0.0122734
0.0122734
0.0119418
0.0119418
0.0119418
0.0122138
0.0122138
0.0122138
0.0120478
0.0120478
0.0120478
0.0109654
0.0109654
0.0109654
0.0109938
0.0109938
0.0109938
0.0109057
0.0109057
0.0109057
0.0111437
0.0111437
0.0111437
0.0112051
0.0112051
0.0112051
0.0111148
0.0111148
0.0111148
0.0107857
0.0107857
0.0107857
0.0110817
0.0110817
0.0110817
0.0112331
0.0112331
0.0112331
0.0111996
0.0111996
0.0111996
0.0112928
0.0112928
0.0112928
0.0108103
0.0108103
0.0108103
0.0109907
0.0109907
0.0109907
0.0107536
0.0107536
0.0107536
0.0108429
0.0108429
0.0108429
0.0109576
0.0109576
0.0109576
0.0110488
0.0110488
0.0110488
0.0119962
0.0119962
0.0119962
0.0119612
0.0119612
0.0119612
0.0120612
0.0120612
0.0120612
0.0117987
0.0117987
0.0117987
0.0118331
0.0118331
0.0118331
0.0117356
0.0117356
0.0117356
0.013069
0.013069
0.013069
0.0126062
0.0126062
0.0126062
0.0125374
0.0125374
0.0125374
0.0127817
0.0127817
0.0127817
0.012889
0.012889
0.012889
0.0133572
0.0133572
0.0133572
0.0135444
0.0135444
0.0135444
0.0136176
0.0136176
0.0136176
0.0123863
0.0123863
0.0123863
0.0124512
0.0124512
0.0124512
0.0124642
0.0124642
0.0124642
0.0122939
0.0122939
0.0122939
0.0127426
0.0127426
0.0127426
0.0126388
0.0126388
0.0126388
0.0124331
0.0124331
0.0124331
0.0120633
0.0120633
0.0120633
0.0121627
0.0121627
0.0121627
0.0121299
0.0121299
0.0121299
0.0123313
0.0123313
0.0123313
0.0122979
0.0122979
0.0122979
0.0123999
0.0123999
0.0123999
0.0124962
0.0124962
0.0124962
0.0127007
0.0127007
0.0127007
0.0126703
0.0126703
0.0126703
0.0127739
0.0127739
0.0127739
0.012156
0.012156
0.012156
0.0123949
0.0123949
0.0123949
0.0124652
0.0124652
0.0124652
0.0123637
0.0123637