<VTKFile type="UnstructuredGrid" version="1.0">
<UnstructuredGrid>
<Piece NumberOfPoints="8859" NumberOfCells="2953">
<Points>
<DataArray type="Float64" NumberOfComponents="3" format="ascii">
2.04744 2.20956 9.27262
2.06275 2.19425 9.28458
2.04754 2.20946 9.29833
2.07804 2.17896 9.22167
2.07805 2.17895 9.19652
2.0934 2.1636 9.20898
2.06271 2.19429 9.23436
2.07804 2.17896 9.22167
2.07804 2.17896 9.24686
2.01701 2.23999 9.32488
2.03242 2.22458 9.3325
2.00164 2.25536 9.3325
2.01701 2.23999 9.32488
2.03232 2.22468 9.30957
2.03242 2.22458 9.3325
2.04777 2.20923 9.32479
2.06326 2.19374 9.3325
2.03242 2.22458 9.3325
2.04777 2.20923 9.32479
2.03232 2.22468 9.30957
2.04754 2.20946 9.29833
2.03242 2.22458 9.3325
2.03232 2.22468 9.30957
2.04777 2.20923 9.32479
2.04754 2.20946 9.29833
2.06275 2.19425 9.28458
2.06287 2.19413 9.30927
2.06287 2.19413 9.30927
2.04777 2.20923 9.32479
2.04754 2.20946 9.29833
2.06326 2.19374 9.3325
2.04777 2.20923 9.32479
2.06287 2.19413 9.30927
2.06275 2.19425 9.28458
2.04744 2.20956 9.27262
2.06271 2.19429 9.25952
2.06271 2.19429 9.23436
2.07804 2.17896 9.24686
2.06271 2.19429 9.25952
2.07809 2.17891 9.29762
2.06287 2.19413 9.30927
2.06275 2.19425 9.28458
2.0934 2.1636 9.28395
2.0934 2.1636 9.30855
2.07809 2.17891 9.29762
2.0934 2.1636 9.18387
2.0934 2.1636 9.20898
2.07805 2.17895 9.19652
2.07804 2.17896 9.22167
2.0934 2.1636 9.20898
2.0934 2.1636 9.23406
2.0934 2.1636 9.23406
2.07804 2.17896 9.24686
2.07804 2.17896 9.22167
2.0934 2.1636 8.65652
2.0934 2.1636 8.68165
2.07807 2.17893 8.66907
2.07807 2.17893 9.12107
2.0934 2.1636 9.13361
2.07806 2.17894 9.14621
2.0934 2.1636 9.10848
2.0934 2.1636 9.13361
2.07807 2.17893 9.12107
2.07808 2.17892 8.99544
2.0934 2.1636 9.00799
2.07808 2.17892 9.02055
1.61564 2.64136 8.44059
1.63134 2.62566 8.4325
1.63134 2.62566 8.45563
1.5683 2.6887 9.3325
1.53648 2.72052 9.3325
1.55243 2.70457 9.32432
2.07804 2.17896 9.27212
2.06271 2.19429 9.25952
2.07804 2.17896 9.24686
2.06275 2.19425 9.28458
2.06271 2.19429 9.25952
2.07804 2.17896 9.27212
2.07804 2.17896 9.27212
2.07809 2.17891 9.29762
2.06275 2.19425 9.28458
2.0934 2.1636 9.28395
2.07809 2.17891 9.29762
2.07804 2.17896 9.27212
2.07833 2.17867 9.32384
2.0934 2.1636 9.30855
2.0934 2.1636 9.3325
2.07833 2.17867 9.32384
2.07809 2.17891 9.29762
2.0934 2.1636 9.30855
2.0934 2.1636 9.3325
2.06326 2.19374 9.3325
2.07833 2.17867 9.32384
2.06326 2.19374 9.3325
2.06287 2.19413 9.30927
2.07833 2.17867 9.32384
2.06287 2.19413 9.30927
2.07809 2.17891 9.29762
2.07833 2.17867 9.32384
2.07806 2.17894 9.14621
2.0934 2.1636 9.13361
2.0934 2.1636 9.15874
2.07804 2.17896 9.24686
2.0934 2.1636 9.23406
2.0934 2.1636 9.25907
2.0934 2.1636 9.28395
2.07804 2.17896 9.27212
2.0934 2.1636 9.25907
2.0934 2.1636 9.25907
2.07804 2.17896 9.27212
2.07804 2.17896 9.24686
2.0934 2.1636 8.98289
2.0934 2.1636 9.00799
2.07808 2.17892 8.99544
2.07807 2.17893 8.66907
2.0934 2.1636 8.68165
2.07807 2.17893 8.6942
2.06275 2.19425 9.10853
2.04743 2.20957 9.09598
2.06275 2.19425 9.08338
2.07806 2.17894 9.17136
2.0934 2.1636 9.18387
2.07805 2.17895 9.19652
2.07806 2.17894 9.17136
2.0934 2.1636 9.15874
2.0934 2.1636 9.18387
2.07806 2.17894 9.17136
2.06273 2.19427 9.15884
2.07806 2.17894 9.14621
2.07806 2.17894 9.14621
2.0934 2.1636 9.15874
2.07806 2.17894 9.17136
2.06271 2.19429 9.20918
2.07804 2.17896 9.22167
2.06271 2.19429 9.23436
2.06271 2.19429 9.20918
2.07805 2.17895 9.19652
2.07804 2.17896 9.22167
2.04741 2.20959 9.17149
2.03209 2.22491 9.18415
2.0321 2.2249 9.15894
1.83285 2.42415 9.29838
1.81747 2.43953 9.2849
1.83285 2.42415 9.27275
1.78664 2.47036 9.1338
1.78664 2.47036 9.159
1.77121 2.48579 9.14639
2.0934 2.1636 8.4325
2.0934 2.1636 8.45645
2.07833 2.17867 8.44116
1.56833 2.68867 9.30933
1.5683 2.6887 9.3325
1.55243 2.70457 9.32432
1.63134 2.62566 9.23446
1.61565 2.64135 9.24714
1.61564 2.64136 9.22185
1.55243 2.70457 9.32432
1.53648 2.72052 9.3325
1.53664 2.72036 9.30923
2.06276 2.19424 8.757
2.04745 2.20955 8.74443
2.06276 2.19424 8.73188
2.0934 2.1636 8.90759
2.07808 2.17892 8.89505
2.0934 2.1636 8.8825
2.07808 2.17892 8.94524
2.0934 2.1636 8.93269
2.0934 2.1636 8.95778
2.06277 2.19423 8.85741
2.04745 2.20955 8.86995
2.04745 2.20955 8.84486
2.06277 2.19423 8.8825
2.04745 2.20955 8.86995
2.06277 2.19423 8.85741
2.07808 2.17892 8.89505
2.06277 2.19423 8.90759
2.06277 2.19423 8.8825
2.04745 2.20955 9.02057
2.06276 2.19424 9.03312
2.04744 2.20956 9.0457
2.01682 2.24018 8.99547
2.01682 2.24018 9.02059
2.0015 2.2555 9.00803
2.04745 2.20955 8.99545
2.03214 2.22486 8.9829
2.04745 2.20955 8.97035
2.04745 2.20955 8.97035
2.06277 2.19423 8.98289
2.04745 2.20955 8.99545
2.03214 2.22486 8.9829
2.03214 2.22486 8.9578
2.04745 2.20955 8.97035
2.04745 2.20955 8.97035
2.03214 2.22486 8.9578
2.04745 2.20955 8.94524
2.0934 2.1636 8.95778
2.0934 2.1636 8.98289
2.07808 2.17892 8.97034
2.07808 2.17892 8.97034
2.07808 2.17892 8.94524
2.0934 2.1636 8.95778
2.07808 2.17892 8.97034
2.0934 2.1636 8.98289
2.07808 2.17892 8.99544
2.07808 2.17892 8.99544
2.06277 2.19423 8.98289
2.07808 2.17892 8.97034
2.04744 2.20956 9.07083
2.03213 2.22487 9.05828
2.04744 2.20956 9.0457
2.04744 2.20956 9.07083
2.06275 2.19425 9.08338
2.04743 2.20957 9.09598
2.0015 2.2555 9.0583
2.01681 2.24019 9.04572
2.01681 2.24019 9.07086
2.01681 2.24019 9.07086
2.01681 2.24019 9.04572
2.03213 2.22487 9.05828
2.0934 2.1636 9.0331
2.07808 2.17892 9.02055
2.0934 2.1636 9.00799
2.04744 2.20956 9.0457
2.06276 2.19424 9.03312
2.06276 2.19424 9.05825
2.06276 2.19424 9.05825
2.04744 2.20956 9.07083
2.04744 2.20956 9.0457
2.06275 2.19425 9.08338
2.04744 2.20956 9.07083
2.06276 2.19424 9.05825
2.07806 2.17894 9.14621
2.06273 2.19427 9.15884
2.06274 2.19426 9.13368
2.06274 2.19426 9.13368
2.07807 2.17893 9.12107
2.07806 2.17894 9.14621
2.06275 2.19425 9.10853
2.07807 2.17893 9.12107
2.06274 2.19426 9.13368
2.0321 2.2249 9.15894
2.03211 2.22489 9.13375
2.04742 2.20958 9.1463
2.04742 2.20958 9.1463
2.04741 2.20959 9.17149
2.0321 2.2249 9.15894
2.06273 2.19427 9.15884
2.04741 2.20959 9.17149
2.04742 2.20958 9.1463
2.04742 2.20958 9.1463
2.06274 2.19426 9.13368
2.06273 2.19427 9.15884
2.01679 2.24021 9.14638
2.03211 2.22489 9.13375
2.0321 2.2249 9.15894
2.01679 2.24021 9.14638
2.00148 2.25552 9.15901
2.00148 2.25552 9.13381
2.06271 2.19429 9.23436
2.06271 2.19429 9.25952
2.04741 2.20959 9.24722
2.04741 2.20959 9.24722
2.06271 2.19429 9.25952
2.04744 2.20956 9.27262
2.03209 2.22491 9.18415
2.04741 2.20959 9.17149
2.0474 2.2096 9.19669
2.0474 2.2096 9.19669
2.03209 2.22491 9.20937
2.03209 2.22491 9.18415
1.97087 2.28613 9.03317
1.95555 2.30145 9.04575
1.95555 2.30145 9.02061
2.00148 2.25552 9.13381
2.00149 2.25551 9.10862
2.0168 2.2402 9.12119
2.0168 2.2402 9.12119
2.01679 2.24021 9.14638
2.00148 2.25552 9.13381
2.03211 2.22489 9.13375
2.01679 2.24021 9.14638
2.0168 2.2402 9.12119
2.03211 2.22489 9.10858
2.03211 2.22489 9.13375
2.0168 2.2402 9.12119
1.86358 2.39342 9.27276
1.86358 2.39342 9.29839
1.84822 2.40878 9.28491
1.84822 2.40878 9.28491
1.86358 2.39342 9.29839
1.84822 2.40878 9.3095
1.84822 2.40878 9.28491
1.84822 2.40878 9.3095
1.83285 2.42415 9.29838
1.83285 2.42415 9.29838
1.83285 2.42415 9.27275
1.84822 2.40878 9.28491
1.81747 2.43953 9.25984
1.83285 2.42415 9.27275
1.81747 2.43953 9.2849
1.80202 2.45498 8.89505
1.80202 2.45498 8.92015
1.7866 2.4704 8.9076
1.70922 2.54778 9.02056
1.69367 2.56333 9.008
1.70922 2.54778 8.99545
1.70924 2.54776 9.07083
1.6937 2.5633 9.08339
1.69369 2.56331 9.05825
1.63134 2.62566 9.23446
1.61564 2.64136 9.22185
1.63132 2.62568 9.20924
1.63135 2.62565 9.25966
1.61565 2.64135 9.24714
1.63134 2.62566 9.23446
1.69376 2.56324 9.18412
1.69378 2.56322 9.20934
1.6782 2.5788 9.19672
1.59983 2.65717 9.13358
1.61554 2.64146 9.12103
1.61557 2.64143 9.1462
1.59973 2.65727 9.03303
1.58397 2.67303 9.04556
1.58396 2.67304 9.02046
1.61564 2.64136 9.32441
1.63134 2.62566 9.3325
1.5999 2.6571 9.3325
1.63134 2.62566 9.30937
1.63134 2.62566 9.3325
1.61564 2.64136 9.32441
1.647 2.61 9.32447
1.63134 2.62566 9.3325
1.63134 2.62566 9.30937
1.59993 2.65707 9.25961
1.59992 2.65708 9.28469
1.58418 2.67282 9.27246
1.84822 2.40878 9.3325
1.81747 2.43953 9.3325
1.83285 2.42415 9.32472
1.83285 2.42415 9.29838
1.84822 2.40878 9.3095
1.83285 2.42415 9.32472
1.83285 2.42415 9.32472
1.84822 2.40878 9.3095
1.84822 2.40878 9.3325
1.81747 2.43953 9.30949
1.81747 2.43953 9.2849
1.83285 2.42415 9.29838
1.83285 2.42415 9.29838
1.83285 2.42415 9.32472
1.81747 2.43953 9.30949
1.81747 2.43953 9.30949
1.83285 2.42415 9.32472
1.81747 2.43953 9.3325
1.70931 2.54769 9.19676
1.69378 2.56322 9.20934
1.69376 2.56324 9.18412
1.7712 2.4858 9.1212
1.78663 2.47037 9.10862
1.78664 2.47036 9.1338
1.78664 2.47036 9.1338
1.77121 2.48579 9.14639
1.7712 2.4858 9.1212
1.77122 2.48578 9.1716
1.77121 2.48579 9.14639
1.78664 2.47036 9.159
1.77122 2.48578 9.1716
1.78664 2.47036 9.159
1.78665 2.47035 9.18421
1.78665 2.47035 9.18421
1.77123 2.48577 9.19682
1.77122 2.48578 9.1716
1.77122 2.48578 9.1716
1.77123 2.48577 9.19682
1.75578 2.50122 9.18419
1.78666 2.47034 9.20943
1.77123 2.48577 9.19682
1.78665 2.47035 9.18421
1.78666 2.47034 9.23464
1.77124 2.48576 9.24734
1.77124 2.48576 9.22206
1.77124 2.48576 9.22206
1.78666 2.47034 9.20943
1.78666 2.47034 9.23464
1.77123 2.48577 9.19682
1.78666 2.47034 9.20943
1.77124 2.48576 9.22206
2.07809 2.17891 8.46738
2.07833 2.17867 8.44116
2.0934 2.1636 8.45645
2.06287 2.19413 8.45573
2.07833 2.17867 8.44116
2.07809 2.17891 8.46738
1.94028 2.31672 8.45548
1.94028 2.31672 8.4325
1.95561 2.30139 8.44021
2.00164 2.25536 8.4325
1.98629 2.27071 8.44017
1.97095 2.28605 8.4325
1.97095 2.28605 8.4325
1.95561 2.30139 8.44021
1.94028 2.31672 8.4325
1.48928 2.76772 8.46897
1.48919 2.76781 8.44286
1.50509 2.75191 8.45645
1.50509 2.75191 8.45645
1.5206 2.7364 8.44101
1.52092 2.73608 8.46745
1.47362 2.78338 8.45782
1.48919 2.76781 8.44286
1.48928 2.76772 8.46897
1.47362 2.78338 8.45782
1.47412 2.78288 8.4325
1.48919 2.76781 8.44286
1.56833 2.68867 8.45567
1.5683 2.6887 8.4325
1.58412 2.67288 8.44063
[...]
<PointData Scalars="View Factor" >
<DataArray type="Float64" Name="View Factor" NumberOfComponents="1" format="ascii">
7.87903e-05
7.87903e-05
7.87903e-05
7.99773e-05
7.99773e-05
7.99773e-05
7.95799e-05
7.95799e-05
7.95799e-05
7.85225e-05
7.85225e-05
7.85225e-05
7.84686e-05
7.84686e-05
7.84686e-05
7.78199e-05
7.78199e-05
7.78199e-05
7.83906e-05
7.83906e-05
7.83906e-05
7.82303e-05
7.82303e-05
7.82303e-05
7.83755e-05
7.83755e-05
7.83755e-05
7.816e-05
7.816e-05
7.816e-05
7.77706e-05
7.77706e-05
7.77706e-05
7.89915e-05
7.89915e-05
7.89915e-05
7.93833e-05
7.93833e-05
7.93833e-05
7.81523e-05
7.81523e-05
7.81523e-05
7.77157e-05
7.77157e-05
7.77157e-05
8.01778e-05
8.01778e-05
8.01778e-05
7.95522e-05
7.95522e-05
7.95522e-05
7.93532e-05
7.93532e-05
7.93532e-05
9.48466e-05
9.48466e-05
9.48466e-05
8.18865e-05
8.18865e-05
8.18865e-05
8.20931e-05
8.20931e-05
8.20931e-05
8.51945e-05
8.51945e-05
8.51945e-05
0.00018578
0.00018578
0.00018578
0.000152749
0.000152749
0.000152749
7.89543e-05
7.89543e-05
7.89543e-05
7.87643e-05
7.87643e-05
7.87643e-05
7.8344e-05
7.8344e-05
7.8344e-05
7.81243e-05
7.81243e-05
7.81243e-05
7.71167e-05
7.71167e-05
7.71167e-05
7.75047e-05
7.75047e-05
7.75047e-05
7.71429e-05
7.71429e-05
7.71429e-05
7.7551e-05
7.7551e-05
7.7551e-05
7.77213e-05
7.77213e-05
7.77213e-05
8.14483e-05
8.14483e-05
8.14483e-05
7.89332e-05
7.89332e-05
7.89332e-05
7.83212e-05
7.83212e-05
7.83212e-05
7.8731e-05
7.8731e-05
7.8731e-05
8.54119e-05
8.54119e-05
8.54119e-05
9.45961e-05
9.45961e-05
9.45961e-05
8.34675e-05
8.34675e-05
8.34675e-05
8.06074e-05
8.06074e-05
8.06074e-05
8.08099e-05
8.08099e-05
8.08099e-05
8.14778e-05
8.14778e-05
8.14778e-05
8.12439e-05
8.12439e-05
8.12439e-05
8.00081e-05
8.00081e-05
8.00081e-05
8.02066e-05
8.02066e-05
8.02066e-05
8.20017e-05
8.20017e-05
8.20017e-05
0.00010485
0.00010485
0.00010485
0.000118256
0.000118256
0.000118256
0.000102133
0.000102133
0.000102133
0.000151191
0.000151191
0.000151191
0.000144676
0.000144676
0.000144676
0.000155005
0.000155005
0.000155005
9.33733e-05
9.33733e-05
9.33733e-05
8.81849e-05
8.81849e-05
8.81849e-05
8.67848e-05
8.67848e-05
8.67848e-05
9.0177e-05
9.0177e-05
9.0177e-05
8.96766e-05
8.96766e-05
8.96766e-05
8.86969e-05
8.86969e-05
8.86969e-05
8.52653e-05
8.52653e-05
8.52653e-05
8.70058e-05
8.70058e-05
8.70058e-05
8.68944e-05
8.68944e-05
8.68944e-05
8.66334e-05
8.66334e-05
8.66334e-05
8.73743e-05
8.73743e-05
8.73743e-05
8.75948e-05
8.75948e-05
8.75948e-05
8.60951e-05
8.60951e-05
8.60951e-05
8.65628e-05
8.65628e-05
8.65628e-05
8.58754e-05
8.58754e-05
8.58754e-05
8.61239e-05
8.61239e-05
8.61239e-05
8.48453e-05
8.48453e-05
8.48453e-05
8.39231e-05
8.39231e-05
8.39231e-05
8.56322e-05
8.56322e-05
8.56322e-05
8.53658e-05
8.53658e-05
8.53658e-05
8.47354e-05
8.47354e-05
8.47354e-05
8.48012e-05
8.48012e-05
8.48012e-05
8.4591e-05
8.4591e-05
8.4591e-05
8.41312e-05
8.41312e-05
8.41312e-05
8.19183e-05
8.19183e-05
8.19183e-05
8.21226e-05
8.21226e-05
8.21226e-05
8.25673e-05
8.25673e-05
8.25673e-05
8.26515e-05
8.26515e-05
8.26515e-05
8.22019e-05
8.22019e-05
8.22019e-05
8.19567e-05
8.19567e-05
8.19567e-05
8.21589e-05
8.21589e-05
8.21589e-05
8.29037e-05
8.29037e-05
8.29037e-05
8.34157e-05
8.34157e-05
8.34157e-05
7.96139e-05
7.96139e-05
7.96139e-05
7.94197e-05
7.94197e-05
7.94197e-05
8.15561e-05
8.15561e-05
8.15561e-05
8.13577e-05
8.13577e-05
8.13577e-05
8.77203e-05
8.77203e-05
8.77203e-05
8.40869e-05
8.40869e-05
8.40869e-05
8.36193e-05
8.36193e-05
8.36193e-05
8.33601e-05
8.33601e-05
8.33601e-05
8.35619e-05
8.35619e-05
8.35619e-05
9.93031e-05
9.93031e-05
9.93031e-05
9.98394e-05
9.98394e-05
9.98394e-05
0.00010168
0.00010168
0.00010168
0.000102999
0.000102999
0.000102999
0.000106196
0.000106196
0.000106196
0.000124463
0.000124463
0.000124463
0.000138917
0.000138917
0.000138917
0.000137173
0.000137173
0.000137173
0.000144282
0.000144282
0.000144282
0.00014315
0.00014315
0.00014315
0.000133739
0.000133739
0.000133739
0.000151383
0.000151383
0.000151383
0.000160474
0.000160474
0.000160474
0.000141371
0.000141371
0.000141371
0.000139824
0.000139824
0.000139824
0.000137941
0.000137941
0.000137941
0.000147764
0.000147764
0.000147764
0.000102479
0.000102479
0.000102479
0.000102187
0.000102187
0.000102187
0.000100907
0.000100907
0.000100907
0.000105372
0.000105372
0.000105372
0.000104024
0.000104024
0.000104024
0.000104569
0.000104569
0.000104569
0.000131799
0.000131799
0.000131799
0.000119211
0.000119211
0.000119211
0.000119706
0.000119706
0.000119706
0.000118764
0.000118764
0.000118764
0.000117318
0.000117318
0.000117318
0.000117817
0.000117817
0.000117817
0.000119742
0.000119742
0.000119742
0.000116395
0.000116395
0.000116395
0.000115964
0.000115964
0.000115964
0.000115472
0.000115472
0.000115472
0.000116879
0.000116879
0.000116879
0.000101887
0.000101887
0.000101887
0.000102192
0.000102192
0.000102192
0.000109712
0.000109712
0.000109712
0.000105626
0.000105626
0.000105626
0.000107574
0.000107574
0.000107574
0.000216468
0.000216468
0.000216468
0.000211513
0.000211513
0.000211513
0.000218948
0.000218948
0.000218948
0.000221047
0.000221047
0.000221047
0.000198396
0.000198396
0.000198396
0.000188781
0.000188781
0.000188781
0.000196379
0.000196379
0.000196379
0.000208664
0.000208664
0.000208664
0.000206606
0.000206606
0.000206606
0.00014359
0.00014359
0.00014359
0.000148134
0.000148134
0.000148134
0.000146616
0.000146616
0.000146616
0.000164255
0.000164255
0.000164255
0.000162554
0.000162554
0.000162554
0.000152936
0.000152936
0.000152936
9.53724e-05
9.53724e-05
9.53724e-05
8.96129e-05
8.96129e-05
8.96129e-05
9.18718e-05
9.18718e-05
9.18718e-05
9.1634e-05
9.1634e-05
9.1634e-05
9.26187e-05
9.26187e-05
9.26187e-05
9.23825e-05
9.23825e-05
9.23825e-05
9.26624e-05
9.26624e-05
9.26624e-05
9.3181e-05
9.3181e-05
9.3181e-05
9.34169e-05
9.34169e-05
9.34169e-05
9.31345e-05
9.31345e-05
9.31345e-05
0.000133932
0.000133932
0.000133932
0.000134632
0.000134632
0.000134632
0.000136732
0.000136732
0.000136732
9.39407e-05
9.39407e-05
9.39407e-05
9.40755e-05
9.40755e-05
9.40755e-05
9.0309e-05
9.0309e-05
9.0309e-05
9.43134e-05
9.43134e-05
9.43134e-05
8.75603e-05
8.75603e-05
8.75603e-05
9.51937e-05
9.51937e-05
9.51937e-05
9.0783e-05
9.0783e-05
9.0783e-05
9.13047e-05
9.13047e-05
9.13047e-05
9.32546e-05
9.32546e-05
9.32546e-05
9.39092e-05
9.39092e-05
9.39092e-05
9.04496e-05
9.04496e-05
9.04496e-05
8.88953e-05
8.88953e-05
8.88953e-05
8.86661e-05
8.86661e-05
8.86661e-05
8.89232e-05
8.89232e-05
8.89232e-05
8.94117e-05
8.94117e-05
8.94117e-05
8.96405e-05
8.96405e-05
8.96405e-05
8.93812e-05
8.93812e-05
8.93812e-05
0.000107154
0.000107154
0.000107154
0.000106534
0.000106534
0.000106534
9.54332e-05
9.54332e-05
9.54332e-05
9.40056e-05
9.40056e-05
9.40056e-05
9.46627e-05
9.46627e-05
9.46627e-05
9.67386e-05
9.67386e-05
9.67386e-05
0.000107398
0.000107398
0.000107398
0.000108899
0.000108899
0.000108899
0.000110117
0.000110117
0.000110117
0.000108011
0.000108011
0.000108011
9.75262e-05
9.75262e-05
9.75262e-05
9.81742e-05
9.81742e-05
9.81742e-05
8.52261e-05
8.52261e-05
8.52261e-05
8.54776e-05
8.54776e-05
8.54776e-05
8.59461e-05
8.59461e-05
8.59461e-05
8.54409e-05
8.54409e-05
8.54409e-05
8.59068e-05
8.59068e-05
8.59068e-05
8.61605e-05
8.61605e-05
8.61605e-05
8.67347e-05
8.67347e-05
8.67347e-05
8.62048e-05
8.62048e-05
8.62048e-05
8.66803e-05
8.66803e-05
8.66803e-05
8.69464e-05
8.69464e-05
8.69464e-05
8.8966e-05
8.8966e-05
8.8966e-05
8.89048e-05
8.89048e-05
8.89048e-05
8.91878e-05
8.91878e-05
8.91878e-05
8.68135e-05
8.68135e-05
8.68135e-05
8.75466e-05
8.75466e-05
8.75466e-05
8.72882e-05
8.72882e-05
8.72882e-05
8.73318e-05
8.73318e-05
8.73318e-05
8.68501e-05
8.68501e-05
8.68501e-05
8.65942e-05
8.65942e-05
8.65942e-05
8.53119e-05
8.53119e-05
8.53119e-05
8.55734e-05
8.55734e-05
8.55734e-05
8.6047e-05
8.6047e-05
8.6047e-05
8.55218e-05
8.55218e-05
8.55218e-05
8.62566e-05
8.62566e-05
8.62566e-05
8.59928e-05
8.59928e-05
8.59928e-05
8.63161e-05
8.63161e-05
8.63161e-05
8.67924e-05
8.67924e-05
8.67924e-05
8.7068e-05
8.7068e-05
8.7068e-05
8.61128e-05
8.61128e-05
8.61128e-05
8.46375e-05
8.46375e-05
8.46375e-05
8.48966e-05
8.48966e-05
8.48966e-05
8.41751e-05
8.41751e-05
8.41751e-05
8.39693e-05
8.39693e-05
8.39693e-05
8.54268e-05
8.54268e-05
8.54268e-05
8.47602e-05
8.47602e-05
8.47602e-05
8.45161e-05
8.45161e-05
8.45161e-05
8.40655e-05
8.40655e-05
8.40655e-05
8.45516e-05
8.45516e-05
8.45516e-05
8.27442e-05
8.27442e-05
8.27442e-05
8.32225e-05
8.32225e-05
8.32225e-05
8.25355e-05
8.25355e-05
8.25355e-05
8.27736e-05
8.27736e-05
8.27736e-05
8.34015e-05
8.34015e-05
8.34015e-05
8.38565e-05
8.38565e-05
8.38565e-05
8.40986e-05
8.40986e-05
8.40986e-05
8.3884e-05
8.3884e-05
8.3884e-05
8.34309e-05
8.34309e-05
8.34309e-05
8.31907e-05
8.31907e-05
8.31907e-05
8.33074e-05
8.33074e-05
8.33074e-05
8.28101e-05
8.28101e-05
8.28101e-05
8.28535e-05
8.28535e-05
8.28535e-05
8.2606e-05
8.2606e-05
8.2606e-05
8.35112e-05
8.35112e-05
8.35112e-05
8.32614e-05
8.32614e-05
8.32614e-05
8.22514e-05
8.22514e-05
8.22514e-05
8.27037e-05
8.27037e-05
8.27037e-05
8.29609e-05
8.29609e-05
8.29609e-05
8.02414e-05
8.02414e-05
8.02414e-05
8.07154e-05
8.07154e-05
8.07154e-05
8.06757e-05
8.06757e-05
8.06757e-05
8.0916e-05
8.0916e-05
8.0916e-05
8.00396e-05
8.00396e-05
8.00396e-05
8.02772e-05
8.02772e-05
8.02772e-05
7.88386e-05
7.88386e-05
7.88386e-05
7.90227e-05
7.90227e-05
7.90227e-05
7.88712e-05
7.88712e-05
7.88712e-05
7.90771e-05
7.90771e-05
7.90771e-05
7.95013e-05
7.95013e-05
7.95013e-05
8.00901e-05
8.00901e-05
8.00901e-05
7.9699e-05
7.9699e-05
7.9699e-05
7.96544e-05
7.96544e-05
7.96544e-05
7.94588e-05
7.94588e-05
7.94588e-05
8.13133e-05
8.13133e-05
8.13133e-05
8.08391e-05
8.08391e-05
8.08391e-05
8.06388e-05
8.06388e-05
8.06388e-05
8.08747e-05
8.08747e-05
8.08747e-05
8.12755e-05
8.12755e-05
8.12755e-05
8.15138e-05
8.15138e-05
8.15138e-05
0.00010234
0.00010234
0.00010234
0.000103765
0.000103765
0.000103765
9.63167e-05
9.63167e-05
9.63167e-05
0.00010033
0.00010033
0.00010033
8.72271e-05
8.72271e-05
8.72271e-05
9.70216e-05
9.70216e-05
9.70216e-05
9.90813e-05
9.90813e-05
9.90813e-05
9.85168e-05
9.85168e-05
9.85168e-05
0.000125005
0.000125005
0.000125005
0.000122366
0.000122366
0.000122366
0.000110727
0.000110727
0.000110727
0.000109242
0.000109242
0.000109242
0.000140524
0.000140524
0.000140524
0.000144113
0.000144113
0.000144113
0.000139385
0.000139385
0.000139385
0.000151686
0.000151686
0.000151686
0.000154227
0.000154227
0.000154227
0.000153797
0.000153797
0.000153797
0.000145837
0.000145837
0.000145837
0.000143541
0.000143541
0.000143541
0.000145465
0.000145465
0.000145465
0.000145844
0.000145844
0.000145844
0.00014234
0.00014234
0.00014234
0.000141944
0.000141944
0.000141944
0.000138467
0.000138467
0.000138467
0.000139998
0.000139998
0.000139998
0.000141823
0.000141823
0.000141823
0.000139842
0.000139842
0.000139842
0.000145791
0.000145791
0.000145791
0.000147782
0.000147782
0.000147782
0.000149379
0.000149379
0.000149379
0.000142099
0.000142099
0.000142099
0.000137623
0.000137623
0.000137623
0.000139572
0.000139572
0.000139572
0.000152995
0.000152995
0.000152995
0.000152602
0.000152602
0.000152602
0.000151795
0.000151795
0.000151795
0.000160074
0.000160074
0.000160074
0.000135728
0.000135728
0.000135728
0.00013013
0.00013013
0.00013013
0.000146615
0.000146615
0.000146615
0.000147006
0.000147006
0.000147006
0.000107984
0.000107984
0.000107984
0.000106402
0.000106402
0.000106402
0.000124617
0.000124617
0.000124617
0.000125113
0.000125113
0.000125113
0.000118184
0.000118184
0.000118184
0.000118788
0.000118788
0.000118788
0.000121194
0.000121194
0.000121194
0.000120706
0.000120706
0.000120706
0.000117858
0.000117858
0.000117858
0.000121658
0.000121658
0.000121658
0.000102695
0.000102695
0.000102695
0.000102733
0.000102733
0.000102733
0.000103786
0.000103786
0.000103786
0.000104016
0.000104016
0.000104016
0.000104613
0.000104613
0.000104613
0.000208574
0.000208574
0.000208574
0.000209009
0.000209009
0.000209009
0.000203999
0.000203999
0.000203999
0.000206029
0.000206029
0.000206029
0.000203964
0.000203964
0.000203964
0.000200935
0.000200935
0.000200935
0.000201435
0.000201435
0.000201435
0.000199265
0.000199265
0.000199265
0.000211791
0.000211791
0.000211791
0.000214615
0.000214615
0.000214615
0.000214271
0.000214271
0.000214271
0.000216119
0.000216119
0.000216119
0.000213644
0.000213644
0.000213644
0.000219182
0.000219182
0.000219182
0.000211684
0.000211684
0.000211684
0.000188251
0.000188251
0.000188251
0.00017901
0.00017901
0.00017901
0.000184316
0.000184316
0.000184316
0.000199612
0.000199612
0.000199612
0.000201249
0.000201249
0.000201249
0.000199288
0.000199288
0.000199288
0.000196691
0.000196691
0.000196691
0.000197019
0.000197019
0.000197019
0.000207959
0.000207959
0.000207959
0.000196006
0.000196006
0.000196006
0.000191356
0.000191356
0.000191356
0.000183064
0.000183064
0.000183064
0.000181214
0.000181214
0.000181214
0.000196672
0.000196672
0.000196672
0.000194282
0.000194282
0.000194282
0.000201461
0.000201461
0.000201461
0.000203859
0.000203859
0.000203859
0.000204213
0.000204213
0.000204213
0.0001864
0.0001864
0.0001864
0.000211407
0.000211407
0.000211407
0.000213152
0.000213152
0.000213152
0.000211072
0.000211072
0.000211072
0.000151369
0.000151369
0.000151369
0.000149674
0.000149674
0.000149674
0.000160167
0.000160167
0.000160167
0.000146305
0.000146305
0.000146305
0.000145821
0.000145821
0.000145821
0.0001475
0.0001475
0.0001475
0.000134999
0.000134999
0.000134999
0.000138224
0.000138224
0.000138224
0.000167193
0.000167193
0.000167193
0.000166768
0.000166768
0.000166768
0.000141267
0.000141267
0.000141267
0.000143161
0.000143161
0.000143161
0.000144709
0.000144709
0.000144709
0.0001443
0.0001443
0.0001443
0.000145483
0.000145483
0.000145483
0.000146963
0.000146963
0.000146963
0.00014703
0.00014703
0.00014703
0.000149286
0.000149286
0.000149286
0.000148867
0.000148867
0.000148867
0.000188601
0.000188601
0.000188601
0.000187091
0.000187091
0.000187091
0.00018678
0.00018678
0.00018678
0.000162942
0.000162942
0.000162942
0.000163685
0.000163685
0.000163685
0.000165387
0.000165387
0.000165387
0.000165018
0.000165018
0.000165018
0.000169179
0.000169179
0.000169179
0.000167816
0.000167816
0.000167816
0.000167459
0.000167459
0.000167459
0.000169883
0.000169883
0.000169883
0.000152557
0.000152557
0.000152557
0.000151777
0.000151777
0.000151777
0.000161449
0.000161449
0.000161449
0.00016108
0.00016108
0.00016108
0.000154917
0.000154917
0.000154917
0.000156925
0.000156925
0.000156925
0.000158481
0.000158481
0.000158481
0.000160757
0.000160757
0.000160757
0.000150052
0.000150052
0.000150052
0.000150439
0.000150439
0.000150439
0.000152676
0.000152676
0.000152676
0.000154589
0.000154589
0.000154589
0.000152354
0.000152354
0.000152354
0.0001539
0.0001539
0.0001539
0.000104117
0.000104117
0.000104117
0.000104677
0.000104677
0.000104677
0.000105017
0.000105017
0.000105017
0.000104794
0.000104794
0.000104794
0.000106064
0.000106064
0.000106064
0.000105708
0.000105708
0.000105708
0.000105141
0.000105141
0.000105141
0.000120145
0.000120145
0.000120145
0.000101904
0.000101904
0.000101904
0.000102216
0.000102216
0.000102216
0.000103169
0.000103169
0.000103169
0.000102847
0.000102847
0.000102847
9.11329e-05
9.11329e-05
9.11329e-05
9.0902e-05
9.0902e-05
9.0902e-05
9.04012e-05
9.04012e-05
9.04012e-05
9.01338e-05
9.01338e-05
9.01338e-05
9.107e-05
9.107e-05
9.107e-05
9.16e-05
9.16e-05
9.16e-05
9.19112e-05
9.19112e-05
9.19112e-05
9.24843e-05
9.24843e-05
9.24843e-05
9.27147e-05
9.27147e-05
9.27147e-05
9.24292e-05
9.24292e-05
9.24292e-05
0.000124811
0.000124811
0.000124811
0.000123654
0.000123654
0.000123654
0.00012882
0.00012882
0.00012882
0.000131673
0.000131673
0.000131673
0.000133931
0.000133931
0.000133931
0.000135619
0.000135619
0.000135619
0.000131083
0.000131083
0.000131083
0.000135042
0.000135042
0.000135042
0.000132765
0.000132765
0.000132765
0.000130009
0.000130009
0.000130009
0.000134511
0.000134511
0.000134511
0.000135643
0.000135643
0.000135643
0.000156696
0.000156696
0.000156696
0.00013789
0.00013789
0.00013789
0.000154326
0.000154326
0.000154326
0.000110555
0.000110555
0.000110555
0.000123064
0.000123064
0.000123064
0.000124666
0.000124666
0.000124666
0.000122273
0.000122273
0.000122273
0.00011944
0.00011944
0.00011944
0.000120055
0.000120055
0.000120055
0.000132844
0.000132844
0.000132844
0.000112123
0.000112123
0.000112123
0.000118401
0.000118401
0.000118401
0.000120124
0.000120124
0.000120124
0.000122536
0.000122536
0.000122536
0.000124218
0.000124218
0.000124218
0.000128219
0.000128219
0.000128219
0.000122425
0.000122425
0.000122425
0.00012699
0.00012699
0.00012699
9.38943e-05
9.38943e-05
9.38943e-05
9.41793e-05
9.41793e-05
9.41793e-05
0.000109654
0.000109654
0.000109654
0.000105261
0.000105261
0.000105261
0.000106797
0.000106797
0.000106797
0.000109001
0.000109001
0.000109001
9.85744e-05
9.85744e-05
9.85744e-05
0.000103371
0.000103371
0.000103371
9.47649e-05
9.47649e-05
9.47649e-05
9.38235e-05
9.38235e-05
9.38235e-05
9.33127e-05
9.33127e-05
9.33127e-05
9.25573e-05
9.25573e-05
9.25573e-05
9.30966e-05
9.30966e-05
9.30966e-05
9.33428e-05
9.33428e-05
9.33428e-05
9.30722e-05
9.30722e-05
9.30722e-05
9.18098e-05
9.18098e-05
9.18098e-05
9.15703e-05
9.15703e-05
9.15703e-05
9.18364e-05
9.18364e-05
9.18364e-05
9.23444e-05
9.23444e-05
9.23444e-05
9.25835e-05
9.25835e-05
9.25835e-05
9.23151e-05
9.23151e-05
9.23151e-05
8.7257e-05
8.7257e-05
8.7257e-05
8.75098e-05
8.75098e-05
8.75098e-05
8.79891e-05
8.79891e-05
8.79891e-05
8.74814e-05
8.74814e-05
8.74814e-05
8.8213e-05
8.8213e-05
8.8213e-05
8.79581e-05
8.79581e-05
8.79581e-05
9.10359e-05
9.10359e-05
9.10359e-05
9.36859e-05
9.36859e-05
9.36859e-05
9.16766e-05
9.16766e-05
9.16766e-05
9.24152e-05
9.24152e-05
9.24152e-05
8.78438e-05
8.78438e-05
8.78438e-05
8.8421e-05
8.8421e-05
8.8421e-05
8.79231e-05
8.79231e-05
8.79231e-05
8.76348e-05
8.76348e-05
8.76348e-05
8.91325e-05
8.91325e-05
8.91325e-05
8.86299e-05
8.86299e-05
8.86299e-05
8.83389e-05
8.83389e-05
8.83389e-05
8.855e-05
8.855e-05
8.855e-05
8.98968e-05
8.98968e-05
8.98968e-05
9.04842e-05
9.04842e-05
9.04842e-05
8.96874e-05
8.96874e-05
8.96874e-05
8.99793e-05
8.99793e-05
8.99793e-05
8.91165e-05
8.91165e-05
8.91165e-05
8.96111e-05
8.96111e-05
8.96111e-05
9.20405e-05
9.20405e-05
9.20405e-05
9.1516e-05
9.1516e-05
9.1516e-05
9.31516e-05
9.31516e-05
9.31516e-05
9.17699e-05
9.17699e-05
9.17699e-05
9.05697e-05
9.05697e-05
9.05697e-05
9.25038e-05
9.25038e-05
9.25038e-05
9.27753e-05
9.27753e-05
9.27753e-05
9.25433e-05
9.25433e-05
9.25433e-05
9.13579e-05
9.13579e-05
9.13579e-05
9.0944e-05
9.0944e-05
9.0944e-05
9.11764e-05
9.11764e-05
9.11764e-05
9.19681e-05
9.19681e-05
9.19681e-05
9.16848e-05
9.16848e-05
9.16848e-05
9.50706e-05
9.50706e-05
9.50706e-05
9.44407e-05
9.44407e-05
9.44407e-05
9.58325e-05
9.58325e-05
9.58325e-05
9.78688e-05
9.78688e-05
9.78688e-05
9.84923e-05
9.84923e-05
9.84923e-05
9.70903e-05
9.70903e-05
9.70903e-05
9.77093e-05
9.77093e-05
9.77093e-05
9.97243e-05
9.97243e-05
9.97243e-05
9.66072e-05
9.66072e-05
9.66072e-05
9.59681e-05
9.59681e-05
9.59681e-05
9.73866e-05
9.73866e-05
9.73866e-05
9.94569e-05
9.94569e-05
9.94569e-05
0.000105678
0.000105678
0.000105678
0.000103603
0.000103603
0.000103603
9.89694e-05
9.89694e-05
9.89694e-05
0.000101894
0.000101894
0.000101894
0.000104441
0.000104441
0.000104441
0.000100261
0.000100261
0.000100261
0.000102979
0.000102979
0.000102979
0.000100898
0.000100898
0.000100898
0.00010637
0.00010637
0.00010637
0.000122075
0.000122075
0.000122075
0.000122656
0.000122656
0.000122656
0.000111021
0.000111021
0.000111021
0.000111626
0.000111626
0.000111626
8.84734e-05
8.84734e-05
8.84734e-05
8.82642e-05
8.82642e-05
8.82642e-05
8.7491e-05
8.7491e-05
8.7491e-05
8.77695e-05
8.77695e-05
8.77695e-05
8.81299e-05
8.81299e-05
8.81299e-05
8.84058e-05
8.84058e-05
8.84058e-05
8.76428e-05
8.76428e-05
8.76428e-05
8.81922e-05
8.81922e-05
8.81922e-05
8.74289e-05
8.74289e-05
8.74289e-05
8.77024e-05
8.77024e-05
8.77024e-05
8.50162e-05
8.50162e-05
8.50162e-05
8.46871e-05
8.46871e-05
8.46871e-05
8.49507e-05
8.49507e-05
8.49507e-05
8.42264e-05
8.42264e-05
8.42264e-05
8.47473e-05
8.47473e-05
8.47473e-05