<VTKFile type="UnstructuredGrid" version="1.0">
<UnstructuredGrid>
<Piece NumberOfPoints="8859" NumberOfCells="2953">
<Points>
<DataArray type="Float64" NumberOfComponents="3" format="ascii">
2.75455 1.50245 6.13763
2.76986 1.48714 6.14958
2.75465 1.50235 6.16333
2.78515 1.47185 6.08667
2.78516 1.47184 6.06151
2.8005 1.4565 6.07398
2.76981 1.48719 6.09936
2.78515 1.47185 6.08667
2.78514 1.47186 6.11186
2.72412 1.53288 6.18988
2.73952 1.51748 6.1975
2.70875 1.54825 6.1975
2.72412 1.53288 6.18988
2.73943 1.51757 6.17457
2.73952 1.51748 6.1975
2.75488 1.50212 6.18979
2.77036 1.48664 6.1975
2.73952 1.51748 6.1975
2.75488 1.50212 6.18979
2.73943 1.51757 6.17457
2.75465 1.50235 6.16333
2.73952 1.51748 6.1975
2.73943 1.51757 6.17457
2.75488 1.50212 6.18979
2.75465 1.50235 6.16333
2.76986 1.48714 6.14958
2.76997 1.48703 6.17427
2.76997 1.48703 6.17427
2.75488 1.50212 6.18979
2.75465 1.50235 6.16333
2.77036 1.48664 6.1975
2.75488 1.50212 6.18979
2.76997 1.48703 6.17427
2.76986 1.48714 6.14958
2.75455 1.50245 6.13763
2.76982 1.48718 6.12452
2.76981 1.48719 6.09936
2.78514 1.47186 6.11186
2.76982 1.48718 6.12452
2.7852 1.4718 6.16262
2.76997 1.48703 6.17427
2.76986 1.48714 6.14958
2.8005 1.4565 6.14895
2.8005 1.4565 6.17355
2.7852 1.4718 6.16262
2.8005 1.4565 6.04887
2.8005 1.4565 6.07398
2.78516 1.47184 6.06151
2.78515 1.47185 6.08667
2.8005 1.4565 6.07398
2.8005 1.4565 6.09906
2.8005 1.4565 6.09906
2.78514 1.47186 6.11186
2.78515 1.47185 6.08667
2.8005 1.4565 5.52152
2.8005 1.4565 5.54665
2.78518 1.47182 5.53407
2.78517 1.47183 5.98607
2.8005 1.4565 5.99861
2.78517 1.47183 6.01121
2.8005 1.4565 5.97348
2.8005 1.4565 5.99861
2.78517 1.47183 5.98607
2.78519 1.47181 5.86044
2.8005 1.4565 5.87299
2.78519 1.47181 5.88555
2.32274 1.93426 5.30559
2.33845 1.91855 5.2975
2.33845 1.91855 5.32063
2.27541 1.98159 6.1975
2.24359 2.01341 6.1975
2.25954 1.99746 6.18932
2.78515 1.47185 6.13712
2.76982 1.48718 6.12452
2.78514 1.47186 6.11186
2.76986 1.48714 6.14958
2.76982 1.48718 6.12452
2.78515 1.47185 6.13712
2.78515 1.47185 6.13712
2.7852 1.4718 6.16262
2.76986 1.48714 6.14958
2.8005 1.4565 6.14895
2.7852 1.4718 6.16262
2.78515 1.47185 6.13712
2.78544 1.47156 6.18884
2.8005 1.4565 6.17355
2.8005 1.4565 6.1975
2.78544 1.47156 6.18884
2.7852 1.4718 6.16262
2.8005 1.4565 6.17355
2.8005 1.4565 6.1975
2.77036 1.48664 6.1975
2.78544 1.47156 6.18884
2.77036 1.48664 6.1975
2.76997 1.48703 6.17427
2.78544 1.47156 6.18884
2.76997 1.48703 6.17427
2.7852 1.4718 6.16262
2.78544 1.47156 6.18884
2.78517 1.47183 6.01121
2.8005 1.4565 5.99861
2.8005 1.4565 6.02375
2.78514 1.47186 6.11186
2.8005 1.4565 6.09906
2.8005 1.4565 6.12407
2.8005 1.4565 6.14895
2.78515 1.47185 6.13712
2.8005 1.4565 6.12407
2.8005 1.4565 6.12407
2.78515 1.47185 6.13712
2.78514 1.47186 6.11186
2.8005 1.4565 5.84789
2.8005 1.4565 5.87299
2.78519 1.47181 5.86044
2.78518 1.47182 5.53407
2.8005 1.4565 5.54665
2.78518 1.47182 5.5592
2.76985 1.48715 5.97353
2.75454 1.50246 5.96098
2.76986 1.48714 5.94838
2.78516 1.47184 6.03636
2.8005 1.4565 6.04887
2.78516 1.47184 6.06151
2.78516 1.47184 6.03636
2.8005 1.4565 6.02375
2.8005 1.4565 6.04887
2.78516 1.47184 6.03636
2.76984 1.48716 6.02384
2.78517 1.47183 6.01121
2.78517 1.47183 6.01121
2.8005 1.4565 6.02375
2.78516 1.47184 6.03636
2.76982 1.48718 6.07418
2.78515 1.47185 6.08667
2.76981 1.48719 6.09936
2.76982 1.48718 6.07418
2.78516 1.47184 6.06151
2.78515 1.47185 6.08667
2.75451 1.50249 6.03649
2.7392 1.5178 6.04915
2.73921 1.51779 6.02394
2.53996 1.71704 6.16338
2.52458 1.73242 6.1499
2.53996 1.71704 6.13775
2.49374 1.76326 5.9988
2.49375 1.76325 6.024
2.47832 1.77868 6.01139
2.8005 1.4565 5.2975
2.8005 1.4565 5.32145
2.78544 1.47156 5.30616
2.27543 1.98157 6.17433
2.27541 1.98159 6.1975
2.25954 1.99746 6.18932
2.33845 1.91855 6.09946
2.32276 1.93424 6.11214
2.32275 1.93425 6.08685
2.25954 1.99746 6.18932
2.24359 2.01341 6.1975
2.24374 2.01326 6.17423
2.76987 1.48713 5.622
2.75455 1.50245 5.60943
2.76987 1.48713 5.59688
2.8005 1.4565 5.77259
2.78519 1.47181 5.76005
2.8005 1.4565 5.7475
2.78519 1.47181 5.81024
2.8005 1.4565 5.79769
2.8005 1.4565 5.82278
2.76988 1.48712 5.72241
2.75456 1.50244 5.73495
2.75456 1.50244 5.70986
2.76988 1.48712 5.7475
2.75456 1.50244 5.73495
2.76988 1.48712 5.72241
2.78519 1.47181 5.76005
2.76988 1.48712 5.77259
2.76988 1.48712 5.7475
2.75455 1.50245 5.88557
2.76987 1.48713 5.89812
2.75455 1.50245 5.9107
2.72393 1.53307 5.86047
2.72392 1.53308 5.88559
2.70861 1.54839 5.87303
2.75456 1.50244 5.86045
2.73924 1.51776 5.8479
2.75456 1.50244 5.83535
2.75456 1.50244 5.83535
2.76987 1.48713 5.84789
2.75456 1.50244 5.86045
2.73924 1.51776 5.8479
2.73925 1.51775 5.8228
2.75456 1.50244 5.83535
2.75456 1.50244 5.83535
2.73925 1.51775 5.8228
2.75456 1.50244 5.81024
2.8005 1.4565 5.82278
2.8005 1.4565 5.84789
2.78519 1.47181 5.83534
2.78519 1.47181 5.83534
2.78519 1.47181 5.81024
2.8005 1.4565 5.82278
2.78519 1.47181 5.83534
2.8005 1.4565 5.84789
2.78519 1.47181 5.86044
2.78519 1.47181 5.86044
2.76987 1.48713 5.84789
2.78519 1.47181 5.83534
2.75454 1.50246 5.93583
2.73923 1.51777 5.92328
2.75455 1.50245 5.9107
2.75454 1.50246 5.93583
2.76986 1.48714 5.94838
2.75454 1.50246 5.96098
2.7086 1.5484 5.9233
2.72392 1.53308 5.91072
2.72392 1.53308 5.93586
2.72392 1.53308 5.93586
2.72392 1.53308 5.91072
2.73923 1.51777 5.92328
2.8005 1.4565 5.8981
2.78519 1.47181 5.88555
2.8005 1.4565 5.87299
2.75455 1.50245 5.9107
2.76987 1.48713 5.89812
2.76986 1.48714 5.92325
2.76986 1.48714 5.92325
2.75454 1.50246 5.93583
2.75455 1.50245 5.9107
2.76986 1.48714 5.94838
2.75454 1.50246 5.93583
2.76986 1.48714 5.92325
2.78517 1.47183 6.01121
2.76984 1.48716 6.02384
2.76985 1.48715 5.99868
2.76985 1.48715 5.99868
2.78517 1.47183 5.98607
2.78517 1.47183 6.01121
2.76985 1.48715 5.97353
2.78517 1.47183 5.98607
2.76985 1.48715 5.99868
2.73921 1.51779 6.02394
2.73921 1.51779 5.99875
2.75452 1.50248 6.0113
2.75452 1.50248 6.0113
2.75451 1.50249 6.03649
2.73921 1.51779 6.02394
2.76984 1.48716 6.02384
2.75451 1.50249 6.03649
2.75452 1.50248 6.0113
2.75452 1.50248 6.0113
2.76985 1.48715 5.99868
2.76984 1.48716 6.02384
2.7239 1.5331 6.01138
2.73921 1.51779 5.99875
2.73921 1.51779 6.02394
2.7239 1.5331 6.01138
2.70859 1.54841 6.02401
2.70859 1.54841 5.99881
2.76981 1.48719 6.09936
2.76982 1.48718 6.12452
2.75451 1.50249 6.11222
2.75451 1.50249 6.11222
2.76982 1.48718 6.12452
2.75455 1.50245 6.13763
2.7392 1.5178 6.04915
2.75451 1.50249 6.03649
2.75451 1.50249 6.06169
2.75451 1.50249 6.06169
2.7392 1.5178 6.07437
2.7392 1.5178 6.04915
2.67798 1.57902 5.89817
2.66266 1.59434 5.91075
2.66266 1.59434 5.88561
2.70859 1.54841 5.99881
2.70859 1.54841 5.97362
2.7239 1.5331 5.98619
2.7239 1.5331 5.98619
2.7239 1.5331 6.01138
2.70859 1.54841 5.99881
2.73921 1.51779 5.99875
2.7239 1.5331 6.01138
2.7239 1.5331 5.98619
2.73922 1.51778 5.97358
2.73921 1.51779 5.99875
2.7239 1.5331 5.98619
2.57068 1.68632 6.13776
2.57068 1.68632 6.16339
2.55533 1.70167 6.14991
2.55533 1.70167 6.14991
2.57068 1.68632 6.16339
2.55533 1.70167 6.1745
2.55533 1.70167 6.14991
2.55533 1.70167 6.1745
2.53996 1.71704 6.16338
2.53996 1.71704 6.16338
2.53996 1.71704 6.13775
2.55533 1.70167 6.14991
2.52458 1.73242 6.12485
2.53996 1.71704 6.13775
2.52458 1.73242 6.1499
2.50912 1.74788 5.76005
2.50912 1.74788 5.78515
2.49371 1.76329 5.7726
2.41633 1.84067 5.88556
2.40077 1.85623 5.873
2.41632 1.84068 5.86045
2.41635 1.84065 5.93583
2.40081 1.85619 5.94839
2.40079 1.85621 5.92325
2.33845 1.91855 6.09946
2.32275 1.93425 6.08685
2.33843 1.91857 6.07424
2.33845 1.91855 6.12466
2.32276 1.93424 6.11214
2.33845 1.91855 6.09946
2.40087 1.85613 6.04912
2.40088 1.85612 6.07434
2.38531 1.87169 6.06172
2.30693 1.95007 5.99858
2.32265 1.93435 5.98603
2.32267 1.93433 6.0112
2.30684 1.95016 5.89803
2.29108 1.96592 5.91056
2.29106 1.96594 5.88546
2.32274 1.93426 6.18941
2.33845 1.91855 6.1975
2.30701 1.94999 6.1975
2.33845 1.91855 6.17437
2.33845 1.91855 6.1975
2.32274 1.93426 6.18941
2.35411 1.90289 6.18947
2.33845 1.91855 6.1975
2.33845 1.91855 6.17437
2.30704 1.94996 6.12461
2.30703 1.94997 6.14969
2.29128 1.96572 6.13746
2.55533 1.70167 6.1975
2.52458 1.73242 6.1975
2.53996 1.71704 6.18972
2.53996 1.71704 6.16338
2.55533 1.70167 6.1745
2.53996 1.71704 6.18972
2.53996 1.71704 6.18972
2.55533 1.70167 6.1745
2.55533 1.70167 6.1975
2.52458 1.73242 6.17449
2.52458 1.73242 6.1499
2.53996 1.71704 6.16338
2.53996 1.71704 6.16338
2.53996 1.71704 6.18972
2.52458 1.73242 6.17449
2.52458 1.73242 6.17449
2.53996 1.71704 6.18972
2.52458 1.73242 6.1975
2.41642 1.84058 6.06176
2.40088 1.85612 6.07434
2.40087 1.85613 6.04912
2.47831 1.77869 5.9862
2.49374 1.76326 5.97362
2.49374 1.76326 5.9988
2.49374 1.76326 5.9988
2.47832 1.77868 6.01139
2.47831 1.77869 5.9862
2.47833 1.77867 6.0366
2.47832 1.77868 6.01139
2.49375 1.76325 6.024
2.47833 1.77867 6.0366
2.49375 1.76325 6.024
2.49376 1.76324 6.04921
2.49376 1.76324 6.04921
2.47834 1.77866 6.06182
2.47833 1.77867 6.0366
2.47833 1.77867 6.0366
2.47834 1.77866 6.06182
2.46289 1.79411 6.04919
2.49377 1.76323 6.07443
2.47834 1.77866 6.06182
2.49376 1.76324 6.04921
2.49377 1.76323 6.09964
2.47835 1.77865 6.11234
2.47834 1.77866 6.08706
2.47834 1.77866 6.08706
2.49377 1.76323 6.07443
2.49377 1.76323 6.09964
2.47834 1.77866 6.06182
2.49377 1.76323 6.07443
2.47834 1.77866 6.08706
2.7852 1.4718 5.33238
2.78544 1.47156 5.30616
2.8005 1.4565 5.32145
2.76997 1.48703 5.32073
2.78544 1.47156 5.30616
2.7852 1.4718 5.33238
2.64739 1.60961 5.32048
2.64738 1.60962 5.2975
2.66272 1.59428 5.30521
2.70875 1.54825 5.2975
2.6934 1.5636 5.30517
2.67805 1.57895 5.2975
2.67805 1.57895 5.2975
2.66272 1.59428 5.30521
2.64738 1.60962 5.2975
2.19638 2.06062 5.33397
2.1963 2.0607 5.30786
2.2122 2.0448 5.32145
2.2122 2.0448 5.32145
2.22771 2.02929 5.30601
2.22802 2.02898 5.33245
2.18073 2.07627 5.32282
2.1963 2.0607 5.30786
2.19638 2.06062 5.33397
2.18073 2.07627 5.32282
2.18123 2.07577 5.2975
2.1963 2.0607 5.30786
2.27543 1.98157 5.32067
2.27541 1.98159 5.2975
2.29123 1.96577 5.30563
2.30701 1.94999 5.2975
[...]
<PointData Scalars="View Factor" >
<DataArray type="Float64" Name="View Factor" NumberOfComponents="1" format="ascii">
3.19475e-05
3.19475e-05
3.19475e-05
3.37549e-05
3.37549e-05
3.37549e-05
3.31441e-05
3.31441e-05
3.31441e-05
3.02052e-05
3.02052e-05
3.02052e-05
3.06691e-05
3.06691e-05
3.06691e-05
3.14373e-05
3.14373e-05
3.14373e-05
3.13585e-05
3.13585e-05
3.13585e-05
3.10803e-05
3.10803e-05
3.10803e-05
3.20663e-05
3.20663e-05
3.20663e-05
3.17685e-05
3.17685e-05
3.17685e-05
3.18974e-05
3.18974e-05
3.18974e-05
3.22441e-05
3.22441e-05
3.22441e-05
3.28443e-05
3.28443e-05
3.28443e-05
3.24785e-05
3.24785e-05
3.24785e-05
3.3304e-05
3.3304e-05
3.3304e-05
3.40619e-05
3.40619e-05
3.40619e-05
3.38698e-05
3.38698e-05
3.38698e-05
3.35631e-05
3.35631e-05
3.35631e-05
3.84271e-05
3.84271e-05
3.84271e-05
3.43346e-05
3.43346e-05
3.43346e-05
3.46469e-05
3.46469e-05
3.46469e-05
3.53263e-05
3.53263e-05
3.53263e-05
2.27014e-05
2.27014e-05
2.27014e-05
1.88621e-05
1.88621e-05
1.88621e-05
3.29595e-05
3.29595e-05
3.29595e-05
3.26588e-05
3.26588e-05
3.26588e-05
3.27733e-05
3.27733e-05
3.27733e-05
3.31878e-05
3.31878e-05
3.31878e-05
3.3122e-05
3.3122e-05
3.3122e-05
3.30043e-05
3.30043e-05
3.30043e-05
3.26572e-05
3.26572e-05
3.26572e-05
3.23079e-05
3.23079e-05
3.23079e-05
3.25934e-05
3.25934e-05
3.25934e-05
3.44505e-05
3.44505e-05
3.44505e-05
3.36792e-05
3.36792e-05
3.36792e-05
3.34905e-05
3.34905e-05
3.34905e-05
3.33765e-05
3.33765e-05
3.33765e-05
3.56492e-05
3.56492e-05
3.56492e-05
3.80768e-05
3.80768e-05
3.80768e-05
3.35487e-05
3.35487e-05
3.35487e-05
3.3948e-05
3.3948e-05
3.3948e-05
3.42555e-05
3.42555e-05
3.42555e-05
3.37134e-05
3.37134e-05
3.37134e-05
3.41388e-05
3.41388e-05
3.41388e-05
3.30283e-05
3.30283e-05
3.30283e-05
3.33337e-05
3.33337e-05
3.33337e-05
3.21365e-05
3.21365e-05
3.21365e-05
2.28721e-05
2.28721e-05
2.28721e-05
2.16779e-05
2.16779e-05
2.16779e-05
4.05116e-05
4.05116e-05
4.05116e-05
1.88478e-05
1.88478e-05
1.88478e-05
1.89682e-05
1.89682e-05
1.89682e-05
1.8943e-05
1.8943e-05
1.8943e-05
3.63622e-05
3.63622e-05
3.63622e-05
3.64763e-05
3.64763e-05
3.64763e-05
3.60599e-05
3.60599e-05
3.60599e-05
3.52e-05
3.52e-05
3.52e-05
3.53244e-05
3.53244e-05
3.53244e-05
3.55754e-05
3.55754e-05
3.55754e-05
3.38149e-05
3.38149e-05
3.38149e-05
3.22521e-05
3.22521e-05
3.22521e-05
3.37618e-05
3.37618e-05
3.37618e-05
3.42039e-05
3.42039e-05
3.42039e-05
3.36358e-05
3.36358e-05
3.36358e-05
3.39558e-05
3.39558e-05
3.39558e-05
3.58539e-05
3.58539e-05
3.58539e-05
3.57356e-05
3.57356e-05
3.57356e-05
3.55303e-05
3.55303e-05
3.55303e-05
3.50881e-05
3.50881e-05
3.50881e-05
3.31889e-05
3.31889e-05
3.31889e-05
3.34297e-05
3.34297e-05
3.34297e-05
3.18833e-05
3.18833e-05
3.18833e-05
3.23176e-05
3.23176e-05
3.23176e-05
3.5446e-05
3.5446e-05
3.5446e-05
3.39376e-05
3.39376e-05
3.39376e-05
3.36235e-05
3.36235e-05
3.36235e-05
3.37444e-05
3.37444e-05
3.37444e-05
3.35961e-05
3.35961e-05
3.35961e-05
3.3907e-05
3.3907e-05
3.3907e-05
3.37904e-05
3.37904e-05
3.37904e-05
3.23176e-05
3.23176e-05
3.23176e-05
3.24381e-05
3.24381e-05
3.24381e-05
3.2863e-05
3.2863e-05
3.2863e-05
3.31698e-05
3.31698e-05
3.31698e-05
3.18918e-05
3.18918e-05
3.18918e-05
3.10427e-05
3.10427e-05
3.10427e-05
3.24272e-05
3.24272e-05
3.24272e-05
3.21252e-05
3.21252e-05
3.21252e-05
3.22552e-05
3.22552e-05
3.22552e-05
3.19531e-05
3.19531e-05
3.19531e-05
2.98836e-05
2.98836e-05
2.98836e-05
3.12189e-05
3.12189e-05
3.12189e-05
3.13446e-05
3.13446e-05
3.13446e-05
3.17715e-05
3.17715e-05
3.17715e-05
3.20763e-05
3.20763e-05
3.20763e-05
2.41107e-05
2.41107e-05
2.41107e-05
2.38373e-05
2.38373e-05
2.38373e-05
2.34259e-05
2.34259e-05
2.34259e-05
2.32847e-05
2.32847e-05
2.32847e-05
2.27326e-05
2.27326e-05
2.27326e-05
2.3559e-05
2.3559e-05
2.3559e-05
1.96092e-05
1.96092e-05
1.96092e-05
1.9352e-05
1.9352e-05
1.9352e-05
1.89998e-05
1.89998e-05
1.89998e-05
1.8893e-05
1.8893e-05
1.8893e-05
1.88514e-05
1.88514e-05
1.88514e-05
1.94469e-05
1.94469e-05
1.94469e-05
1.99881e-05
1.99881e-05
1.99881e-05
1.85897e-05
1.85897e-05
1.85897e-05
1.85785e-05
1.85785e-05
1.85785e-05
1.85356e-05
1.85356e-05
1.85356e-05
1.89197e-05
1.89197e-05
1.89197e-05
2.28525e-05
2.28525e-05
2.28525e-05
2.31515e-05
2.31515e-05
2.31515e-05
2.32981e-05
2.32981e-05
2.32981e-05
2.2603e-05
2.2603e-05
2.2603e-05
2.27413e-05
2.27413e-05
2.27413e-05
2.24798e-05
2.24798e-05
2.24798e-05
1.88108e-05
1.88108e-05
1.88108e-05
2.18002e-05
2.18002e-05
2.18002e-05
2.15262e-05
2.15262e-05
2.15262e-05
2.14047e-05
2.14047e-05
2.14047e-05
2.15564e-05
2.15564e-05
2.15564e-05
2.12832e-05
2.12832e-05
2.12832e-05
2.086e-05
2.086e-05
2.086e-05
2.14333e-05
2.14333e-05
2.14333e-05
2.10432e-05
2.10432e-05
2.10432e-05
2.13133e-05
2.13133e-05
2.13133e-05
2.11625e-05
2.11625e-05
2.11625e-05
4.01499e-05
4.01499e-05
4.01499e-05
3.96539e-05
3.96539e-05
3.96539e-05
3.34996e-05
3.34996e-05
3.34996e-05
3.55709e-05
3.55709e-05
3.55709e-05
3.40593e-05
3.40593e-05
3.40593e-05
2.333e-05
2.333e-05
2.333e-05
2.32174e-05
2.32174e-05
2.32174e-05
2.33878e-05
2.33878e-05
2.33878e-05
2.34835e-05
2.34835e-05
2.34835e-05
2.29685e-05
2.29685e-05
2.29685e-05
2.27947e-05
2.27947e-05
2.27947e-05
2.29528e-05
2.29528e-05
2.29528e-05
2.25517e-05
2.25517e-05
2.25517e-05
2.24577e-05
2.24577e-05
2.24577e-05
1.86666e-05
1.86666e-05
1.86666e-05
1.88884e-05
1.88884e-05
1.88884e-05
1.88142e-05
1.88142e-05
1.88142e-05
2.01169e-05
2.01169e-05
2.01169e-05
2.00363e-05
2.00363e-05
2.00363e-05
1.93192e-05
1.93192e-05
1.93192e-05
3.83008e-05
3.83008e-05
3.83008e-05
3.68988e-05
3.68988e-05
3.68988e-05
3.59423e-05
3.59423e-05
3.59423e-05
3.56084e-05
3.56084e-05
3.56084e-05
3.61508e-05
3.61508e-05
3.61508e-05
3.58149e-05
3.58149e-05
3.58149e-05
3.53519e-05
3.53519e-05
3.53519e-05
3.5221e-05
3.5221e-05
3.5221e-05
3.55585e-05
3.55585e-05
3.55585e-05
3.60241e-05
3.60241e-05
3.60241e-05
2.84917e-05
2.84917e-05
2.84917e-05
2.8167e-05
2.8167e-05
2.8167e-05
2.80379e-05
2.80379e-05
2.80379e-05
3.54257e-05
3.54257e-05
3.54257e-05
3.82038e-05
3.82038e-05
3.82038e-05
2.96168e-05
2.96168e-05
2.96168e-05
2.87376e-05
2.87376e-05
2.87376e-05
3.13735e-05
3.13735e-05
3.13735e-05
2.93753e-05
2.93753e-05
2.93753e-05
3.08885e-05
3.08885e-05
3.08885e-05
3.07504e-05
3.07504e-05
3.07504e-05
3.0301e-05
3.0301e-05
3.0301e-05
2.99902e-05
2.99902e-05
2.99902e-05
3.47451e-05
3.47451e-05
3.47451e-05
3.66868e-05
3.66868e-05
3.66868e-05
3.63551e-05
3.63551e-05
3.63551e-05
3.59027e-05
3.59027e-05
3.59027e-05
3.5778e-05
3.5778e-05
3.5778e-05
3.611e-05
3.611e-05
3.611e-05
3.6565e-05
3.6565e-05
3.6565e-05
2.74589e-05
2.74589e-05
2.74589e-05
2.77649e-05
2.77649e-05
2.77649e-05
3.03367e-05
3.03367e-05
3.03367e-05
3.04766e-05
3.04766e-05
3.04766e-05
3.0165e-05
3.0165e-05
3.0165e-05
2.97143e-05
2.97143e-05
2.97143e-05
2.79249e-05
2.79249e-05
2.79249e-05
2.77755e-05
2.77755e-05
2.77755e-05
2.71657e-05
2.71657e-05
2.71657e-05
2.76191e-05
2.76191e-05
2.76191e-05
2.98834e-05
2.98834e-05
2.98834e-05
2.95728e-05
2.95728e-05
2.95728e-05
3.4568e-05
3.4568e-05
3.4568e-05
3.41296e-05
3.41296e-05
3.41296e-05
3.40075e-05
3.40075e-05
3.40075e-05
3.48867e-05
3.48867e-05
3.48867e-05
3.47674e-05
3.47674e-05
3.47674e-05
3.43266e-05
3.43266e-05
3.43266e-05
3.26915e-05
3.26915e-05
3.26915e-05
3.3568e-05
3.3568e-05
3.3568e-05
3.34462e-05
3.34462e-05
3.34462e-05
3.30055e-05
3.30055e-05
3.30055e-05
3.17348e-05
3.17348e-05
3.17348e-05
3.2492e-05
3.2492e-05
3.2492e-05
3.20463e-05
3.20463e-05
3.20463e-05
3.5291e-05
3.5291e-05
3.5291e-05
3.47233e-05
3.47233e-05
3.47233e-05
3.51693e-05
3.51693e-05
3.51693e-05
3.44004e-05
3.44004e-05
3.44004e-05
3.45236e-05
3.45236e-05
3.45236e-05
3.4967e-05
3.4967e-05
3.4967e-05
3.30636e-05
3.30636e-05
3.30636e-05
3.26278e-05
3.26278e-05
3.26278e-05
3.25039e-05
3.25039e-05
3.25039e-05
3.33779e-05
3.33779e-05
3.33779e-05
3.28172e-05
3.28172e-05
3.28172e-05
3.32555e-05
3.32555e-05
3.32555e-05
3.20671e-05
3.20671e-05
3.20671e-05
3.19398e-05
3.19398e-05
3.19398e-05
3.15018e-05
3.15018e-05
3.15018e-05
3.17567e-05
3.17567e-05
3.17567e-05
3.28764e-05
3.28764e-05
3.28764e-05
3.24432e-05
3.24432e-05
3.24432e-05
3.29976e-05
3.29976e-05
3.29976e-05
3.26882e-05
3.26882e-05
3.26882e-05
3.15782e-05
3.15782e-05
3.15782e-05
3.46916e-05
3.46916e-05
3.46916e-05
3.51289e-05
3.51289e-05
3.51289e-05
3.52442e-05
3.52442e-05
3.52442e-05
3.43734e-05
3.43734e-05
3.43734e-05
3.48446e-05
3.48446e-05
3.48446e-05
3.39798e-05
3.39798e-05
3.39798e-05
3.45306e-05
3.45306e-05
3.45306e-05
3.41005e-05
3.41005e-05
3.41005e-05
3.50437e-05
3.50437e-05
3.50437e-05
3.49239e-05
3.49239e-05
3.49239e-05
3.44892e-05
3.44892e-05
3.44892e-05
3.41779e-05
3.41779e-05
3.41779e-05
3.42968e-05
3.42968e-05
3.42968e-05
3.4729e-05
3.4729e-05
3.4729e-05
3.25046e-05
3.25046e-05
3.25046e-05
3.33617e-05
3.33617e-05
3.33617e-05
3.26246e-05
3.26246e-05
3.26246e-05
3.30519e-05
3.30519e-05
3.30519e-05
3.28123e-05
3.28123e-05
3.28123e-05
3.3242e-05
3.3242e-05
3.3242e-05
3.1713e-05
3.1713e-05
3.1713e-05
3.15888e-05
3.15888e-05
3.15888e-05
3.11644e-05
3.11644e-05
3.11644e-05
3.26089e-05
3.26089e-05
3.26089e-05
3.17734e-05
3.17734e-05
3.17734e-05
3.24936e-05
3.24936e-05
3.24936e-05
3.20735e-05
3.20735e-05
3.20735e-05
3.23098e-05
3.23098e-05
3.23098e-05
3.18921e-05
3.18921e-05
3.18921e-05
3.12438e-05
3.12438e-05
3.12438e-05
3.1535e-05
3.1535e-05
3.1535e-05
3.05374e-05
3.05374e-05
3.05374e-05
3.08326e-05
3.08326e-05
3.08326e-05
3.07092e-05
3.07092e-05
3.07092e-05
3.1592e-05
3.1592e-05
3.1592e-05
3.1002e-05
3.1002e-05
3.1002e-05
3.17102e-05
3.17102e-05
3.17102e-05
3.14154e-05
3.14154e-05
3.14154e-05
3.26777e-05
3.26777e-05
3.26777e-05
3.35248e-05
3.35248e-05
3.35248e-05
3.32175e-05
3.32175e-05
3.32175e-05
3.27957e-05
3.27957e-05
3.27957e-05
3.3408e-05
3.3408e-05
3.3408e-05
3.29839e-05
3.29839e-05
3.29839e-05
2.69813e-05
2.69813e-05
2.69813e-05
2.68392e-05
2.68392e-05
2.68392e-05
2.82984e-05
2.82984e-05
2.82984e-05
2.74203e-05
2.74203e-05
2.74203e-05
3.00161e-05
3.00161e-05
3.00161e-05
2.40779e-05
2.40779e-05
2.40779e-05
2.37073e-05
2.37073e-05
2.37073e-05
2.39718e-05
2.39718e-05
2.39718e-05
2.32653e-05
2.32653e-05
2.32653e-05
2.40092e-05
2.40092e-05
2.40092e-05
2.68608e-05
2.68608e-05
2.68608e-05
2.70082e-05
2.70082e-05
2.70082e-05
1.9686e-05
1.9686e-05
1.9686e-05
1.94113e-05
1.94113e-05
1.94113e-05
1.95727e-05
1.95727e-05
1.95727e-05
2.00502e-05
2.00502e-05
2.00502e-05
2.00617e-05
2.00617e-05
2.00617e-05
2.00954e-05
2.00954e-05
2.00954e-05
1.9075e-05
1.9075e-05
1.9075e-05
1.88601e-05
1.88601e-05
1.88601e-05
1.89044e-05
1.89044e-05
1.89044e-05
1.88747e-05
1.88747e-05
1.88747e-05
1.89561e-05
1.89561e-05
1.89561e-05
1.89865e-05
1.89865e-05
1.89865e-05
1.88696e-05
1.88696e-05
1.88696e-05
1.89435e-05
1.89435e-05
1.89435e-05
1.91925e-05
1.91925e-05
1.91925e-05
1.91498e-05
1.91498e-05
1.91498e-05
1.92797e-05
1.92797e-05
1.92797e-05
1.93241e-05
1.93241e-05
1.93241e-05
1.94014e-05
1.94014e-05
1.94014e-05
1.93682e-05
1.93682e-05
1.93682e-05
1.89342e-05
1.89342e-05
1.89342e-05
1.89765e-05
1.89765e-05
1.89765e-05
1.95251e-05
1.95251e-05
1.95251e-05
1.95573e-05
1.95573e-05
1.95573e-05
1.96224e-05
1.96224e-05
1.96224e-05
2.00209e-05
2.00209e-05
2.00209e-05
1.84644e-05
1.84644e-05
1.84644e-05
1.83399e-05
1.83399e-05
1.83399e-05
1.90128e-05
1.90128e-05
1.90128e-05
1.89811e-05
1.89811e-05
1.89811e-05
2.16224e-05
2.16224e-05
2.16224e-05
2.20704e-05
2.20704e-05
2.20704e-05
2.146e-05
2.146e-05
2.146e-05
2.11804e-05
2.11804e-05
2.11804e-05
2.23564e-05
2.23564e-05
2.23564e-05
1.94561e-05
1.94561e-05
1.94561e-05
2.07076e-05
2.07076e-05
2.07076e-05
2.0979e-05
2.0979e-05
2.0979e-05
2.06249e-05
2.06249e-05
2.06249e-05
1.97892e-05
1.97892e-05
1.97892e-05
4.00975e-05
4.00975e-05
4.00975e-05
3.95223e-05
3.95223e-05
3.95223e-05
3.71647e-05
3.71647e-05
3.71647e-05
3.75139e-05
3.75139e-05
3.75139e-05
3.70815e-05
3.70815e-05
3.70815e-05
2.31945e-05
2.31945e-05
2.31945e-05
2.31602e-05
2.31602e-05
2.31602e-05
2.31229e-05
2.31229e-05
2.31229e-05
2.3137e-05
2.3137e-05
2.3137e-05
2.30468e-05
2.30468e-05
2.30468e-05
2.30242e-05
2.30242e-05
2.30242e-05
2.29903e-05
2.29903e-05
2.29903e-05
2.28907e-05
2.28907e-05
2.28907e-05
2.31735e-05
2.31735e-05
2.31735e-05
2.31919e-05
2.31919e-05
2.31919e-05
2.32302e-05
2.32302e-05
2.32302e-05
2.33671e-05
2.33671e-05
2.33671e-05
2.33112e-05
2.33112e-05
2.33112e-05
2.34699e-05
2.34699e-05
2.34699e-05
2.32959e-05
2.32959e-05
2.32959e-05
2.22157e-05
2.22157e-05
2.22157e-05
2.09698e-05
2.09698e-05
2.09698e-05
2.20335e-05
2.20335e-05
2.20335e-05
2.16877e-05
2.16877e-05
2.16877e-05
2.18121e-05
2.18121e-05
2.18121e-05
2.17209e-05
2.17209e-05
2.17209e-05
2.16971e-05
2.16971e-05
2.16971e-05
2.16635e-05
2.16635e-05
2.16635e-05
2.23184e-05
2.23184e-05
2.23184e-05
2.17664e-05
2.17664e-05
2.17664e-05
2.11103e-05
2.11103e-05
2.11103e-05
2.11093e-05
2.11093e-05
2.11093e-05
2.10226e-05
2.10226e-05
2.10226e-05
2.22655e-05
2.22655e-05
2.22655e-05
2.22103e-05
2.22103e-05
2.22103e-05
2.2378e-05
2.2378e-05
2.2378e-05
2.24352e-05
2.24352e-05
2.24352e-05
2.23995e-05
2.23995e-05
2.23995e-05
2.18464e-05
2.18464e-05
2.18464e-05
2.25762e-05
2.25762e-05
2.25762e-05
2.27061e-05
2.27061e-05
2.27061e-05
2.26111e-05
2.26111e-05
2.26111e-05
2.04963e-05
2.04963e-05
2.04963e-05
2.04157e-05
2.04157e-05
2.04157e-05
2.04539e-05
2.04539e-05
2.04539e-05
2.02551e-05
2.02551e-05
2.02551e-05
2.02918e-05
2.02918e-05
2.02918e-05
2.03723e-05
2.03723e-05
2.03723e-05
2.13026e-05
2.13026e-05
2.13026e-05
2.09714e-05
2.09714e-05
2.09714e-05
2.07855e-05
2.07855e-05
2.07855e-05
2.08199e-05
2.08199e-05
2.08199e-05
1.86483e-05
1.86483e-05
1.86483e-05
1.86921e-05
1.86921e-05
1.86921e-05
1.87694e-05
1.87694e-05
1.87694e-05
1.87992e-05
1.87992e-05
1.87992e-05
1.87112e-05
1.87112e-05
1.87112e-05
1.87809e-05
1.87809e-05
1.87809e-05
1.87254e-05
1.87254e-05
1.87254e-05
1.88014e-05
1.88014e-05
1.88014e-05
1.88264e-05
1.88264e-05
1.88264e-05
2.08408e-05
2.08408e-05
2.08408e-05
2.07233e-05
2.07233e-05
2.07233e-05
2.07542e-05
2.07542e-05
2.07542e-05
2.00039e-05
2.00039e-05
2.00039e-05
1.99383e-05
1.99383e-05
1.99383e-05
2.00195e-05
2.00195e-05
2.00195e-05
2.00529e-05
2.00529e-05
2.00529e-05
2.01522e-05
2.01522e-05
2.01522e-05
2.00385e-05
2.00385e-05
2.00385e-05
2.00694e-05
2.00694e-05
2.00694e-05
2.00891e-05
2.00891e-05
2.00891e-05
1.93507e-05
1.93507e-05
1.93507e-05
1.94149e-05
1.94149e-05
1.94149e-05
1.96833e-05
1.96833e-05
1.96833e-05
1.97132e-05
1.97132e-05
1.97132e-05
1.9366e-05
1.9366e-05
1.9366e-05
1.89915e-05
1.89915e-05
1.89915e-05
1.90077e-05
1.90077e-05
1.90077e-05
1.90898e-05
1.90898e-05
1.90898e-05
1.89342e-05
1.89342e-05
1.89342e-05
1.89055e-05
1.89055e-05
1.89055e-05
1.89194e-05
1.89194e-05
1.89194e-05
1.89667e-05
1.89667e-05
1.89667e-05
1.89521e-05
1.89521e-05
1.89521e-05
1.90289e-05
1.90289e-05
1.90289e-05
3.6664e-05
3.6664e-05
3.6664e-05
3.65114e-05
3.65114e-05
3.65114e-05
3.6009e-05
3.6009e-05
3.6009e-05
3.56615e-05
3.56615e-05
3.56615e-05
3.45021e-05
3.45021e-05
3.45021e-05
3.50038e-05
3.50038e-05
3.50038e-05
3.5161e-05
3.5161e-05
3.5161e-05
2.84624e-05
2.84624e-05
2.84624e-05
3.928e-05
3.928e-05
3.928e-05
3.87851e-05
3.87851e-05
3.87851e-05
3.72958e-05
3.72958e-05
3.72958e-05
3.77929e-05
3.77929e-05
3.77929e-05
3.5734e-05
3.5734e-05
3.5734e-05
3.54035e-05
3.54035e-05
3.54035e-05
3.5531e-05
3.5531e-05
3.5531e-05
3.59873e-05
3.59873e-05
3.59873e-05
3.73273e-05
3.73273e-05
3.73273e-05
3.64039e-05
3.64039e-05
3.64039e-05
3.51482e-05
3.51482e-05
3.51482e-05
3.4229e-05
3.4229e-05
3.4229e-05
3.45588e-05
3.45588e-05
3.45588e-05
3.50203e-05
3.50203e-05
3.50203e-05
2.47249e-05
2.47249e-05
2.47249e-05
2.53317e-05
2.53317e-05
2.53317e-05
2.60767e-05
2.60767e-05
2.60767e-05
2.52896e-05
2.52896e-05
2.52896e-05
2.48152e-05
2.48152e-05
2.48152e-05
2.46498e-05
2.46498e-05
2.46498e-05
2.56013e-05
2.56013e-05
2.56013e-05
2.49605e-05
2.49605e-05
2.49605e-05
2.54376e-05
2.54376e-05
2.54376e-05
2.54534e-05
2.54534e-05
2.54534e-05
2.45065e-05
2.45065e-05
2.45065e-05
2.38937e-05
2.38937e-05
2.38937e-05
2.18183e-05
2.18183e-05
2.18183e-05
2.41737e-05
2.41737e-05
2.41737e-05
2.23071e-05
2.23071e-05
2.23071e-05
2.93817e-05
2.93817e-05
2.93817e-05
2.56347e-05
2.56347e-05
2.56347e-05
2.54767e-05
2.54767e-05
2.54767e-05
2.67154e-05
2.67154e-05
2.67154e-05
2.74976e-05
2.74976e-05
2.74976e-05
2.7185e-05
2.7185e-05
2.7185e-05
2.83286e-05
2.83286e-05
2.83286e-05
3.29984e-05
3.29984e-05
3.29984e-05
3.13166e-05
3.13166e-05
3.13166e-05
3.11644e-05
3.11644e-05
3.11644e-05
3.06648e-05
3.06648e-05
3.06648e-05
3.04942e-05
3.04942e-05
3.04942e-05
2.63913e-05
2.63913e-05
2.63913e-05
2.79832e-05
2.79832e-05
2.79832e-05
2.70255e-05
2.70255e-05
2.70255e-05
3.62323e-05
3.62323e-05
3.62323e-05
3.5764e-05
3.5764e-05
3.5764e-05
2.92104e-05
2.92104e-05
2.92104e-05
3.01474e-05
3.01474e-05
3.01474e-05
3.00015e-05
3.00015e-05
3.00015e-05
2.95321e-05
2.95321e-05
2.95321e-05
3.10461e-05
3.10461e-05
3.10461e-05
2.93127e-05
2.93127e-05
2.93127e-05
3.06536e-05
3.06536e-05
3.06536e-05
3.78598e-05
3.78598e-05
3.78598e-05
3.79823e-05
3.79823e-05
3.79823e-05
3.77623e-05
3.77623e-05
3.77623e-05
3.68293e-05
3.68293e-05
3.68293e-05
3.71666e-05
3.71666e-05
3.71666e-05
3.76351e-05
3.76351e-05
3.76351e-05
3.7544e-05
3.7544e-05
3.7544e-05
3.72039e-05
3.72039e-05
3.72039e-05
3.67409e-05
3.67409e-05
3.67409e-05
3.66152e-05
3.66152e-05
3.66152e-05
3.69556e-05
3.69556e-05
3.69556e-05
3.74214e-05
3.74214e-05
3.74214e-05
3.59385e-05
3.59385e-05
3.59385e-05
3.54913e-05
3.54913e-05
3.54913e-05
3.5369e-05
3.5369e-05
3.5369e-05
3.62674e-05
3.62674e-05
3.62674e-05
3.56969e-05
3.56969e-05
3.56969e-05
3.61467e-05
3.61467e-05
3.61467e-05
2.97845e-05
2.97845e-05
2.97845e-05
2.904e-05
2.904e-05
2.904e-05
2.94803e-05
2.94803e-05
2.94803e-05
2.96484e-05
2.96484e-05
2.96484e-05
3.09343e-05
3.09343e-05
3.09343e-05
3.0056e-05
3.0056e-05
3.0056e-05
3.01891e-05
3.01891e-05
3.01891e-05
3.0627e-05
3.0627e-05
3.0627e-05
3.02262e-05
3.02262e-05
3.02262e-05
3.03611e-05
3.03611e-05
3.03611e-05
3.08015e-05
3.08015e-05
3.08015e-05
3.11095e-05
3.11095e-05
3.11095e-05
3.2233e-05
3.2233e-05
3.2233e-05
3.13367e-05
3.13367e-05
3.13367e-05
3.1916e-05
3.1916e-05
3.1916e-05
3.14692e-05
3.14692e-05
3.14692e-05
3.28111e-05
3.28111e-05
3.28111e-05
3.26813e-05
3.26813e-05
3.26813e-05
3.09287e-05
3.09287e-05
3.09287e-05
3.10653e-05
3.10653e-05
3.10653e-05
2.98208e-05
2.98208e-05
2.98208e-05
2.99566e-05
2.99566e-05
2.99566e-05
3.05766e-05
3.05766e-05
3.05766e-05
3.01298e-05
3.01298e-05
3.01298e-05
3.37689e-05
3.37689e-05
3.37689e-05
3.34422e-05
3.34422e-05
3.34422e-05
3.26044e-05
3.26044e-05
3.26044e-05
3.46172e-05
3.46172e-05
3.46172e-05
3.49459e-05
3.49459e-05
3.49459e-05
3.43586e-05
3.43586e-05
3.43586e-05
3.48174e-05
3.48174e-05
3.48174e-05
2.89024e-05
2.89024e-05
2.89024e-05
2.92055e-05
2.92055e-05
2.92055e-05
2.90692e-05
2.90692e-05
2.90692e-05
2.86251e-05
2.86251e-05
2.86251e-05
2.83198e-05
2.83198e-05
2.83198e-05
2.84607e-05
2.84607e-05
2.84607e-05
2.81583e-05
2.81583e-05
2.81583e-05
2.77179e-05
2.77179e-05
2.77179e-05
2.92342e-05
2.92342e-05
2.92342e-05
2.95421e-05
2.95421e-05
2.95421e-05
2.94044e-05
2.94044e-05
2.94044e-05
2.89551e-05
2.89551e-05
2.89551e-05
2.76059e-05
2.76059e-05
2.76059e-05
2.80553e-05
2.80553e-05
2.80553e-05
2.97422e-05
2.97422e-05
2.97422e-05
2.9459e-05
2.9459e-05
2.9459e-05
2.82169e-05
2.82169e-05
2.82169e-05
2.91209e-05
2.91209e-05
2.91209e-05
2.83613e-05
2.83613e-05
2.83613e-05
2.8812e-05
2.8812e-05
2.8812e-05
2.90233e-05
2.90233e-05
2.90233e-05
2.54871e-05
2.54871e-05
2.54871e-05
2.51842e-05
2.51842e-05
2.51842e-05
2.73195e-05
2.73195e-05
2.73195e-05
2.70157e-05
2.70157e-05
2.70157e-05
3.18656e-05
3.18656e-05
3.18656e-05
3.15512e-05
3.15512e-05
3.15512e-05
3.21231e-05
3.21231e-05
3.21231e-05
3.16825e-05
3.16825e-05
3.16825e-05
3.30656e-05
3.30656e-05
3.30656e-05
3.26212e-05
3.26212e-05
3.26212e-05
3.31926e-05
3.31926e-05
3.31926e-05
3.23087e-05
3.23087e-05
3.23087e-05
3.28779e-05
3.28779e-05
3.28779e-05
3.24361e-05
3.24361e-05
3.24361e-05
3.09668e-05
3.09668e-05
3.09668e-05
3.21371e-05
3.21371e-05
3.21371e-05
3.17052e-05
3.17052e-05
3.17052e-05
3.22575e-05
3.22575e-05
3.22575e-05
3.13973e-05
3.13973e-05
3.13973e-05
3.19497e-05
3.19497e-05