<VTKFile type="UnstructuredGrid" version="1.0">
<UnstructuredGrid>
<Piece NumberOfPoints="8859" NumberOfCells="2953">
<Points>
<DataArray type="Float64" NumberOfComponents="3" format="ascii">
3.01 0.5 0.949999
3.01 0.487476 0.9725
3.01 0.512524 0.9725
3.01 0.17352 0.0725
3.01 0.148445 0.0725
3.01 0.160827 0.0942156
3.01 0.122979 0.115893
3.01 0.135644 0.0942238
3.01 0.110383 0.0942144
3.01 0.135644 0.0942238
3.01 0.123433 0.0725
3.01 0.110383 0.0942144
3.01 0.123433 0.0725
3.01 0.135644 0.0942238
3.01 0.148445 0.0725
3.01 0.135644 0.0942238
3.01 0.160827 0.0942156
3.01 0.148445 0.0725
3.01 0.17352 0.0725
3.01 0.185985 0.0942041
3.01 0.198629 0.0725
3.01 0.185985 0.0942041
3.01 0.17352 0.0725
3.01 0.160827 0.0942156
3.01 0.0732297 0.115673
3.01 0.0848754 0.0941414
3.01 0.0586606 0.0938057
3.01 0.05 0.905275
3.01 0.058509 0.882557
3.01 0.05 0.8601
3.01 0.324276 0.0725
3.01 0.336827 0.0941645
3.01 0.349395 0.0725
3.01 0.148138 0.115901
3.01 0.160827 0.0942156
3.01 0.135644 0.0942238
3.01 0.122979 0.115893
3.01 0.148138 0.115901
3.01 0.135644 0.0942238
3.01 0.160827 0.0942156
3.01 0.173316 0.115893
3.01 0.185985 0.0942041
3.01 0.185806 0.137548
3.01 0.173316 0.115893
3.01 0.160572 0.137553
3.01 0.173316 0.115893
3.01 0.160827 0.0942156
3.01 0.148138 0.115901
3.01 0.160572 0.137553
3.01 0.173316 0.115893
3.01 0.148138 0.115901
3.01 0.211137 0.0941934
3.01 0.198629 0.0725
3.01 0.185985 0.0942041
3.01 0.0979162 0.11584
3.01 0.122979 0.115893
3.01 0.110383 0.0942144
3.01 0.122979 0.115893
3.01 0.0979162 0.11584
3.01 0.109875 0.137487
3.01 0.0732297 0.115673
3.01 0.0979162 0.11584
3.01 0.0848754 0.0941414
3.01 0.0979162 0.11584
3.01 0.110383 0.0942144
3.01 0.0848754 0.0941414
3.01 0.0975729 0.159044
3.01 0.122678 0.159138
3.01 0.109875 0.137487
3.01 0.0841718 0.137346
3.01 0.0732297 0.115673
3.01 0.0577122 0.137024
3.01 0.0729308 0.158876
3.01 0.0841718 0.137346
3.01 0.0577122 0.137024
3.01 0.0732297 0.115673
3.01 0.0841718 0.137346
3.01 0.0979162 0.11584
3.01 0.0841718 0.137346
3.01 0.109875 0.137487
3.01 0.0979162 0.11584
3.01 0.0975729 0.159044
3.01 0.0841718 0.137346
3.01 0.0729308 0.158876
3.01 0.0841718 0.137346
3.01 0.0975729 0.159044
3.01 0.109875 0.137487
3.01 0.073948 0.0725
3.01 0.05 0.0725
3.01 0.0586606 0.0938057
3.01 0.073948 0.0725
3.01 0.0586606 0.0938057
3.01 0.0848754 0.0941414
3.01 0.05 0.948285
3.01 0.0603641 0.926975
3.01 0.05 0.905275
3.01 0.0603641 0.926975
3.01 0.05 0.948285
3.01 0.0753197 0.948991
3.01 0.0709395 0.9725
3.01 0.05 0.948285
3.01 0.05 0.9725
3.01 0.05 0.948285
3.01 0.0709395 0.9725
3.01 0.0753197 0.948991
3.01 0.0579641 0.659634
3.01 0.05 0.637613
3.01 0.05 0.681692
3.01 0.0841948 0.571795
3.01 0.109814 0.571797
3.01 0.097638 0.549925
3.01 0.0841948 0.571795
3.01 0.0578646 0.571797
3.01 0.0730539 0.593696
3.01 0.0580261 0.703799
3.01 0.05 0.681692
3.01 0.05 0.725948
3.01 0.942292 0.267355
3.01 0.95 0.289044
3.01 0.95 0.24567
3.01 0.95 0.202257
3.01 0.942332 0.223968
3.01 0.95 0.24567
3.01 0.73872 0.484532
3.01 0.75132 0.462755
3.01 0.726137 0.462762
3.01 0.751305 0.506322
3.01 0.73872 0.484532
3.01 0.726124 0.506332
3.01 0.713546 0.48454
3.01 0.73872 0.484532
3.01 0.726137 0.462762
3.01 0.73872 0.484532
3.01 0.713546 0.48454
3.01 0.726124 0.506332
3.01 0.814318 0.528113
3.01 0.801709 0.506302
3.01 0.789096 0.528124
3.01 0.7765 0.506312
3.01 0.801709 0.506302
3.01 0.789115 0.484514
3.01 0.801709 0.506302
3.01 0.7765 0.506312
3.01 0.789096 0.528124
3.01 0.7765 0.506312
3.01 0.763892 0.528136
3.01 0.789096 0.528124
3.01 0.763892 0.528136
3.01 0.7765 0.506312
3.01 0.751305 0.506322
3.01 0.95 0.9725
3.01 0.95 0.948285
3.01 0.929061 0.9725
3.01 0.95 0.770402
3.01 0.941913 0.748153
3.01 0.926844 0.770398
3.01 0.941913 0.748153
3.01 0.95 0.770402
3.01 0.95 0.725948
3.01 0.926866 0.725943
3.01 0.941913 0.748153
3.01 0.95 0.725948
3.01 0.941974 0.703799
3.01 0.926866 0.725943
3.01 0.95 0.725948
3.01 0.95 0.681692
3.01 0.941974 0.703799
3.01 0.95 0.725948
3.01 0.941974 0.703799
3.01 0.95 0.681692
3.01 0.926895 0.681686
3.01 0.6127 0.9725
3.01 0.637734 0.9725
3.01 0.625238 0.949983
3.01 0.662757 0.9725
3.01 0.650275 0.949974
3.01 0.637734 0.9725
3.01 0.650275 0.949974
3.01 0.625238 0.949983
3.01 0.637734 0.9725
3.01 0.600415 0.506367
3.01 0.575304 0.506371
3.01 0.587856 0.528197
3.01 0.575304 0.506371
3.01 0.562749 0.5282
3.01 0.587856 0.528197
3.01 0.336827 0.0941645
3.01 0.361946 0.0941621
3.01 0.349395 0.0725
3.01 0.223755 0.0725
3.01 0.198629 0.0725
3.01 0.211137 0.0941934
3.01 0.185985 0.0942041
3.01 0.198492 0.115879
3.01 0.211137 0.0941934
3.01 0.185806 0.137548
3.01 0.198492 0.115879
3.01 0.173316 0.115893
3.01 0.198492 0.115879
3.01 0.185985 0.0942041
3.01 0.173316 0.115893
3.01 0.0576202 0.180527
3.01 0.05 0.158739
3.01 0.05 0.202257
3.01 0.05 0.158739
3.01 0.0576202 0.180527
3.01 0.0729308 0.158876
3.01 0.05 0.158739
3.01 0.0729308 0.158876
3.01 0.0577122 0.137024
3.01 0.135283 0.13754
3.01 0.122979 0.115893
3.01 0.109875 0.137487
3.01 0.135283 0.13754
3.01 0.109875 0.137487
3.01 0.122678 0.159138
3.01 0.122979 0.115893
3.01 0.135283 0.13754
3.01 0.148138 0.115901
3.01 0.135283 0.13754
3.01 0.160572 0.137553
3.01 0.148138 0.115901
3.01 0.123433 0.0725
3.01 0.0985513 0.0725
3.01 0.110383 0.0942144
3.01 0.110383 0.0942144
3.01 0.0985513 0.0725
3.01 0.0848754 0.0941414
3.01 0.0848754 0.0941414
3.01 0.0985513 0.0725
3.01 0.073948 0.0725
3.01 0.0603641 0.926975
3.01 0.0739464 0.904488
3.01 0.05 0.905275
3.01 0.0739464 0.904488
3.01 0.058509 0.882557
3.01 0.05 0.905275
3.01 0.058509 0.882557
3.01 0.0739464 0.904488
3.01 0.0849548 0.882108
3.01 0.058509 0.882557
3.01 0.0732725 0.859878
3.01 0.05 0.8601
3.01 0.0732725 0.859878
3.01 0.058509 0.882557
3.01 0.0849548 0.882108
3.01 0.5 0.949999
3.01 0.47495 0.949998
3.01 0.487476 0.9725
3.01 0.097663 0.593697
3.01 0.109814 0.571797
3.01 0.0841948 0.571795
3.01 0.0730539 0.593696
3.01 0.097663 0.593697
3.01 0.0841948 0.571795
3.01 0.0578646 0.571797
3.01 0.05 0.593697
3.01 0.0730539 0.593696
3.01 0.05 0.593697
3.01 0.0578646 0.571797
3.01 0.05 0.549924
3.01 0.05 0.770402
3.01 0.0580869 0.748153
3.01 0.05 0.725948
3.01 0.05 0.725948
3.01 0.073134 0.725943
3.01 0.0580261 0.703799
3.01 0.073134 0.725943
3.01 0.05 0.725948
3.01 0.0580869 0.748153
3.01 0.942268 0.310726
3.01 0.95 0.332415
3.01 0.95 0.289044
3.01 0.942292 0.267355
3.01 0.927025 0.289036
3.01 0.95 0.289044
3.01 0.927025 0.289036
3.01 0.915919 0.310722
3.01 0.942268 0.310726
3.01 0.95 0.289044
3.01 0.927025 0.289036
3.01 0.942268 0.310726
3.01 0.927013 0.332411
3.01 0.95 0.332415
3.01 0.942268 0.310726
3.01 0.915919 0.310722
3.01 0.927013 0.332411
3.01 0.942268 0.310726
3.01 0.801738 0.419254
3.01 0.826957 0.419247
3.01 0.814364 0.39753
3.01 0.852174 0.419241
3.01 0.839609 0.397524
3.01 0.826957 0.419247
3.01 0.839609 0.397524
3.01 0.814364 0.39753
3.01 0.826957 0.419247
3.01 0.776516 0.462747
3.01 0.763923 0.440999
3.01 0.75132 0.462755
3.01 0.776516 0.462747
3.01 0.789115 0.484514
3.01 0.801725 0.462739
3.01 0.738704 0.528148
3.01 0.763892 0.528136
3.01 0.751305 0.506322
3.01 0.726124 0.506332
3.01 0.738704 0.528148
3.01 0.751305 0.506322
3.01 0.915617 0.748141
3.01 0.926866 0.725943
3.01 0.902228 0.725937
3.01 0.926866 0.725943
3.01 0.915617 0.748141
3.01 0.941913 0.748153
3.01 0.915617 0.748141
3.01 0.926844 0.770398
3.01 0.941913 0.748153
3.01 0.915617 0.748141
3.01 0.902193 0.770377
3.01 0.926844 0.770398
3.01 0.926866 0.725943
3.01 0.915668 0.703791
3.01 0.902228 0.725937
3.01 0.902267 0.681684
3.01 0.915668 0.703791
3.01 0.926895 0.681686
3.01 0.915668 0.703791
3.01 0.926866 0.725943
3.01 0.941974 0.703799
3.01 0.926895 0.681686
3.01 0.915668 0.703791
3.01 0.941974 0.703799
3.01 0.902267 0.681684
3.01 0.890059 0.703789
3.01 0.915668 0.703791
3.01 0.890059 0.703789
3.01 0.902228 0.725937
3.01 0.915668 0.703791
3.01 0.826927 0.506292
3.01 0.801709 0.506302
3.01 0.814318 0.528113
3.01 0.864816 0.571805
3.01 0.890186 0.571797
3.01 0.877308 0.54993
3.01 0.877308 0.54993
3.01 0.852122 0.549939
3.01 0.864816 0.571805
3.01 0.890186 0.571797
3.01 0.902362 0.549925
3.01 0.877308 0.54993
3.01 0.902362 0.549925
3.01 0.890186 0.571797
3.01 0.915805 0.571795
3.01 0.902362 0.549925
3.01 0.915805 0.571795
3.01 0.926964 0.549924
3.01 0.915835 0.528085
3.01 0.902362 0.549925
3.01 0.926964 0.549924
3.01 0.942171 0.528086
3.01 0.915835 0.528085
3.01 0.926964 0.549924
3.01 0.915835 0.528085
3.01 0.942171 0.528086
3.01 0.926978 0.506271
3.01 0.942171 0.528086
3.01 0.95 0.50627
3.01 0.926978 0.506271
3.01 0.87737 0.375808
3.01 0.902417 0.375804
3.01 0.890277 0.354106
3.01 0.852144 0.506284
3.01 0.864842 0.528094
3.01 0.877329 0.506277
3.01 0.877308 0.54993
3.01 0.864842 0.528094
3.01 0.852122 0.549939
3.01 0.902396 0.462716
3.01 0.890234 0.484486
3.01 0.915858 0.484483
3.01 0.926997 0.419232
3.01 0.95 0.419232
3.01 0.942237 0.397513
3.01 0.91589 0.397513
3.01 0.926997 0.419232
3.01 0.942237 0.397513
3.01 0.942199 0.484483
3.01 0.95 0.50627
3.01 0.95 0.462714
3.01 0.95 0.50627
3.01 0.942199 0.484483
3.01 0.926978 0.506271
3.01 0.942199 0.484483
3.01 0.915858 0.484483
3.01 0.926978 0.506271
3.01 0.95 0.419232
3.01 0.942221 0.440966
3.01 0.95 0.462714
3.01 0.942221 0.440966
3.01 0.95 0.419232
3.01 0.926997 0.419232
3.01 0.915876 0.440966
3.01 0.942221 0.440966
3.01 0.926997 0.419232
3.01 0.926989 0.462714
3.01 0.902396 0.462716
3.01 0.915858 0.484483
3.01 0.902396 0.462716
3.01 0.926989 0.462714
3.01 0.915876 0.440966
3.01 0.926989 0.462714
3.01 0.915858 0.484483
3.01 0.942199 0.484483
3.01 0.95 0.462714
3.01 0.926989 0.462714
3.01 0.942199 0.484483
3.01 0.915876 0.440966
3.01 0.926989 0.462714
3.01 0.942221 0.440966
3.01 0.926989 0.462714
3.01 0.95 0.462714
3.01 0.942221 0.440966
3.01 0.91353 0.926855
3.01 0.939636 0.926975
3.01 0.926054 0.904488
3.01 0.926728 0.859878
3.01 0.941491 0.882557
3.01 0.95 0.8601
3.01 0.926728 0.859878
3.01 0.95 0.8601
3.01 0.941822 0.837536
3.01 0.95 0.905275
3.01 0.939636 0.926975
3.01 0.95 0.948285
3.01 0.95 0.905275
3.01 0.941491 0.882557
3.01 0.926054 0.904488
[...]
<PointData Scalars="View Factor" >
<DataArray type="Float64" Name="View Factor" NumberOfComponents="1" format="ascii">
0.000229726
0.000229726
0.000229726
0.000328964
0.000328964
0.000328964
0.000326061
0.000326061
0.000326061
0.000328041
0.000328041
0.000328041
0.000329015
0.000329015
0.000329015
0.000327994
0.000327994
0.000327994
0.000328905
0.000328905
0.000328905
0.00032794
0.00032794
0.00032794
0.00032616
0.00032616
0.00032616
0.000238177
0.000238177
0.000238177
0.000328364
0.000328364
0.000328364
0.000326014
0.000326014
0.000326014
0.000325054
0.000325054
0.000325054
0.00032596
0.00032596
0.00032596
0.000322049
0.000322049
0.000322049
0.000325004
0.000325004
0.000325004
0.000323049
0.000323049
0.000323049
0.000327877
0.000327877
0.000327877
0.000325099
0.000325099
0.000325099
0.000323146
0.000323146
0.000323146
0.000325146
0.000325146
0.000325146
0.000326105
0.000326105
0.000326105
0.000319288
0.000319288
0.000319288
0.000322258
0.000322258
0.000322258
0.000320329
0.000320329
0.000320329
0.000323195
0.000323195
0.000323195
0.000322201
0.000322201
0.000322201
0.000319338
0.000319338
0.000319338
0.000320273
0.000320273
0.000320273
0.000329136
0.000329136
0.000329136
0.000328132
0.000328132
0.000328132
0.000234145
0.000234145
0.000234145
0.00023283
0.00023283
0.00023283
0.000230782
0.000230782
0.000230782
0.000231473
0.000231473
0.000231473
0.000259892
0.000259892
0.000259892
0.000269872
0.000269872
0.000269872
0.000268327
0.000268327
0.000268327
0.0002554
0.0002554
0.0002554
0.000299015
0.000299015
0.000299015
0.000304366
0.000304366
0.000304366
0.000277398
0.000277398
0.000277398
0.00027419
0.00027419
0.00027419
0.00027669
0.00027669
0.00027669
0.000275086
0.000275086
0.000275086
0.00027131
0.00027131
0.00027131
0.000273787
0.000273787
0.000273787
0.000272202
0.000272202
0.000272202
0.000271516
0.000271516
0.000271516
0.000272405
0.000272405
0.000272405
0.0002272
0.0002272
0.0002272
0.000245544
0.000245544
0.000245544
0.000246897
0.000246897
0.000246897
0.000248392
0.000248392
0.000248392
0.000249828
0.000249828
0.000249828
0.000251203
0.000251203
0.000251203
0.000252725
0.000252725
0.000252725
0.000229155
0.000229155
0.000229155
0.000229026
0.000229026
0.000229026
0.000229751
0.000229751
0.000229751
0.000273646
0.000273646
0.000273646
0.000272928
0.000272928
0.000272928
0.000327314
0.000327314
0.000327314
0.000328837
0.000328837
0.000328837
0.000325898
0.000325898
0.000325898
0.000322991
0.000322991
0.000322991
0.000324946
0.000324946
0.000324946
0.000315573
0.000315573
0.000315573
0.000317468
0.000317468
0.000317468
0.000319389
0.000319389
0.000319389
0.000322153
0.000322153
0.000322153
0.000320223
0.000320223
0.000320223
0.000323099
0.000323099
0.000323099
0.000322104
0.000322104
0.000322104
0.000329058
0.000329058
0.000329058
0.000328083
0.000328083
0.000328083
0.000329096
0.000329096
0.000329096
0.000235463
0.000235463
0.000235463
0.000236814
0.000236814
0.000236814
0.000237515
0.000237515
0.000237515
0.000239573
0.000239573
0.000239573
0.000238886
0.000238886
0.000238886
0.000230438
0.000230438
0.000230438
0.000268305
0.000268305
0.000268305
0.000267537
0.000267537
0.000267537
0.000267555
0.000267555
0.000267555
0.000269121
0.000269121
0.000269121
0.000250987
0.000250987
0.000250987
0.000253918
0.000253918
0.000253918
0.000252447
0.000252447
0.000252447
0.000293783
0.000293783
0.000293783
0.000297344
0.000297344
0.000297344
0.000294857
0.000294857
0.000294857
0.000295599
0.000295599
0.000295599
0.000292148
0.000292148
0.000292148
0.00029313
0.00029313
0.00029313
0.000283295
0.000283295
0.000283295
0.000283065
0.000283065
0.000283065
0.000284008
0.000284008
0.000284008
0.000278814
0.000278814
0.000278814
0.000276987
0.000276987
0.000276987
0.000271715
0.000271715
0.000271715
0.000272602
0.000272602
0.000272602
0.000248601
0.000248601
0.000248601
0.000247774
0.000247774
0.000247774
0.000246349
0.000246349
0.000246349
0.00024575
0.00024575
0.00024575
0.000250039
0.000250039
0.000250039
0.000252939
0.000252939
0.000252939
0.000250648
0.000250648
0.000250648
0.000252097
0.000252097
0.000252097
0.000252315
0.000252315
0.000252315
0.000250864
0.000250864
0.000250864
0.000271992
0.000271992
0.000271992
0.000265995
0.000265995
0.000265995
0.000266877
0.000266877
0.000266877
0.000266654
0.000266654
0.000266654
0.000265769
0.000265769
0.000265769
0.000266425
0.000266425
0.000266425
0.00026797
0.00026797
0.00026797
0.000268621
0.000268621
0.000268621
0.00027018
0.00027018
0.00027018
0.000270852
0.000270852
0.000270852
0.000287577
0.000287577
0.000287577
0.000271553
0.000271553
0.000271553
0.000268426
0.000268426
0.000268426
0.000275164
0.000275164
0.000275164
0.000282083
0.000282083
0.000282083
0.000283023
0.000283023
0.000283023
0.000273931
0.000273931
0.000273931
0.000272425
0.000272425
0.000272425
0.000273327
0.000273327
0.000273327
0.000278742
0.000278742
0.000278742
0.000280447
0.000280447
0.000280447
0.000279748
0.000279748
0.000279748
0.000275845
0.000275845
0.000275845
0.000277451
0.000277451
0.000277451
0.000274916
0.000274916
0.000274916
0.000275602
0.000275602
0.000275602
0.000278126
0.000278126
0.000278126
0.000277206
0.000277206
0.000277206
0.000231266
0.000231266
0.000231266
0.000235819
0.000235819
0.000235819
0.000237185
0.000237185
0.000237185
0.000230457
0.000230457
0.000230457
0.000233125
0.000233125
0.000233125
0.000231811
0.000231811
0.000231811
0.00023439
0.00023439
0.00023439
0.000244131
0.000244131
0.000244131
0.000231112
0.000231112
0.000231112
0.000232596
0.000232596
0.000232596
0.00023126
0.00023126
0.00023126
0.000230521
0.000230521
0.000230521
0.000228611
0.000228611
0.000228611
0.000229197
0.000229197
0.000229197
0.000228464
0.000228464
0.000228464
0.0002377
0.0002377
0.0002377
0.000235293
0.000235293
0.000235293
0.00023334
0.00023334
0.00023334
0.000234689
0.000234689
0.000234689
0.00023362
0.00023362
0.00023362
0.000234971
0.000234971
0.000234971
0.000231204
0.000231204
0.000231204
0.000229878
0.000229878
0.000229878
0.000229279
0.000229279
0.000229279
0.000276811
0.000276811
0.000276811
0.000272773
0.000272773
0.000272773
0.000268352
0.000268352
0.000268352
0.000266655
0.000266655
0.000266655
0.000268208
0.000268208
0.000268208
0.000269061
0.000269061
0.000269061
0.000271344
0.000271344
0.000271344
0.00027063
0.00027063
0.00027063
0.000266797
0.000266797
0.000266797
0.000265953
0.000265953
0.000265953
0.000257665
0.000257665
0.000257665
0.000267571
0.000267571
0.000267571
0.000268434
0.000268434
0.000268434
0.000269742
0.000269742
0.000269742
0.000266634
0.000266634
0.000266634
0.000328579
0.000328579
0.000328579
0.000328674
0.000328674
0.000328674
0.000327634
0.000327634
0.000327634
0.000325659
0.000325659
0.000325659
0.000324801
0.000324801
0.000324801
0.000281869
0.000281869
0.000281869
0.000278604
0.000278604
0.000278604
0.000281156
0.000281156
0.000281156
0.000279522
0.000279522
0.000279522
0.000279731
0.000279731
0.000279731
0.000279018
0.000279018
0.000279018
0.00032463
0.00032463
0.00032463
0.000328243
0.000328243
0.000328243
0.000326354
0.000326354
0.000326354
0.000299341
0.000299341
0.000299341
0.000300276
0.000300276
0.000300276
0.000321341
0.000321341
0.000321341
0.000327188
0.000327188
0.000327188
0.000325218
0.000325218
0.000325218
0.000323266
0.000323266
0.000323266
0.000236839
0.000236839
0.000236839
0.000229825
0.000229825
0.000229825
0.000258383
0.000258383
0.000258383
0.000256886
0.000256886
0.000256886
0.000265985
0.000265985
0.000265985
0.000313379
0.000313379
0.000313379
0.000258342
0.000258342
0.000258342
0.000256846
0.000256846
0.000256846
0.000270645
0.000270645
0.000270645
0.000269842
0.000269842
0.000269842
0.000272252
0.000272252
0.000272252
0.00027067
0.00027067
0.00027067
0.000270689
0.000270689
0.000270689
0.000269894
0.000269894
0.000269894
0.000273866
0.000273866
0.000273866
0.00027227
0.00027227
0.00027227
0.000273057
0.000273057
0.000273057
0.000274654
0.000274654
0.000274654
0.000275464
0.000275464
0.000275464
0.000273132
0.000273132
0.000273132
0.000273809
0.000273809
0.000273809
0.000292413
0.000292413
0.000292413
0.000281648
0.000281648
0.000281648
0.000280939
0.000280939
0.000280939
0.000279307
0.000279307
0.000279307
0.000283773
0.000283773
0.000283773
0.000282828
0.000282828
0.000282828
0.000288544
0.000288544
0.000288544
0.000298348
0.000298348
0.000298348
0.000294105
0.000294105
0.000294105
0.000277196
0.000277196
0.000277196
0.000273992
0.000273992
0.000273992
0.000274687
0.000274687
0.000274687
0.000276288
0.000276288
0.000276288
0.000276492
0.000276492
0.000276492
0.000274889
0.000274889
0.000274889
0.000270142
0.000270142
0.000270142
0.000269456
0.000269456
0.000269456
0.000271907
0.000271907
0.000271907
0.000270333
0.000270333
0.000270333
0.00026585
0.00026585
0.00026585
0.000264992
0.000264992
0.000264992
0.000269997
0.000269997
0.000269997
0.000264237
0.000264237
0.000264237
0.000253152
0.000253152
0.000253152
0.000254825
0.000254825
0.000254825
0.000254616
0.000254616
0.000254616
0.000255456
0.000255456
0.000255456
0.000233043
0.000233043
0.000233043
0.000232448
0.000232448
0.000232448
0.000233194
0.000233194
0.000233194
0.000234542
0.000234542
0.000234542
0.000240632
0.000240632
0.000240632
0.00023602
0.00023602
0.00023602
0.000234667
0.000234667
0.000234667
0.000242123
0.000242123
0.000242123
0.000240911
0.000240911
0.000240911
0.000242729
0.000242729
0.000242729
0.000278386
0.000278386
0.000278386
0.000271098
0.000271098
0.000271098
0.000271776
0.000271776
0.000271776
0.000270879
0.000270879
0.000270879
0.000269315
0.000269315
0.000269315
0.00026468
0.00026468
0.00026468
0.000266215
0.000266215
0.000266215
0.000271089
0.000271089
0.000271089
0.000272901
0.000272901
0.000272901
0.000272664
0.000272664
0.000272664
0.000273572
0.000273572
0.000273572
0.000267737
0.000267737
0.000267737
0.000269215
0.000269215
0.000269215
0.000278378
0.000278378
0.000278378
0.000281185
0.000281185
0.000281185
0.000280247
0.000280247
0.000280247
0.000284939
0.000284939
0.000284939
0.000283531
0.000283531
0.000283531
0.000285901
0.000285901
0.000285901
0.000285191
0.000285191
0.000285191
0.000288288
0.000288288
0.000288288
0.000289981
0.000289981
0.000289981
0.000290704
0.000290704
0.000290704
0.000230487
0.000230487
0.000230487
0.000231982
0.000231982
0.000231982
0.000229242
0.000229242
0.000229242
0.00022996
0.00022996
0.00022996
0.000227944
0.000227944
0.000227944
0.000232031
0.000232031
0.000232031
0.000236041
0.000236041
0.000236041
0.000233358
0.000233358
0.000233358
0.000233908
0.000233908
0.000233908
0.000235247
0.000235247
0.000235247
0.000238752
0.000238752
0.000238752
0.000240733
0.000240733
0.000240733
0.00024013
0.00024013
0.00024013
0.00023995
0.00023995
0.00023995
0.000244337
0.000244337
0.000244337
0.000243524
0.000243524
0.000243524
0.00023797
0.00023797
0.00023797
0.000237398
0.000237398
0.000237398
0.00023288
0.00023288
0.00023288
0.00023274
0.00023274
0.00023274
0.000233482
0.000233482
0.000233482
0.000228754
0.000228754
0.000228754
0.000229342
0.000229342
0.000229342
0.000230666
0.000230666
0.000230666
0.000231403
0.000231403
0.000231403
0.000228579
0.000228579
0.000228579
0.000230649
0.000230649
0.000230649
0.000229905
0.000229905
0.000229905
0.000227998
0.000227998
0.000227998
0.000230372
0.000230372
0.000230372
0.000229048
0.000229048
0.000229048
0.000236654
0.000236654
0.000236654
0.000237413
0.000237413
0.000237413
0.000247367
0.000247367
0.000247367
0.000248006
0.000248006
0.000248006
0.000243426
0.000243426
0.000243426
0.000238787
0.000238787
0.000238787
0.000239402
0.000239402
0.000239402
0.000239077
0.000239077
0.000239077
0.000242804
0.000242804
0.000242804
0.000241406
0.000241406
0.000241406
0.000240788
0.000240788
0.000240788
0.000241561
0.000241561
0.000241561
0.000235439
0.000235439
0.000235439
0.000236945
0.000236945
0.000236945
0.000235581
0.000235581
0.000235581
0.000234832
0.000234832
0.000234832
0.000237558
0.000237558
0.000237558
0.000236802
0.000236802
0.000236802
0.000233015
0.000233015
0.000233015
0.000231677
0.000231677
0.000231677
0.000231076
0.000231076
0.000231076
0.000231807
0.000231807
0.000231807
0.000235718
0.000235718
0.000235718
0.000237083
0.000237083
0.000237083
0.000237837
0.000237837
0.000237837
0.000250831
0.000250831
0.000250831
0.000252289
0.000252289
0.000252289
0.000281619
0.000281619
0.000281619
0.000275115
0.000275115
0.000275115
0.00028248
0.00028248
0.00028248
0.000281689
0.000281689
0.000281689
0.000274278
0.000274278
0.000274278
0.000276064
0.000276064
0.000276064
0.000276929
0.000276929
0.000276929
0.000268978
0.000268978
0.000268978
0.000269706
0.000269706
0.000269706
0.000271163
0.000271163
0.000271163
0.000267418
0.000267418
0.000267418
0.000266695
0.000266695
0.000266695
0.000265149
0.000265149
0.000265149
0.000264327
0.000264327
0.000264327
0.000273488
0.000273488
0.000273488
0.000271192
0.000271192
0.000271192
0.000270481
0.000270481
0.000270481
0.000268914
0.000268914
0.000268914
0.000268058
0.000268058
0.000268058
0.000262085
0.000262085
0.000262085
0.000262795
0.000262795
0.000262795
0.000266092
0.000266092
0.000266092
0.000264413
0.000264413
0.000264413
0.000268865
0.000268865
0.000268865
0.00026959
0.00026959
0.00026959
0.00026175
0.00026175
0.00026175
0.00026245
0.00026245
0.00026245
0.00026619
0.00026619
0.00026619
0.000267739
0.000267739
0.000267739
0.000265095
0.000265095
0.000265095
0.000253298
0.000253298
0.000253298
0.00032876
0.00032876
0.00032876
0.000327724
0.000327724
0.000327724
0.000327805
0.000327805
0.000327805
0.000306266
0.000306266
0.000306266
0.000309845
0.000309845
0.000309845
0.000308093
0.000308093
0.000308093
0.000325261
0.000325261
0.000325261
0.000324891
0.000324891
0.000324891
0.00032566
0.00032566
0.00032566
0.000282083
0.000282083
0.000282083
0.000281366
0.000281366
0.000281366
0.000282291
0.000282291
0.000282291
0.000283944
0.000283944
0.000283944
0.000279932
0.000279932
0.000279932
0.000281569
0.000281569
0.000281569
0.000327536
0.000327536
0.000327536
0.000325562
0.000325562
0.000325562
0.000328476
0.000328476
0.000328476
0.000327429
0.000327429
0.000327429
0.000325342
0.000325342
0.000325342
0.000324302
0.000324302
0.000324302
0.000322354
0.000322354
0.000322354
0.000322228
0.000322228
0.000322228
0.000321324
0.000321324
0.000321324
0.0003185
0.0003185
0.0003185
0.000319398
0.000319398
0.000319398
0.00032783
0.00032783
0.00032783
0.000325479
0.000325479
0.000325479
0.000297576
0.000297576
0.000297576
0.000294084
0.000294084
0.000294084
0.000323416
0.000323416
0.000323416
0.000324722
0.000324722
0.000324722
0.00032277
0.00032277
0.00032277
0.000325748
0.000325748
0.000325748
0.000245721
0.000245721
0.000245721
0.000242766
0.000242766
0.000242766
0.000238754
0.000238754
0.000238754
0.000238802
0.000238802
0.000238802
0.000239471
0.000239471
0.000239471
0.000242987
0.000242987
0.000242987
0.000240862
0.000240862
0.000240862
0.000241583
0.000241583
0.000241583
0.000239421
0.000239421
0.000239421
0.000237517
0.000237517
0.000237517
0.000240972
0.000240972
0.000240972
0.000242377
0.000242377
0.000242377
0.000230535
0.000230535
0.000230535
0.000233928
0.000233928
0.000233928
0.000232583
0.000232583
0.000232583
0.000231866
0.000231866
0.000231866
0.000236646
0.000236646
0.000236646
0.000234107
0.000234107
0.000234107
0.00023276
0.00023276
0.00023276
0.000259107
0.000259107
0.000259107
0.000258366
0.000258366
0.000258366
0.000259127
0.000259127
0.000259127
0.00025465
0.00025465
0.00025465
0.000256134
0.000256134
0.000256134
0.000253902
0.000253902
0.000253902
0.00025463
0.00025463
0.00025463
0.000256869
0.000256869
0.000256869
0.000256113
0.000256113
0.000256113
0.000265202
0.000265202
0.000265202
0.000263636
0.000263636
0.000263636
0.000264464
0.000264464
0.000264464
0.000266003
0.000266003
0.000266003
0.000265223
0.000265223
0.000265223
0.000313674
0.000313674
0.000313674
0.000299846
0.000299846
0.000299846
0.000303423
0.000303423
0.000303423
0.00029426
0.00029426
0.00029426
0.000292531
0.000292531
0.000292531
0.00029382
0.00029382
0.00029382
0.000288676
0.000288676
0.000288676
0.000286981
0.000286981
0.000286981
0.000299076
0.000299076
0.000299076
0.000300827
0.000300827
0.000300827
0.000302618
0.000302618
0.000302618
0.000300848
0.000300848
0.000300848
0.000299949
0.000299949
0.000299949
0.000300758
0.000300758
0.000300758
0.000302547
0.000302547
0.000302547
0.000305314
0.000305314
0.000305314
0.000303504
0.000303504
0.000303504
0.000302587
0.000302587
0.000302587
0.000303468
0.000303468
0.000303468
0.000311512
0.000311512
0.000311512
0.000253879
0.000253879
0.000253879
0.000252409
0.000252409
0.000252409
0.000267512
0.000267512
0.000267512
0.000268276
0.000268276
0.000268276
0.00026596
0.00026596
0.00026596
0.000265173
0.000265173
0.000265173
0.000270612
0.000270612
0.000270612
0.000283639
0.000283639
0.000283639
0.000284459
0.000284459
0.000284459
0.000285302
0.000285302
0.000285302
0.000285282
0.000285282
0.000285282
0.000284435
0.000284435
0.000284435
0.000275445
0.000275445
0.000275445
0.000277057
0.000277057
0.000277057
0.000282704
0.000282704
0.000282704
0.000272226
0.000272226
0.000272226
0.000275419
0.000275419
0.000275419
0.000273034
0.000273034
0.000273034
0.000274631
0.000274631
0.000274631
0.000296823
0.000296823
0.000296823
0.00029508
0.00029508
0.00029508
0.000285671
0.000285671
0.000285671
0.000290964
0.000290964
0.000290964
0.000290239
0.000290239
0.000290239
0.000286149
0.000286149
0.000286149
0.000287827
0.000287827
0.000287827
0.000285435
0.000285435
0.000285435
0.00028639
0.00028639
0.00028639
0.000286624
0.000286624
0.000286624
0.000288306
0.000288306
0.000288306
0.000295869
0.000295869
0.000295869
0.000297616
0.000297616
0.000297616
0.000269263
0.000269263
0.000269263
0.000269945
0.000269945
0.000269945
0.000269063
0.000269063
0.000269063
0.000267509
0.000267509
0.000267509
0.000266834
0.000266834
0.000266834
0.000267706
0.000267706
0.000267706
0.000269643
0.000269643
0.000269643
0.000268083
0.000268083
0.000268083
0.000268261
0.000268261
0.000268261
0.000267396
0.000267396
0.000267396
0.000272792
0.000272792
0.000272792
0.000275275
0.000275275
0.000275275
0.000274382
0.000274382
0.000274382
0.000266023
0.000266023
0.000266023
0.000265167
0.000265167
0.000265167
0.000265337
0.000265337
0.000265337
0.000255594
0.000255594
0.000255594
0.000254121
0.000254121
0.000254121
0.000261638
0.000261638
0.000261638
0.000263364
0.000263364
0.000263364
0.000264462
0.000264462
0.000264462
0.000263589
0.000263589
0.000263589
0.000263809
0.000263809
0.000263809
0.000262289
0.000262289
0.000262289
0.000256719
0.000256719
0.000256719
0.000254402
0.000254402
0.000254402
0.000255243
0.000255243
0.000255243
0.000250248
0.000250248
0.000250248
0.000246561
0.000246561
0.000246561
0.000247987
0.000247987
0.000247987
0.000248809
0.000248809
0.000248809
0.000248193
0.000248193
0.000248193
0.000244131
0.000244131
0.000244131
0.000234235
0.000234235
0.000234235
0.000232731
0.000232731
0.000232731
0.000234075
0.000234075
0.000234075
0.000234831
0.000234831
0.000234831
0.000234989
0.000234989
0.000234989
0.000235143
0.000235143
0.000235143
0.00023439
0.00023439
0.00023439
0.000236347
0.000236347
0.000236347
0.000233909
0.000233909
0.000233909
0.000231817
0.000231817
0.000231817
0.000232568
0.000232568
0.000232568
0.000234496
0.000234496
0.000234496
0.000238152
0.000238152
0.000238152
0.000236785
0.000236785
0.000236785
0.000236187
0.000236187
0.000236187
0.000236949
0.000236949
0.000236949
0.000243734
0.000243734
0.000243734
0.000242333
0.000242333
0.000242333
0.000241936
0.000241936
0.000241936
0.000240547
0.000240547
0.000240547
0.000241739
0.000241739
0.000241739
0.000242535
0.000242535
0.000242535
0.000276772
0.000276772
0.000276772
0.000273575
0.000273575
0.000273575
0.000274478
0.000274478
0.000274478
0.000276077
0.000276077
0.000276077
0.000273357
0.000273357
0.000273357
0.00027655
0.00027655
0.00027655
0.000274262
0.000274262
0.000274262
0.000275859
0.000275859
0.000275859
0.000274039
0.000274039
0.000274039
0.000275634
0.000275634
0.000275634
0.000280715
0.000280715
0.000280715
0.000279086
0.000279086
0.000279086
0.000278162
0.000278162