<VTKFile type="UnstructuredGrid" version="1.0">
<UnstructuredGrid>
<Piece NumberOfPoints="8859" NumberOfCells="2953">
<Points>
<DataArray type="Float64" NumberOfComponents="3" format="ascii">
0.5 3.01 10.355
0.512524 3.01 10.3775
0.487476 3.01 10.3775
0.17352 3.01 9.4775
0.160827 3.01 9.49922
0.148445 3.01 9.4775
0.122979 3.01 9.52089
0.110383 3.01 9.49921
0.135644 3.01 9.49922
0.135644 3.01 9.49922
0.110383 3.01 9.49921
0.123433 3.01 9.4775
0.123433 3.01 9.4775
0.148445 3.01 9.4775
0.135644 3.01 9.49922
0.135644 3.01 9.49922
0.148445 3.01 9.4775
0.160827 3.01 9.49922
0.17352 3.01 9.4775
0.198629 3.01 9.4775
0.185985 3.01 9.4992
0.185985 3.01 9.4992
0.160827 3.01 9.49922
0.17352 3.01 9.4775
0.0732297 3.01 9.52067
0.0586606 3.01 9.49881
0.0848754 3.01 9.49914
0.05 3.01 10.3103
0.05 3.01 10.2651
0.058509 3.01 10.2876
0.324276 3.01 9.4775
0.349395 3.01 9.4775
0.336827 3.01 9.49916
0.148138 3.01 9.5209
0.135644 3.01 9.49922
0.160827 3.01 9.49922
0.122979 3.01 9.52089
0.135644 3.01 9.49922
0.148138 3.01 9.5209
0.160827 3.01 9.49922
0.185985 3.01 9.4992
0.173316 3.01 9.52089
0.185806 3.01 9.54255
0.160572 3.01 9.54255
0.173316 3.01 9.52089
0.173316 3.01 9.52089
0.148138 3.01 9.5209
0.160827 3.01 9.49922
0.160572 3.01 9.54255
0.148138 3.01 9.5209
0.173316 3.01 9.52089
0.211137 3.01 9.49919
0.185985 3.01 9.4992
0.198629 3.01 9.4775
0.0979162 3.01 9.52084
0.110383 3.01 9.49921
0.122979 3.01 9.52089
0.122979 3.01 9.52089
0.109875 3.01 9.54249
0.0979162 3.01 9.52084
0.0732297 3.01 9.52067
0.0848754 3.01 9.49914
0.0979162 3.01 9.52084
0.0979162 3.01 9.52084
0.0848754 3.01 9.49914
0.110383 3.01 9.49921
0.0975729 3.01 9.56404
0.109875 3.01 9.54249
0.122678 3.01 9.56414
0.0841718 3.01 9.54235
0.0577122 3.01 9.54202
0.0732297 3.01 9.52067
0.0729308 3.01 9.56388
0.0577122 3.01 9.54202
0.0841718 3.01 9.54235
0.0732297 3.01 9.52067
0.0979162 3.01 9.52084
0.0841718 3.01 9.54235
0.0841718 3.01 9.54235
0.0979162 3.01 9.52084
0.109875 3.01 9.54249
0.0975729 3.01 9.56404
0.0729308 3.01 9.56388
0.0841718 3.01 9.54235
0.0841718 3.01 9.54235
0.109875 3.01 9.54249
0.0975729 3.01 9.56404
0.073948 3.01 9.4775
0.0586606 3.01 9.49881
0.05 3.01 9.4775
0.073948 3.01 9.4775
0.0848754 3.01 9.49914
0.0586606 3.01 9.49881
0.05 3.01 10.3533
0.05 3.01 10.3103
0.0603641 3.01 10.332
0.0603641 3.01 10.332
0.0753197 3.01 10.354
0.05 3.01 10.3533
0.0709395 3.01 10.3775
0.05 3.01 10.3775
0.05 3.01 10.3533
0.05 3.01 10.3533
0.0753197 3.01 10.354
0.0709395 3.01 10.3775
0.0579641 3.01 10.0646
0.05 3.01 10.0867
0.05 3.01 10.0426
0.0841948 3.01 9.9768
0.097638 3.01 9.95493
0.109814 3.01 9.9768
0.0841948 3.01 9.9768
0.0730539 3.01 9.9987
0.0578646 3.01 9.9768
0.0580261 3.01 10.1088
0.05 3.01 10.1309
0.05 3.01 10.0867
0.942292 3.01 9.67236
0.95 3.01 9.65067
0.95 3.01 9.69404
0.95 3.01 9.60726
0.95 3.01 9.65067
0.942332 3.01 9.62897
0.73872 3.01 9.88953
0.726137 3.01 9.86776
0.75132 3.01 9.86775
0.751305 3.01 9.91132
0.726124 3.01 9.91133
0.73872 3.01 9.88953
0.713546 3.01 9.88954
0.726137 3.01 9.86776
0.73872 3.01 9.88953
0.73872 3.01 9.88953
0.726124 3.01 9.91133
0.713546 3.01 9.88954
0.814318 3.01 9.93311
0.789096 3.01 9.93312
0.801709 3.01 9.9113
0.7765 3.01 9.91131
0.789115 3.01 9.88951
0.801709 3.01 9.9113
0.801709 3.01 9.9113
0.789096 3.01 9.93312
0.7765 3.01 9.91131
0.7765 3.01 9.91131
0.789096 3.01 9.93312
0.763892 3.01 9.93314
0.763892 3.01 9.93314
0.751305 3.01 9.91132
0.7765 3.01 9.91131
0.95 3.01 10.3775
0.929061 3.01 10.3775
0.95 3.01 10.3533
0.95 3.01 10.1754
0.926844 3.01 10.1754
0.941913 3.01 10.1532
0.941913 3.01 10.1532
0.95 3.01 10.1309
0.95 3.01 10.1754
0.926866 3.01 10.1309
0.95 3.01 10.1309
0.941913 3.01 10.1532
0.941974 3.01 10.1088
0.95 3.01 10.1309
0.926866 3.01 10.1309
0.95 3.01 10.0867
0.95 3.01 10.1309
0.941974 3.01 10.1088
0.941974 3.01 10.1088
0.926895 3.01 10.0867
0.95 3.01 10.0867
0.6127 3.01 10.3775
0.625238 3.01 10.355
0.637734 3.01 10.3775
0.662757 3.01 10.3775
0.637734 3.01 10.3775
0.650275 3.01 10.355
0.650275 3.01 10.355
0.637734 3.01 10.3775
0.625238 3.01 10.355
0.600415 3.01 9.91137
0.587856 3.01 9.9332
0.575304 3.01 9.91137
0.575304 3.01 9.91137
0.587856 3.01 9.9332
0.562749 3.01 9.9332
0.336827 3.01 9.49916
0.349395 3.01 9.4775
0.361946 3.01 9.49916
0.223755 3.01 9.4775
0.211137 3.01 9.49919
0.198629 3.01 9.4775
0.185985 3.01 9.4992
0.211137 3.01 9.49919
0.198492 3.01 9.52088
0.185806 3.01 9.54255
0.173316 3.01 9.52089
0.198492 3.01 9.52088
0.198492 3.01 9.52088
0.173316 3.01 9.52089
0.185985 3.01 9.4992
0.0576202 3.01 9.58553
0.05 3.01 9.60726
0.05 3.01 9.56374
0.05 3.01 9.56374
0.0729308 3.01 9.56388
0.0576202 3.01 9.58553
0.05 3.01 9.56374
0.0577122 3.01 9.54202
0.0729308 3.01 9.56388
0.135283 3.01 9.54254
0.109875 3.01 9.54249
0.122979 3.01 9.52089
0.135283 3.01 9.54254
0.122678 3.01 9.56414
0.109875 3.01 9.54249
0.122979 3.01 9.52089
0.148138 3.01 9.5209
0.135283 3.01 9.54254
0.135283 3.01 9.54254
0.148138 3.01 9.5209
0.160572 3.01 9.54255
0.123433 3.01 9.4775
0.110383 3.01 9.49921
0.0985513 3.01 9.4775
0.110383 3.01 9.49921
0.0848754 3.01 9.49914
0.0985513 3.01 9.4775
0.0848754 3.01 9.49914
0.073948 3.01 9.4775
0.0985513 3.01 9.4775
0.0603641 3.01 10.332
0.05 3.01 10.3103
0.0739464 3.01 10.3095
0.0739464 3.01 10.3095
0.05 3.01 10.3103
0.058509 3.01 10.2876
0.058509 3.01 10.2876
0.0849548 3.01 10.2871
0.0739464 3.01 10.3095
0.058509 3.01 10.2876
0.05 3.01 10.2651
0.0732725 3.01 10.2649
0.0732725 3.01 10.2649
0.0849548 3.01 10.2871
0.058509 3.01 10.2876
0.5 3.01 10.355
0.487476 3.01 10.3775
0.47495 3.01 10.355
0.097663 3.01 9.9987
0.0841948 3.01 9.9768
0.109814 3.01 9.9768
0.0730539 3.01 9.9987
0.0841948 3.01 9.9768
0.097663 3.01 9.9987
0.0578646 3.01 9.9768
0.0730539 3.01 9.9987
0.05 3.01 9.9987
0.05 3.01 9.9987
0.05 3.01 9.95492
0.0578646 3.01 9.9768
0.05 3.01 10.1754
0.05 3.01 10.1309
0.0580869 3.01 10.1532
0.05 3.01 10.1309
0.0580261 3.01 10.1088
0.073134 3.01 10.1309
0.073134 3.01 10.1309
0.0580869 3.01 10.1532
0.05 3.01 10.1309
0.942268 3.01 9.71573
0.95 3.01 9.69404
0.95 3.01 9.73741
0.942292 3.01 9.67236
0.95 3.01 9.69404
0.927025 3.01 9.69404
0.927025 3.01 9.69404
0.942268 3.01 9.71573
0.915919 3.01 9.71572
0.95 3.01 9.69404
0.942268 3.01 9.71573
0.927025 3.01 9.69404
0.927013 3.01 9.73741
0.942268 3.01 9.71573
0.95 3.01 9.73741
0.915919 3.01 9.71572
0.942268 3.01 9.71573
0.927013 3.01 9.73741
0.801738 3.01 9.82425
0.814364 3.01 9.80253
0.826957 3.01 9.82425
0.852174 3.01 9.82424
0.826957 3.01 9.82425
0.839609 3.01 9.80252
0.839609 3.01 9.80252
0.826957 3.01 9.82425
0.814364 3.01 9.80253
0.776516 3.01 9.86775
0.75132 3.01 9.86775
0.763923 3.01 9.846
0.776516 3.01 9.86775
0.801725 3.01 9.86774
0.789115 3.01 9.88951
0.738704 3.01 9.93315
0.751305 3.01 9.91132
0.763892 3.01 9.93314
0.726124 3.01 9.91133
0.751305 3.01 9.91132
0.738704 3.01 9.93315
0.915617 3.01 10.1531
0.902228 3.01 10.1309
0.926866 3.01 10.1309
0.926866 3.01 10.1309
0.941913 3.01 10.1532
0.915617 3.01 10.1531
0.915617 3.01 10.1531
0.941913 3.01 10.1532
0.926844 3.01 10.1754
0.915617 3.01 10.1531
0.926844 3.01 10.1754
0.902193 3.01 10.1754
0.926866 3.01 10.1309
0.902228 3.01 10.1309
0.915668 3.01 10.1088
0.902267 3.01 10.0867
0.926895 3.01 10.0867
0.915668 3.01 10.1088
0.915668 3.01 10.1088
0.941974 3.01 10.1088
0.926866 3.01 10.1309
0.926895 3.01 10.0867
0.941974 3.01 10.1088
0.915668 3.01 10.1088
0.902267 3.01 10.0867
0.915668 3.01 10.1088
0.890059 3.01 10.1088
0.890059 3.01 10.1088
0.915668 3.01 10.1088
0.902228 3.01 10.1309
0.826927 3.01 9.91129
0.814318 3.01 9.93311
0.801709 3.01 9.9113
0.864816 3.01 9.9768
0.877308 3.01 9.95493
0.890186 3.01 9.9768
0.877308 3.01 9.95493
0.864816 3.01 9.9768
0.852122 3.01 9.95494
0.890186 3.01 9.9768
0.877308 3.01 9.95493
0.902362 3.01 9.95493
0.902362 3.01 9.95493
0.915805 3.01 9.9768
0.890186 3.01 9.9768
0.902362 3.01 9.95493
0.926964 3.01 9.95492
0.915805 3.01 9.9768
0.915835 3.01 9.93309
0.926964 3.01 9.95492
0.902362 3.01 9.95493
0.942171 3.01 9.93309
0.926964 3.01 9.95492
0.915835 3.01 9.93309
0.915835 3.01 9.93309
0.926978 3.01 9.91127
0.942171 3.01 9.93309
0.942171 3.01 9.93309
0.926978 3.01 9.91127
0.95 3.01 9.91127
0.87737 3.01 9.78081
0.890277 3.01 9.75911
0.902417 3.01 9.7808
0.852144 3.01 9.91128
0.877329 3.01 9.91128
0.864842 3.01 9.93309
0.877308 3.01 9.95493
0.852122 3.01 9.95494
0.864842 3.01 9.93309
0.902396 3.01 9.86772
0.915858 3.01 9.88948
0.890234 3.01 9.88949
0.926997 3.01 9.82423
0.942237 3.01 9.80251
0.95 3.01 9.82423
0.91589 3.01 9.80251
0.942237 3.01 9.80251
0.926997 3.01 9.82423
0.942199 3.01 9.88948
0.95 3.01 9.86771
0.95 3.01 9.91127
0.95 3.01 9.91127
0.926978 3.01 9.91127
0.942199 3.01 9.88948
0.942199 3.01 9.88948
0.926978 3.01 9.91127
0.915858 3.01 9.88948
0.95 3.01 9.82423
0.95 3.01 9.86771
0.942221 3.01 9.84597
0.942221 3.01 9.84597
0.926997 3.01 9.82423
0.95 3.01 9.82423
0.915876 3.01 9.84597
0.926997 3.01 9.82423
0.942221 3.01 9.84597
0.926989 3.01 9.86771
0.915858 3.01 9.88948
0.902396 3.01 9.86772
0.902396 3.01 9.86772
0.915876 3.01 9.84597
0.926989 3.01 9.86771
0.926989 3.01 9.86771
0.942199 3.01 9.88948
0.915858 3.01 9.88948
0.95 3.01 9.86771
0.942199 3.01 9.88948
0.926989 3.01 9.86771
0.915876 3.01 9.84597
0.942221 3.01 9.84597
0.926989 3.01 9.86771
0.926989 3.01 9.86771
0.942221 3.01 9.84597
0.95 3.01 9.86771
0.91353 3.01 10.3319
0.926054 3.01 10.3095
0.939636 3.01 10.332
0.926728 3.01 10.2649
0.95 3.01 10.2651
0.941491 3.01 10.2876
0.926728 3.01 10.2649
0.941822 3.01 10.2425
0.95 3.01 10.2651
0.95 3.01 10.3103
0.95 3.01 10.3533
0.939636 3.01 10.332
0.95 3.01 10.3103
0.926054 3.01 10.3095
0.941491 3.01 10.2876
0.939636 3.01 10.332
0.926054 3.01 10.3095
0.95 3.01 10.3103
0.941491 3.01 10.2876
0.95 3.01 10.2651
0.95 3.01 10.3103
0.941869 3.01 10.1977
0.926844 3.01 10.1754
0.95 3.01 10.1754
0.762942 3.01 10.3323
0.75028 3.01 10.3549
0.737933 3.01 10.3323
0.71291 3.01 10.3324
0.725533 3.01 10.3099
0.737933 3.01 10.3323
0.71291 3.01 10.3324
0.737933 3.01 10.3323
0.725313 3.01 10.3549
0.725313 3.01 10.3549
0.737933 3.01 10.3323
0.75028 3.01 10.3549
[...]
<PointData Scalars="View Factor" >
<DataArray type="Float64" Name="View Factor" NumberOfComponents="1" format="ascii">
0.356048
0.356048
0.356048
0.120383
0.120383
0.120383
0.124075
0.124075
0.124075
0.121686
0.121686
0.121686
0.12047
0.12047
0.12047
0.121606
0.121606
0.121606
0.12028
0.12028
0.12028
0.121509
0.121509
0.121509
0.124155
0.124155
0.124155
0.333656
0.333656
0.333656
0.119349
0.119349
0.119349
0.123994
0.123994
0.123994
0.125248
0.125248
0.125248
0.123895
0.123895
0.123895
0.128806
0.128806
0.128806
0.125157
0.125157
0.125157
0.127613
0.127613
0.127613
0.121397
0.121397
0.121397
0.125319
0.125319
0.125319
0.127774
0.127774
0.127774
0.125361
0.125361
0.125361
0.124135
0.124135
0.124135
0.132825
0.132825
0.132825
0.129059
0.129059
0.129059
0.131584
0.131584
0.131584
0.127813
0.127813
0.127813
0.129042
0.129042
0.129042
0.132863
0.132863
0.132863
0.131566
0.131566
0.131566
0.12062
0.12062
0.12062
0.121776
0.121776
0.121776
0.349478
0.349478
0.349478
0.3547
0.3547
0.3547
0.363024
0.363024
0.363024
0.360164
0.360164
0.360164
0.258206
0.258206
0.258206
0.229211
0.229211
0.229211
0.233568
0.233568
0.233568
0.272371
0.272371
0.272371
0.14129
0.14129
0.14129
0.13323
0.13323
0.13323
0.192718
0.192718
0.192718
0.200187
0.200187
0.200187
0.194939
0.194939
0.194939
0.198681
0.198681
0.198681
0.203834
0.203834
0.203834
0.198555
0.198555
0.198555
0.202353
0.202353
0.202353
0.204706
0.204706
0.204706
0.2032
0.2032
0.2032
0.334276
0.334276
0.334276
0.268245
0.268245
0.268245
0.263163
0.263163
0.263163
0.258992
0.258992
0.258992
0.25444
0.25444
0.25444
0.24953
0.24953
0.24953
0.245494
0.245494
0.245494
0.351659
0.351659
0.351659
0.350635
0.350635
0.350635
0.348511
0.348511
0.348511
0.208198
0.208198
0.208198
0.210468
0.210468
0.210468
0.12041
0.12041
0.12041
0.120162
0.120162
0.120162
0.123781
0.123781
0.123781
0.127504
0.127504
0.127504
0.125049
0.125049
0.125049
0.138162
0.138162
0.138162
0.135489
0.135489
0.135489
0.132871
0.132871
0.132871
0.128987
0.128987
0.128987
0.131513
0.131513
0.131513
0.127704
0.127704
0.127704
0.128906
0.128906
0.128906
0.120542
0.120542
0.120542
0.121747
0.121747
0.121747
0.120595
0.120595
0.120595
0.34421
0.34421
0.34421
0.33891
0.33891
0.33891
0.336112
0.336112
0.336112
0.328259
0.328259
0.328259
0.330821
0.330821
0.330821
0.353751
0.353751
0.353751
0.233481
0.233481
0.233481
0.235684
0.235684
0.235684
0.235757
0.235757
0.235757
0.231473
0.231473
0.231473
0.287034
0.287034
0.287034
0.277181
0.277181
0.277181
0.282069
0.282069
0.282069
0.149815
0.149815
0.149815
0.144323
0.144323
0.144323
0.148982
0.148982
0.148982
0.14717
0.14717
0.14717
0.153023
0.153023
0.153023
0.151916
0.151916
0.151916
0.176248
0.176248
0.176248
0.175437
0.175437
0.175437
0.174159
0.174159
0.174159
0.188314
0.188314
0.188314
0.191141
0.191141
0.191141
0.205543
0.205543
0.205543
0.204013
0.204013
0.204013
0.260327
0.260327
0.260327
0.261917
0.261917
0.261917
0.266555
0.266555
0.266555
0.269622
0.269622
0.269622
0.255754
0.255754
0.255754
0.246766
0.246766
0.246766
0.252794
0.252794
0.252794
0.248311
0.248311
0.248311
0.249614
0.249614
0.249614
0.254118
0.254118
0.254118
0.201471
0.201471
0.201471
0.212675
0.212675
0.212675
0.211211
0.211211
0.211211
0.210171
0.210171
0.210171
0.2116
0.2116
0.2116
0.209097
0.209097
0.209097
0.205204
0.205204
0.205204
0.202711
0.202711
0.202711
0.198917
0.198917
0.198917
0.196558
0.196558
0.196558
0.163929
0.163929
0.163929
0.199601
0.199601
0.199601
0.207281
0.207281
0.207281
0.188897
0.188897
0.188897
0.17191
0.17191
0.17191
0.17068
0.17068
0.17068
0.188905
0.188905
0.188905
0.19286
0.19286
0.19286
0.191505
0.191505
0.191505
0.178359
0.178359
0.178359
0.175256
0.175256
0.175256
0.177388
0.177388
0.177388
0.186626
0.186626
0.186626
0.183087
0.183087
0.183087
0.187887
0.187887
0.187887
0.185643
0.185643
0.185643
0.180829
0.180829
0.180829
0.182122
0.182122
0.182122
0.320235
0.320235
0.320235
0.30207
0.30207
0.30207
0.297113
0.297113
0.297113
0.321381
0.321381
0.321381
0.312029
0.312029
0.312029
0.317021
0.317021
0.317021
0.306585
0.306585
0.306585
0.272946
0.272946
0.272946
0.335546
0.335546
0.335546
0.33155
0.33155
0.33155
0.336766
0.336766
0.336766
0.338777
0.338777
0.338777
0.34725
0.34725
0.34725
0.344014
0.344014
0.344014
0.346014
0.346014
0.346014
0.31615
0.31615
0.31615
0.321186
0.321186
0.321186
0.32953
0.32953
0.32953
0.324341
0.324341
0.324341
0.331713
0.331713
0.331713
0.3265
0.3265
0.3265
0.344218
0.344218
0.344218
0.349505
0.349505
0.349505
0.352633
0.352633
0.352633
0.205186
0.205186
0.205186
0.20986
0.20986
0.20986
0.223231
0.223231
0.223231
0.226802
0.226802
0.226802
0.222626
0.222626
0.222626
0.220866
0.220866
0.220866
0.214459
0.214459
0.214459
0.216777
0.216777
0.216777
0.227417
0.227417
0.227417
0.229226
0.229226
0.229226
0.253796
0.253796
0.253796
0.219878
0.219878
0.219878
0.218205
0.218205
0.218205
0.207715
0.207715
0.207715
0.215657
0.215657
0.215657
0.11972
0.11972
0.11972
0.119882
0.119882
0.119882
0.120972
0.120972
0.120972
0.123346
0.123346
0.123346
0.115884
0.115884
0.115884
0.180468
0.180468
0.180468
0.187524
0.187524
0.187524
0.182599
0.182599
0.182599
0.186133
0.186133
0.186133
0.186902
0.186902
0.186902
0.189073
0.189073
0.189073
0.124464
0.124464
0.124464
0.11914
0.11914
0.11914
0.1158
0.1158
0.1158
0.16142
0.16142
0.16142
0.159987
0.159987
0.159987
0.130301
0.130301
0.130301
0.122955
0.122955
0.122955
0.125346
0.125346
0.125346
0.127798
0.127798
0.127798
0.338655
0.338655
0.338655
0.356787
0.356787
0.356787
0.262848
0.262848
0.262848
0.267569
0.267569
0.267569
0.240047
0.240047
0.240047
0.140374
0.140374
0.140374
0.262661
0.262661
0.262661
0.267379
0.267379
0.267379
0.227048
0.227048
0.227048
0.229103
0.229103
0.229103
0.222965
0.222965
0.222965
0.227143
0.227143
0.227143
0.227213
0.227213
0.227213
0.229296
0.229296
0.229296
0.218935
0.218935
0.218935
0.223034
0.223034
0.223034
0.220939
0.220939
0.220939
0.216854
0.216854
0.216854
0.214862
0.214862
0.214862
0.195851
0.195851
0.195851
0.193518
0.193518
0.193518
0.15384
0.15384
0.15384
0.179673
0.179673
0.179673
0.181813
0.181813
0.181813
0.185333
0.185333
0.185333
0.173339
0.173339
0.173339
0.174595
0.174595
0.174595
0.162757
0.162757
0.162757
0.143275
0.143275
0.143275
0.158941
0.158941
0.158941
0.191945
0.191945
0.191945
0.199388
0.199388
0.199388
0.197096
0.197096
0.197096
0.193382
0.193382
0.193382
0.194177
0.194177
0.194177
0.197905
0.197905
0.197905
0.209453
0.209453
0.209453
0.211846
0.211846
0.211846
0.206345
0.206345
0.206345
0.210269
0.210269
0.210269
0.223225
0.223225
0.223225
0.224898
0.224898
0.224898
0.214159
0.214159
0.214159
0.215592
0.215592
0.215592
0.248014
0.248014
0.248014
0.244769
0.244769
0.244769
0.243581
0.243581
0.243581
0.241976
0.241976
0.241976
0.327123
0.327123
0.327123
0.330341
0.330341
0.330341
0.328355
0.328355
0.328355
0.323179
0.323179
0.323179
0.29969
0.29969
0.29969
0.311031
0.311031
0.311031
0.316106
0.316106
0.316106
0.287988
0.287988
0.287988
0.294182
0.294182
0.294182
0.284902
0.284902
0.284902
0.186701
0.186701
0.186701
0.202927
0.202927
0.202927
0.200554
0.200554
0.200554
0.201983
0.201983
0.201983
0.205831
0.205831
0.205831
0.217736
0.217736
0.217736
0.213708
0.213708
0.213708
0.197595
0.197595
0.197595
0.19488
0.19488
0.19488
0.193879
0.193879
0.193879
0.192533
0.192533
0.192533
0.20413
0.20413
0.20413
0.19998
0.19998
0.19998
0.181804
0.181804
0.181804
0.17799
0.17799
0.17799
0.179263
0.179263
0.179263
0.168317
0.168317
0.168317
0.172487
0.172487
0.172487
0.167137
0.167137
0.167137
0.169187
0.169187
0.169187
0.161919
0.161919
0.161919
0.158804
0.158804
0.158804
0.156864
0.156864
0.156864
0.330066
0.330066
0.330066
0.326355
0.326355
0.326355
0.326854
0.326854
0.326854
0.325261
0.325261
0.325261
0.332214
0.332214
0.332214
0.318529
0.318529
0.318529
0.303517
0.303517
0.303517
0.313487
0.313487
0.313487
0.310203
0.310203
0.310203
0.305236
0.305236
0.305236
0.300983
0.300983
0.300983
0.292891
0.292891
0.292891
0.296013
0.296013
0.296013
0.294688
0.294688
0.294688
0.274342
0.274342
0.274342
0.275974
0.275974
0.275974
0.295334
0.295334
0.295334
0.29857
0.29857
0.29857
0.333799
0.333799
0.333799
0.332702
0.332702
0.332702
0.330648
0.330648
0.330648
0.348432
0.348432
0.348432
0.345219
0.345219
0.345219
0.339973
0.339973
0.339973
0.33793
0.33793
0.33793
0.338628
0.338628
0.338628
0.331529
0.331529
0.331529
0.333402
0.333402
0.333402
0.341978
0.341978
0.341978
0.337523
0.337523
0.337523
0.342754
0.342754
0.342754
0.316044
0.316044
0.316044
0.314044
0.314044
0.314044
0.2801
0.2801
0.2801
0.2772
0.2772
0.2772
0.289752
0.289752
0.289752
0.308941
0.308941
0.308941
0.305854
0.305854
0.305854
0.311019
0.311019
0.311019
0.292776
0.292776
0.292776
0.297753
0.297753
0.297753
0.30081
0.30081
0.30081
0.29884
0.29884
0.29884
0.322313
0.322313
0.322313
0.318216
0.318216
0.318216
0.323385
0.323385
0.323385
0.325447
0.325447
0.325447
0.315123
0.315123
0.315123
0.317157
0.317157
0.317157
0.334843
0.334843
0.334843
0.340093
0.340093
0.340093
0.343234
0.343234
0.343234
0.341096
0.341096
0.341096
0.324406
0.324406
0.324406
0.319224
0.319224
0.319224
0.317126
0.317126
0.317126
0.27385
0.27385
0.27385
0.269071
0.269071
0.269071
0.198124
0.198124
0.198124
0.213656
0.213656
0.213656
0.196366
0.196366
0.196366
0.198347
0.198347
0.198347
0.21554
0.21554
0.21554
0.207348
0.207348
0.207348
0.205607
0.205607
0.205607
0.225798
0.225798
0.225798
0.223488
0.223488
0.223488
0.218902
0.218902
0.218902
0.230022
0.230022
0.230022
0.232378
0.232378
0.232378
0.236697
0.236697
0.236697
0.238654
0.238654
0.238654
0.207579
0.207579
0.207579
0.213841
0.213841
0.213841
0.21617
0.21617
0.21617
0.220249
0.220249
0.220249
0.221989
0.221989
0.221989
0.245518
0.245518
0.245518
0.243061
0.243061
0.243061
0.22983
0.22983
0.22983
0.233499
0.233499
0.233499
0.225344
0.225344
0.225344
0.223023
0.223023
0.223023
0.244017
0.244017
0.244017
0.241524
0.241524
0.241524
0.224759
0.224759
0.224759
0.220615
0.220615
0.220615
0.219718
0.219718
0.219718
0.255386
0.255386
0.255386
0.12003
0.12003
0.12003
0.121129
0.121129
0.121129
0.121271
0.121271
0.121271
0.130866
0.130866
0.130866
0.125613
0.125613
0.125613
0.128324
0.128324
0.128324
0.116732
0.116732
0.116732
0.113122
0.113122
0.113122
0.11454
0.11454
0.11454
0.181232
0.181232
0.181232
0.183354
0.183354
0.183354
0.181965
0.181965
0.181965
0.1785
0.1785
0.1785
0.187638
0.187638
0.187638
0.184078
0.184078
0.184078
0.1208
0.1208
0.1208
0.123171
0.123171
0.123171
0.119542
0.119542
0.119542
0.120613
0.120613
0.120613
0.122773
0.122773
0.122773
0.123862
0.123862
0.123862
0.126295
0.126295
0.126295
0.126058
0.126058
0.126058
0.127412
0.127412
0.127412
0.131306
0.131306
0.131306
0.129915
0.129915
0.129915
0.118422
0.118422
0.118422
0.11713
0.11713
0.11713
0.164572
0.164572
0.164572
0.171051
0.171051
0.171051
0.122226
0.122226
0.122226
0.124633
0.124633
0.124633
0.12708
0.12708
0.12708
0.123506
0.123506
0.123506
0.303562
0.303562
0.303562
0.31327
0.31327
0.31327
0.329861
0.329861
0.329861
0.33008
0.33008
0.33008
0.327329
0.327329
0.327329
0.314336
0.314336
0.314336
0.322063
0.322063
0.322063
0.31955
0.31955
0.31955
0.327095
0.327095
0.327095
0.335919
0.335919
0.335919
0.322955
0.322955
0.322955
0.317731
0.317731
0.317731
0.354464
0.354464
0.354464
0.341459
0.341459
0.341459
0.346786
0.346786
0.346786
0.34912
0.34912
0.34912
0.330863
0.330863
0.330863
0.342673
0.342673
0.342673
0.348016
0.348016
0.348016
0.26038
0.26038
0.26038
0.262768
0.262768
0.262768
0.260475
0.260475
0.260475
0.274722
0.274722
0.274722
0.269917
0.269917
0.269917
0.277097
0.277097
0.277097
0.274623
0.274623
0.274623
0.267488
0.267488
0.267488
0.269819
0.269819
0.269819
0.242206
0.242206
0.242206
0.246545
0.246545
0.246545
0.244567
0.244567
0.244567
0.240121
0.240121
0.240121
0.242295
0.242295
0.242295
0.140873
0.140873
0.140873
0.162678
0.162678
0.162678
0.156503
0.156503
0.156503
0.171533
0.171533
0.171533
0.174867
0.174867
0.174867
0.17434
0.17434
0.17434
0.184666
0.184666
0.184666
0.188213
0.188213
0.188213
0.164543
0.164543
0.164543
0.161326
0.161326
0.161326
0.158233
0.158233
0.158233
0.16138
0.16138
0.16138
0.162925
0.162925
0.162925
0.161164
0.161164
0.161164
0.158076
0.158076
0.158076
0.153669
0.153669
0.153669
0.156676
0.156676
0.156676
0.158163
0.158163
0.158163
0.156599
0.156599
0.156599
0.143127
0.143127
0.143127
0.276984
0.276984
0.276984
0.281868
0.281868
0.281868
0.235586
0.235586
0.235586
0.233371
0.233371
0.233371
0.239948
0.239948
0.239948
0.242093
0.242093
0.242093
0.226928
0.226928
0.226928
0.195536
0.195536
0.195536
0.193644
0.193644
0.193644
0.191836
0.191836
0.191836
0.191775
0.191775
0.191775
0.19357
0.19357
0.19357
0.214795
0.214795
0.214795
0.210804
0.210804
0.210804
0.197067
0.197067
0.197067
0.222871
0.222871
0.222871
0.214704
0.214704
0.214704
0.220857
0.220857
0.220857
0.216773
0.216773
0.216773
0.154678
0.154678
0.154678
0.157715
0.157715
0.157715
0.170829
0.170829
0.170829
0.157684
0.157684
0.157684
0.159627
0.159627
0.159627
0.167978
0.167978
0.167978
0.164755
0.164755
0.164755
0.170023
0.170023
0.170023
0.16879
0.16879
0.16879
0.169574
0.169574
0.169574
0.166323
0.166323
0.166323
0.147956
0.147956
0.147956
0.145095
0.145095
0.145095
0.211006
0.211006
0.211006
0.208602
0.208602
0.208602
0.21013
0.21013
0.21013
0.214108
0.214108
0.214108
0.216574
0.216574
0.216574
0.215
0.215
0.215
0.212652
0.212652
0.212652
0.216673
0.216673
0.216673
0.217456
0.217456
0.217456
0.219106
0.219106
0.219106
0.204791
0.204791
0.204791
0.199424
0.199424
0.199424
0.200953
0.200953
0.200953
0.22401
0.22401
0.22401
0.225707
0.225707
0.225707
0.226481
0.226481
0.226481
0.249097
0.249097
0.249097
0.253619
0.253619
0.253619
0.225969
0.225969
0.225969
0.217062
0.217062
0.217062
0.216685
0.216685
0.216685
0.218173
0.218173
0.218173
0.219249
0.219249
0.219249
0.223357
0.223357
0.223357
0.236429
0.236429
0.236429
0.242353
0.242353
0.242353
0.240768
0.240768
0.240768
0.257041
0.257041
0.257041
0.26794
0.26794
0.26794
0.263283
0.263283
0.263283
0.261634
0.261634
0.261634
0.264589
0.264589
0.264589
0.280071
0.280071
0.280071
0.320682
0.320682
0.320682
0.324479
0.324479
0.324479
0.319346
0.319346
0.319346
0.317463
0.317463
0.317463
0.318762
0.318762
0.318762
0.320002
0.320002
0.320002
0.32196
0.32196
0.32196
0.31365
0.31365
0.31365
0.317953
0.317953
0.317953
0.324906
0.324906
0.324906
0.323069
0.323069
0.323069
0.314696
0.314696
0.314696
0.304142
0.304142
0.304142
0.309177
0.309177
0.309177
0.312368
0.312368
0.312368
0.310477
0.310477
0.310477
0.277398
0.277398
0.277398
0.282193
0.282193
0.282193
0.286672
0.286672
0.286672
0.291554
0.291554
0.291554
0.285314
0.285314
0.285314
0.283571
0.283571
0.283571
0.190304
0.190304
0.190304
0.197689
0.197689
0.197689
0.196254
0.196254
0.196254
0.192554
0.192554
0.192554
0.196787
0.196787
0.196787
0.189433
0.189433
0.189433
0.195377
0.195377
0.195377
0.191692
0.191692
0.191692
0.194465
0.194465
0.194465
0.190796
0.190796
0.190796
0.180995
0.180995
0.180995
0.184501
0.184501
0.184501
0.185845
0.185845
0.185845
0.178847
0.178847
0.178847
0.180145
0.180145
0.180145
0.183636
0.183636
0.183636
0.212214
0.212214
0.212214
0.209217
0.209217
0.209217
0.21318
0.21318
0.21318
0.214702
0.214702
0.214702
0.206792
0.206792
0.206792
0.208268
0.208268
0.208268
0.206259
0.206259
0.206259
0.204833
0.204833
0.204833
0.203795
0.203795
0.203795
0.199981
0.199981
0.199981
0.201002
0.201002
0.201002
0.198614
0.198614
0.198614
0.210479
0.210479
0.210479
0.208005
0.208005
0.208005
0.211586
0.211586
0.211586
0.215931
0.215931
0.215931
0.214451
0.214451
0.214451
0.188529
0.188529
0.188529
0.184957
0.184957
0.184957
0.187592
0.187592
0.187592
0.189865
0.189865
0.189865
0.184037
0.184037
0.184037
0.182738
0.182738
0.182738
0.172823
0.172823
0.172823
0.171602
0.171602
0.171602
0.176187
0.176187
0.176187
0.178345
0.178345
0.178345
0.177102
0.177102
0.177102
0.173723
0.173723
0.173723
0.156031
0.156031
0.156031
0.157947
0.157947
0.157947
0.168336
0.168336
0.168336
0.158826
0.158826
0.158826
0.335911
0.335911
0.335911
0.321603
0.321603
0.321603
0.316507
0.316507
0.316507
0.306727
0.306727
0.306727
0.31173
0.31173
0.31173
0.308204
0.308204
0.308204
0.304981
0.304981
0.304981
0.313235
0.313235
0.313235
0.315015
0.315015
0.315015
0.30281
0.30281
0.30281
0.306423
0.306423
0.306423
0.301431
0.301431
0.301431
0.299637
0.299637
0.299637
0.309642
0.309642
0.309642
0.307824
0.307824
0.307824
0.296812
0.296812
0.296812
0.291905
0.291905
0.291905
0.300012
0.300012
0.300012
0.298245
0.298245
0.298245
0.290177
0.290177
0.290177
0.293317
0.293317
0.293317
0.280752
0.280752
0.280752
0.290437
0.290437
0.290437
0.283916
0.283916
0.283916
0.288765
0.288765
0.288765
0.34637
0.34637
0.34637
0.347467
0.347467
0.347467
0.34956
0.34956
0.34956
0.3422
0.3422
0.3422
0.339038
0.339038
0.339038
0.341114
0.341114
0.341114
0.344723
0.344723
0.344723
0.334268
0.334268
0.334268
0.329073
0.329073
0.329073
0.327744
0.327744
0.327744
0.325831
0.325831
0.325831
0.340061
0.340061
0.340061
0.33621
0.33621
0.33621
0.343377
0.343377
0.343377
0.341436
0.341436
0.341436
0.334837
0.334837
0.334837
0.332929
0.332929
0.332929
0.307823
0.307823
0.307823
0.306651
0.306651
0.306651
0.304717
0.304717
0.304717
0.311722
0.311722
0.311722
0.312911
0.312911
0.312911
0.314875
0.314875
0.314875
0.279123
0.279123
0.279123
0.29084
0.29084
0.29084
0.293847
0.293847
0.293847
0.285918
0.285918
0.285918
0.283986
0.283986
0.283986
0.267511
0.267511
0.267511
0.262828
0.262828
0.262828
0.259982
0.259982
0.259982
0.289259
0.289259
0.289259
0.286188
0.286188
0.286188
0.291654
0.291654
0.291654
0.296615
0.296615
0.296615
0.294705
0.294705
0.294705
0.296765
0.296765
0.296765
0.300862
0.300862
0.300862
0.310006
0.310006
0.310006
0.307969
0.307969
0.307969
0.306938
0.306938
0.306938
0.302897
0.302897
0.302897
0.301879
0.301879
0.301879
0.299876
0.299876
0.299876
0.302691
0.302691
0.302691
0.298478
0.298478
0.298478
0.297644
0.297644
0.297644
0.295555
0.295555
0.295555
0.312898
0.312898
0.312898
0.304786
0.304786
0.304786
0.3018
0.3018
0.3018
0.303866
0.303866
0.303866
0.308951
0.308951
0.308951
0.311983
0.311983
0.311983
0.309884
0.309884
0.309884
0.342049
0.342049
0.342049
0.347668
0.347668
0.347668
0.352995
0.352995
0.352995
0.355264
0.355264
0.355264
0.201665
0.201665
0.201665
0.20968
0.20968
0.20968
0.207591
0.207591
0.207591
0.20371
0.20371
0.20371
0.201914
0.201914
0.201914
0.214103
0.214103
0.214103
0.222254
0.222254
0.222254
0.220291
0.220291
0.220291
0.216214
0.216214
0.216214
0.20214
0.20214
0.20214
0.209913
0.209913
0.209913
0.203949
0.203949
0.203949
0.207834
0.207834
0.207834
0.192873
0.192873
0.192873
0.196575
0.196575
0.196575
0.196762
0.196762
0.196762
0.198546
0.198546
0.198546
0.210121
0.210121
0.210121
0.208053
0.208053
0.208053
0.204165
0.204165
0.204165
0.202343
0.202343
0.202343
0.201755
0.201755
0.201755
0.220913
0.220913
0.220913
0.214964
0.214964
0.214964
0.219024
0.219024
0.219024
0.225064
0.225064
0.225064
0.226988
0.226988
0.226988
0.223924
0.223924
0.223924
0.232798
0.232798
0.232798
0.230453
0.230453
0.230453
0.230856
0.230856
0.230856
0.226223
0.226223
0.226223
0.21936
0.21936
0.21936
0.217095
0.217095
0.217095
0.21129
0.21129
0.21129
0.213064
0.213064
0.213064
0.208785
0.208785
0.208785
0.218415
0.218415
0.218415
0.216626
0.216626
0.216626
0.216129
0.216129
0.216129
0.236242
0.236242
0.236242
0.23145
0.23145
0.23145
0.231929
0.231929
0.231929
0.229562
0.229562
0.229562
0.245956
0.245956
0.245956
0.243511
0.243511
0.243511
0.237123
0.237123
0.237123
0.239098
0.239098
0.239098
0.209221
0.209221
0.209221
0.212511
0.212511
0.212511
0.208551
0.208551
0.208551
0.20693
0.20693
0.20693
0.296363
0.296363
0.296363
0.291362
0.291362
0.291362
0.289257
0.289257
0.289257
0.276635
0.276635
0.276635
0.281496
0.281496
0.281496
0.284319
0.284319
0.284319
0.267068
0.267068
0.267068
0.263057
0.263057
0.263057
0.256416
0.256416
0.256416
0.261051
0.261051
0.261051
0.310509
0.310509
0.310509
0.249543
0.249543
0.249543
0.245049
0.245049
0.245049
0.234691
0.234691
0.234691
0.235239
0.235239
0.235239
0.237139
0.237139
0.237139
0.242224
0.242224
0.242224
0.249251
0.249251