<VTKFile type="UnstructuredGrid" version="1.0">
<UnstructuredGrid>
<Piece NumberOfPoints="8859" NumberOfCells="2953">
<Points>
<DataArray type="Float64" NumberOfComponents="3" format="ascii">
2.75455 1.50245 17.6326
2.76986 1.48714 17.6446
2.75465 1.50235 17.6583
2.78515 1.47185 17.5817
2.78516 1.47184 17.5565
2.8005 1.4565 17.569
2.76981 1.48719 17.5944
2.78515 1.47185 17.5817
2.78514 1.47186 17.6069
2.72412 1.53288 17.6849
2.73952 1.51748 17.6925
2.70875 1.54825 17.6925
2.72412 1.53288 17.6849
2.73943 1.51757 17.6696
2.73952 1.51748 17.6925
2.75488 1.50212 17.6848
2.77036 1.48664 17.6925
2.73952 1.51748 17.6925
2.75488 1.50212 17.6848
2.73943 1.51757 17.6696
2.75465 1.50235 17.6583
2.73952 1.51748 17.6925
2.73943 1.51757 17.6696
2.75488 1.50212 17.6848
2.75465 1.50235 17.6583
2.76986 1.48714 17.6446
2.76997 1.48703 17.6693
2.76997 1.48703 17.6693
2.75488 1.50212 17.6848
2.75465 1.50235 17.6583
2.77036 1.48664 17.6925
2.75488 1.50212 17.6848
2.76997 1.48703 17.6693
2.76986 1.48714 17.6446
2.75455 1.50245 17.6326
2.76982 1.48718 17.6195
2.76981 1.48719 17.5944
2.78514 1.47186 17.6069
2.76982 1.48718 17.6195
2.7852 1.4718 17.6576
2.76997 1.48703 17.6693
2.76986 1.48714 17.6446
2.8005 1.4565 17.6439
2.8005 1.4565 17.6686
2.7852 1.4718 17.6576
2.8005 1.4565 17.5439
2.8005 1.4565 17.569
2.78516 1.47184 17.5565
2.78515 1.47185 17.5817
2.8005 1.4565 17.569
2.8005 1.4565 17.5941
2.8005 1.4565 17.5941
2.78514 1.47186 17.6069
2.78515 1.47185 17.5817
2.8005 1.4565 17.0165
2.8005 1.4565 17.0417
2.78518 1.47182 17.0291
2.78517 1.47183 17.4811
2.8005 1.4565 17.4936
2.78517 1.47183 17.5062
2.8005 1.4565 17.4685
2.8005 1.4565 17.4936
2.78517 1.47183 17.4811
2.78519 1.47181 17.3554
2.8005 1.4565 17.368
2.78519 1.47181 17.3806
2.32274 1.93426 16.8006
2.33845 1.91855 16.7925
2.33845 1.91855 16.8156
2.27541 1.98159 17.6925
2.24359 2.01341 17.6925
2.25954 1.99746 17.6843
2.78515 1.47185 17.6321
2.76982 1.48718 17.6195
2.78514 1.47186 17.6069
2.76986 1.48714 17.6446
2.76982 1.48718 17.6195
2.78515 1.47185 17.6321
2.78515 1.47185 17.6321
2.7852 1.4718 17.6576
2.76986 1.48714 17.6446
2.8005 1.4565 17.6439
2.7852 1.4718 17.6576
2.78515 1.47185 17.6321
2.78544 1.47156 17.6838
2.8005 1.4565 17.6686
2.8005 1.4565 17.6925
2.78544 1.47156 17.6838
2.7852 1.4718 17.6576
2.8005 1.4565 17.6686
2.8005 1.4565 17.6925
2.77036 1.48664 17.6925
2.78544 1.47156 17.6838
2.77036 1.48664 17.6925
2.76997 1.48703 17.6693
2.78544 1.47156 17.6838
2.76997 1.48703 17.6693
2.7852 1.4718 17.6576
2.78544 1.47156 17.6838
2.78517 1.47183 17.5062
2.8005 1.4565 17.4936
2.8005 1.4565 17.5187
2.78514 1.47186 17.6069
2.8005 1.4565 17.5941
2.8005 1.4565 17.6191
2.8005 1.4565 17.6439
2.78515 1.47185 17.6321
2.8005 1.4565 17.6191
2.8005 1.4565 17.6191
2.78515 1.47185 17.6321
2.78514 1.47186 17.6069
2.8005 1.4565 17.3429
2.8005 1.4565 17.368
2.78519 1.47181 17.3554
2.78518 1.47182 17.0291
2.8005 1.4565 17.0417
2.78518 1.47182 17.0542
2.76985 1.48715 17.4685
2.75454 1.50246 17.456
2.76986 1.48714 17.4434
2.78516 1.47184 17.5314
2.8005 1.4565 17.5439
2.78516 1.47184 17.5565
2.78516 1.47184 17.5314
2.8005 1.4565 17.5187
2.8005 1.4565 17.5439
2.78516 1.47184 17.5314
2.76984 1.48716 17.5188
2.78517 1.47183 17.5062
2.78517 1.47183 17.5062
2.8005 1.4565 17.5187
2.78516 1.47184 17.5314
2.76982 1.48718 17.5692
2.78515 1.47185 17.5817
2.76981 1.48719 17.5944
2.76982 1.48718 17.5692
2.78516 1.47184 17.5565
2.78515 1.47185 17.5817
2.75451 1.50249 17.5315
2.7392 1.5178 17.5441
2.73921 1.51779 17.5189
2.53996 1.71704 17.6584
2.52458 1.73242 17.6449
2.53996 1.71704 17.6327
2.49374 1.76326 17.4938
2.49375 1.76325 17.519
2.47832 1.77868 17.5064
2.8005 1.4565 16.7925
2.8005 1.4565 16.8164
2.78544 1.47156 16.8012
2.27543 1.98157 17.6693
2.27541 1.98159 17.6925
2.25954 1.99746 17.6843
2.33845 1.91855 17.5945
2.32276 1.93424 17.6071
2.32275 1.93425 17.5819
2.25954 1.99746 17.6843
2.24359 2.01341 17.6925
2.24374 2.01326 17.6692
2.76987 1.48713 17.117
2.75455 1.50245 17.1044
2.76987 1.48713 17.0919
2.8005 1.4565 17.2676
2.78519 1.47181 17.255
2.8005 1.4565 17.2425
2.78519 1.47181 17.3052
2.8005 1.4565 17.2927
2.8005 1.4565 17.3178
2.76988 1.48712 17.2174
2.75456 1.50244 17.23
2.75456 1.50244 17.2049
2.76988 1.48712 17.2425
2.75456 1.50244 17.23
2.76988 1.48712 17.2174
2.78519 1.47181 17.255
2.76988 1.48712 17.2676
2.76988 1.48712 17.2425
2.75455 1.50245 17.3806
2.76987 1.48713 17.3931
2.75455 1.50245 17.4057
2.72393 1.53307 17.3555
2.72392 1.53308 17.3806
2.70861 1.54839 17.368
2.75456 1.50244 17.3555
2.73924 1.51776 17.3429
2.75456 1.50244 17.3303
2.75456 1.50244 17.3303
2.76987 1.48713 17.3429
2.75456 1.50244 17.3555
2.73924 1.51776 17.3429
2.73925 1.51775 17.3178
2.75456 1.50244 17.3303
2.75456 1.50244 17.3303
2.73925 1.51775 17.3178
2.75456 1.50244 17.3052
2.8005 1.4565 17.3178
2.8005 1.4565 17.3429
2.78519 1.47181 17.3303
2.78519 1.47181 17.3303
2.78519 1.47181 17.3052
2.8005 1.4565 17.3178
2.78519 1.47181 17.3303
2.8005 1.4565 17.3429
2.78519 1.47181 17.3554
2.78519 1.47181 17.3554
2.76987 1.48713 17.3429
2.78519 1.47181 17.3303
2.75454 1.50246 17.4308
2.73923 1.51777 17.4183
2.75455 1.50245 17.4057
2.75454 1.50246 17.4308
2.76986 1.48714 17.4434
2.75454 1.50246 17.456
2.7086 1.5484 17.4183
2.72392 1.53308 17.4057
2.72392 1.53308 17.4309
2.72392 1.53308 17.4309
2.72392 1.53308 17.4057
2.73923 1.51777 17.4183
2.8005 1.4565 17.3931
2.78519 1.47181 17.3806
2.8005 1.4565 17.368
2.75455 1.50245 17.4057
2.76987 1.48713 17.3931
2.76986 1.48714 17.4182
2.76986 1.48714 17.4182
2.75454 1.50246 17.4308
2.75455 1.50245 17.4057
2.76986 1.48714 17.4434
2.75454 1.50246 17.4308
2.76986 1.48714 17.4182
2.78517 1.47183 17.5062
2.76984 1.48716 17.5188
2.76985 1.48715 17.4937
2.76985 1.48715 17.4937
2.78517 1.47183 17.4811
2.78517 1.47183 17.5062
2.76985 1.48715 17.4685
2.78517 1.47183 17.4811
2.76985 1.48715 17.4937
2.73921 1.51779 17.5189
2.73921 1.51779 17.4938
2.75452 1.50248 17.5063
2.75452 1.50248 17.5063
2.75451 1.50249 17.5315
2.73921 1.51779 17.5189
2.76984 1.48716 17.5188
2.75451 1.50249 17.5315
2.75452 1.50248 17.5063
2.75452 1.50248 17.5063
2.76985 1.48715 17.4937
2.76984 1.48716 17.5188
2.7239 1.5331 17.5064
2.73921 1.51779 17.4938
2.73921 1.51779 17.5189
2.7239 1.5331 17.5064
2.70859 1.54841 17.519
2.70859 1.54841 17.4938
2.76981 1.48719 17.5944
2.76982 1.48718 17.6195
2.75451 1.50249 17.6072
2.75451 1.50249 17.6072
2.76982 1.48718 17.6195
2.75455 1.50245 17.6326
2.7392 1.5178 17.5441
2.75451 1.50249 17.5315
2.75451 1.50249 17.5567
2.75451 1.50249 17.5567
2.7392 1.5178 17.5694
2.7392 1.5178 17.5441
2.67798 1.57902 17.3932
2.66266 1.59434 17.4057
2.66266 1.59434 17.3806
2.70859 1.54841 17.4938
2.70859 1.54841 17.4686
2.7239 1.5331 17.4812
2.7239 1.5331 17.4812
2.7239 1.5331 17.5064
2.70859 1.54841 17.4938
2.73921 1.51779 17.4938
2.7239 1.5331 17.5064
2.7239 1.5331 17.4812
2.73922 1.51778 17.4686
2.73921 1.51779 17.4938
2.7239 1.5331 17.4812
2.57068 1.68632 17.6328
2.57068 1.68632 17.6584
2.55533 1.70167 17.6449
2.55533 1.70167 17.6449
2.57068 1.68632 17.6584
2.55533 1.70167 17.6695
2.55533 1.70167 17.6449
2.55533 1.70167 17.6695
2.53996 1.71704 17.6584
2.53996 1.71704 17.6584
2.53996 1.71704 17.6327
2.55533 1.70167 17.6449
2.52458 1.73242 17.6198
2.53996 1.71704 17.6327
2.52458 1.73242 17.6449
2.50912 1.74788 17.255
2.50912 1.74788 17.2801
2.49371 1.76329 17.2676
2.41633 1.84067 17.3806
2.40077 1.85623 17.368
2.41632 1.84068 17.3554
2.41635 1.84065 17.4308
2.40081 1.85619 17.4434
2.40079 1.85621 17.4182
2.33845 1.91855 17.5945
2.32275 1.93425 17.5819
2.33843 1.91857 17.5692
2.33845 1.91855 17.6197
2.32276 1.93424 17.6071
2.33845 1.91855 17.5945
2.40087 1.85613 17.5441
2.40088 1.85612 17.5693
2.38531 1.87169 17.5567
2.30693 1.95007 17.4936
2.32265 1.93435 17.481
2.32267 1.93433 17.5062
2.30684 1.95016 17.393
2.29108 1.96592 17.4056
2.29106 1.96594 17.3805
2.32274 1.93426 17.6844
2.33845 1.91855 17.6925
2.30701 1.94999 17.6925
2.33845 1.91855 17.6694
2.33845 1.91855 17.6925
2.32274 1.93426 17.6844
2.35411 1.90289 17.6845
2.33845 1.91855 17.6925
2.33845 1.91855 17.6694
2.30704 1.94996 17.6196
2.30703 1.94997 17.6447
2.29128 1.96572 17.6325
2.55533 1.70167 17.6925
2.52458 1.73242 17.6925
2.53996 1.71704 17.6847
2.53996 1.71704 17.6584
2.55533 1.70167 17.6695
2.53996 1.71704 17.6847
2.53996 1.71704 17.6847
2.55533 1.70167 17.6695
2.55533 1.70167 17.6925
2.52458 1.73242 17.6695
2.52458 1.73242 17.6449
2.53996 1.71704 17.6584
2.53996 1.71704 17.6584
2.53996 1.71704 17.6847
2.52458 1.73242 17.6695
2.52458 1.73242 17.6695
2.53996 1.71704 17.6847
2.52458 1.73242 17.6925
2.41642 1.84058 17.5568
2.40088 1.85612 17.5693
2.40087 1.85613 17.5441
2.47831 1.77869 17.4812
2.49374 1.76326 17.4686
2.49374 1.76326 17.4938
2.49374 1.76326 17.4938
2.47832 1.77868 17.5064
2.47831 1.77869 17.4812
2.47833 1.77867 17.5316
2.47832 1.77868 17.5064
2.49375 1.76325 17.519
2.47833 1.77867 17.5316
2.49375 1.76325 17.519
2.49376 1.76324 17.5442
2.49376 1.76324 17.5442
2.47834 1.77866 17.5568
2.47833 1.77867 17.5316
2.47833 1.77867 17.5316
2.47834 1.77866 17.5568
2.46289 1.79411 17.5442
2.49377 1.76323 17.5694
2.47834 1.77866 17.5568
2.49376 1.76324 17.5442
2.49377 1.76323 17.5946
2.47835 1.77865 17.6073
2.47834 1.77866 17.5821
2.47834 1.77866 17.5821
2.49377 1.76323 17.5694
2.49377 1.76323 17.5946
2.47834 1.77866 17.5568
2.49377 1.76323 17.5694
2.47834 1.77866 17.5821
2.7852 1.4718 16.8274
2.78544 1.47156 16.8012
2.8005 1.4565 16.8164
2.76997 1.48703 16.8157
2.78544 1.47156 16.8012
2.7852 1.4718 16.8274
2.64739 1.60961 16.8155
2.64738 1.60962 16.7925
2.66272 1.59428 16.8002
2.70875 1.54825 16.7925
2.6934 1.5636 16.8002
2.67805 1.57895 16.7925
2.67805 1.57895 16.7925
2.66272 1.59428 16.8002
2.64738 1.60962 16.7925
2.19638 2.06062 16.829
2.1963 2.0607 16.8029
2.2122 2.0448 16.8164
2.2122 2.0448 16.8164
2.22771 2.02929 16.801
2.22802 2.02898 16.8275
2.18073 2.07627 16.8178
2.1963 2.0607 16.8029
2.19638 2.06062 16.829
2.18073 2.07627 16.8178
2.18123 2.07577 16.7925
2.1963 2.0607 16.8029
2.27543 1.98157 16.8157
[...]
<PointData Scalars="View Factor" >
<DataArray type="Float64" Name="View Factor" NumberOfComponents="1" format="ascii">
0.000620629
0.000620629
0.000620629
0.000668733
0.000668733
0.000668733
0.000652373
0.000652373
0.000652373
0.000579634
0.000579634
0.000579634
0.000589862
0.000589862
0.000589862
0.000604158
0.000604158
0.000604158
0.000605224
0.000605224
0.000605224
0.000598064
0.000598064
0.000598064
0.00062129
0.00062129
0.00062129
0.000613438
0.000613438
0.000613438
0.000614418
0.000614418
0.000614418
0.00062848
0.00062848
0.00062848
0.000644349
0.000644349
0.000644349
0.000629599
0.000629599
0.000629599
0.000646246
0.000646246
0.000646246
0.000677024
0.000677024
0.000677024
0.000669141
0.000669141
0.000669141
0.000660938
0.000660938
0.000660938
0.000872575
0.000872575
0.000872575
0.000692778
0.000692778
0.000692778
0.000701391
0.000701391
0.000701391
0.00073523
0.00073523
0.00073523
0.000522721
0.000522721
0.000522721
0.000346815
0.000346815
0.000346815
0.000644813
0.000644813
0.000644813
0.000636883
0.000636883
0.000636883
0.000637329
0.000637329
0.000637329
0.000645712
0.000645712
0.000645712
0.000638926
0.000638926
0.000638926
0.000638261
0.000638261
0.000638261
0.000628537
0.000628537
0.000628537
0.000622655
0.000622655
0.000622655
0.000630001
0.000630001
0.000630001
0.000693149
0.000693149
0.000693149
0.000661379
0.000661379
0.000661379
0.000653744
0.000653744
0.000653744
0.000653289
0.000653289
0.000653289
0.00074444
0.00074444
0.00074444
0.000861559
0.000861559
0.000861559
0.000682408
0.000682408
0.000682408
0.000676643
0.000676643
0.000676643
0.000685026
0.000685026
0.000685026
0.000675786
0.000675786
0.000675786
0.000684634
0.000684634
0.000684634
0.000651909
0.000651909
0.000651909
0.000660078
0.000660078
0.000660078
0.000641089
0.000641089
0.000641089
0.000438829
0.000438829
0.000438829
0.000428497
0.000428497
0.000428497
0.000977514
0.000977514
0.000977514
0.000347483
0.000347483
0.000347483
0.000359197
0.000359197
0.000359197
0.0003486
0.0003486
0.0003486
0.00080827
0.00080827
0.00080827
0.000781217
0.000781217
0.000781217
0.000762556
0.000762556
0.000762556
0.000759808
0.000759808
0.000759808
0.000760269
0.000760269
0.000760269
0.000761158
0.000761158
0.000761158
0.000698361
0.000698361
0.000698361
0.000668845
0.000668845
0.000668845
0.000705675
0.000705675
0.000705675
0.000715279
0.000715279
0.000715279
0.000705081
0.000705081
0.000705081
0.000714203
0.000714203
0.000714203
0.000753432
0.000753432
0.000753432
0.000753123
0.000753123
0.000753123
0.000744112
0.000744112
0.000744112
0.000734498
0.000734498
0.000734498
0.000680832
0.000680832
0.000680832
0.000681907
0.000681907
0.000681907
0.000653052
0.000653052
0.000653052
0.000662299
0.000662299
0.000662299
0.000735578
0.000735578
0.000735578
0.000698878
0.000698878
0.000698878
0.000690093
0.000690093
0.000690093
0.000690602
0.000690602
0.000690602
0.000675338
0.000675338
0.000675338
0.000683827
0.000683827
0.000683827
0.000683396
0.000683396
0.000683396
0.000648679
0.000648679
0.000648679
0.000649272
0.000649272
0.000649272
0.000658104
0.000658104
0.000658104
0.000666446
0.000666446
0.000666446
0.000639806
0.000639806
0.000639806
0.000622099
0.000622099
0.000622099
0.000635852
0.000635852
0.000635852
0.000627891
0.000627891
0.000627891
0.000641673
0.000641673
0.000641673
0.000633574
0.000633574
0.000633574
0.00061417
0.00061417
0.00061417
0.000629486
0.000629486
0.000629486
0.000630241
0.000630241
0.000630241
0.000639159
0.000639159
0.000639159
0.00064744
0.00064744
0.00064744
0.000463482
0.000463482
0.000463482
0.000456783
0.000456783
0.000456783
0.000448612
0.000448612
0.000448612
0.000447037
0.000447037
0.000447037
0.000437307
0.000437307
0.000437307
0.000494171
0.000494171
0.000494171
0.000397732
0.000397732
0.000397732
0.000386181
0.000386181
0.000386181
0.000361121
0.000361121
0.000361121
0.000357005
0.000357005
0.000357005
0.000364338
0.000364338
0.000364338
0.00037644
0.00037644
0.00037644
0.00039509
0.00039509
0.00039509
0.000344201
0.000344201
0.000344201
0.000345098
0.000345098
0.000345098
0.000344833
0.000344833
0.000344833
0.000353969
0.000353969
0.000353969
0.000434019
0.000434019
0.000434019
0.000441837
0.000441837
0.000441837
0.00044359
0.00044359
0.00044359
0.000432286
0.000432286
0.000432286
0.000433725
0.000433725
0.000433725
0.000427452
0.000427452
0.000427452
0.00036432
0.00036432
0.00036432
0.000433532
0.000433532
0.000433532
0.00042662
0.00042662
0.00042662
0.000421664
0.000421664
0.000421664
0.000423531
0.000423531
0.000423531
0.000416768
0.000416768
0.000416768
0.000408185
0.000408185
0.000408185
0.000418611
0.000418611
0.000418611
0.000407182
0.000407182
0.000407182
0.00041378
0.00041378
0.00041378
0.00041194
0.00041194
0.00041194
0.000965462
0.000965462
0.000965462
0.000953077
0.000953077
0.000953077
0.000801546
0.000801546
0.000801546
0.000855163
0.000855163
0.000855163
0.000817236
0.000817236
0.000817236
0.000527337
0.000527337
0.000527337
0.000525616
0.000525616
0.000525616
0.000528326
0.000528326
0.000528326
0.000532049
0.000532049
0.000532049
0.000524614
0.000524614
0.000524614
0.000524967
0.000524967
0.000524967
0.000526076
0.000526076
0.000526076
0.000488638
0.000488638
0.000488638
0.000485181
0.000485181
0.000485181
0.000345744
0.000345744
0.000345744
0.000352132
0.000352132
0.000352132
0.000349986
0.000349986
0.000349986
0.000398096
0.000398096
0.000398096
0.00039555
0.00039555
0.00039555
0.000368631
0.000368631
0.000368631
0.000872377
0.000872377
0.000872377
0.000800444
0.000800444
0.000800444
0.000788625
0.000788625
0.000788625
0.000778574
0.000778574
0.000778574
0.000798365
0.000798365
0.000798365
0.000788173
0.000788173
0.000788173
0.00077757
0.00077757
0.00077757
0.000777013
0.000777013
0.000777013
0.000787199
0.000787199
0.000787199
0.000797935
0.000797935
0.000797935
0.000676626
0.000676626
0.000676626
0.000666582
0.000666582
0.000666582
0.000666731
0.000666731
0.000666731
0.000786637
0.000786637
0.000786637
0.000861784
0.000861784
0.000861784
0.000612105
0.000612105
0.000612105
0.000593227
0.000593227
0.000593227
0.00064991
0.00064991
0.00064991
0.000616106
0.000616106
0.000616106
0.000653118
0.000653118
0.000653118
0.000652084
0.000652084
0.000652084
0.000642166
0.000642166
0.000642166
0.000633383
0.000633383
0.000633383
0.000749594
0.000749594
0.000749594
0.000790758
0.000790758
0.000790758
0.000780919
0.000780919
0.000780919
0.000770821
0.000770821
0.000770821
0.000770424
0.000770424
0.000770424
0.000780246
0.000780246
0.000780246
0.000790469
0.000790469
0.000790469
0.000581338
0.000581338
0.000581338
0.000589861
0.000589861
0.000589861
0.00064886
0.00064886
0.00064886
0.000649976
0.000649976
0.000649976
0.000641085
0.000641085
0.000641085
0.000631114
0.000631114
0.000631114
0.000597029
0.000597029
0.000597029
0.000595543
0.000595543
0.000595543
0.000578357
0.000578357
0.000578357
0.000588412
0.000588412
0.000588412
0.000638766
0.000638766
0.000638766
0.000629913
0.000629913
0.000629913
0.000716686
0.000716686
0.000716686
0.000707249
0.000707249
0.000707249
0.000706747
0.000706747
0.000706747
0.000725734
0.000725734
0.000725734
0.000725329
0.000725329
0.000725329
0.000715778
0.000715778
0.000715778
0.000678319
0.000678319
0.000678319
0.00069726
0.00069726
0.00069726
0.000696698
0.000696698
0.000696698
0.000687159
0.000687159
0.000687159
0.00066567
0.00066567
0.00066567
0.000684299
0.000684299
0.000684299
0.000674538
0.000674538
0.000674538
0.000743392
0.000743392
0.000743392
0.0007332
0.0007332
0.0007332
0.000742987
0.000742987
0.000742987
0.000723925
0.000723925
0.000723925
0.000724419
0.000724419
0.000724419
0.000734087
0.000734087
0.000734087
0.000680221
0.000680221
0.000680221
0.00067091
0.00067091
0.00067091
0.000670252
0.000670252
0.000670252
0.000688988
0.000688988
0.000688988
0.000678988
0.000678988
0.000678988
0.000688413
0.000688413
0.000688413
0.000660893
0.000660893
0.000660893
0.000660142
0.000660142
0.000660142
0.000650733
0.000650733
0.000650733
0.000652303
0.000652303
0.000652303
0.000672179
0.000672179
0.000672179
0.000662979
0.000662979
0.000662979
0.000672758
0.000672758
0.000672758
0.000664228
0.000664228
0.000664228
0.000644608
0.000644608
0.000644608
0.000717143
0.000717143
0.000717143
0.000726527
0.000726527
0.000726527
0.000726846
0.000726846
0.000726846
0.000708201
0.000708201
0.000708201
0.000709753
0.000709753
0.000709753
0.000691512
0.000691512
0.000691512
0.000701028
0.000701028
0.000701028
0.000691972
0.000691972
0.000691972
0.000718236
0.000718236
0.000718236
0.000717864
0.000717864
0.000717864
0.000708593
0.000708593
0.000708593
0.000699816
0.000699816
0.000699816
0.000700248
0.000700248
0.000700248
0.000709409
0.000709409
0.000709409
0.000656421
0.000656421
0.000656421
0.0006744
0.0006744
0.0006744
0.000657002
0.000657002
0.000657002
0.000665938
0.000665938
0.000665938
0.000664841
0.000664841
0.000664841
0.000673884
0.000673884
0.000673884
0.00063232
0.00063232
0.00063232
0.000631631
0.000631631
0.000631631
0.000622821
0.000622821
0.000622821
0.000643316
0.000643316
0.000643316
0.000626188
0.000626188
0.000626188
0.000642804
0.000642804
0.000642804
0.000634179
0.000634179
0.000634179
0.000635305
0.000635305
0.000635305
0.00062678
0.00062678
0.00062678
0.000604753
0.000604753
0.000604753
0.00061231
0.00061231
0.00061231
0.000588783
0.000588783
0.000588783
0.000596496
0.000596496
0.000596496
0.000595691
0.000595691
0.000595691
0.000618883
0.000618883
0.000618883
0.000603376
0.000603376
0.000603376
0.000619468
0.000619468
0.000619468
0.000611729
0.000611729
0.000611729
0.0006504
0.0006504
0.0006504
0.000667893
0.000667893
0.000667893
0.000659618
0.000659618
0.000659618
0.000650926
0.000650926
0.000650926
0.00066744
0.00066744
0.00066744
0.000658648
0.000658648
0.000658648
0.000555563
0.000555563
0.000555563
0.000554161
0.000554161
0.000554161
0.0005838
0.0005838
0.0005838
0.000564969
0.000564969
0.000564969
0.000615163
0.000615163
0.000615163
0.000458167
0.000458167
0.000458167
0.000451668
0.000451668
0.000451668
0.000458077
0.000458077
0.000458077
0.000486324
0.000486324
0.000486324
0.000503994
0.000503994
0.000503994
0.000569874
0.000569874
0.000569874
0.000571407
0.000571407
0.000571407
0.000400053
0.000400053
0.000400053
0.000381924
0.000381924
0.000381924
0.000395352
0.000395352
0.000395352
0.000407389
0.000407389
0.000407389
0.000405285
0.000405285
0.000405285
0.000407561
0.000407561
0.000407561
0.000363339
0.000363339
0.000363339
0.00035509
0.00035509
0.00035509
0.000355413
0.000355413
0.000355413
0.000353588
0.000353588
0.000353588
0.00036086
0.00036086
0.00036086
0.00036281
0.00036281
0.00036281
0.000360451
0.000360451
0.000360451
0.000362611
0.000362611
0.000362611
0.000373158
0.000373158
0.000373158
0.000373028
0.000373028
0.000373028
0.000373549
0.000373549
0.000373549
0.000373806
0.000373806
0.000373806
0.000376117
0.000376117
0.000376117
0.0003818
0.0003818
0.0003818
0.000364491
0.000364491
0.000364491
0.00036463
0.00036463
0.00036463
0.000378798
0.000378798
0.000378798
0.000380815
0.000380815
0.000380815
0.000384927
0.000384927
0.000384927
0.000397181
0.000397181
0.000397181
0.000343438
0.000343438
0.000343438
0.000342975
0.000342975
0.000342975
0.00035952
0.00035952
0.00035952
0.000357643
0.000357643
0.000357643
0.000409879
0.000409879
0.000409879
0.000419388
0.000419388
0.000419388
0.000432796
0.000432796
0.000432796
0.000425713
0.000425713
0.000425713
0.000447614
0.000447614
0.000447614
0.000369001
0.000369001
0.000369001
0.00040626
0.00040626
0.00040626
0.000412976
0.000412976
0.000412976
0.000398801
0.000398801
0.000398801
0.000382068
0.000382068
0.000382068
0.00096907
0.00096907
0.00096907
0.000952649
0.000952649
0.000952649
0.000890827
0.000890827
0.000890827
0.0009023
0.0009023
0.0009023
0.000893183
0.000893183
0.000893183
0.000527365
0.000527365
0.000527365
0.000524771
0.000524771
0.000524771
0.00052788
0.00052788
0.00052788
0.000526585
0.000526585
0.000526585
0.000523241
0.000523241
0.000523241
0.000525203
0.000525203
0.000525203
0.000522553
0.000522553
0.000522553
0.000518834
0.000518834
0.000518834
0.000522623
0.000522623
0.000522623
0.00052079
0.00052079
0.00052079
0.000523498
0.000523498
0.000523498
0.00052998
0.00052998
0.00052998
0.000529133
0.000529133
0.000529133
0.000533129
0.000533129
0.000533129
0.000530274
0.000530274
0.000530274
0.000490027
0.000490027
0.000490027
0.000428855
0.000428855
0.000428855
0.000483592
0.000483592
0.000483592
0.00044844
0.00044844
0.00044844
0.000453775
0.000453775
0.000453775
0.000450549
0.000450549
0.000450549
0.000451652
0.000451652
0.000451652
0.000449493
0.000449493
0.000449493
0.000475891
0.000475891
0.000475891
0.000456071
0.000456071
0.000456071
0.000424846
0.000424846
0.000424846
0.000432469
0.000432469
0.000432469
0.00042956
0.00042956
0.00042956
0.000484
0.000484
0.000484
0.000483255
0.000483255
0.000483255
0.000485671
0.000485671
0.000485671
0.000486598
0.000486598
0.000486598
0.000484161
0.000484161
0.000484161
0.000470399
0.000470399
0.000470399
0.000487415
0.000487415
0.000487415
0.000493286
0.000493286
0.000493286
0.000489757
0.000489757
0.000489757
0.000432118
0.000432118
0.000432118
0.000429557
0.000429557
0.000429557
0.000420102
0.000420102
0.000420102
0.000424512
0.000424512
0.000424512
0.000427113
0.000427113
0.000427113
0.000429632
0.000429632
0.000429632
0.000445113
0.000445113
0.000445113
0.000440565
0.000440565
0.000440565
0.000430801
0.000430801
0.000430801
0.000433183
0.000433183
0.000433183
0.000347035
0.000347035
0.000347035
0.000347355
0.000347355
0.000347355
0.000349606
0.000349606
0.000349606
0.000351378
0.000351378
0.000351378
0.000346123
0.000346123
0.000346123
0.000348108
0.000348108
0.000348108
0.000345351
0.000345351
0.000345351
0.000346987
0.000346987
0.000346987
0.000348545
0.000348545
0.000348545
0.000413179
0.000413179
0.000413179
0.000408426
0.000408426
0.000408426
0.00041029
0.00041029
0.00041029
0.000393509
0.000393509
0.000393509
0.000389494
0.000389494
0.000389494
0.000392034
0.000392034
0.000392034
0.000394039
0.000394039
0.000394039
0.000395234
0.000395234
0.000395234
0.000390695
0.000390695
0.000390695
0.000392633
0.000392633
0.000392633
0.000391362
0.000391362
0.000391362
0.000370545
0.000370545
0.000370545
0.000374452
0.000374452
0.000374452
0.000378714
0.000378714
0.000378714
0.000380606
0.000380606
0.000380606
0.000369082
0.000369082
0.000369082
0.00034923
0.00034923
0.00034923
0.000348676
0.000348676
0.000348676
0.000350602
0.000350602
0.000350602
0.000352572
0.000352572
0.000352572
0.000350862
0.000350862
0.000350862
0.000349541
0.000349541
0.000349541
0.000350099
0.000350099
0.000350099
0.000351362
0.000351362
0.000351362
0.000353588
0.000353588
0.000353588
0.000878287
0.000878287
0.000878287
0.000877069
0.000877069
0.000877069
0.000864448
0.000864448
0.000864448
0.000853204
0.000853204
0.000853204
0.00082666
0.00082666
0.00082666
0.000839242
0.000839242
0.000839242
0.000840683
0.000840683
0.000840683
0.000644116
0.000644116
0.000644116
0.000940438
0.000940438
0.000940438
0.000928128
0.000928128
0.000928128
0.000890996
0.000890996
0.000890996
0.000903393
0.000903393
0.000903393
0.00077902
0.00077902
0.00077902
0.00076912
0.00076912
0.00076912
0.000769599
0.000769599
0.000769599
0.000779881
0.000779881
0.000779881
0.000820263
0.000820263
0.000820263
0.000799168
0.000799168
0.000799168
0.000768103
0.000768103
0.000768103
0.000747186
0.000747186
0.000747186
0.000757034
0.000757034
0.000757034
0.000767564
0.000767564
0.000767564
0.000530816
0.000530816
0.000530816
0.00054771
0.00054771
0.00054771
0.000582335
0.000582335
0.000582335
0.000562256
0.000562256
0.000562256
0.000551269
0.000551269
0.000551269
0.000549157
0.000549157
0.000549157
0.00057127
0.00057127
0.00057127
0.000558123
0.000558123
0.000558123
0.00056925
0.00056925
0.00056925
0.00056427
0.00056427
0.00056427
0.000542426
0.000542426
0.000542426
0.000525028
0.000525028
0.000525028
0.000496007
0.000496007
0.000496007
0.000538112
0.000538112
0.000538112
0.000507581
0.000507581
0.000507581
0.000653341
0.000653341
0.000653341
0.000556266
0.000556266
0.000556266
0.000554402
0.000554402
0.000554402
0.000589771
0.000589771
0.000589771
0.000609714
0.000609714
0.000609714
0.000600583
0.000600583
0.000600583
0.000668282
0.000668282
0.000668282
0.000789001
0.000789001
0.000789001
0.000742171
0.000742171
0.000742171
0.000740949
0.000740949
0.000740949
0.000728528
0.000728528
0.000728528
0.000726462
0.000726462
0.000726462
0.000591523
0.000591523
0.000591523
0.000632799
0.000632799
0.000632799
0.000610203
0.000610203
0.000610203
0.000807822
0.000807822
0.000807822
0.000796952
0.000796952
0.000796952
0.000645329
0.000645329
0.000645329
0.000666922
0.000666922
0.000666922
0.000665621
0.000665621
0.000665621
0.000654762
0.000654762
0.000654762
0.000681264
0.000681264
0.000681264
0.000633787
0.000633787
0.000633787
0.000657906
0.000657906
0.000657906
0.000850966
0.000850966
0.000850966
0.000851162
0.000851162
0.000851162
0.000840701
0.000840701
0.000840701
0.000819082
0.000819082
0.000819082
0.000829554
0.000829554
0.000829554
0.000840439
0.000840439
0.000840439
0.000830404
0.000830404
0.000830404
0.000820005
0.000820005
0.000820005
0.000809391
0.000809391
0.000809391
0.000809041
0.000809041
0.000809041
0.000819422
0.000819422
0.000819422
0.00083017
0.00083017
0.00083017
0.00076223
0.00076223
0.00076223
0.000752379
0.000752379
0.000752379
0.00075198
0.00075198
0.00075198
0.000771817
0.000771817
0.000771817
0.000761538
0.000761538
0.000761538
0.000771511
0.000771511
0.000771511
0.000619441
0.000619441
0.000619441
0.000601521
0.000601521
0.000601521
0.000611012
0.000611012
0.000611012
0.000618353
0.000618353
0.000618353
0.00064045
0.00064045
0.00064045
0.000621549
0.000621549
0.000621549
0.000622546
0.000622546
0.000622546
0.000631939
0.000631939
0.000631939
0.000629001
0.000629001
0.000629001
0.000630014
0.000630014
0.000630014
0.000639523
0.000639523
0.000639523
0.000648135
0.000648135
0.000648135
0.000682733
0.000682733
0.000682733
0.000662985
0.000662985
0.000662985
0.000673711
0.000673711
0.000673711
0.000663899
0.000663899
0.000663899
0.000693367
0.000693367
0.000693367
0.000692616
0.000692616
0.000692616
0.000660019
0.000660019
0.000660019
0.000661035
0.000661035
0.000661035
0.000625834
0.000625834
0.000625834
0.000626917
0.000626917
0.000626917
0.000644298
0.000644298
0.000644298
0.000634501
0.000634501
0.000634501
0.000736729
0.000736729
0.000736729
0.00072705
0.00072705
0.00072705
0.000699434
0.000699434
0.000699434
0.000749032
0.000749032
0.000749032
0.000758778
0.000758778
0.000758778
0.000747822
0.000747822
0.000747822
0.000758221
0.000758221
0.000758221
0.000600352
0.000600352
0.000600352
0.000608745
0.000608745
0.000608745
0.00060759
0.00060759
0.00060759
0.000597933
0.000597933
0.000597933
0.000589546
0.000589546
0.000589546
0.00059081
0.00059081
0.00059081
0.000582543
0.000582543
0.000582543
0.00057307
0.00057307
0.00057307
0.000614905
0.000614905
0.000614905
0.000623535
0.000623535
0.000623535
0.000622368
0.000622368
0.000622368
0.000612469
0.000612469
0.000612469
0.000582797
0.000582797
0.000582797
0.000592679
0.000592679
0.000592679
0.000637569
0.000637569
0.000637569
0.000635101
0.000635101
0.000635101
0.000599864
0.000599864
0.000599864
0.000619891
0.000619891
0.000619891
0.000601231
0.000601231
0.000601231
0.000611183
0.000611183
0.000611183
0.000631119
0.000631119
0.000631119
0.000549543
0.000549543
0.000549543
0.000541083
0.000541083
0.000541083
0.000585363
0.000585363
0.000585363
0.000576796
0.000576796
0.000576796
0.000666507
0.000666507
0.000666507
0.00065771
0.00065771
0.00065771
0.000668083
0.000668083
0.000668083
0.000658556
0.000658556
0.000658556
0.000694759
0.000694759
0.000694759
0.00068505
0.00068505
0.00068505
0.000695425
0.000695425
0.000695425
0.000676149
0.000676149
0.000676149
0.00068648
0.00068648
0.00068648
0.00067689
0.00067689
0.00067689
0.000627915
0.000627915
0.000627915
0.000654503
0.000654503
0.000654503
0.000645367
0.000645367
0.000645367
0.00065514
0.00065514
0.00065514
0.000636987
0.000636987
0.000636987
0.00064674
0.00064674
0.00064674
0.000637713
0.000637713