<VTKFile type="UnstructuredGrid" version="1.0">
<UnstructuredGrid>
<Piece NumberOfPoints="8859" NumberOfCells="2953">
<Points>
<DataArray type="Float64" NumberOfComponents="3" format="ascii">
2.75455 1.50245 5.09263
2.76986 1.48714 5.10458
2.75465 1.50235 5.11833
2.78515 1.47185 5.04167
2.78516 1.47184 5.01651
2.8005 1.4565 5.02898
2.76981 1.48719 5.05436
2.78515 1.47185 5.04167
2.78514 1.47186 5.06686
2.72412 1.53288 5.14488
2.73952 1.51748 5.1525
2.70875 1.54825 5.1525
2.72412 1.53288 5.14488
2.73943 1.51757 5.12957
2.73952 1.51748 5.1525
2.75488 1.50212 5.14479
2.77036 1.48664 5.1525
2.73952 1.51748 5.1525
2.75488 1.50212 5.14479
2.73943 1.51757 5.12957
2.75465 1.50235 5.11833
2.73952 1.51748 5.1525
2.73943 1.51757 5.12957
2.75488 1.50212 5.14479
2.75465 1.50235 5.11833
2.76986 1.48714 5.10458
2.76997 1.48703 5.12927
2.76997 1.48703 5.12927
2.75488 1.50212 5.14479
2.75465 1.50235 5.11833
2.77036 1.48664 5.1525
2.75488 1.50212 5.14479
2.76997 1.48703 5.12927
2.76986 1.48714 5.10458
2.75455 1.50245 5.09263
2.76982 1.48718 5.07952
2.76981 1.48719 5.05436
2.78514 1.47186 5.06686
2.76982 1.48718 5.07952
2.7852 1.4718 5.11762
2.76997 1.48703 5.12927
2.76986 1.48714 5.10458
2.8005 1.4565 5.10395
2.8005 1.4565 5.12855
2.7852 1.4718 5.11762
2.8005 1.4565 5.00387
2.8005 1.4565 5.02898
2.78516 1.47184 5.01651
2.78515 1.47185 5.04167
2.8005 1.4565 5.02898
2.8005 1.4565 5.05406
2.8005 1.4565 5.05406
2.78514 1.47186 5.06686
2.78515 1.47185 5.04167
2.8005 1.4565 4.47652
2.8005 1.4565 4.50165
2.78518 1.47182 4.48907
2.78517 1.47183 4.94107
2.8005 1.4565 4.95361
2.78517 1.47183 4.96621
2.8005 1.4565 4.92848
2.8005 1.4565 4.95361
2.78517 1.47183 4.94107
2.78519 1.47181 4.81544
2.8005 1.4565 4.82799
2.78519 1.47181 4.84055
2.32274 1.93426 4.26059
2.33845 1.91855 4.2525
2.33845 1.91855 4.27563
2.27541 1.98159 5.1525
2.24359 2.01341 5.1525
2.25954 1.99746 5.14432
2.78515 1.47185 5.09212
2.76982 1.48718 5.07952
2.78514 1.47186 5.06686
2.76986 1.48714 5.10458
2.76982 1.48718 5.07952
2.78515 1.47185 5.09212
2.78515 1.47185 5.09212
2.7852 1.4718 5.11762
2.76986 1.48714 5.10458
2.8005 1.4565 5.10395
2.7852 1.4718 5.11762
2.78515 1.47185 5.09212
2.78544 1.47156 5.14384
2.8005 1.4565 5.12855
2.8005 1.4565 5.1525
2.78544 1.47156 5.14384
2.7852 1.4718 5.11762
2.8005 1.4565 5.12855
2.8005 1.4565 5.1525
2.77036 1.48664 5.1525
2.78544 1.47156 5.14384
2.77036 1.48664 5.1525
2.76997 1.48703 5.12927
2.78544 1.47156 5.14384
2.76997 1.48703 5.12927
2.7852 1.4718 5.11762
2.78544 1.47156 5.14384
2.78517 1.47183 4.96621
2.8005 1.4565 4.95361
2.8005 1.4565 4.97874
2.78514 1.47186 5.06686
2.8005 1.4565 5.05406
2.8005 1.4565 5.07907
2.8005 1.4565 5.10395
2.78515 1.47185 5.09212
2.8005 1.4565 5.07907
2.8005 1.4565 5.07907
2.78515 1.47185 5.09212
2.78514 1.47186 5.06686
2.8005 1.4565 4.80289
2.8005 1.4565 4.82799
2.78519 1.47181 4.81544
2.78518 1.47182 4.48907
2.8005 1.4565 4.50165
2.78518 1.47182 4.5142
2.76985 1.48715 4.92853
2.75454 1.50246 4.91598
2.76986 1.48714 4.90338
2.78516 1.47184 4.99136
2.8005 1.4565 5.00387
2.78516 1.47184 5.01651
2.78516 1.47184 4.99136
2.8005 1.4565 4.97874
2.8005 1.4565 5.00387
2.78516 1.47184 4.99136
2.76984 1.48716 4.97884
2.78517 1.47183 4.96621
2.78517 1.47183 4.96621
2.8005 1.4565 4.97874
2.78516 1.47184 4.99136
2.76982 1.48718 5.02918
2.78515 1.47185 5.04167
2.76981 1.48719 5.05436
2.76982 1.48718 5.02918
2.78516 1.47184 5.01651
2.78515 1.47185 5.04167
2.75451 1.50249 4.99149
2.7392 1.5178 5.00415
2.73921 1.51779 4.97894
2.53996 1.71704 5.11838
2.52458 1.73242 5.1049
2.53996 1.71704 5.09275
2.49374 1.76326 4.9538
2.49375 1.76325 4.979
2.47832 1.77868 4.96639
2.8005 1.4565 4.2525
2.8005 1.4565 4.27645
2.78544 1.47156 4.26116
2.27543 1.98157 5.12933
2.27541 1.98159 5.1525
2.25954 1.99746 5.14432
2.33845 1.91855 5.05446
2.32276 1.93424 5.06714
2.32275 1.93425 5.04185
2.25954 1.99746 5.14432
2.24359 2.01341 5.1525
2.24374 2.01326 5.12923
2.76987 1.48713 4.577
2.75455 1.50245 4.56443
2.76987 1.48713 4.55188
2.8005 1.4565 4.72759
2.78519 1.47181 4.71505
2.8005 1.4565 4.7025
2.78519 1.47181 4.76524
2.8005 1.4565 4.75269
2.8005 1.4565 4.77778
2.76988 1.48712 4.67741
2.75456 1.50244 4.68995
2.75456 1.50244 4.66486
2.76988 1.48712 4.7025
2.75456 1.50244 4.68995
2.76988 1.48712 4.67741
2.78519 1.47181 4.71505
2.76988 1.48712 4.72759
2.76988 1.48712 4.7025
2.75455 1.50245 4.84057
2.76987 1.48713 4.85312
2.75455 1.50245 4.8657
2.72393 1.53307 4.81547
2.72392 1.53308 4.84059
2.70861 1.54839 4.82803
2.75456 1.50244 4.81545
2.73924 1.51776 4.8029
2.75456 1.50244 4.79035
2.75456 1.50244 4.79035
2.76987 1.48713 4.80289
2.75456 1.50244 4.81545
2.73924 1.51776 4.8029
2.73925 1.51775 4.7778
2.75456 1.50244 4.79035
2.75456 1.50244 4.79035
2.73925 1.51775 4.7778
2.75456 1.50244 4.76524
2.8005 1.4565 4.77778
2.8005 1.4565 4.80289
2.78519 1.47181 4.79034
2.78519 1.47181 4.79034
2.78519 1.47181 4.76524
2.8005 1.4565 4.77778
2.78519 1.47181 4.79034
2.8005 1.4565 4.80289
2.78519 1.47181 4.81544
2.78519 1.47181 4.81544
2.76987 1.48713 4.80289
2.78519 1.47181 4.79034
2.75454 1.50246 4.89083
2.73923 1.51777 4.87828
2.75455 1.50245 4.8657
2.75454 1.50246 4.89083
2.76986 1.48714 4.90338
2.75454 1.50246 4.91598
2.7086 1.5484 4.8783
2.72392 1.53308 4.86572
2.72392 1.53308 4.89086
2.72392 1.53308 4.89086
2.72392 1.53308 4.86572
2.73923 1.51777 4.87828
2.8005 1.4565 4.8531
2.78519 1.47181 4.84055
2.8005 1.4565 4.82799
2.75455 1.50245 4.8657
2.76987 1.48713 4.85312
2.76986 1.48714 4.87825
2.76986 1.48714 4.87825
2.75454 1.50246 4.89083
2.75455 1.50245 4.8657
2.76986 1.48714 4.90338
2.75454 1.50246 4.89083
2.76986 1.48714 4.87825
2.78517 1.47183 4.96621
2.76984 1.48716 4.97884
2.76985 1.48715 4.95368
2.76985 1.48715 4.95368
2.78517 1.47183 4.94107
2.78517 1.47183 4.96621
2.76985 1.48715 4.92853
2.78517 1.47183 4.94107
2.76985 1.48715 4.95368
2.73921 1.51779 4.97894
2.73921 1.51779 4.95375
2.75452 1.50248 4.9663
2.75452 1.50248 4.9663
2.75451 1.50249 4.99149
2.73921 1.51779 4.97894
2.76984 1.48716 4.97884
2.75451 1.50249 4.99149
2.75452 1.50248 4.9663
2.75452 1.50248 4.9663
2.76985 1.48715 4.95368
2.76984 1.48716 4.97884
2.7239 1.5331 4.96638
2.73921 1.51779 4.95375
2.73921 1.51779 4.97894
2.7239 1.5331 4.96638
2.70859 1.54841 4.97901
2.70859 1.54841 4.95381
2.76981 1.48719 5.05436
2.76982 1.48718 5.07952
2.75451 1.50249 5.06722
2.75451 1.50249 5.06722
2.76982 1.48718 5.07952
2.75455 1.50245 5.09263
2.7392 1.5178 5.00415
2.75451 1.50249 4.99149
2.75451 1.50249 5.01669
2.75451 1.50249 5.01669
2.7392 1.5178 5.02937
2.7392 1.5178 5.00415
2.67798 1.57902 4.85317
2.66266 1.59434 4.86575
2.66266 1.59434 4.84061
2.70859 1.54841 4.95381
2.70859 1.54841 4.92862
2.7239 1.5331 4.94119
2.7239 1.5331 4.94119
2.7239 1.5331 4.96638
2.70859 1.54841 4.95381
2.73921 1.51779 4.95375
2.7239 1.5331 4.96638
2.7239 1.5331 4.94119
2.73922 1.51778 4.92858
2.73921 1.51779 4.95375
2.7239 1.5331 4.94119
2.57068 1.68632 5.09276
2.57068 1.68632 5.11839
2.55533 1.70167 5.10491
2.55533 1.70167 5.10491
2.57068 1.68632 5.11839
2.55533 1.70167 5.1295
2.55533 1.70167 5.10491
2.55533 1.70167 5.1295
2.53996 1.71704 5.11838
2.53996 1.71704 5.11838
2.53996 1.71704 5.09275
2.55533 1.70167 5.10491
2.52458 1.73242 5.07984
2.53996 1.71704 5.09275
2.52458 1.73242 5.1049
2.50912 1.74788 4.71505
2.50912 1.74788 4.74015
2.49371 1.76329 4.7276
2.41633 1.84067 4.84056
2.40077 1.85623 4.828
2.41632 1.84068 4.81545
2.41635 1.84065 4.89083
2.40081 1.85619 4.90339
2.40079 1.85621 4.87825
2.33845 1.91855 5.05446
2.32275 1.93425 5.04185
2.33843 1.91857 5.02924
2.33845 1.91855 5.07966
2.32276 1.93424 5.06714
2.33845 1.91855 5.05446
2.40087 1.85613 5.00412
2.40088 1.85612 5.02934
2.38531 1.87169 5.01672
2.30693 1.95007 4.95358
2.32265 1.93435 4.94103
2.32267 1.93433 4.9662
2.30684 1.95016 4.85303
2.29108 1.96592 4.86556
2.29106 1.96594 4.84046
2.32274 1.93426 5.14441
2.33845 1.91855 5.1525
2.30701 1.94999 5.1525
2.33845 1.91855 5.12937
2.33845 1.91855 5.1525
2.32274 1.93426 5.14441
2.35411 1.90289 5.14447
2.33845 1.91855 5.1525
2.33845 1.91855 5.12937
2.30704 1.94996 5.07961
2.30703 1.94997 5.10469
2.29128 1.96572 5.09246
2.55533 1.70167 5.1525
2.52458 1.73242 5.1525
2.53996 1.71704 5.14472
2.53996 1.71704 5.11838
2.55533 1.70167 5.1295
2.53996 1.71704 5.14472
2.53996 1.71704 5.14472
2.55533 1.70167 5.1295
2.55533 1.70167 5.1525
2.52458 1.73242 5.12949
2.52458 1.73242 5.1049
2.53996 1.71704 5.11838
2.53996 1.71704 5.11838
2.53996 1.71704 5.14472
2.52458 1.73242 5.12949
2.52458 1.73242 5.12949
2.53996 1.71704 5.14472
2.52458 1.73242 5.1525
2.41642 1.84058 5.01676
2.40088 1.85612 5.02934
2.40087 1.85613 5.00412
2.47831 1.77869 4.9412
2.49374 1.76326 4.92862
2.49374 1.76326 4.9538
2.49374 1.76326 4.9538
2.47832 1.77868 4.96639
2.47831 1.77869 4.9412
2.47833 1.77867 4.9916
2.47832 1.77868 4.96639
2.49375 1.76325 4.979
2.47833 1.77867 4.9916
2.49375 1.76325 4.979
2.49376 1.76324 5.00421
2.49376 1.76324 5.00421
2.47834 1.77866 5.01682
2.47833 1.77867 4.9916
2.47833 1.77867 4.9916
2.47834 1.77866 5.01682
2.46289 1.79411 5.00419
2.49377 1.76323 5.02943
2.47834 1.77866 5.01682
2.49376 1.76324 5.00421
2.49377 1.76323 5.05464
2.47835 1.77865 5.06734
2.47834 1.77866 5.04206
2.47834 1.77866 5.04206
2.49377 1.76323 5.02943
2.49377 1.76323 5.05464
2.47834 1.77866 5.01682
2.49377 1.76323 5.02943
2.47834 1.77866 5.04206
2.7852 1.4718 4.28738
2.78544 1.47156 4.26116
2.8005 1.4565 4.27645
2.76997 1.48703 4.27573
2.78544 1.47156 4.26116
2.7852 1.4718 4.28738
2.64739 1.60961 4.27548
2.64738 1.60962 4.2525
2.66272 1.59428 4.26021
2.70875 1.54825 4.2525
2.6934 1.5636 4.26017
2.67805 1.57895 4.2525
2.67805 1.57895 4.2525
2.66272 1.59428 4.26021
2.64738 1.60962 4.2525
2.19638 2.06062 4.28897
2.1963 2.0607 4.26286
2.2122 2.0448 4.27645
2.2122 2.0448 4.27645
2.22771 2.02929 4.26101
2.22802 2.02898 4.28745
2.18073 2.07627 4.27782
2.1963 2.0607 4.26286
2.19638 2.06062 4.28897
2.18073 2.07627 4.27782
2.18123 2.07577 4.2525
2.1963 2.0607 4.26286
2.27543 1.98157 4.27567
2.27541 1.98159 4.2525
2.29123 1.96577 4.26063
2.30701 1.94999 4.2525
[...]
<PointData Scalars="View Factor" >
<DataArray type="Float64" Name="View Factor" NumberOfComponents="1" format="ascii">
0.000118007
0.000118007
0.000118007
0.00011978
0.00011978
0.00011978
0.000119197
0.000119197
0.000119197
0.000114219
0.000114219
0.000114219
0.000115502
0.000115502
0.000115502
0.000118927
0.000118927
0.000118927
0.000117429
0.000117429
0.000117429
0.000117065
0.000117065
0.000117065
0.000119235
0.000119235
0.000119235
0.000118974
0.000118974
0.000118974
0.000120194
0.000120194
0.000120194
0.000118299
0.000118299
0.000118299
0.000118893
0.000118893
0.000118893
0.000120768
0.000120768
0.000120768
0.00012384
0.00012384
0.00012384
0.000120069
0.000120069
0.000120069
0.000120999
0.000120999
0.000120999
0.000120713
0.000120713
0.000120713
0.000102435
0.000102435
0.000102435
0.000117044
0.000117044
0.000117044
0.000117329
0.000117329
0.000117329
0.000112659
0.000112659
0.000112659
5.33426e-05
5.33426e-05
5.33426e-05
7.04353e-05
7.04353e-05
7.04353e-05
0.000120121
0.000120121
0.000120121
0.000119825
0.000119825
0.000119825
0.00012107
0.00012107
0.00012107
0.000122603
0.000122603
0.000122603
0.000124812
0.000124812
0.000124812
0.000123584
0.000123584
0.000123584
0.000123593
0.000123593
0.000123593
0.000121737
0.000121737
0.000121737
0.000122045
0.000122045
0.000122045
0.000118233
0.000118233
0.000118233
0.000121937
0.000121937
0.000121937
0.000122884
0.000122884
0.000122884
0.000121646
0.000121646
0.000121646
0.000112933
0.000112933
0.000112933
0.000102177
0.000102177
0.000102177
0.000112079
0.000112079
0.000112079
0.000118856
0.000118856
0.000118856
0.000119147
0.000119147
0.000119147
0.000116469
0.000116469
0.000116469
0.000117951
0.000117951
0.000117951
0.000117981
0.000117981
0.000117981
0.000118275
0.000118275
0.000118275
0.000111711
0.000111711
0.000111711
8.4199e-05
8.4199e-05
8.4199e-05
7.40679e-05
7.40679e-05
7.40679e-05
9.58891e-05
9.58891e-05
9.58891e-05
7.01127e-05
7.01127e-05
7.01127e-05
6.74943e-05
6.74943e-05
6.74943e-05
7.04238e-05
7.04238e-05
7.04238e-05
0.000100827
0.000100827
0.000100827
0.000109567
0.000109567
0.000109567
0.000111234
0.000111234
0.000111234
0.000103609
0.000103609
0.000103609
0.00010468
0.00010468
0.00010468
0.000106831
0.000106831
0.000106831
0.000109242
0.000109242
0.000109242
0.000102759
0.000102759
0.000102759
0.000106191
0.000106191
0.000106191
0.000107594
0.000107594
0.000107594
0.000105094
0.000105094
0.000105094
0.00010539
0.00010539
0.00010539
0.00011208
0.00011208
0.00011208
0.000110956
0.000110956
0.000110956
0.000111804
0.000111804
0.000111804
0.0001104
0.0001104
0.0001104
0.000108639
0.000108639
0.000108639
0.000110925
0.000110925
0.000110925
0.000104341
0.000104341
0.000104341
0.000105775
0.000105775
0.000105775
0.000113795
0.000113795
0.000113795
0.000110371
0.000110371
0.000110371
0.000110075
0.000110075
0.000110075
0.000111216
0.000111216
0.000111216
0.000115284
0.000115284
0.000115284
0.000115574
0.000115574
0.000115574
0.000114396
0.000114396
0.000114396
0.00011086
0.00011086
0.00011086
0.000112027
0.000112027
0.000112027
0.000113507
0.000113507
0.000113507
0.000113809
0.000113809
0.000113809
0.000109386
0.000109386
0.000109386
0.000106435
0.000106435
0.000106435
0.000117375
0.000117375
0.000117375
0.000117082
0.000117082
0.000117082
0.000112892
0.000112892
0.000112892
0.000112581
0.000112581
0.000112581
9.6432e-05
9.6432e-05
9.6432e-05
0.000105622
0.000105622
0.000105622
0.00010676
0.00010676
0.00010676
0.000108227
0.000108227
0.000108227
0.000108543
0.000108543
0.000108543
8.88024e-05
8.88024e-05
8.88024e-05
8.83723e-05
8.83723e-05
8.83723e-05
8.6831e-05
8.6831e-05
8.6831e-05
8.57338e-05
8.57338e-05
8.57338e-05
8.30977e-05
8.30977e-05
8.30977e-05
7.09622e-05
7.09622e-05
7.09622e-05
6.21533e-05
6.21533e-05
6.21533e-05
6.33928e-05
6.33928e-05
6.33928e-05
6.71713e-05
6.71713e-05
6.71713e-05
6.76894e-05
6.76894e-05
6.76894e-05
6.59654e-05
6.59654e-05
6.59654e-05
6.55905e-05
6.55905e-05
6.55905e-05
6.38935e-05
6.38935e-05
6.38935e-05
6.95612e-05
6.95612e-05
6.95612e-05
6.92638e-05
6.92638e-05
6.92638e-05
6.91358e-05
6.91358e-05
6.91358e-05
6.86158e-05
6.86158e-05
6.86158e-05
8.61351e-05
8.61351e-05
8.61351e-05
8.64134e-05
8.64134e-05
8.64134e-05
8.74916e-05
8.74916e-05
8.74916e-05
8.37492e-05
8.37492e-05
8.37492e-05
8.48662e-05
8.48662e-05
8.48662e-05
8.43863e-05
8.43863e-05
8.43863e-05
6.58614e-05
6.58614e-05
6.58614e-05
7.35032e-05
7.35032e-05
7.35032e-05
7.30489e-05
7.30489e-05
7.30489e-05
7.36127e-05
7.36127e-05
7.36127e-05
7.46382e-05
7.46382e-05
7.46382e-05
7.4184e-05
7.4184e-05
7.4184e-05
7.26948e-05
7.26948e-05
7.26948e-05
7.52202e-05
7.52202e-05
7.52202e-05
7.53423e-05
7.53423e-05
7.53423e-05
7.58018e-05
7.58018e-05
7.58018e-05
7.47614e-05
7.47614e-05
7.47614e-05
9.56175e-05
9.56175e-05
9.56175e-05
9.44165e-05
9.44165e-05
9.44165e-05
7.9169e-05
7.9169e-05
7.9169e-05
8.37535e-05
8.37535e-05
8.37535e-05
8.01879e-05
8.01879e-05
8.01879e-05
5.50776e-05
5.50776e-05
5.50776e-05
5.479e-05
5.479e-05
5.479e-05
5.52232e-05
5.52232e-05
5.52232e-05
5.50981e-05
5.50981e-05
5.50981e-05
5.39066e-05
5.39066e-05
5.39066e-05
5.33311e-05
5.33311e-05
5.33311e-05
5.36735e-05
5.36735e-05
5.36735e-05
5.79666e-05
5.79666e-05
5.79666e-05
5.81018e-05
5.81018e-05
5.81018e-05
6.95297e-05
6.95297e-05
6.95297e-05
6.89555e-05
6.89555e-05
6.89555e-05
6.91444e-05
6.91444e-05
6.91444e-05
6.38581e-05
6.38581e-05
6.38581e-05
6.40281e-05
6.40281e-05
6.40281e-05
6.68682e-05
6.68682e-05
6.68682e-05
0.000101418
0.000101418
0.000101418
0.000107931
0.000107931
0.000107931
0.000102348
0.000102348
0.000102348
0.000102066
0.000102066
0.000102066
0.000101585
0.000101585
0.000101585
0.000101305
0.000101305
0.000101305
9.99851e-05
9.99851e-05
9.99851e-05
9.89573e-05
9.89573e-05
9.89573e-05
9.92382e-05
9.92382e-05
9.92382e-05
0.000100548
0.000100548
0.000100548
6.72562e-05
6.72562e-05
6.72562e-05
6.68792e-05
6.68792e-05
6.68792e-05
6.5925e-05
6.5925e-05
6.5925e-05
9.82214e-05
9.82214e-05
9.82214e-05
0.000103199
0.000103199
0.000103199
9.42879e-05
9.42879e-05
9.42879e-05
9.1469e-05
9.1469e-05
9.1469e-05
9.99339e-05
9.99339e-05
9.99339e-05
9.04433e-05
9.04433e-05
9.04433e-05
9.38852e-05
9.38852e-05
9.38852e-05
9.28528e-05
9.28528e-05
9.28528e-05
9.14839e-05
9.14839e-05
9.14839e-05
9.11423e-05
9.11423e-05
9.11423e-05
0.000102259
0.000102259
0.000102259
0.000108745
0.000108745
0.000108745
0.000108474
0.000108474
0.000108474
0.000107113
0.000107113
0.000107113
0.000106036
0.000106036
0.000106036
0.000106311
0.000106311
0.000106311
0.000107662
0.000107662
0.000107662
8.22811e-05
8.22811e-05
8.22811e-05
8.2649e-05
8.2649e-05
8.2649e-05
8.97809e-05
8.97809e-05
8.97809e-05
9.07954e-05
9.07954e-05
9.07954e-05
9.04534e-05
9.04534e-05
9.04534e-05
8.90901e-05
8.90901e-05
8.90901e-05
8.2031e-05
8.2031e-05
8.2031e-05
8.10578e-05
8.10578e-05
8.10578e-05
8.0309e-05
8.0309e-05
8.0309e-05
8.1661e-05
8.1661e-05
8.1661e-05
8.84279e-05
8.84279e-05
8.84279e-05
8.80793e-05
8.80793e-05
8.80793e-05
0.000110959
0.000110959
0.000110959
0.000109539
0.000109539
0.000109539
0.000108417
0.000108417
0.000108417
0.000111245
0.000111245
0.000111245
0.000110116
0.000110116
0.000110116
0.000108707
0.000108707
0.000108707
0.000104171
0.000104171
0.000104171
0.000107003
0.000107003
0.000107003
0.000105888
0.000105888
0.000105888
0.00010448
0.00010448
0.00010448
9.84305e-05
9.84305e-05
9.84305e-05
0.000100143
0.000100143
0.000100143
9.87571e-05
9.87571e-05
9.87571e-05
0.000109564
0.000109564
0.000109564
0.000107069
0.000107069
0.000107069
0.000108456
0.000108456
0.000108456
0.000106782
0.000106782
0.000106782
0.000107886
0.000107886
0.000107886
0.000109284
0.000109284
0.000109284
0.000107517
0.000107517
0.000107517
0.000106087
0.000106087
0.000106087
0.000104969
0.000104969
0.000104969
0.000107818
0.000107818
0.000107818
0.000105277
0.000105277
0.000105277
0.000106696
0.000106696
0.000106696
0.000103546
0.000103546
0.000103546
0.000102444
0.000102444
0.000102444
0.000101026
0.000101026
0.000101026
0.000103229
0.000103229
0.000103229
0.000108337
0.000108337
0.000108337
0.000106897
0.000106897
0.000106897
0.000109478
0.000109478
0.000109478
0.000109172
0.000109172
0.000109172
0.000104014
0.000104014
0.000104014
0.000112085
0.000112085
0.000112085
0.000113511
0.000113511
0.000113511
0.000114666
0.000114666
0.000114666
0.000111801
0.000111801
0.000111801
0.000116432
0.000116432
0.000116432
0.000113532
0.000113532
0.000113532
0.00011615
0.00011615
0.00011615
0.000114691
0.000114691
0.000114691
0.000115545
0.000115545
0.000115545
0.000114392
0.000114392
0.000114392
0.000112956
0.000112956
0.000112956
0.000112658
0.000112658
0.000112658
0.000113813
0.000113813
0.000113813
0.00011526
0.00011526
0.00011526
0.000110006
0.000110006
0.000110006
0.000112932
0.000112932
0.000112932
0.000111166
0.000111166
0.000111166
0.000112635
0.000112635
0.000112635
0.000110313
0.000110313
0.000110313
0.000111771
0.000111771
0.000111771
0.000110227
0.000110227
0.000110227
0.000109069
0.000109069
0.000109069
0.00010759
0.00010759
0.00010759
0.000116473
0.000116473
0.000116473
0.000113454
0.000113454
0.000113454
0.000115267
0.000115267
0.000115267
0.000113765
0.000113765
0.000113765
0.000116165
0.000116165
0.000116165
0.000114653
0.000114653
0.000114653
0.000116158
0.000116158
0.000116158
0.000116474
0.000116474
0.000116474
0.00011432
0.00011432
0.00011432
0.000114617
0.000114617
0.000114617
0.000113407
0.000113407
0.000113407
0.000114348
0.000114348
0.000114348
0.00011372
0.00011372
0.00011372
0.00011556
0.00011556
0.00011556
0.000115248
0.000115248
0.000115248
0.000114382
0.000114382
0.000114382
0.000117363
0.000117363
0.000117363
0.00011707
0.00011707
0.00011707
0.000115573
0.000115573
0.000115573
0.000116168
0.000116168
0.000116168
0.000114682
0.000114682
0.000114682
8.58282e-05
8.58282e-05
8.58282e-05
8.47987e-05
8.47987e-05
8.47987e-05
9.00582e-05
9.00582e-05
9.00582e-05
8.72379e-05
8.72379e-05
8.72379e-05
9.75137e-05
9.75137e-05
9.75137e-05
9.08046e-05
9.08046e-05
9.08046e-05
8.90449e-05
8.90449e-05
8.90449e-05
8.95087e-05
8.95087e-05
8.95087e-05
7.05464e-05
7.05464e-05
7.05464e-05
7.233e-05
7.233e-05
7.233e-05
7.99345e-05
7.99345e-05
7.99345e-05
8.09187e-05
8.09187e-05
8.09187e-05
6.19681e-05
6.19681e-05
6.19681e-05
6.43042e-05
6.43042e-05
6.43042e-05
6.24411e-05
6.24411e-05
6.24411e-05
6.17457e-05
6.17457e-05
6.17457e-05
6.21479e-05
6.21479e-05
6.21479e-05
6.18591e-05
6.18591e-05
6.18591e-05
6.69797e-05
6.69797e-05
6.69797e-05
6.80199e-05
6.80199e-05
6.80199e-05
6.81517e-05
6.81517e-05
6.81517e-05
6.84784e-05
6.84784e-05
6.84784e-05
6.70463e-05
6.70463e-05
6.70463e-05
6.6732e-05
6.6732e-05
6.6732e-05
6.68083e-05
6.68083e-05
6.68083e-05
6.66125e-05
6.66125e-05
6.66125e-05
6.52905e-05
6.52905e-05
6.52905e-05
6.51777e-05
6.51777e-05
6.51777e-05
6.55266e-05
6.55266e-05
6.55266e-05
6.56494e-05
6.56494e-05
6.56494e-05
6.54626e-05
6.54626e-05
6.54626e-05
6.41923e-05
6.41923e-05
6.41923e-05
6.6183e-05
6.6183e-05
6.6183e-05
6.62973e-05
6.62973e-05
6.62973e-05
6.54068e-05
6.54068e-05
6.54068e-05
6.50944e-05
6.50944e-05
6.50944e-05
6.44768e-05
6.44768e-05
6.44768e-05
6.35878e-05
6.35878e-05
6.35878e-05
6.91669e-05
6.91669e-05
6.91669e-05
6.88174e-05
6.88174e-05
6.88174e-05
6.76251e-05
6.76251e-05
6.76251e-05
6.79537e-05
6.79537e-05
6.79537e-05
8.14759e-05
8.14759e-05
8.14759e-05
8.28332e-05
8.28332e-05
8.28332e-05
6.99591e-05
6.99591e-05
6.99591e-05
6.95104e-05
6.95104e-05
6.95104e-05
7.43896e-05
7.43896e-05
7.43896e-05
7.24755e-05
7.24755e-05
7.24755e-05
7.16713e-05
7.16713e-05
7.16713e-05
7.21348e-05
7.21348e-05
7.21348e-05
7.38299e-05
7.38299e-05
7.38299e-05
7.08006e-05
7.08006e-05
7.08006e-05
9.44865e-05
9.44865e-05
9.44865e-05
9.35138e-05
9.35138e-05
9.35138e-05
8.84113e-05
8.84113e-05
8.84113e-05
8.87285e-05
8.87285e-05
8.87285e-05
8.73341e-05
8.73341e-05
8.73341e-05
5.44089e-05
5.44089e-05
5.44089e-05
5.46551e-05
5.46551e-05
5.46551e-05
5.40305e-05
5.40305e-05
5.40305e-05
5.42786e-05
5.42786e-05
5.42786e-05
5.43927e-05
5.43927e-05
5.43927e-05
5.40275e-05
5.40275e-05
5.40275e-05
5.42676e-05
5.42676e-05
5.42676e-05
5.44138e-05
5.44138e-05
5.44138e-05
5.50675e-05
5.50675e-05
5.50675e-05
5.54817e-05
5.54817e-05
5.54817e-05
5.52114e-05
5.52114e-05
5.52114e-05
5.48198e-05
5.48198e-05
5.48198e-05
5.4676e-05
5.4676e-05
5.4676e-05
5.48286e-05
5.48286e-05
5.48286e-05
5.44197e-05
5.44197e-05
5.44197e-05
5.60388e-05
5.60388e-05
5.60388e-05
6.14727e-05
6.14727e-05
6.14727e-05
5.63305e-05
5.63305e-05
5.63305e-05
6.14764e-05
6.14764e-05
6.14764e-05
6.10254e-05
6.10254e-05
6.10254e-05
6.11701e-05
6.11701e-05
6.11701e-05
6.07099e-05
6.07099e-05
6.07099e-05
6.10119e-05
6.10119e-05
6.10119e-05
5.92634e-05
5.92634e-05
5.92634e-05
6.01093e-05
6.01093e-05
6.01093e-05
6.34749e-05
6.34749e-05
6.34749e-05
6.14608e-05
6.14608e-05
6.14608e-05
6.16161e-05
6.16161e-05
6.16161e-05
5.72448e-05
5.72448e-05
5.72448e-05
5.71096e-05
5.71096e-05
5.71096e-05
5.75245e-05
5.75245e-05
5.75245e-05
5.76688e-05
5.76688e-05
5.76688e-05
5.79528e-05
5.79528e-05
5.79528e-05
5.76895e-05
5.76895e-05
5.76895e-05
5.84083e-05
5.84083e-05
5.84083e-05
5.79877e-05
5.79877e-05
5.79877e-05
5.81198e-05
5.81198e-05
5.81198e-05
5.917e-05
5.917e-05
5.917e-05
5.93409e-05
5.93409e-05
5.93409e-05
6.08874e-05
6.08874e-05
6.08874e-05
5.96889e-05
5.96889e-05
5.96889e-05
5.94187e-05
5.94187e-05
5.94187e-05
5.92434e-05
5.92434e-05
5.92434e-05
6.41197e-05
6.41197e-05
6.41197e-05
6.22786e-05
6.22786e-05
6.22786e-05
6.02275e-05
6.02275e-05
6.02275e-05
5.99453e-05
5.99453e-05
5.99453e-05
6.90843e-05
6.90843e-05
6.90843e-05
6.92178e-05
6.92178e-05
6.92178e-05
6.90059e-05
6.90059e-05
6.90059e-05
6.86778e-05
6.86778e-05
6.86778e-05
6.9669e-05
6.9669e-05
6.9669e-05
6.94975e-05
6.94975e-05
6.94975e-05
6.99751e-05
6.99751e-05
6.99751e-05
6.99618e-05
6.99618e-05
6.99618e-05
6.96424e-05
6.96424e-05
6.96424e-05
6.47521e-05
6.47521e-05
6.47521e-05
6.52375e-05
6.52375e-05
6.52375e-05
6.49094e-05
6.49094e-05
6.49094e-05
6.43382e-05
6.43382e-05
6.43382e-05
6.49689e-05
6.49689e-05
6.49689e-05
6.47961e-05
6.47961e-05
6.47961e-05
6.44782e-05
6.44782e-05
6.44782e-05
6.47698e-05
6.47698e-05
6.47698e-05
6.52588e-05
6.52588e-05
6.52588e-05
6.49416e-05
6.49416e-05
6.49416e-05
6.54094e-05
6.54094e-05
6.54094e-05
6.65454e-05
6.65454e-05
6.65454e-05
6.59057e-05
6.59057e-05
6.59057e-05
6.62793e-05
6.62793e-05
6.62793e-05
6.59598e-05
6.59598e-05
6.59598e-05
6.70075e-05
6.70075e-05
6.70075e-05
7.05841e-05
7.05841e-05
7.05841e-05
7.09199e-05
7.09199e-05
7.09199e-05
7.09146e-05
7.09146e-05
7.09146e-05
6.9099e-05
6.9099e-05
6.9099e-05
6.94326e-05
6.94326e-05
6.94326e-05
6.99426e-05
6.99426e-05
6.99426e-05
7.00979e-05
7.00979e-05
7.00979e-05
6.9582e-05
6.9582e-05
6.9582e-05
6.93925e-05
6.93925e-05
6.93925e-05
8.72121e-05
8.72121e-05
8.72121e-05
8.63295e-05
8.63295e-05
8.63295e-05
8.51341e-05
8.51341e-05
8.51341e-05
8.48173e-05
8.48173e-05
8.48173e-05
8.15543e-05
8.15543e-05
8.15543e-05
8.27478e-05
8.27478e-05
8.27478e-05
8.36193e-05
8.36193e-05
8.36193e-05
7.42003e-05
7.42003e-05
7.42003e-05
9.41623e-05
9.41623e-05
9.41623e-05
9.29565e-05
9.29565e-05
9.29565e-05
8.93504e-05
8.93504e-05
8.93504e-05
9.05521e-05
9.05521e-05
9.05521e-05
0.00010312
0.00010312
0.00010312
0.000102834
0.000102834
0.000102834
0.000103891
0.000103891
0.000103891
0.000105236
0.000105236
0.000105236
0.000106325
0.000106325
0.000106325
0.000103673
0.000103673
0.000103673
0.000100736
0.000100736
0.000100736
9.80739e-05
9.80739e-05
9.80739e-05
9.83698e-05
9.83698e-05
9.83698e-05
9.96946e-05
9.96946e-05
9.96946e-05
7.11287e-05
7.11287e-05
7.11287e-05
7.19182e-05
7.19182e-05
7.19182e-05
6.9299e-05
6.9299e-05
6.9299e-05
6.76392e-05
6.76392e-05
6.76392e-05
6.6361e-05
6.6361e-05
6.6361e-05
6.54793e-05
6.54793e-05
6.54793e-05
6.80261e-05
6.80261e-05
6.80261e-05
6.58723e-05
6.58723e-05
6.58723e-05
6.71409e-05
6.71409e-05
6.71409e-05
6.85295e-05
6.85295e-05
6.85295e-05
6.59654e-05
6.59654e-05
6.59654e-05
6.51626e-05
6.51626e-05
6.51626e-05
5.4917e-05
5.4917e-05
5.4917e-05
6.42056e-05
6.42056e-05
6.42056e-05
5.61555e-05
5.61555e-05
5.61555e-05
7.97273e-05
7.97273e-05
7.97273e-05
7.2313e-05
7.2313e-05
7.2313e-05
7.13883e-05
7.13883e-05
7.13883e-05
7.29159e-05
7.29159e-05
7.29159e-05
7.45804e-05
7.45804e-05
7.45804e-05
7.42078e-05
7.42078e-05
7.42078e-05
6.77365e-05
6.77365e-05
6.77365e-05
7.79768e-05
7.79768e-05
7.79768e-05
7.49321e-05
7.49321e-05
7.49321e-05
7.40465e-05
7.40465e-05
7.40465e-05
7.28515e-05
7.28515e-05
7.28515e-05
7.20207e-05
7.20207e-05
7.20207e-05
6.96772e-05
6.96772e-05
6.96772e-05
7.29415e-05
7.29415e-05
7.29415e-05
7.04226e-05
7.04226e-05
7.04226e-05
9.98037e-05
9.98037e-05
9.98037e-05
9.85033e-05
9.85033e-05
9.85033e-05
8.03242e-05
8.03242e-05
8.03242e-05
8.29169e-05
8.29169e-05
8.29169e-05
8.19604e-05
8.19604e-05
8.19604e-05
8.06679e-05
8.06679e-05
8.06679e-05
8.713e-05
8.713e-05
8.713e-05
8.44474e-05
8.44474e-05
8.44474e-05
9.01138e-05
9.01138e-05
9.01138e-05
0.000102932
0.000102932
0.000102932
0.00010397
0.00010397
0.00010397
0.000104748
0.000104748
0.000104748
0.000102133
0.000102133
0.000102133
0.000102411
0.000102411
0.000102411
0.000103713
0.000103713
0.000103713
0.000105533
0.000105533
0.000105533
0.000105267
0.000105267
0.000105267
0.000103947
0.000103947
0.000103947
0.000102901
0.000102901
0.000102901
0.00010317
0.00010317
0.00010317
0.000104481
0.000104481
0.000104481
0.000110126
0.000110126
0.000110126
0.000108744
0.000108744
0.000108744
0.000107646
0.000107646
0.000107646
0.000110397
0.000110397
0.000110397
0.000107923
0.000107923
0.000107923
0.000109295
0.000109295
0.000109295
9.35805e-05
9.35805e-05
9.35805e-05
9.18253e-05
9.18253e-05
9.18253e-05
9.32306e-05
9.32306e-05
9.32306e-05
9.25293e-05
9.25293e-05
9.25293e-05
9.8522e-05
9.8522e-05
9.8522e-05
9.56992e-05
9.56992e-05
9.56992e-05
9.67718e-05
9.67718e-05
9.67718e-05
9.81885e-05
9.81885e-05
9.81885e-05
9.49811e-05
9.49811e-05
9.49811e-05
9.60422e-05
9.60422e-05
9.60422e-05
9.74483e-05
9.74483e-05
9.74483e-05
9.77827e-05
9.77827e-05
9.77827e-05
9.8009e-05
9.8009e-05
9.8009e-05
9.52597e-05
9.52597e-05
9.52597e-05
9.7692e-05
9.7692e-05
9.7692e-05
9.63122e-05
9.63122e-05
9.63122e-05
0.00010045
0.00010045
0.00010045
9.93842e-05
9.93842e-05
9.93842e-05
9.21542e-05
9.21542e-05
9.21542e-05
9.31833e-05
9.31833e-05
9.31833e-05
9.18274e-05
9.18274e-05
9.18274e-05
9.28724e-05
9.28724e-05
9.28724e-05
9.35502e-05
9.35502e-05
9.35502e-05
9.2171e-05
9.2171e-05
9.2171e-05
9.67445e-05
9.67445e-05
9.67445e-05
9.64403e-05
9.64403e-05
9.64403e-05
9.6547e-05
9.6547e-05
9.6547e-05
0.000101203
0.000101203
0.000101203
0.000101494
0.000101494
0.000101494
9.9112e-05
9.9112e-05
9.9112e-05
0.000100447
0.000100447
0.000100447
9.0778e-05
9.0778e-05
9.0778e-05
9.11347e-05
9.11347e-05
9.11347e-05
9.0091e-05
9.0091e-05
9.0091e-05
8.87021e-05
8.87021e-05
8.87021e-05
8.83457e-05
8.83457e-05
8.83457e-05
8.9378e-05
8.9378e-05
8.9378e-05
8.90172e-05
8.90172e-05
8.90172e-05
8.76123e-05
8.76123e-05
8.76123e-05
8.94182e-05
8.94182e-05
8.94182e-05
8.97685e-05
8.97685e-05
8.97685e-05
8.87419e-05
8.87419e-05
8.87419e-05
8.73739e-05
8.73739e-05
8.73739e-05
8.32725e-05
8.32725e-05
8.32725e-05
8.46403e-05
8.46403e-05
8.46403e-05
8.74227e-05
8.74227e-05
8.74227e-05
8.54279e-05
8.54279e-05
8.54279e-05
8.40063e-05
8.40063e-05
8.40063e-05
8.67216e-05
8.67216e-05
8.67216e-05
8.50039e-05
8.50039e-05
8.50039e-05
8.63668e-05
8.63668e-05
8.63668e-05
8.24917e-05
8.24917e-05
8.24917e-05
7.28544e-05
7.28544e-05
7.28544e-05
7.24609e-05
7.24609e-05
7.24609e-05
7.97158e-05
7.97158e-05
7.97158e-05
7.93373e-05
7.93373e-05
7.93373e-05
9.95017e-05
9.95017e-05
9.95017e-05
9.91839e-05
9.91839e-05
9.91839e-05
0.000101668
0.000101668
0.000101668
0.000100261
0.000100261
0.000100261
0.000102609
0.000102609
0.000102609
0.000101218
0.000101218
0.000101218
0.000103697
0.000103697
0.000103697
0.000100898
0.000100898
0.000100898
0.000103386
0.000103386
0.000103386
0.000101985
0.000101985
0.000101985
0.000103365
0.000103365
0.000103365
0.000106578
0.000106578
0.000106578
0.000105132
0.000105132
0.000105132
0.000107721
0.000107721
0.000107721
0.000104815
0.000104815
0.000104815