<VTKFile type="UnstructuredGrid" version="1.0">
<UnstructuredGrid>
<Piece NumberOfPoints="8859" NumberOfCells="2953">
<Points>
<DataArray type="Float64" NumberOfComponents="3" format="ascii">
3.01 0.5 1.995
3.01 0.487476 2.0175
3.01 0.512524 2.0175
3.01 0.17352 1.1175
3.01 0.148445 1.1175
3.01 0.160827 1.13922
3.01 0.122979 1.16089
3.01 0.135644 1.13922
3.01 0.110383 1.13921
3.01 0.135644 1.13922
3.01 0.123433 1.1175
3.01 0.110383 1.13921
3.01 0.123433 1.1175
3.01 0.135644 1.13922
3.01 0.148445 1.1175
3.01 0.135644 1.13922
3.01 0.160827 1.13922
3.01 0.148445 1.1175
3.01 0.17352 1.1175
3.01 0.185985 1.1392
3.01 0.198629 1.1175
3.01 0.185985 1.1392
3.01 0.17352 1.1175
3.01 0.160827 1.13922
3.01 0.0732297 1.16067
3.01 0.0848754 1.13914
3.01 0.0586606 1.13881
3.01 0.05 1.95027
3.01 0.058509 1.92756
3.01 0.05 1.9051
3.01 0.324276 1.1175
3.01 0.336827 1.13916
3.01 0.349395 1.1175
3.01 0.148138 1.1609
3.01 0.160827 1.13922
3.01 0.135644 1.13922
3.01 0.122979 1.16089
3.01 0.148138 1.1609
3.01 0.135644 1.13922
3.01 0.160827 1.13922
3.01 0.173316 1.16089
3.01 0.185985 1.1392
3.01 0.185806 1.18255
3.01 0.173316 1.16089
3.01 0.160572 1.18255
3.01 0.173316 1.16089
3.01 0.160827 1.13922
3.01 0.148138 1.1609
3.01 0.160572 1.18255
3.01 0.173316 1.16089
3.01 0.148138 1.1609
3.01 0.211137 1.13919
3.01 0.198629 1.1175
3.01 0.185985 1.1392
3.01 0.0979162 1.16084
3.01 0.122979 1.16089
3.01 0.110383 1.13921
3.01 0.122979 1.16089
3.01 0.0979162 1.16084
3.01 0.109875 1.18249
3.01 0.0732297 1.16067
3.01 0.0979162 1.16084
3.01 0.0848754 1.13914
3.01 0.0979162 1.16084
3.01 0.110383 1.13921
3.01 0.0848754 1.13914
3.01 0.0975729 1.20404
3.01 0.122678 1.20414
3.01 0.109875 1.18249
3.01 0.0841718 1.18235
3.01 0.0732297 1.16067
3.01 0.0577122 1.18202
3.01 0.0729308 1.20388
3.01 0.0841718 1.18235
3.01 0.0577122 1.18202
3.01 0.0732297 1.16067
3.01 0.0841718 1.18235
3.01 0.0979162 1.16084
3.01 0.0841718 1.18235
3.01 0.109875 1.18249
3.01 0.0979162 1.16084
3.01 0.0975729 1.20404
3.01 0.0841718 1.18235
3.01 0.0729308 1.20388
3.01 0.0841718 1.18235
3.01 0.0975729 1.20404
3.01 0.109875 1.18249
3.01 0.073948 1.1175
3.01 0.05 1.1175
3.01 0.0586606 1.13881
3.01 0.073948 1.1175
3.01 0.0586606 1.13881
3.01 0.0848754 1.13914
3.01 0.05 1.99329
3.01 0.0603641 1.97197
3.01 0.05 1.95027
3.01 0.0603641 1.97197
3.01 0.05 1.99329
3.01 0.0753197 1.99399
3.01 0.0709395 2.0175
3.01 0.05 1.99329
3.01 0.05 2.0175
3.01 0.05 1.99329
3.01 0.0709395 2.0175
3.01 0.0753197 1.99399
3.01 0.0579641 1.70463
3.01 0.05 1.68261
3.01 0.05 1.72669
3.01 0.0841948 1.6168
3.01 0.109814 1.6168
3.01 0.097638 1.59493
3.01 0.0841948 1.6168
3.01 0.0578646 1.6168
3.01 0.0730539 1.6387
3.01 0.0580261 1.7488
3.01 0.05 1.72669
3.01 0.05 1.77095
3.01 0.942292 1.31236
3.01 0.95 1.33404
3.01 0.95 1.29067
3.01 0.95 1.24726
3.01 0.942332 1.26897
3.01 0.95 1.29067
3.01 0.73872 1.52953
3.01 0.75132 1.50775
3.01 0.726137 1.50776
3.01 0.751305 1.55132
3.01 0.73872 1.52953
3.01 0.726124 1.55133
3.01 0.713546 1.52954
3.01 0.73872 1.52953
3.01 0.726137 1.50776
3.01 0.73872 1.52953
3.01 0.713546 1.52954
3.01 0.726124 1.55133
3.01 0.814318 1.57311
3.01 0.801709 1.5513
3.01 0.789096 1.57312
3.01 0.7765 1.55131
3.01 0.801709 1.5513
3.01 0.789115 1.52951
3.01 0.801709 1.5513
3.01 0.7765 1.55131
3.01 0.789096 1.57312
3.01 0.7765 1.55131
3.01 0.763892 1.57314
3.01 0.789096 1.57312
3.01 0.763892 1.57314
3.01 0.7765 1.55131
3.01 0.751305 1.55132
3.01 0.95 2.0175
3.01 0.95 1.99329
3.01 0.929061 2.0175
3.01 0.95 1.8154
3.01 0.941913 1.79315
3.01 0.926844 1.8154
3.01 0.941913 1.79315
3.01 0.95 1.8154
3.01 0.95 1.77095
3.01 0.926866 1.77094
3.01 0.941913 1.79315
3.01 0.95 1.77095
3.01 0.941974 1.7488
3.01 0.926866 1.77094
3.01 0.95 1.77095
3.01 0.95 1.72669
3.01 0.941974 1.7488
3.01 0.95 1.77095
3.01 0.941974 1.7488
3.01 0.95 1.72669
3.01 0.926895 1.72669
3.01 0.6127 2.0175
3.01 0.637734 2.0175
3.01 0.625238 1.99498
3.01 0.662757 2.0175
3.01 0.650275 1.99497
3.01 0.637734 2.0175
3.01 0.650275 1.99497
3.01 0.625238 1.99498
3.01 0.637734 2.0175
3.01 0.600415 1.55137
3.01 0.575304 1.55137
3.01 0.587856 1.5732
3.01 0.575304 1.55137
3.01 0.562749 1.5732
3.01 0.587856 1.5732
3.01 0.336827 1.13916
3.01 0.361946 1.13916
3.01 0.349395 1.1175
3.01 0.223755 1.1175
3.01 0.198629 1.1175
3.01 0.211137 1.13919
3.01 0.185985 1.1392
3.01 0.198492 1.16088
3.01 0.211137 1.13919
3.01 0.185806 1.18255
3.01 0.198492 1.16088
3.01 0.173316 1.16089
3.01 0.198492 1.16088
3.01 0.185985 1.1392
3.01 0.173316 1.16089
3.01 0.0576202 1.22553
3.01 0.05 1.20374
3.01 0.05 1.24726
3.01 0.05 1.20374
3.01 0.0576202 1.22553
3.01 0.0729308 1.20388
3.01 0.05 1.20374
3.01 0.0729308 1.20388
3.01 0.0577122 1.18202
3.01 0.135283 1.18254
3.01 0.122979 1.16089
3.01 0.109875 1.18249
3.01 0.135283 1.18254
3.01 0.109875 1.18249
3.01 0.122678 1.20414
3.01 0.122979 1.16089
3.01 0.135283 1.18254
3.01 0.148138 1.1609
3.01 0.135283 1.18254
3.01 0.160572 1.18255
3.01 0.148138 1.1609
3.01 0.123433 1.1175
3.01 0.0985513 1.1175
3.01 0.110383 1.13921
3.01 0.110383 1.13921
3.01 0.0985513 1.1175
3.01 0.0848754 1.13914
3.01 0.0848754 1.13914
3.01 0.0985513 1.1175
3.01 0.073948 1.1175
3.01 0.0603641 1.97197
3.01 0.0739464 1.94949
3.01 0.05 1.95027
3.01 0.0739464 1.94949
3.01 0.058509 1.92756
3.01 0.05 1.95027
3.01 0.058509 1.92756
3.01 0.0739464 1.94949
3.01 0.0849548 1.92711
3.01 0.058509 1.92756
3.01 0.0732725 1.90488
3.01 0.05 1.9051
3.01 0.0732725 1.90488
3.01 0.058509 1.92756
3.01 0.0849548 1.92711
3.01 0.5 1.995
3.01 0.47495 1.995
3.01 0.487476 2.0175
3.01 0.097663 1.6387
3.01 0.109814 1.6168
3.01 0.0841948 1.6168
3.01 0.0730539 1.6387
3.01 0.097663 1.6387
3.01 0.0841948 1.6168
3.01 0.0578646 1.6168
3.01 0.05 1.6387
3.01 0.0730539 1.6387
3.01 0.05 1.6387
3.01 0.0578646 1.6168
3.01 0.05 1.59492
3.01 0.05 1.8154
3.01 0.0580869 1.79315
3.01 0.05 1.77095
3.01 0.05 1.77095
3.01 0.073134 1.77094
3.01 0.0580261 1.7488
3.01 0.073134 1.77094
3.01 0.05 1.77095
3.01 0.0580869 1.79315
3.01 0.942268 1.35573
3.01 0.95 1.37741
3.01 0.95 1.33404
3.01 0.942292 1.31236
3.01 0.927025 1.33404
3.01 0.95 1.33404
3.01 0.927025 1.33404
3.01 0.915919 1.35572
3.01 0.942268 1.35573
3.01 0.95 1.33404
3.01 0.927025 1.33404
3.01 0.942268 1.35573
3.01 0.927013 1.37741
3.01 0.95 1.37741
3.01 0.942268 1.35573
3.01 0.915919 1.35572
3.01 0.927013 1.37741
3.01 0.942268 1.35573
3.01 0.801738 1.46425
3.01 0.826957 1.46425
3.01 0.814364 1.44253
3.01 0.852174 1.46424
3.01 0.839609 1.44252
3.01 0.826957 1.46425
3.01 0.839609 1.44252
3.01 0.814364 1.44253
3.01 0.826957 1.46425
3.01 0.776516 1.50775
3.01 0.763923 1.486
3.01 0.75132 1.50775
3.01 0.776516 1.50775
3.01 0.789115 1.52951
3.01 0.801725 1.50774
3.01 0.738704 1.57315
3.01 0.763892 1.57314
3.01 0.751305 1.55132
3.01 0.726124 1.55133
3.01 0.738704 1.57315
3.01 0.751305 1.55132
3.01 0.915617 1.79314
3.01 0.926866 1.77094
3.01 0.902228 1.77094
3.01 0.926866 1.77094
3.01 0.915617 1.79314
3.01 0.941913 1.79315
3.01 0.915617 1.79314
3.01 0.926844 1.8154
3.01 0.941913 1.79315
3.01 0.915617 1.79314
3.01 0.902193 1.81538
3.01 0.926844 1.8154
3.01 0.926866 1.77094
3.01 0.915668 1.74879
3.01 0.902228 1.77094
3.01 0.902267 1.72668
3.01 0.915668 1.74879
3.01 0.926895 1.72669
3.01 0.915668 1.74879
3.01 0.926866 1.77094
3.01 0.941974 1.7488
3.01 0.926895 1.72669
3.01 0.915668 1.74879
3.01 0.941974 1.7488
3.01 0.902267 1.72668
3.01 0.890059 1.74879
3.01 0.915668 1.74879
3.01 0.890059 1.74879
3.01 0.902228 1.77094
3.01 0.915668 1.74879
3.01 0.826927 1.55129
3.01 0.801709 1.5513
3.01 0.814318 1.57311
3.01 0.864816 1.6168
3.01 0.890186 1.6168
3.01 0.877308 1.59493
3.01 0.877308 1.59493
3.01 0.852122 1.59494
3.01 0.864816 1.6168
3.01 0.890186 1.6168
3.01 0.902362 1.59493
3.01 0.877308 1.59493
3.01 0.902362 1.59493
3.01 0.890186 1.6168
3.01 0.915805 1.6168
3.01 0.902362 1.59493
3.01 0.915805 1.6168
3.01 0.926964 1.59492
3.01 0.915835 1.57309
3.01 0.902362 1.59493
3.01 0.926964 1.59492
3.01 0.942171 1.57309
3.01 0.915835 1.57309
3.01 0.926964 1.59492
3.01 0.915835 1.57309
3.01 0.942171 1.57309
3.01 0.926978 1.55127
3.01 0.942171 1.57309
3.01 0.95 1.55127
3.01 0.926978 1.55127
3.01 0.87737 1.42081
3.01 0.902417 1.4208
3.01 0.890277 1.39911
3.01 0.852144 1.55128
3.01 0.864842 1.57309
3.01 0.877329 1.55128
3.01 0.877308 1.59493
3.01 0.864842 1.57309
3.01 0.852122 1.59494
3.01 0.902396 1.50772
3.01 0.890234 1.52949
3.01 0.915858 1.52948
3.01 0.926997 1.46423
3.01 0.95 1.46423
3.01 0.942237 1.44251
3.01 0.91589 1.44251
3.01 0.926997 1.46423
3.01 0.942237 1.44251
3.01 0.942199 1.52948
3.01 0.95 1.55127
3.01 0.95 1.50771
3.01 0.95 1.55127
3.01 0.942199 1.52948
3.01 0.926978 1.55127
3.01 0.942199 1.52948
3.01 0.915858 1.52948
3.01 0.926978 1.55127
3.01 0.95 1.46423
3.01 0.942221 1.48597
3.01 0.95 1.50771
3.01 0.942221 1.48597
3.01 0.95 1.46423
3.01 0.926997 1.46423
3.01 0.915876 1.48597
3.01 0.942221 1.48597
3.01 0.926997 1.46423
3.01 0.926989 1.50771
3.01 0.902396 1.50772
3.01 0.915858 1.52948
3.01 0.902396 1.50772
3.01 0.926989 1.50771
3.01 0.915876 1.48597
3.01 0.926989 1.50771
3.01 0.915858 1.52948
3.01 0.942199 1.52948
3.01 0.95 1.50771
3.01 0.926989 1.50771
3.01 0.942199 1.52948
3.01 0.915876 1.48597
3.01 0.926989 1.50771
3.01 0.942221 1.48597
3.01 0.926989 1.50771
3.01 0.95 1.50771
3.01 0.942221 1.48597
3.01 0.91353 1.97185
3.01 0.939636 1.97197
3.01 0.926054 1.94949
3.01 0.926728 1.90488
3.01 0.941491 1.92756
3.01 0.95 1.9051
3.01 0.926728 1.90488
3.01 0.95 1.9051
3.01 0.941822 1.88254
3.01 0.95 1.95027
3.01 0.939636 1.97197
3.01 0.95 1.99329
3.01 0.95 1.95027
3.01 0.941491 1.92756
3.01 0.926054 1.94949
3.01 0.939636 1.97197
3.01 0.95 1.95027
3.01 0.926054 1.94949
3.01 0.941491 1.92756
3.01 0.95 1.95027
3.01 0.95 1.9051
3.01 0.941869 1.83772
3.01 0.95 1.8154
3.01 0.926844 1.8154
3.01 0.762942 1.97228
3.01 0.737933 1.97234
3.01 0.75028 1.99489
3.01 0.71291 1.97239
3.01 0.737933 1.97234
3.01 0.725533 1.94985
3.01 0.71291 1.97239
3.01 0.725313 1.99492
3.01 0.737933 1.97234
3.01 0.725313 1.99492
3.01 0.75028 1.99489
3.01 0.737933 1.97234
3.01 0.737693 2.0175
3.01 0.725313 1.99492
[...]
<PointData Scalars="View Factor" >
<DataArray type="Float64" Name="View Factor" NumberOfComponents="1" format="ascii">
0.000876912
0.000876912
0.000876912
0.000564287
0.000564287
0.000564287
0.000570362
0.000570362
0.000570362
0.000566414
0.000566414
0.000566414
0.000564401
0.000564401
0.000564401
0.000566309
0.000566309
0.000566309
0.000564153
0.000564153
0.000564153
0.000566184
0.000566184
0.000566184
0.00057045
0.00057045
0.00057045
0.000846154
0.000846154
0.000846154
0.000562953
0.000562953
0.000562953
0.000570257
0.000570257
0.000570257
0.000572298
0.000572298
0.000572298
0.00057013
0.00057013
0.00057013
0.000578115
0.000578115
0.000578115
0.000572181
0.000572181
0.000572181
0.000576174
0.000576174
0.000576174
0.000566039
0.000566039
0.000566039
0.000572387
0.000572387
0.000572387
0.000576377
0.000576377
0.000576377
0.000572437
0.000572437
0.000572437
0.000570436
0.000570436
0.000570436
0.000584451
0.000584451
0.000584451
0.000578419
0.000578419
0.000578419
0.000582454
0.000582454
0.000582454
0.00057642
0.00057642
0.00057642
0.000578409
0.000578409
0.000578409
0.000584491
0.000584491
0.000584491
0.000582445
0.000582445
0.000582445
0.000564588
0.000564588
0.000564588
0.000566521
0.000566521
0.000566521
0.00086626
0.00086626
0.00086626
0.000872992
0.000872992
0.000872992
0.000883817
0.000883817
0.000883817
0.000880088
0.000880088
0.000880088
0.000753132
0.000753132
0.000753132
0.000717199
0.000717199
0.000717199
0.00072264
0.00072264
0.00072264
0.000770502
0.000770502
0.000770502
0.000603125
0.000603125
0.000603125
0.000590603
0.000590603
0.000590603
0.000673062
0.000673062
0.000673062
0.000682908
0.000682908
0.000682908
0.000675872
0.000675872
0.000675872
0.000680799
0.000680799
0.000680799
0.000688431
0.000688431
0.000688431
0.000681355
0.000681355
0.000681355
0.000686333
0.000686333
0.000686333
0.000689245
0.000689245
0.000689245
0.000687131
0.000687131
0.000687131
0.000858433
0.000858433
0.000858433
0.00077294
0.00077294
0.00077294
0.000766721
0.000766721
0.000766721
0.00076125
0.00076125
0.00076125
0.0007555
0.0007555
0.0007555
0.000749482
0.000749482
0.000749482
0.000744187
0.000744187
0.000744187
0.000872848
0.000872848
0.000872848
0.000871929
0.000871929
0.000871929
0.000868914
0.000868914
0.000868914
0.000692003
0.000692003
0.000692003
0.000694844
0.000694844
0.000694844
0.000564772
0.000564772
0.000564772
0.000564001
0.000564001
0.000564001
0.000569982
0.000569982
0.000569982
0.000576035
0.000576035
0.000576035
0.000572042
0.000572042
0.000572042
0.000592761
0.000592761
0.000592761
0.000588606
0.000588606
0.000588606
0.000584489
0.000584489
0.000584489
0.000578344
0.000578344
0.000578344
0.000582383
0.000582383
0.000582383
0.00057629
0.00057629
0.00057629
0.000578243
0.000578243
0.000578243
0.000564494
0.000564494
0.000564494
0.000566491
0.000566491
0.000566491
0.000564562
0.000564562
0.000564562
0.000859528
0.000859528
0.000859528
0.000852794
0.000852794
0.000852794
0.000849264
0.000849264
0.000849264
0.00083938
0.00083938
0.00083938
0.000842601
0.000842601
0.000842601
0.000873766
0.000873766
0.000873766
0.000722546
0.000722546
0.000722546
0.000725289
0.000725289
0.000725289
0.000725368
0.000725368
0.000725368
0.000720013
0.000720013
0.000720013
0.000788452
0.000788452
0.000788452
0.000776393
0.000776393
0.000776393
0.000782376
0.000782376
0.000782376
0.000615973
0.000615973
0.000615973
0.000607614
0.000607614
0.000607614
0.000614421
0.000614421
0.000614421
0.0006119
0.0006119
0.0006119
0.000620584
0.000620584
0.000620584
0.000618767
0.000618767
0.000618767
0.000651713
0.000651713
0.000651713
0.000650927
0.000650927
0.000650927
0.000648995
0.000648995
0.000648995
0.000667471
0.000667471
0.000667471
0.000671543
0.000671543
0.000671543
0.000690034
0.000690034
0.000690034
0.000687903
0.000687903
0.000687903
0.000762328
0.000762328
0.000762328
0.000764655
0.000764655
0.000764655
0.000770506
0.000770506
0.000770506
0.000774041
0.000774041
0.000774041
0.000756566
0.000756566
0.000756566
0.00074523
0.00074523
0.00074523
0.000753144
0.000753144
0.000753144
0.000747482
0.000747482
0.000747482
0.000748554
0.000748554
0.000748554
0.000754227
0.000754227
0.000754227
0.000685511
0.000685511
0.000685511
0.000701049
0.000701049
0.000701049
0.000698944
0.000698944
0.000698944
0.000698022
0.000698022
0.000698022
0.000700105
0.000700105
0.000700105
0.000697081
0.000697081
0.000697081
0.000692001
0.000692001
0.000692001
0.000688981
0.000688981
0.000688981
0.000683981
0.000683981
0.000683981
0.000681073
0.000681073
0.000681073
0.00063555
0.00063555
0.00063555
0.000683795
0.000683795
0.000683795
0.000693844
0.000693844
0.000693844
0.000670187
0.000670187
0.000670187
0.000647593
0.000647593
0.000647593
0.000645679
0.000645679
0.000645679
0.000670995
0.000670995
0.000670995
0.000676151
0.000676151
0.000676151
0.000674128
0.000674128
0.000674128
0.000656658
0.000656658
0.000656658
0.000652241
0.000652241
0.000652241
0.000654983
0.000654983
0.000654983
0.000667339
0.000667339
0.000667339
0.000662548
0.000662548
0.000662548
0.000669273
0.000669273
0.000669273
0.00066645
0.00066645
0.00066645
0.000659701
0.000659701
0.000659701
0.000661668
0.000661668
0.000661668
0.000839162
0.000839162
0.000839162
0.000816004
0.000816004
0.000816004
0.000809637
0.000809637
0.000809637
0.000841408
0.000841408
0.000841408
0.00082889
0.00082889
0.00082889
0.000835384
0.000835384
0.000835384
0.000822097
0.000822097
0.000822097
0.000778885
0.000778885
0.000778885
0.000854156
0.000854156
0.000854156
0.000848435
0.000848435
0.000848435
0.000855206
0.000855206
0.000855206
0.000858098
0.000858098
0.000858098
0.000868969
0.000868969
0.000868969
0.000864977
0.000864977
0.000864977
0.000867914
0.000867914
0.000867914
0.000827677
0.000827677
0.000827677
0.000835116
0.000835116
0.000835116
0.000845583
0.000845583
0.000845583
0.000838919
0.000838919
0.000838919
0.00084751
0.00084751
0.00084751
0.000840828
0.000840828
0.000840828
0.0008629
0.0008629
0.0008629
0.000869811
0.000869811
0.000869811
0.000873731
0.000873731
0.000873731
0.000687361
0.000687361
0.000687361
0.000694234
0.000694234
0.000694234
0.000710961
0.000710961
0.000710961
0.000715635
0.000715635
0.000715635
0.000710358
0.000710358
0.000710358
0.000708043
0.000708043
0.000708043
0.000699963
0.000699963
0.000699963
0.000702842
0.000702842
0.000702842
0.000716245
0.000716245
0.000716245
0.000718604
0.000718604
0.000718604
0.000749133
0.000749133
0.000749133
0.000707677
0.000707677
0.000707677
0.000705429
0.000705429
0.000705429
0.000693479
0.000693479
0.000693479
0.000703727
0.000703727
0.000703727
0.000563428
0.000563428
0.000563428
0.000563638
0.000563638
0.000563638
0.00056549
0.00056549
0.00056549
0.000569424
0.000569424
0.000569424
0.000559189
0.000559189
0.000559189
0.000657175
0.000657175
0.000657175
0.000666708
0.000666708
0.000666708
0.00065992
0.00065992
0.00065992
0.00066469
0.00066469
0.00066469
0.000665438
0.000665438
0.000665438
0.000668211
0.000668211
0.000668211
0.000571294
0.000571294
0.000571294
0.000562686
0.000562686
0.000562686
0.000558525
0.000558525
0.000558525
0.000627692
0.000627692
0.000627692
0.000625608
0.000625608
0.000625608
0.000580399
0.000580399
0.000580399
0.000568464
0.000568464
0.000568464
0.000572396
0.000572396
0.000572396
0.000576381
0.000576381
0.000576381
0.000852491
0.000852491
0.000852491
0.000877618
0.000877618
0.000877618
0.000758835
0.000758835
0.000758835
0.000764624
0.000764624
0.000764624
0.00073072
0.00073072
0.00073072
0.000596338
0.000596338
0.000596338
0.000758635
0.000758635
0.000758635
0.000764421
0.000764421
0.000764421
0.000714489
0.000714489
0.000714489
0.00071708
0.00071708
0.00071708
0.000709327
0.000709327
0.000709327
0.000714593
0.000714593
0.000714593
0.00071467
0.00071467
0.00071467
0.000717292
0.000717292
0.000717292
0.000704209
0.000704209
0.000704209
0.000709403
0.000709403
0.000709403
0.000706757
0.000706757
0.000706757
0.000701569
0.000701569
0.000701569
0.000699026
0.000699026
0.000699026
0.000678844
0.000678844
0.000678844
0.000675947
0.000675947
0.000675947
0.000621383
0.000621383
0.000621383
0.000656404
0.000656404
0.000656404
0.000659157
0.000659157
0.000659157
0.000663919
0.000663919
0.000663919
0.000648202
0.000648202
0.000648202
0.00065012
0.00065012
0.00065012
0.000633695
0.000633695
0.000633695
0.000605843
0.000605843
0.000605843
0.000626543
0.000626543
0.000626543
0.000672315
0.000672315
0.000672315
0.000682144
0.000682144
0.000682144
0.00067928
0.00067928
0.00067928
0.000674369
0.000674369
0.000674369
0.000675133
0.000675133
0.000675133
0.000680052
0.000680052
0.000680052
0.0006951
0.0006951
0.0006951
0.000698044
0.000698044
0.000698044
0.000690798
0.000690798
0.000690798
0.000695873
0.000695873
0.000695873
0.000712179
0.000712179
0.000712179
0.000714433
0.000714433
0.000714433
0.000700257
0.000700257
0.000700257
0.000705268
0.000705268
0.000705268
0.000746266
0.000746266
0.000746266
0.000741684
0.000741684
0.000741684
0.000740678
0.000740678
0.000740678
0.000738405
0.000738405
0.000738405
0.000843505
0.000843505
0.000843505
0.000847392
0.000847392
0.000847392
0.000844563
0.000844563
0.000844563
0.000837908
0.000837908
0.000837908
0.000808358
0.000808358
0.000808358
0.000824295
0.000824295
0.000824295
0.000830796
0.000830796
0.000830796
0.00079539
0.00079539
0.00079539
0.000802646
0.000802646
0.000802646
0.000791788
0.000791788
0.000791788
0.000665921
0.000665921
0.000665921
0.000687591
0.000687591
0.000687591
0.000684665
0.000684665
0.000684665
0.000686728
0.000686728
0.000686728
0.000691757
0.000691757
0.000691757
0.00070715
0.00070715
0.00070715
0.000701967
0.000701967
0.000701967
0.000681991
0.000681991
0.000681991
0.000677961
0.000677961
0.000677961
0.000677059
0.000677059
0.000677059
0.000675052
0.000675052
0.000675052
0.000691063
0.000691063
0.000691063
0.000685752
0.000685752
0.000685752
0.000660597
0.000660597
0.000660597
0.000654795
0.000654795
0.000654795
0.000656727
0.000656727
0.000656727
0.000641949
0.000641949
0.000641949
0.000647386
0.000647386
0.000647386
0.000640088
0.000640088
0.000640088
0.000642781
0.000642781
0.000642781
0.000632881
0.000632881
0.000632881
0.000628408
0.000628408
0.000628408
0.000625792
0.000625792
0.000625792
0.000849581
0.000849581
0.000849581
0.000844034
0.000844034
0.000844034
0.000848326
0.000848326
0.000848326
0.000845762
0.000845762
0.000845762
0.000855329
0.000855329
0.000855329
0.000836487
0.000836487
0.000836487
0.000817081
0.000817081
0.000817081
0.000829939
0.000829939
0.000829939
0.000826121
0.000826121
0.000826121
0.000819708
0.000819708
0.000819708
0.000811513
0.000811513
0.000811513
0.000801568
0.000801568
0.000801568
0.000805227
0.000805227
0.000805227
0.000804131
0.000804131
0.000804131
0.000779994
0.000779994
0.000779994
0.000782404
0.000782404
0.000782404
0.000807004
0.000807004
0.000807004
0.000810744
0.000810744
0.000810744
0.000850408
0.000850408
0.000850408
0.00084944
0.00084944
0.00084944
0.000846565
0.000846565
0.000846565
0.00086999
0.00086999
0.00086999
0.000866014
0.000866014
0.000866014
0.000859131
0.000859131
0.000859131
0.000856217
0.000856217
0.000856217
0.000860484
0.000860484
0.000860484
0.000850781
0.000850781
0.000850781
0.00085359
0.00085359
0.00085359
0.000864558
0.000864558
0.000864558
0.000857027
0.000857027
0.000857027
0.000863905
0.000863905
0.000863905
0.000828565
0.000828565
0.000828565
0.000825807
0.000825807
0.000825807
0.000782975
0.000782975
0.000782975
0.000779541
0.000779541
0.000779541
0.000795908
0.000795908
0.000795908
0.000819358
0.000819358
0.000819358
0.000815677
0.000815677
0.000815677
0.000821207
0.000821207
0.000821207
0.00079948
0.00079948
0.00079948
0.000805711
0.000805711
0.000805711
0.000809337
0.000809337
0.000809337
0.000806667
0.000806667
0.000806667
0.000836103
0.000836103
0.000836103
0.000830482
0.000830482
0.000830482
0.000837053
0.000837053
0.000837053
0.000839892
0.000839892
0.000839892
0.00082676
0.00082676
0.00082676
0.000829542
0.000829542
0.000829542
0.000851338
0.000851338
0.000851338
0.000858131
0.000858131
0.000858131
0.000862011
0.000862011
0.000862011
0.000859033
0.000859033
0.000859033
0.000837966
0.000837966
0.000837966
0.000831386
0.000831386
0.000831386
0.000828558
0.000828558
0.000828558
0.000774179
0.000774179
0.000774179
0.000768284
0.000768284
0.000768284
0.000677605
0.000677605
0.000677605
0.000697704
0.000697704
0.000697704
0.000675273
0.000675273
0.000675273
0.000677852
0.000677852
0.000677852
0.000700134
0.000700134
0.000700134
0.000690105
0.000690105
0.000690105
0.000687806
0.000687806
0.000687806
0.000713575
0.000713575
0.000713575
0.000710709
0.000710709
0.000710709
0.000705005
0.000705005
0.000705005
0.000718887
0.000718887
0.000718887
0.000721791
0.000721791
0.000721791
0.000727189
0.000727189
0.000727189
0.000729678
0.000729678
0.000729678
0.000691384
0.000691384
0.000691384
0.000699346
0.000699346
0.000699346
0.000702235
0.000702235
0.000702235
0.000707429
0.000707429
0.000707429
0.000709728
0.000709728
0.000709728
0.000738155
0.000738155
0.000738155
0.000735158
0.000735158
0.000735158
0.000719204
0.000719204
0.000719204
0.000723968
0.000723968
0.000723968
0.000713106
0.000713106
0.000713106
0.000710229
0.000710229
0.000710229
0.000736638
0.000736638
0.000736638
0.000733606
0.000733606
0.000733606
0.000713643
0.000713643
0.000713643
0.000708387
0.000708387
0.000708387
0.00070893
0.00070893
0.00070893
0.00075349
0.00075349
0.00075349
0.000563829
0.000563829
0.000563829
0.000565692
0.000565692
0.000565692
0.000565875
0.000565875
0.000565875
0.000586732
0.000586732
0.000586732
0.000578384
0.000578384
0.000578384
0.000582658
0.000582658
0.000582658
0.00056021
0.00056021
0.00056021
0.000555316
0.000555316
0.000555316
0.000557002
0.000557002
0.000557002
0.000657922
0.000657922
0.000657922
0.000660659
0.000660659
0.000660659
0.000658646
0.000658646
0.000658646
0.000653931
0.000653931
0.000653931
0.000666161
0.000666161
0.000666161
0.000661375
0.000661375
0.000661375
0.00056527
0.00056527
0.00056527
0.000569201
0.000569201
0.000569201
0.0005632
0.0005632
0.0005632
0.00056503
0.00056503
0.00056503
0.000568697
0.000568697
0.000568697
0.000570533
0.000570533
0.000570533
0.000574508
0.000574508
0.000574508
0.000574213
0.000574213
0.000574213
0.000576362
0.000576362
0.000576362
0.00058256
0.00058256
0.00058256
0.000580387
0.000580387
0.000580387
0.000561775
0.000561775
0.000561775
0.000560692
0.000560692
0.000560692
0.000632173
0.000632173
0.000632173
0.00064126
0.00064126
0.00064126
0.0005685
0.0005685
0.0005685
0.00057151
0.00057151
0.00057151
0.000575496
0.000575496
0.000575496
0.000569629
0.000569629
0.000569629
0.000808952
0.000808952
0.000808952
0.000821085
0.000821085
0.000821085
0.000841588
0.000841588
0.000841588
0.000841809
0.000841809
0.000841809
0.000838383
0.000838383
0.000838383
0.00082217
0.00082217
0.00082217
0.000831801
0.000831801
0.000831801
0.000828645
0.000828645
0.000828645
0.000838146
0.000838146
0.000838146
0.000849045
0.000849045
0.000849045
0.000832752
0.000832752
0.000832752
0.000826247
0.000826247
0.000826247
0.000874451
0.000874451
0.000874451
0.0008575
0.0008575
0.0008575
0.000864359
0.000864359
0.000864359
0.00086749
0.00086749
0.00086749
0.000843996
0.000843996
0.000843996
0.000858686
0.000858686
0.000858686
0.00086556
0.00086556
0.00086556
0.000755826
0.000755826
0.000755826
0.000758749
0.000758749
0.000758749
0.000755928
0.000755928
0.000755928
0.00077339
0.00077339
0.00077339
0.000767506
0.000767506
0.000767506
0.000776304
0.000776304
0.000776304
0.000773284
0.000773284
0.000773284
0.000764537
0.000764537
0.000764537
0.000767401
0.000767401
0.000767401
0.000733407
0.000733407
0.000733407
0.0007388
0.0007388
0.0007388
0.000736312
0.000736312
0.000736312
0.0007308
0.0007308
0.0007308
0.000733504
0.000733504
0.000733504
0.000596939
0.000596939
0.000596939
0.000629161
0.000629161
0.000629161
0.000620288
0.000620288
0.000620288
0.00064181
0.00064181
0.00064181
0.000646422
0.000646422
0.000646422
0.000645433
0.000645433
0.000645433
0.000659506
0.000659506
0.000659506
0.000664267
0.000664267
0.000664267
0.000631741
0.000631741
0.000631741
0.000627179
0.000627179
0.000627179
0.000622737
0.000622737
0.000622737
0.000627243
0.000627243
0.000627243
0.000629452
0.000629452
0.000629452
0.000626988
0.000626988
0.000626988
0.000622551
0.000622551
0.000622551
0.000616111
0.000616111
0.000616111
0.000620493
0.000620493
0.000620493
0.000622654
0.000622654
0.000622654
0.000620401
0.000620401
0.000620401
0.000600538
0.000600538
0.000600538
0.000776184
0.000776184
0.000776184
0.000782162
0.000782162
0.000782162
0.000725183
0.000725183
0.000725183
0.000722426
0.000722426
0.000722426
0.000730612
0.000730612
0.000730612
0.000733285
0.000733285
0.000733285
0.000714359
0.000714359
0.000714359
0.000673978
0.000673978
0.000673978
0.00067149
0.00067149
0.00067149
0.00066909
0.00066909
0.00066909
0.000669021
0.000669021
0.000669021
0.000671406
0.000671406
0.000671406
0.000698951
0.000698951
0.000698951
0.000693841
0.000693841
0.000693841
0.000676055
0.000676055
0.000676055
0.000709224
0.000709224
0.000709224
0.000698851
0.000698851
0.000698851
0.000706667
0.000706667
0.000706667
0.00070148
0.00070148
0.00070148
0.00062025
0.00062025
0.00062025
0.000624654
0.000624654
0.000624654
0.000644373
0.000644373
0.000644373
0.000626596
0.000626596
0.000626596
0.000629214
0.000629214
0.000629214
0.0006409
0.0006409
0.0006409
0.000636353
0.000636353
0.000636353
0.000643588
0.000643588
0.000643588
0.000641691
0.000641691
0.000641691
0.00064246
0.00064246
0.00064246
0.000637898
0.000637898
0.000637898
0.000612683
0.000612683
0.000612683
0.000608389
0.000608389
0.000608389
0.000697254
0.000697254
0.000697254
0.000694302
0.000694302
0.000694302
0.000696439
0.000696439
0.000696439
0.000701568
0.000701568
0.000701568
0.000704569
0.000704569
0.000704569
0.000702392
0.000702392
0.000702392
0.000698808
0.000698808
0.000698808
0.000703963
0.000703963
0.000703963
0.00070471
0.00070471
0.00070471
0.000706939
0.000706939
0.000706939
0.00068865
0.00068865
0.00068865
0.000681521
0.000681521
0.000681521
0.000683647
0.000683647
0.000683647
0.000712924
0.000712924
0.000712924
0.000715197
0.000715197
0.000715197
0.000715933
0.000715933
0.000715933
0.00074546
0.00074546
0.00074546
0.000751103
0.000751103
0.000751103
0.000717676
0.000717676
0.000717676
0.000707396
0.000707396
0.000707396
0.000706222
0.000706222
0.000706222
0.000708357
0.000708357
0.000708357
0.0007093
0.0007093
0.0007093
0.000714557
0.000714557
0.000714557
0.000731893
0.000731893
0.000731893
0.000739652
0.000739652
0.000739652
0.000737387
0.000737387
0.000737387
0.000757625
0.000757625
0.000757625
0.000771622
0.000771622
0.000771622
0.000765761
0.000765761
0.000765761
0.000763397
0.000763397
0.000763397
0.000766833
0.000766833
0.000766833
0.000785715
0.000785715
0.000785715
0.000835772
0.000835772
0.000835772
0.000841274
0.000841274
0.000841274
0.000834649
0.000834649
0.000834649
0.000831929
0.000831929
0.000831929
0.000833028
0.000833028
0.000833028
0.000834091
0.000834091
0.000834091
0.000836859
0.000836859
0.000836859
0.000826499
0.000826499
0.000826499
0.000833494
0.000833494
0.000833494
0.000842845
0.000842845
0.000842845
0.000840107
0.000840107
0.000840107
0.000829637
0.000829637
0.000829637
0.000815233
0.000815233
0.000815233
0.000821631
0.000821631
0.000821631
0.000825413
0.000825413
0.000825413
0.000822727
0.000822727
0.000822727
0.000783538
0.000783538
0.000783538
0.000789592
0.000789592
0.000789592
0.000794306
0.000794306
0.000794306
0.000800471
0.000800471
0.000800471
0.000793209
0.000793209
0.000793209
0.0007907
0.0007907
0.0007907
0.000670748
0.000670748
0.000670748
0.000680542
0.000680542
0.000680542
0.000678483
0.000678483
0.000678483
0.000673581
0.000673581
0.000673581
0.000679705
0.000679705
0.000679705
0.000669928
0.000669928
0.000669928
0.000677662
0.000677662
0.000677662
0.000672769
0.000672769
0.000672769
0.000676817
0.000676817
0.000676817
0.000671933
0.000671933
0.000671933
0.00065837
0.00065837
0.00065837
0.000663124
0.000663124
0.000663124
0.00066511
0.00066511
0.00066511
0.000655611
0.000655611
0.000655611
0.00065756