<VTKFile type="UnstructuredGrid" version="1.0">
<UnstructuredGrid>
<Piece NumberOfPoints="8859" NumberOfCells="2953">
<Points>
<DataArray type="Float64" NumberOfComponents="3" format="ascii">
2.04744 2.20956 16.5876
2.06275 2.19425 16.5996
2.04754 2.20946 16.6133
2.07804 2.17896 16.5367
2.07805 2.17895 16.5115
2.0934 2.1636 16.524
2.06271 2.19429 16.5494
2.07804 2.17896 16.5367
2.07804 2.17896 16.5619
2.01701 2.23999 16.6399
2.03242 2.22458 16.6475
2.00164 2.25536 16.6475
2.01701 2.23999 16.6399
2.03232 2.22468 16.6246
2.03242 2.22458 16.6475
2.04777 2.20923 16.6398
2.06326 2.19374 16.6475
2.03242 2.22458 16.6475
2.04777 2.20923 16.6398
2.03232 2.22468 16.6246
2.04754 2.20946 16.6133
2.03242 2.22458 16.6475
2.03232 2.22468 16.6246
2.04777 2.20923 16.6398
2.04754 2.20946 16.6133
2.06275 2.19425 16.5996
2.06287 2.19413 16.6243
2.06287 2.19413 16.6243
2.04777 2.20923 16.6398
2.04754 2.20946 16.6133
2.06326 2.19374 16.6475
2.04777 2.20923 16.6398
2.06287 2.19413 16.6243
2.06275 2.19425 16.5996
2.04744 2.20956 16.5876
2.06271 2.19429 16.5745
2.06271 2.19429 16.5494
2.07804 2.17896 16.5619
2.06271 2.19429 16.5745
2.07809 2.17891 16.6126
2.06287 2.19413 16.6243
2.06275 2.19425 16.5996
2.0934 2.1636 16.5989
2.0934 2.1636 16.6236
2.07809 2.17891 16.6126
2.0934 2.1636 16.4989
2.0934 2.1636 16.524
2.07805 2.17895 16.5115
2.07804 2.17896 16.5367
2.0934 2.1636 16.524
2.0934 2.1636 16.5491
2.0934 2.1636 16.5491
2.07804 2.17896 16.5619
2.07804 2.17896 16.5367
2.0934 2.1636 15.9715
2.0934 2.1636 15.9967
2.07807 2.17893 15.9841
2.07807 2.17893 16.4361
2.0934 2.1636 16.4486
2.07806 2.17894 16.4612
2.0934 2.1636 16.4235
2.0934 2.1636 16.4486
2.07807 2.17893 16.4361
2.07808 2.17892 16.3104
2.0934 2.1636 16.323
2.07808 2.17892 16.3356
1.61564 2.64136 15.7556
1.63134 2.62566 15.7475
1.63134 2.62566 15.7706
1.5683 2.6887 16.6475
1.53648 2.72052 16.6475
1.55243 2.70457 16.6393
2.07804 2.17896 16.5871
2.06271 2.19429 16.5745
2.07804 2.17896 16.5619
2.06275 2.19425 16.5996
2.06271 2.19429 16.5745
2.07804 2.17896 16.5871
2.07804 2.17896 16.5871
2.07809 2.17891 16.6126
2.06275 2.19425 16.5996
2.0934 2.1636 16.5989
2.07809 2.17891 16.6126
2.07804 2.17896 16.5871
2.07833 2.17867 16.6388
2.0934 2.1636 16.6236
2.0934 2.1636 16.6475
2.07833 2.17867 16.6388
2.07809 2.17891 16.6126
2.0934 2.1636 16.6236
2.0934 2.1636 16.6475
2.06326 2.19374 16.6475
2.07833 2.17867 16.6388
2.06326 2.19374 16.6475
2.06287 2.19413 16.6243
2.07833 2.17867 16.6388
2.06287 2.19413 16.6243
2.07809 2.17891 16.6126
2.07833 2.17867 16.6388
2.07806 2.17894 16.4612
2.0934 2.1636 16.4486
2.0934 2.1636 16.4737
2.07804 2.17896 16.5619
2.0934 2.1636 16.5491
2.0934 2.1636 16.5741
2.0934 2.1636 16.5989
2.07804 2.17896 16.5871
2.0934 2.1636 16.5741
2.0934 2.1636 16.5741
2.07804 2.17896 16.5871
2.07804 2.17896 16.5619
2.0934 2.1636 16.2979
2.0934 2.1636 16.323
2.07808 2.17892 16.3104
2.07807 2.17893 15.9841
2.0934 2.1636 15.9967
2.07807 2.17893 16.0092
2.06275 2.19425 16.4235
2.04743 2.20957 16.411
2.06275 2.19425 16.3984
2.07806 2.17894 16.4864
2.0934 2.1636 16.4989
2.07805 2.17895 16.5115
2.07806 2.17894 16.4864
2.0934 2.1636 16.4737
2.0934 2.1636 16.4989
2.07806 2.17894 16.4864
2.06273 2.19427 16.4738
2.07806 2.17894 16.4612
2.07806 2.17894 16.4612
2.0934 2.1636 16.4737
2.07806 2.17894 16.4864
2.06271 2.19429 16.5242
2.07804 2.17896 16.5367
2.06271 2.19429 16.5494
2.06271 2.19429 16.5242
2.07805 2.17895 16.5115
2.07804 2.17896 16.5367
2.04741 2.20959 16.4865
2.03209 2.22491 16.4991
2.0321 2.2249 16.4739
1.83285 2.42415 16.6134
1.81747 2.43953 16.5999
1.83285 2.42415 16.5877
1.78664 2.47036 16.4488
1.78664 2.47036 16.474
1.77121 2.48579 16.4614
2.0934 2.1636 15.7475
2.0934 2.1636 15.7714
2.07833 2.17867 15.7562
1.56833 2.68867 16.6243
1.5683 2.6887 16.6475
1.55243 2.70457 16.6393
1.63134 2.62566 16.5495
1.61565 2.64135 16.5621
1.61564 2.64136 16.5369
1.55243 2.70457 16.6393
1.53648 2.72052 16.6475
1.53664 2.72036 16.6242
2.06276 2.19424 16.072
2.04745 2.20955 16.0594
2.06276 2.19424 16.0469
2.0934 2.1636 16.2226
2.07808 2.17892 16.21
2.0934 2.1636 16.1975
2.07808 2.17892 16.2602
2.0934 2.1636 16.2477
2.0934 2.1636 16.2728
2.06277 2.19423 16.1724
2.04745 2.20955 16.185
2.04745 2.20955 16.1599
2.06277 2.19423 16.1975
2.04745 2.20955 16.185
2.06277 2.19423 16.1724
2.07808 2.17892 16.21
2.06277 2.19423 16.2226
2.06277 2.19423 16.1975
2.04745 2.20955 16.3356
2.06276 2.19424 16.3481
2.04744 2.20956 16.3607
2.01682 2.24018 16.3105
2.01682 2.24018 16.3356
2.0015 2.2555 16.323
2.04745 2.20955 16.3105
2.03214 2.22486 16.2979
2.04745 2.20955 16.2853
2.04745 2.20955 16.2853
2.06277 2.19423 16.2979
2.04745 2.20955 16.3105
2.03214 2.22486 16.2979
2.03214 2.22486 16.2728
2.04745 2.20955 16.2853
2.04745 2.20955 16.2853
2.03214 2.22486 16.2728
2.04745 2.20955 16.2602
2.0934 2.1636 16.2728
2.0934 2.1636 16.2979
2.07808 2.17892 16.2853
2.07808 2.17892 16.2853
2.07808 2.17892 16.2602
2.0934 2.1636 16.2728
2.07808 2.17892 16.2853
2.0934 2.1636 16.2979
2.07808 2.17892 16.3104
2.07808 2.17892 16.3104
2.06277 2.19423 16.2979
2.07808 2.17892 16.2853
2.04744 2.20956 16.3858
2.03213 2.22487 16.3733
2.04744 2.20956 16.3607
2.04744 2.20956 16.3858
2.06275 2.19425 16.3984
2.04743 2.20957 16.411
2.0015 2.2555 16.3733
2.01681 2.24019 16.3607
2.01681 2.24019 16.3859
2.01681 2.24019 16.3859
2.01681 2.24019 16.3607
2.03213 2.22487 16.3733
2.0934 2.1636 16.3481
2.07808 2.17892 16.3356
2.0934 2.1636 16.323
2.04744 2.20956 16.3607
2.06276 2.19424 16.3481
2.06276 2.19424 16.3732
2.06276 2.19424 16.3732
2.04744 2.20956 16.3858
2.04744 2.20956 16.3607
2.06275 2.19425 16.3984
2.04744 2.20956 16.3858
2.06276 2.19424 16.3732
2.07806 2.17894 16.4612
2.06273 2.19427 16.4738
2.06274 2.19426 16.4487
2.06274 2.19426 16.4487
2.07807 2.17893 16.4361
2.07806 2.17894 16.4612
2.06275 2.19425 16.4235
2.07807 2.17893 16.4361
2.06274 2.19426 16.4487
2.0321 2.2249 16.4739
2.03211 2.22489 16.4488
2.04742 2.20958 16.4613
2.04742 2.20958 16.4613
2.04741 2.20959 16.4865
2.0321 2.2249 16.4739
2.06273 2.19427 16.4738
2.04741 2.20959 16.4865
2.04742 2.20958 16.4613
2.04742 2.20958 16.4613
2.06274 2.19426 16.4487
2.06273 2.19427 16.4738
2.01679 2.24021 16.4614
2.03211 2.22489 16.4488
2.0321 2.2249 16.4739
2.01679 2.24021 16.4614
2.00148 2.25552 16.474
2.00148 2.25552 16.4488
2.06271 2.19429 16.5494
2.06271 2.19429 16.5745
2.04741 2.20959 16.5622
2.04741 2.20959 16.5622
2.06271 2.19429 16.5745
2.04744 2.20956 16.5876
2.03209 2.22491 16.4991
2.04741 2.20959 16.4865
2.0474 2.2096 16.5117
2.0474 2.2096 16.5117
2.03209 2.22491 16.5244
2.03209 2.22491 16.4991
1.97087 2.28613 16.3482
1.95555 2.30145 16.3607
1.95555 2.30145 16.3356
2.00148 2.25552 16.4488
2.00149 2.25551 16.4236
2.0168 2.2402 16.4362
2.0168 2.2402 16.4362
2.01679 2.24021 16.4614
2.00148 2.25552 16.4488
2.03211 2.22489 16.4488
2.01679 2.24021 16.4614
2.0168 2.2402 16.4362
2.03211 2.22489 16.4236
2.03211 2.22489 16.4488
2.0168 2.2402 16.4362
1.86358 2.39342 16.5878
1.86358 2.39342 16.6134
1.84822 2.40878 16.5999
1.84822 2.40878 16.5999
1.86358 2.39342 16.6134
1.84822 2.40878 16.6245
1.84822 2.40878 16.5999
1.84822 2.40878 16.6245
1.83285 2.42415 16.6134
1.83285 2.42415 16.6134
1.83285 2.42415 16.5877
1.84822 2.40878 16.5999
1.81747 2.43953 16.5748
1.83285 2.42415 16.5877
1.81747 2.43953 16.5999
1.80202 2.45498 16.21
1.80202 2.45498 16.2351
1.7866 2.4704 16.2226
1.70922 2.54778 16.3356
1.69367 2.56333 16.323
1.70922 2.54778 16.3104
1.70924 2.54776 16.3858
1.6937 2.5633 16.3984
1.69369 2.56331 16.3732
1.63134 2.62566 16.5495
1.61564 2.64136 16.5369
1.63132 2.62568 16.5242
1.63135 2.62565 16.5747
1.61565 2.64135 16.5621
1.63134 2.62566 16.5495
1.69376 2.56324 16.4991
1.69378 2.56322 16.5243
1.6782 2.5788 16.5117
1.59983 2.65717 16.4486
1.61554 2.64146 16.436
1.61557 2.64143 16.4612
1.59973 2.65727 16.348
1.58397 2.67303 16.3606
1.58396 2.67304 16.3355
1.61564 2.64136 16.6394
1.63134 2.62566 16.6475
1.5999 2.6571 16.6475
1.63134 2.62566 16.6244
1.63134 2.62566 16.6475
1.61564 2.64136 16.6394
1.647 2.61 16.6395
1.63134 2.62566 16.6475
1.63134 2.62566 16.6244
1.59993 2.65707 16.5746
1.59992 2.65708 16.5997
1.58418 2.67282 16.5875
1.84822 2.40878 16.6475
1.81747 2.43953 16.6475
1.83285 2.42415 16.6397
1.83285 2.42415 16.6134
1.84822 2.40878 16.6245
1.83285 2.42415 16.6397
1.83285 2.42415 16.6397
1.84822 2.40878 16.6245
1.84822 2.40878 16.6475
1.81747 2.43953 16.6245
1.81747 2.43953 16.5999
1.83285 2.42415 16.6134
1.83285 2.42415 16.6134
1.83285 2.42415 16.6397
1.81747 2.43953 16.6245
1.81747 2.43953 16.6245
1.83285 2.42415 16.6397
1.81747 2.43953 16.6475
1.70931 2.54769 16.5118
1.69378 2.56322 16.5243
1.69376 2.56324 16.4991
1.7712 2.4858 16.4362
1.78663 2.47037 16.4236
1.78664 2.47036 16.4488
1.78664 2.47036 16.4488
1.77121 2.48579 16.4614
1.7712 2.4858 16.4362
1.77122 2.48578 16.4866
1.77121 2.48579 16.4614
1.78664 2.47036 16.474
1.77122 2.48578 16.4866
1.78664 2.47036 16.474
1.78665 2.47035 16.4992
1.78665 2.47035 16.4992
1.77123 2.48577 16.5118
1.77122 2.48578 16.4866
1.77122 2.48578 16.4866
1.77123 2.48577 16.5118
1.75578 2.50122 16.4992
1.78666 2.47034 16.5244
1.77123 2.48577 16.5118
1.78665 2.47035 16.4992
1.78666 2.47034 16.5496
1.77124 2.48576 16.5623
1.77124 2.48576 16.5371
1.77124 2.48576 16.5371
1.78666 2.47034 16.5244
1.78666 2.47034 16.5496
1.77123 2.48577 16.5118
1.78666 2.47034 16.5244
1.77124 2.48576 16.5371
2.07809 2.17891 15.7824
2.07833 2.17867 15.7562
2.0934 2.1636 15.7714
2.06287 2.19413 15.7707
2.07833 2.17867 15.7562
2.07809 2.17891 15.7824
1.94028 2.31672 15.7705
1.94028 2.31672 15.7475
1.95561 2.30139 15.7552
2.00164 2.25536 15.7475
1.98629 2.27071 15.7552
1.97095 2.28605 15.7475
1.97095 2.28605 15.7475
1.95561 2.30139 15.7552
1.94028 2.31672 15.7475
1.48928 2.76772 15.784
1.48919 2.76781 15.7579
1.50509 2.75191 15.7714
1.50509 2.75191 15.7714
1.5206 2.7364 15.756
1.52092 2.73608 15.7825
1.47362 2.78338 15.7728
1.48919 2.76781 15.7579
1.48928 2.76772 15.784
1.47362 2.78338 15.7728
1.47412 2.78288 15.7475
1.48919 2.76781 15.7579
1.56833 2.68867 15.7707
[...]
<PointData Scalars="View Factor" >
<DataArray type="Float64" Name="View Factor" NumberOfComponents="1" format="ascii">
1.43511e-06
1.43511e-06
1.43511e-06
1.43657e-06
1.43657e-06
1.43657e-06
1.43611e-06
1.43611e-06
1.43611e-06
1.44037e-06
1.44037e-06
1.44037e-06
1.438e-06
1.438e-06
1.438e-06
1.42975e-06
1.42975e-06
1.42975e-06
1.43432e-06
1.43432e-06
1.43432e-06
1.43425e-06
1.43425e-06
1.43425e-06
1.4312e-06
1.4312e-06
1.4312e-06
1.43062e-06
1.43062e-06
1.43062e-06
1.42701e-06
1.42701e-06
1.42701e-06
1.4354e-06
1.4354e-06
1.4354e-06
1.43589e-06
1.43589e-06
1.43589e-06
1.42752e-06
1.42752e-06
1.42752e-06
1.42018e-06
1.42018e-06
1.42018e-06
1.43679e-06
1.43679e-06
1.43679e-06
1.43261e-06
1.43261e-06
1.43261e-06
1.43238e-06
1.43238e-06
1.43238e-06
1.52822e-06
1.52822e-06
1.52822e-06
1.4492e-06
1.4492e-06
1.4492e-06
1.44943e-06
1.44943e-06
1.44943e-06
1.47057e-06
1.47057e-06
1.47057e-06
2.79699e-06
2.79699e-06
2.79699e-06
2.75565e-06
2.75565e-06
2.75565e-06
1.43173e-06
1.43173e-06
1.43173e-06
1.4317e-06
1.4317e-06
1.4317e-06
1.42792e-06
1.42792e-06
1.42792e-06
1.42423e-06
1.42423e-06
1.42423e-06
1.41606e-06
1.41606e-06
1.41606e-06
1.41982e-06
1.41982e-06
1.41982e-06
1.41839e-06
1.41839e-06
1.41839e-06
1.42336e-06
1.42336e-06
1.42336e-06
1.42347e-06
1.42347e-06
1.42347e-06
1.4452e-06
1.4452e-06
1.4452e-06
1.42845e-06
1.42845e-06
1.42845e-06
1.42431e-06
1.42431e-06
1.42431e-06
1.42802e-06
1.42802e-06
1.42802e-06
1.47081e-06
1.47081e-06
1.47081e-06
1.52795e-06
1.52795e-06
1.52795e-06
1.46509e-06
1.46509e-06
1.46509e-06
1.44076e-06
1.44076e-06
1.44076e-06
1.44099e-06
1.44099e-06
1.44099e-06
1.44875e-06
1.44875e-06
1.44875e-06
1.44498e-06
1.44498e-06
1.44498e-06
1.44008e-06
1.44008e-06
1.44008e-06
1.44031e-06
1.44031e-06
1.44031e-06
1.45987e-06
1.45987e-06
1.45987e-06
1.89073e-06
1.89073e-06
1.89073e-06
2.07112e-06
2.07112e-06
2.07112e-06
1.56954e-06
1.56954e-06
1.56954e-06
2.72372e-06
2.72372e-06
2.72372e-06
2.5654e-06
2.5654e-06
2.5654e-06
2.79081e-06
2.79081e-06
2.79081e-06
1.52662e-06
1.52662e-06
1.52662e-06
1.48818e-06
1.48818e-06
1.48818e-06
1.47946e-06
1.47946e-06
1.47946e-06
1.50867e-06
1.50867e-06
1.50867e-06
1.50428e-06
1.50428e-06
1.50428e-06
1.49596e-06
1.49596e-06
1.49596e-06
1.47778e-06
1.47778e-06
1.47778e-06
1.49764e-06
1.49764e-06
1.49764e-06
1.49035e-06
1.49035e-06
1.49035e-06
1.48647e-06
1.48647e-06
1.48647e-06
1.49448e-06
1.49448e-06
1.49448e-06
1.49493e-06
1.49493e-06
1.49493e-06
1.47513e-06
1.47513e-06
1.47513e-06
1.47922e-06
1.47922e-06
1.47922e-06
1.47489e-06
1.47489e-06
1.47489e-06
1.47874e-06
1.47874e-06
1.47874e-06
1.4773e-06
1.4773e-06
1.4773e-06
1.46915e-06
1.46915e-06
1.46915e-06
1.48889e-06
1.48889e-06
1.48889e-06
1.48502e-06
1.48502e-06
1.48502e-06
1.46651e-06
1.46651e-06
1.46651e-06
1.4737e-06
1.4737e-06
1.4737e-06
1.47346e-06
1.47346e-06
1.47346e-06
1.46939e-06
1.46939e-06
1.46939e-06
1.45276e-06
1.45276e-06
1.45276e-06
1.45299e-06
1.45299e-06
1.45299e-06
1.45701e-06
1.45701e-06
1.45701e-06
1.46415e-06
1.46415e-06
1.46415e-06
1.46011e-06
1.46011e-06
1.46011e-06
1.45631e-06
1.45631e-06
1.45631e-06
1.45655e-06
1.45655e-06
1.45655e-06
1.46796e-06
1.46796e-06
1.46796e-06
1.47543e-06
1.47543e-06
1.47543e-06
1.43962e-06
1.43962e-06
1.43962e-06
1.43955e-06
1.43955e-06
1.43955e-06
1.45584e-06
1.45584e-06
1.45584e-06
1.4556e-06
1.4556e-06
1.4556e-06
1.51282e-06
1.51282e-06
1.51282e-06
1.48015e-06
1.48015e-06
1.48015e-06
1.47586e-06
1.47586e-06
1.47586e-06
1.47203e-06
1.47203e-06
1.47203e-06
1.47227e-06
1.47227e-06
1.47227e-06
1.79278e-06
1.79278e-06
1.79278e-06
1.80628e-06
1.80628e-06
1.80628e-06
1.83888e-06
1.83888e-06
1.83888e-06
1.85807e-06
1.85807e-06
1.85807e-06
1.90966e-06
1.90966e-06
1.90966e-06
2.07844e-06
2.07844e-06
2.07844e-06
2.35981e-06
2.35981e-06
2.35981e-06
2.35976e-06
2.35976e-06
2.35976e-06
2.55237e-06
2.55237e-06
2.55237e-06
2.54539e-06
2.54539e-06
2.54539e-06
2.3586e-06
2.3586e-06
2.3586e-06
2.63018e-06
2.63018e-06
2.63018e-06
2.73054e-06
2.73054e-06
2.73054e-06
2.55431e-06
2.55431e-06
2.55431e-06
2.52321e-06
2.52321e-06
2.52321e-06
2.48998e-06
2.48998e-06
2.48998e-06
2.63791e-06
2.63791e-06
2.63791e-06
1.86414e-06
1.86414e-06
1.86414e-06
1.85281e-06
1.85281e-06
1.85281e-06
1.83388e-06
1.83388e-06
1.83388e-06
1.90437e-06
1.90437e-06
1.90437e-06
1.88539e-06
1.88539e-06
1.88539e-06
1.89908e-06
1.89908e-06
1.89908e-06
2.32516e-06
2.32516e-06
2.32516e-06
2.07764e-06
2.07764e-06
2.07764e-06
2.09086e-06
2.09086e-06
2.09086e-06
2.08513e-06
2.08513e-06
2.08513e-06
2.06502e-06
2.06502e-06
2.06502e-06
2.07871e-06
2.07871e-06
2.07871e-06
2.11193e-06
2.11193e-06
2.11193e-06
2.05923e-06
2.05923e-06
2.05923e-06
2.06666e-06
2.06666e-06
2.06666e-06
2.05306e-06
2.05306e-06
2.05306e-06
2.07233e-06
2.07233e-06
2.07233e-06
1.56942e-06
1.56942e-06
1.56942e-06
1.57355e-06
1.57355e-06
1.57355e-06
1.67309e-06
1.67309e-06
1.67309e-06
1.61242e-06
1.61242e-06
1.61242e-06
1.63854e-06
1.63854e-06
1.63854e-06
3.25602e-06
3.25602e-06
3.25602e-06
3.18248e-06
3.18248e-06
3.18248e-06
3.29276e-06
3.29276e-06
3.29276e-06
3.31489e-06
3.31489e-06
3.31489e-06
2.98204e-06
2.98204e-06
2.98204e-06
2.83642e-06
2.83642e-06
2.83642e-06
2.94786e-06
2.94786e-06
2.94786e-06
3.24917e-06
3.24917e-06
3.24917e-06
3.2259e-06
3.2259e-06
3.2259e-06
2.58943e-06
2.58943e-06
2.58943e-06
2.65097e-06
2.65097e-06
2.65097e-06
2.63066e-06
2.63066e-06
2.63066e-06
2.78653e-06
2.78653e-06
2.78653e-06
2.76511e-06
2.76511e-06
2.76511e-06
2.68273e-06
2.68273e-06
2.68273e-06
1.53249e-06
1.53249e-06
1.53249e-06
1.49696e-06
1.49696e-06
1.49696e-06
1.51763e-06
1.51763e-06
1.51763e-06
1.51717e-06
1.51717e-06
1.51717e-06
1.52212e-06
1.52212e-06
1.52212e-06
1.52186e-06
1.52186e-06
1.52186e-06
1.52583e-06
1.52583e-06
1.52583e-06
1.53008e-06
1.53008e-06
1.53008e-06
1.53034e-06
1.53034e-06
1.53034e-06
1.52636e-06
1.52636e-06
1.52636e-06
2.0331e-06
2.0331e-06
2.0331e-06
2.0481e-06
2.0481e-06
2.0481e-06
2.07172e-06
2.07172e-06
2.07172e-06
1.53461e-06
1.53461e-06
1.53461e-06
1.5237e-06
1.5237e-06
1.5237e-06
1.54884e-06
1.54884e-06
1.54884e-06
1.61614e-06
1.61614e-06
1.61614e-06
1.50546e-06
1.50546e-06
1.50546e-06
1.6109e-06
1.6109e-06
1.6109e-06
1.53084e-06
1.53084e-06
1.53084e-06
1.5353e-06
1.5353e-06
1.5353e-06
1.56734e-06
1.56734e-06
1.56734e-06
1.58201e-06
1.58201e-06
1.58201e-06
1.51261e-06
1.51261e-06
1.51261e-06
1.49256e-06
1.49256e-06
1.49256e-06
1.49231e-06
1.49231e-06
1.49231e-06
1.49621e-06
1.49621e-06
1.49621e-06
1.50037e-06
1.50037e-06
1.50037e-06
1.50062e-06
1.50062e-06
1.50062e-06
1.49671e-06
1.49671e-06
1.49671e-06
1.79125e-06
1.79125e-06
1.79125e-06
1.77658e-06
1.77658e-06
1.77658e-06
1.59134e-06
1.59134e-06
1.59134e-06
1.57185e-06
1.57185e-06
1.57185e-06
1.58645e-06
1.58645e-06
1.58645e-06
1.62051e-06
1.62051e-06
1.62051e-06
1.78181e-06
1.78181e-06
1.78181e-06
1.80183e-06
1.80183e-06
1.80183e-06
1.83027e-06
1.83027e-06
1.83027e-06
1.79605e-06
1.79605e-06
1.79605e-06
1.6255e-06
1.6255e-06
1.6255e-06
1.64005e-06
1.64005e-06
1.64005e-06
1.47417e-06
1.47417e-06
1.47417e-06
1.47802e-06
1.47802e-06
1.47802e-06
1.48212e-06
1.48212e-06
1.48212e-06
1.47441e-06
1.47441e-06
1.47441e-06
1.4785e-06
1.4785e-06
1.4785e-06
1.48236e-06
1.48236e-06
1.48236e-06
1.49375e-06
1.49375e-06
1.49375e-06
1.48599e-06
1.48599e-06
1.48599e-06
1.49011e-06
1.49011e-06
1.49011e-06
1.49399e-06
1.49399e-06
1.49399e-06
1.51412e-06
1.51412e-06
1.51412e-06
1.51084e-06
1.51084e-06
1.51084e-06
1.51477e-06
1.51477e-06
1.51477e-06
1.48308e-06
1.48308e-06
1.48308e-06
1.49109e-06
1.49109e-06
1.49109e-06
1.4872e-06
1.4872e-06
1.4872e-06
1.49104e-06
1.49104e-06
1.49104e-06
1.48671e-06
1.48671e-06
1.48671e-06
1.48284e-06
1.48284e-06
1.48284e-06
1.4814e-06
1.4814e-06
1.4814e-06
1.48526e-06
1.48526e-06
1.48526e-06
1.48938e-06
1.48938e-06
1.48938e-06
1.48164e-06
1.48164e-06
1.48164e-06
1.48962e-06
1.48962e-06
1.48962e-06
1.48574e-06
1.48574e-06
1.48574e-06
1.49327e-06
1.49327e-06
1.49327e-06
1.4972e-06
1.4972e-06
1.4972e-06
1.5011e-06
1.5011e-06
1.5011e-06
1.49322e-06
1.49322e-06
1.49322e-06
1.47706e-06
1.47706e-06
1.47706e-06
1.48092e-06
1.48092e-06
1.48092e-06
1.47298e-06
1.47298e-06
1.47298e-06
1.47274e-06
1.47274e-06
1.47274e-06
1.48865e-06
1.48865e-06
1.48865e-06
1.4699e-06
1.4699e-06
1.4699e-06
1.46607e-06
1.46607e-06
1.46607e-06
1.46222e-06
1.46222e-06
1.46222e-06
1.46986e-06
1.46986e-06
1.46986e-06
1.45368e-06
1.45368e-06
1.45368e-06
1.46128e-06
1.46128e-06
1.46128e-06
1.45345e-06
1.45345e-06
1.45345e-06
1.45724e-06
1.45724e-06
1.45724e-06
1.45794e-06
1.45794e-06
1.45794e-06
1.46218e-06
1.46218e-06
1.46218e-06
1.466e-06
1.466e-06
1.466e-06
1.46556e-06
1.46556e-06
1.46556e-06
1.46151e-06
1.46151e-06
1.46151e-06
1.45771e-06
1.45771e-06
1.45771e-06
1.46844e-06
1.46844e-06
1.46844e-06
1.46081e-06
1.46081e-06
1.46081e-06
1.46439e-06
1.46439e-06
1.46439e-06
1.46058e-06
1.46058e-06
1.46058e-06
1.46868e-06
1.46868e-06
1.46868e-06
1.46486e-06
1.46486e-06
1.46486e-06
1.46367e-06
1.46367e-06
1.46367e-06
1.46772e-06
1.46772e-06
1.46772e-06
1.47155e-06
1.47155e-06
1.47155e-06
1.44383e-06
1.44383e-06
1.44383e-06
1.45115e-06
1.45115e-06
1.45115e-06
1.44782e-06
1.44782e-06
1.44782e-06
1.45159e-06
1.45159e-06
1.45159e-06
1.44339e-06
1.44339e-06
1.44339e-06
1.44714e-06
1.44714e-06
1.44714e-06
1.43862e-06
1.43862e-06
1.43862e-06
1.43882e-06
1.43882e-06
1.43882e-06
1.442e-06
1.442e-06
1.442e-06
1.44236e-06
1.44236e-06
1.44236e-06
1.4463e-06
1.4463e-06
1.4463e-06
1.44729e-06
1.44729e-06
1.44729e-06
1.4466e-06
1.4466e-06
1.4466e-06
1.44328e-06
1.44328e-06
1.44328e-06
1.44285e-06
1.44285e-06
1.44285e-06
1.45206e-06
1.45206e-06
1.45206e-06
1.44452e-06
1.44452e-06
1.44452e-06
1.44429e-06
1.44429e-06
1.44429e-06
1.44806e-06
1.44806e-06
1.44806e-06
1.44852e-06
1.44852e-06
1.44852e-06
1.45229e-06
1.45229e-06
1.45229e-06
1.75066e-06
1.75066e-06
1.75066e-06
1.77032e-06
1.77032e-06
1.77032e-06
1.64975e-06
1.64975e-06
1.64975e-06
1.71701e-06
1.71701e-06
1.71701e-06
1.50864e-06
1.50864e-06
1.50864e-06
1.76714e-06
1.76714e-06
1.76714e-06
1.80138e-06
1.80138e-06
1.80138e-06
1.78749e-06
1.78749e-06
1.78749e-06
2.09235e-06
2.09235e-06
2.09235e-06
2.04422e-06
2.04422e-06
2.04422e-06
1.84491e-06
1.84491e-06
1.84491e-06
1.82538e-06
1.82538e-06
1.82538e-06
2.38104e-06
2.38104e-06
2.38104e-06
2.48843e-06
2.48843e-06
2.48843e-06
2.37339e-06
2.37339e-06
2.37339e-06
2.5466e-06
2.5466e-06
2.5466e-06
2.59454e-06
2.59454e-06
2.59454e-06
2.58121e-06
2.58121e-06
2.58121e-06
2.57316e-06
2.57316e-06
2.57316e-06
2.55838e-06
2.55838e-06
2.55838e-06
2.5919e-06
2.5919e-06
2.5919e-06
2.60438e-06
2.60438e-06
2.60438e-06
2.51879e-06
2.51879e-06
2.51879e-06
2.5062e-06
2.5062e-06
2.5062e-06
2.45189e-06
2.45189e-06
2.45189e-06
2.47262e-06
2.47262e-06
2.47262e-06
2.47374e-06
2.47374e-06
2.47374e-06
2.43998e-06
2.43998e-06
2.43998e-06
2.54125e-06
2.54125e-06
2.54125e-06
2.57515e-06
2.57515e-06
2.57515e-06
2.59615e-06
2.59615e-06
2.59615e-06
2.45446e-06
2.45446e-06
2.45446e-06
2.42542e-06
2.42542e-06
2.42542e-06
2.45899e-06
2.45899e-06
2.45899e-06
2.65096e-06
2.65096e-06
2.65096e-06
2.63799e-06
2.63799e-06
2.63799e-06
2.61158e-06
2.61158e-06
2.61158e-06
2.71709e-06
2.71709e-06
2.71709e-06
2.4542e-06
2.4542e-06
2.4542e-06
2.35533e-06
2.35533e-06
2.35533e-06
2.59901e-06
2.59901e-06
2.59901e-06
2.61217e-06
2.61217e-06
2.61217e-06
1.96277e-06
1.96277e-06
1.96277e-06
1.93164e-06
1.93164e-06
1.93164e-06
2.14325e-06
2.14325e-06
2.14325e-06
2.15666e-06
2.15666e-06
2.15666e-06
2.04998e-06
2.04998e-06
2.04998e-06
2.1467e-06
2.1467e-06
2.1467e-06
2.13197e-06
2.13197e-06
2.13197e-06
2.11844e-06
2.11844e-06
2.11844e-06
2.09967e-06
2.09967e-06
2.09967e-06
2.16593e-06
2.16593e-06
2.16593e-06
1.57506e-06
1.57506e-06
1.57506e-06
1.57771e-06
1.57771e-06
1.57771e-06
1.59433e-06
1.59433e-06
1.59433e-06
1.5946e-06
1.5946e-06
1.5946e-06
1.60034e-06
1.60034e-06
1.60034e-06
3.13144e-06
3.13144e-06
3.13144e-06
3.14555e-06
3.14555e-06
3.14555e-06
3.05877e-06
3.05877e-06
3.05877e-06
3.09408e-06
3.09408e-06
3.09408e-06
3.0714e-06
3.0714e-06
3.0714e-06
3.01927e-06
3.01927e-06
3.01927e-06
3.03423e-06
3.03423e-06
3.03423e-06
3.01021e-06
3.01021e-06
3.01021e-06
3.1955e-06
3.1955e-06
3.1955e-06
3.24582e-06
3.24582e-06
3.24582e-06
3.23237e-06
3.23237e-06
3.23237e-06
3.24237e-06
3.24237e-06
3.24237e-06
3.20572e-06
3.20572e-06
3.20572e-06
3.28157e-06
3.28157e-06
3.28157e-06
3.17146e-06
3.17146e-06
3.17146e-06
2.91501e-06
2.91501e-06
2.91501e-06
2.94206e-06
2.94206e-06
2.94206e-06
2.87053e-06
2.87053e-06
2.87053e-06
3.23212e-06
3.23212e-06
3.23212e-06
3.24166e-06
3.24166e-06
3.24166e-06
3.21874e-06
3.21874e-06
3.21874e-06
3.16982e-06
3.16982e-06
3.16982e-06
3.18288e-06
3.18288e-06
3.18288e-06
3.2801e-06
3.2801e-06
3.2801e-06
3.14295e-06
3.14295e-06
3.14295e-06
3.17196e-06
3.17196e-06
3.17196e-06
2.99979e-06
2.99979e-06
2.99979e-06
2.97747e-06
2.97747e-06
2.97747e-06
3.06627e-06
3.06627e-06
3.06627e-06
3.02983e-06
3.02983e-06
3.02983e-06
3.13929e-06
3.13929e-06
3.13929e-06
3.17586e-06
3.17586e-06
3.17586e-06
3.18931e-06
3.18931e-06
3.18931e-06
2.9394e-06
2.9394e-06
2.9394e-06
3.29945e-06
3.29945e-06
3.29945e-06
3.30914e-06
3.30914e-06
3.30914e-06
3.2859e-06
3.2859e-06
3.2859e-06
2.47893e-06
2.47893e-06
2.47893e-06
2.45817e-06
2.45817e-06
2.45817e-06
2.65232e-06
2.65232e-06
2.65232e-06
2.41602e-06
2.41602e-06
2.41602e-06
2.40234e-06
2.40234e-06
2.40234e-06
2.4233e-06
2.4233e-06
2.4233e-06
2.25032e-06
2.25032e-06
2.25032e-06
2.29132e-06
2.29132e-06
2.29132e-06
2.73858e-06
2.73858e-06
2.73858e-06
2.72496e-06
2.72496e-06
2.72496e-06
2.54302e-06
2.54302e-06
2.54302e-06
2.57636e-06
2.57636e-06
2.57636e-06
2.59719e-06
2.59719e-06
2.59719e-06
2.58362e-06
2.58362e-06
2.58362e-06
2.62281e-06
2.62281e-06
2.62281e-06
2.64338e-06
2.64338e-06
2.64338e-06
2.65411e-06
2.65411e-06
2.65411e-06
2.69013e-06
2.69013e-06
2.69013e-06
2.67688e-06
2.67688e-06
2.67688e-06
3.16632e-06
3.16632e-06
3.16632e-06
3.15705e-06
3.15705e-06
3.15705e-06
3.14416e-06
3.14416e-06
3.14416e-06
2.77849e-06
2.77849e-06
2.77849e-06
2.80422e-06
2.80422e-06
2.80422e-06
2.82603e-06
2.82603e-06
2.82603e-06
2.81309e-06
2.81309e-06
2.81309e-06
2.8824e-06
2.8824e-06
2.8824e-06
2.8735e-06
2.8735e-06
2.8735e-06
2.86063e-06
2.86063e-06
2.86063e-06
2.9081e-06
2.9081e-06
2.9081e-06
2.66973e-06
2.66973e-06
2.66973e-06
2.64328e-06
2.64328e-06
2.64328e-06
2.80097e-06
2.80097e-06
2.80097e-06
2.7878e-06
2.7878e-06
2.7878e-06
2.71667e-06
2.71667e-06
2.71667e-06
2.82458e-06
2.82458e-06
2.82458e-06
2.85659e-06
2.85659e-06
2.85659e-06
2.89211e-06
2.89211e-06
2.89211e-06
2.68453e-06
2.68453e-06
2.68453e-06
2.69773e-06
2.69773e-06
2.69773e-06
2.74352e-06
2.74352e-06
2.74352e-06
2.77715e-06
2.77715e-06
2.77715e-06
2.73133e-06
2.73133e-06
2.73133e-06
2.75194e-06
2.75194e-06
2.75194e-06
1.5985e-06
1.5985e-06
1.5985e-06
1.60274e-06
1.60274e-06
1.60274e-06
1.60693e-06
1.60693e-06
1.60693e-06
1.60687e-06
1.60687e-06
1.60687e-06
1.61933e-06
1.61933e-06
1.61933e-06
1.61511e-06
1.61511e-06
1.61511e-06
1.61107e-06
1.61107e-06
1.61107e-06
1.90038e-06
1.90038e-06
1.90038e-06
1.57319e-06
1.57319e-06
1.57319e-06
1.57734e-06
1.57734e-06
1.57734e-06
1.58975e-06
1.58975e-06
1.58975e-06
1.58561e-06
1.58561e-06
1.58561e-06
1.51317e-06
1.51317e-06
1.51317e-06
1.51291e-06
1.51291e-06
1.51291e-06
1.50872e-06
1.50872e-06
1.50872e-06
1.50479e-06
1.50479e-06
1.50479e-06
1.5058e-06
1.5058e-06
1.5058e-06
1.51368e-06
1.51368e-06
1.51368e-06
1.52113e-06
1.52113e-06
1.52113e-06
1.52929e-06
1.52929e-06
1.52929e-06
1.52955e-06
1.52955e-06
1.52955e-06
1.52557e-06
1.52557e-06
1.52557e-06
2.0484e-06
2.0484e-06
2.0484e-06
2.01966e-06
2.01966e-06
2.01966e-06
2.04974e-06
2.04974e-06
2.04974e-06
2.09936e-06
2.09936e-06
2.09936e-06
2.13451e-06
2.13451e-06
2.13451e-06
2.15527e-06
2.15527e-06
2.15527e-06
2.08489e-06
2.08489e-06
2.08489e-06
2.14097e-06
2.14097e-06
2.14097e-06
2.10573e-06
2.10573e-06
2.10573e-06
2.07872e-06
2.07872e-06
2.07872e-06
2.14905e-06
2.14905e-06
2.14905e-06
2.17759e-06
2.17759e-06
2.17759e-06
2.43123e-06
2.43123e-06
2.43123e-06
2.1905e-06
2.1905e-06
2.1905e-06
2.39537e-06
2.39537e-06
2.39537e-06
1.7788e-06
1.7788e-06
1.7788e-06
2.00504e-06
2.00504e-06
2.00504e-06
2.02564e-06
2.02564e-06
2.02564e-06
1.96767e-06
1.96767e-06
1.96767e-06
1.91846e-06
1.91846e-06
1.91846e-06
1.9328e-06
1.9328e-06
1.9328e-06
2.02744e-06
2.02744e-06
2.02744e-06
1.70903e-06
1.70903e-06
1.70903e-06
1.81181e-06
1.81181e-06
1.81181e-06
1.83239e-06
1.83239e-06
1.83239e-06
1.86831e-06
1.86831e-06
1.86831e-06
1.88906e-06
1.88906e-06
1.88906e-06
2.03532e-06
2.03532e-06
2.03532e-06
1.9356e-06
1.9356e-06
1.9356e-06
2.00595e-06
2.00595e-06
2.00595e-06
1.53087e-06
1.53087e-06
1.53087e-06
1.53487e-06
1.53487e-06
1.53487e-06
1.77354e-06
1.77354e-06
1.77354e-06
1.70396e-06
1.70396e-06
1.70396e-06
1.72399e-06
1.72399e-06
1.72399e-06
1.75877e-06
1.75877e-06
1.75877e-06
1.61013e-06
1.61013e-06
1.61013e-06
1.70361e-06
1.70361e-06
1.70361e-06
1.57638e-06
1.57638e-06
1.57638e-06
1.52323e-06
1.52323e-06
1.52323e-06
1.51921e-06
1.51921e-06
1.51921e-06
1.51472e-06
1.51472e-06
1.51472e-06
1.52264e-06
1.52264e-06
1.52264e-06
1.52311e-06
1.52311e-06
1.52311e-06
1.51914e-06
1.51914e-06
1.51914e-06
1.51025e-06
1.51025e-06
1.51025e-06
1.50999e-06
1.50999e-06
1.50999e-06
1.51394e-06
1.51394e-06
1.51394e-06
1.51815e-06
1.51815e-06
1.51815e-06
1.51841e-06
1.51841e-06
1.51841e-06
1.51446e-06
1.51446e-06
1.51446e-06
1.48357e-06
1.48357e-06
1.48357e-06
1.48744e-06
1.48744e-06
1.48744e-06
1.49157e-06
1.49157e-06
1.49157e-06
1.48381e-06
1.48381e-06
1.48381e-06
1.49182e-06
1.49182e-06
1.49182e-06
1.48793e-06
1.48793e-06
1.48793e-06
1.55349e-06
1.55349e-06
1.55349e-06
1.60169e-06
1.60169e-06
1.60169e-06
1.56804e-06
1.56804e-06
1.56804e-06
1.57275e-06
1.57275e-06
1.57275e-06
1.50939e-06
1.50939e-06
1.50939e-06
1.51717e-06
1.51717e-06
1.51717e-06
1.51297e-06
1.51297e-06
1.51297e-06
1.50904e-06
1.50904e-06
1.50904e-06
1.52173e-06
1.52173e-06
1.52173e-06
1.51752e-06
1.51752e-06
1.51752e-06
1.51357e-06
1.51357e-06
1.51357e-06
1.51392e-06
1.51392e-06
1.51392e-06
1.51883e-06
1.51883e-06
1.51883e-06
1.52687e-06
1.52687e-06
1.52687e-06
1.51887e-06
1.51887e-06
1.51887e-06
1.52285e-06
1.52285e-06
1.52285e-06
1.51089e-06
1.51089e-06
1.51089e-06
1.51488e-06
1.51488e-06
1.51488e-06
1.53973e-06
1.53973e-06
1.53973e-06
1.53536e-06
1.53536e-06
1.53536e-06
1.57705e-06
1.57705e-06
1.57705e-06
1.55816e-06
1.55816e-06
1.55816e-06
1.53059e-06
1.53059e-06
1.53059e-06
1.56253e-06
1.56253e-06
1.56253e-06
1.53328e-06
1.53328e-06
1.53328e-06
1.53282e-06
1.53282e-06
1.53282e-06
1.52799e-06
1.52799e-06
1.52799e-06
1.5164e-06
1.5164e-06
1.5164e-06
1.51685e-06
1.51685e-06
1.51685e-06
1.52505e-06
1.52505e-06
1.52505e-06
1.52107e-06
1.52107e-06
1.52107e-06
1.62089e-06
1.62089e-06
1.62089e-06
1.6065e-06
1.6065e-06
1.6065e-06
1.62554e-06
1.62554e-06
1.62554e-06
1.65935e-06
1.65935e-06
1.65935e-06
1.6738e-06
1.6738e-06
1.6738e-06
1.6546e-06
1.6546e-06
1.6546e-06
1.66901e-06
1.66901e-06
1.66901e-06
1.70269e-06
1.70269e-06
1.70269e-06
1.63044e-06
1.63044e-06
1.63044e-06
1.61596e-06
1.61596e-06
1.61596e-06
1.63523e-06
1.63523e-06
1.63523e-06
1.66925e-06
1.66925e-06
1.66925e-06
1.77135e-06
1.77135e-06
1.77135e-06
1.73731e-06
1.73731e-06
1.73731e-06
1.64489e-06
1.64489e-06
1.64489e-06
1.68406e-06
1.68406e-06
1.68406e-06
1.74243e-06
1.74243e-06
1.74243e-06
1.67417e-06
1.67417e-06
1.67417e-06
1.72282e-06
1.72282e-06
1.72282e-06
1.68874e-06
1.68874e-06
1.68874e-06
1.74337e-06
1.74337e-06
1.74337e-06
1.99953e-06
1.99953e-06
1.99953e-06
2.01385e-06
2.01385e-06
2.01385e-06
1.83616e-06
1.83616e-06
1.83616e-06
1.85036e-06
1.85036e-06
1.85036e-06
1.51014e-06
1.51014e-06
1.51014e-06
1.50999e-06
1.50999e-06
1.50999e-06
1.5018e-06
1.5018e-06
1.5018e-06
1.50571e-06
1.50571e-06
1.50571e-06
1.50254e-06
1.50254e-06
1.50254e-06
1.50646e-06
1.50646e-06
1.50646e-06
1.49838e-06
1.49838e-06
1.49838e-06
1.50621e-06
1.50621e-06
1.50621e-06
1.49814e-06
1.49814e-06
1.49814e-06
1.50204e-06
1.50204e-06
1.50204e-06
1.48796e-06
1.48796e-06
1.48796e-06
1.48048e-06
1.48048e-06
1.48048e-06
1.48433e-06
1.48433e-06
1.48433e-06
1.47659e-06
1.47659e-06
1.47659e-06
1.48409e-06
1.48409e-06
1.48409e-06