<VTKFile type="UnstructuredGrid" version="1.0">
<UnstructuredGrid>
<Piece NumberOfPoints="8859" NumberOfCells="2953">
<Points>
<DataArray type="Float64" NumberOfComponents="3" format="ascii">
2.75455 1.50245 9.27262
2.76986 1.48714 9.28458
2.75465 1.50235 9.29833
2.78515 1.47185 9.22167
2.78516 1.47184 9.19652
2.8005 1.4565 9.20898
2.76981 1.48719 9.23436
2.78515 1.47185 9.22167
2.78514 1.47186 9.24686
2.72412 1.53288 9.32488
2.73952 1.51748 9.3325
2.70875 1.54825 9.3325
2.72412 1.53288 9.32488
2.73943 1.51757 9.30957
2.73952 1.51748 9.3325
2.75488 1.50212 9.32479
2.77036 1.48664 9.3325
2.73952 1.51748 9.3325
2.75488 1.50212 9.32479
2.73943 1.51757 9.30957
2.75465 1.50235 9.29833
2.73952 1.51748 9.3325
2.73943 1.51757 9.30957
2.75488 1.50212 9.32479
2.75465 1.50235 9.29833
2.76986 1.48714 9.28458
2.76997 1.48703 9.30927
2.76997 1.48703 9.30927
2.75488 1.50212 9.32479
2.75465 1.50235 9.29833
2.77036 1.48664 9.3325
2.75488 1.50212 9.32479
2.76997 1.48703 9.30927
2.76986 1.48714 9.28458
2.75455 1.50245 9.27262
2.76982 1.48718 9.25952
2.76981 1.48719 9.23436
2.78514 1.47186 9.24686
2.76982 1.48718 9.25952
2.7852 1.4718 9.29762
2.76997 1.48703 9.30927
2.76986 1.48714 9.28458
2.8005 1.4565 9.28395
2.8005 1.4565 9.30855
2.7852 1.4718 9.29762
2.8005 1.4565 9.18387
2.8005 1.4565 9.20898
2.78516 1.47184 9.19652
2.78515 1.47185 9.22167
2.8005 1.4565 9.20898
2.8005 1.4565 9.23406
2.8005 1.4565 9.23406
2.78514 1.47186 9.24686
2.78515 1.47185 9.22167
2.8005 1.4565 8.65652
2.8005 1.4565 8.68165
2.78518 1.47182 8.66907
2.78517 1.47183 9.12107
2.8005 1.4565 9.13361
2.78517 1.47183 9.14621
2.8005 1.4565 9.10848
2.8005 1.4565 9.13361
2.78517 1.47183 9.12107
2.78519 1.47181 8.99544
2.8005 1.4565 9.00799
2.78519 1.47181 9.02055
2.32274 1.93426 8.44059
2.33845 1.91855 8.4325
2.33845 1.91855 8.45563
2.27541 1.98159 9.3325
2.24359 2.01341 9.3325
2.25954 1.99746 9.32432
2.78515 1.47185 9.27212
2.76982 1.48718 9.25952
2.78514 1.47186 9.24686
2.76986 1.48714 9.28458
2.76982 1.48718 9.25952
2.78515 1.47185 9.27212
2.78515 1.47185 9.27212
2.7852 1.4718 9.29762
2.76986 1.48714 9.28458
2.8005 1.4565 9.28395
2.7852 1.4718 9.29762
2.78515 1.47185 9.27212
2.78544 1.47156 9.32384
2.8005 1.4565 9.30855
2.8005 1.4565 9.3325
2.78544 1.47156 9.32384
2.7852 1.4718 9.29762
2.8005 1.4565 9.30855
2.8005 1.4565 9.3325
2.77036 1.48664 9.3325
2.78544 1.47156 9.32384
2.77036 1.48664 9.3325
2.76997 1.48703 9.30927
2.78544 1.47156 9.32384
2.76997 1.48703 9.30927
2.7852 1.4718 9.29762
2.78544 1.47156 9.32384
2.78517 1.47183 9.14621
2.8005 1.4565 9.13361
2.8005 1.4565 9.15874
2.78514 1.47186 9.24686
2.8005 1.4565 9.23406
2.8005 1.4565 9.25907
2.8005 1.4565 9.28395
2.78515 1.47185 9.27212
2.8005 1.4565 9.25907
2.8005 1.4565 9.25907
2.78515 1.47185 9.27212
2.78514 1.47186 9.24686
2.8005 1.4565 8.98289
2.8005 1.4565 9.00799
2.78519 1.47181 8.99544
2.78518 1.47182 8.66907
2.8005 1.4565 8.68165
2.78518 1.47182 8.6942
2.76985 1.48715 9.10853
2.75454 1.50246 9.09598
2.76986 1.48714 9.08338
2.78516 1.47184 9.17136
2.8005 1.4565 9.18387
2.78516 1.47184 9.19652
2.78516 1.47184 9.17136
2.8005 1.4565 9.15874
2.8005 1.4565 9.18387
2.78516 1.47184 9.17136
2.76984 1.48716 9.15884
2.78517 1.47183 9.14621
2.78517 1.47183 9.14621
2.8005 1.4565 9.15874
2.78516 1.47184 9.17136
2.76982 1.48718 9.20918
2.78515 1.47185 9.22167
2.76981 1.48719 9.23436
2.76982 1.48718 9.20918
2.78516 1.47184 9.19652
2.78515 1.47185 9.22167
2.75451 1.50249 9.17149
2.7392 1.5178 9.18415
2.73921 1.51779 9.15894
2.53996 1.71704 9.29838
2.52458 1.73242 9.2849
2.53996 1.71704 9.27275
2.49374 1.76326 9.1338
2.49375 1.76325 9.159
2.47832 1.77868 9.14639
2.8005 1.4565 8.4325
2.8005 1.4565 8.45645
2.78544 1.47156 8.44116
2.27543 1.98157 9.30933
2.27541 1.98159 9.3325
2.25954 1.99746 9.32432
2.33845 1.91855 9.23446
2.32276 1.93424 9.24714
2.32275 1.93425 9.22185
2.25954 1.99746 9.32432
2.24359 2.01341 9.3325
2.24374 2.01326 9.30923
2.76987 1.48713 8.757
2.75455 1.50245 8.74443
2.76987 1.48713 8.73188
2.8005 1.4565 8.90759
2.78519 1.47181 8.89505
2.8005 1.4565 8.8825
2.78519 1.47181 8.94524
2.8005 1.4565 8.93269
2.8005 1.4565 8.95778
2.76988 1.48712 8.85741
2.75456 1.50244 8.86995
2.75456 1.50244 8.84486
2.76988 1.48712 8.8825
2.75456 1.50244 8.86995
2.76988 1.48712 8.85741
2.78519 1.47181 8.89505
2.76988 1.48712 8.90759
2.76988 1.48712 8.8825
2.75455 1.50245 9.02057
2.76987 1.48713 9.03312
2.75455 1.50245 9.0457
2.72393 1.53307 8.99547
2.72392 1.53308 9.02059
2.70861 1.54839 9.00803
2.75456 1.50244 8.99545
2.73924 1.51776 8.9829
2.75456 1.50244 8.97035
2.75456 1.50244 8.97035
2.76987 1.48713 8.98289
2.75456 1.50244 8.99545
2.73924 1.51776 8.9829
2.73925 1.51775 8.9578
2.75456 1.50244 8.97035
2.75456 1.50244 8.97035
2.73925 1.51775 8.9578
2.75456 1.50244 8.94524
2.8005 1.4565 8.95778
2.8005 1.4565 8.98289
2.78519 1.47181 8.97034
2.78519 1.47181 8.97034
2.78519 1.47181 8.94524
2.8005 1.4565 8.95778
2.78519 1.47181 8.97034
2.8005 1.4565 8.98289
2.78519 1.47181 8.99544
2.78519 1.47181 8.99544
2.76987 1.48713 8.98289
2.78519 1.47181 8.97034
2.75454 1.50246 9.07083
2.73923 1.51777 9.05828
2.75455 1.50245 9.0457
2.75454 1.50246 9.07083
2.76986 1.48714 9.08338
2.75454 1.50246 9.09598
2.7086 1.5484 9.0583
2.72392 1.53308 9.04572
2.72392 1.53308 9.07086
2.72392 1.53308 9.07086
2.72392 1.53308 9.04572
2.73923 1.51777 9.05828
2.8005 1.4565 9.0331
2.78519 1.47181 9.02055
2.8005 1.4565 9.00799
2.75455 1.50245 9.0457
2.76987 1.48713 9.03312
2.76986 1.48714 9.05825
2.76986 1.48714 9.05825
2.75454 1.50246 9.07083
2.75455 1.50245 9.0457
2.76986 1.48714 9.08338
2.75454 1.50246 9.07083
2.76986 1.48714 9.05825
2.78517 1.47183 9.14621
2.76984 1.48716 9.15884
2.76985 1.48715 9.13368
2.76985 1.48715 9.13368
2.78517 1.47183 9.12107
2.78517 1.47183 9.14621
2.76985 1.48715 9.10853
2.78517 1.47183 9.12107
2.76985 1.48715 9.13368
2.73921 1.51779 9.15894
2.73921 1.51779 9.13375
2.75452 1.50248 9.1463
2.75452 1.50248 9.1463
2.75451 1.50249 9.17149
2.73921 1.51779 9.15894
2.76984 1.48716 9.15884
2.75451 1.50249 9.17149
2.75452 1.50248 9.1463
2.75452 1.50248 9.1463
2.76985 1.48715 9.13368
2.76984 1.48716 9.15884
2.7239 1.5331 9.14638
2.73921 1.51779 9.13375
2.73921 1.51779 9.15894
2.7239 1.5331 9.14638
2.70859 1.54841 9.15901
2.70859 1.54841 9.13381
2.76981 1.48719 9.23436
2.76982 1.48718 9.25952
2.75451 1.50249 9.24722
2.75451 1.50249 9.24722
2.76982 1.48718 9.25952
2.75455 1.50245 9.27262
2.7392 1.5178 9.18415
2.75451 1.50249 9.17149
2.75451 1.50249 9.19669
2.75451 1.50249 9.19669
2.7392 1.5178 9.20937
2.7392 1.5178 9.18415
2.67798 1.57902 9.03317
2.66266 1.59434 9.04575
2.66266 1.59434 9.02061
2.70859 1.54841 9.13381
2.70859 1.54841 9.10862
2.7239 1.5331 9.12119
2.7239 1.5331 9.12119
2.7239 1.5331 9.14638
2.70859 1.54841 9.13381
2.73921 1.51779 9.13375
2.7239 1.5331 9.14638
2.7239 1.5331 9.12119
2.73922 1.51778 9.10858
2.73921 1.51779 9.13375
2.7239 1.5331 9.12119
2.57068 1.68632 9.27276
2.57068 1.68632 9.29839
2.55533 1.70167 9.28491
2.55533 1.70167 9.28491
2.57068 1.68632 9.29839
2.55533 1.70167 9.3095
2.55533 1.70167 9.28491
2.55533 1.70167 9.3095
2.53996 1.71704 9.29838
2.53996 1.71704 9.29838
2.53996 1.71704 9.27275
2.55533 1.70167 9.28491
2.52458 1.73242 9.25984
2.53996 1.71704 9.27275
2.52458 1.73242 9.2849
2.50912 1.74788 8.89505
2.50912 1.74788 8.92015
2.49371 1.76329 8.9076
2.41633 1.84067 9.02056
2.40077 1.85623 9.008
2.41632 1.84068 8.99545
2.41635 1.84065 9.07083
2.40081 1.85619 9.08339
2.40079 1.85621 9.05825
2.33845 1.91855 9.23446
2.32275 1.93425 9.22185
2.33843 1.91857 9.20924
2.33845 1.91855 9.25966
2.32276 1.93424 9.24714
2.33845 1.91855 9.23446
2.40087 1.85613 9.18412
2.40088 1.85612 9.20934
2.38531 1.87169 9.19672
2.30693 1.95007 9.13358
2.32265 1.93435 9.12103
2.32267 1.93433 9.1462
2.30684 1.95016 9.03303
2.29108 1.96592 9.04556
2.29106 1.96594 9.02046
2.32274 1.93426 9.32441
2.33845 1.91855 9.3325
2.30701 1.94999 9.3325
2.33845 1.91855 9.30937
2.33845 1.91855 9.3325
2.32274 1.93426 9.32441
2.35411 1.90289 9.32447
2.33845 1.91855 9.3325
2.33845 1.91855 9.30937
2.30704 1.94996 9.25961
2.30703 1.94997 9.28469
2.29128 1.96572 9.27246
2.55533 1.70167 9.3325
2.52458 1.73242 9.3325
2.53996 1.71704 9.32472
2.53996 1.71704 9.29838
2.55533 1.70167 9.3095
2.53996 1.71704 9.32472
2.53996 1.71704 9.32472
2.55533 1.70167 9.3095
2.55533 1.70167 9.3325
2.52458 1.73242 9.30949
2.52458 1.73242 9.2849
2.53996 1.71704 9.29838
2.53996 1.71704 9.29838
2.53996 1.71704 9.32472
2.52458 1.73242 9.30949
2.52458 1.73242 9.30949
2.53996 1.71704 9.32472
2.52458 1.73242 9.3325
2.41642 1.84058 9.19676
2.40088 1.85612 9.20934
2.40087 1.85613 9.18412
2.47831 1.77869 9.1212
2.49374 1.76326 9.10862
2.49374 1.76326 9.1338
2.49374 1.76326 9.1338
2.47832 1.77868 9.14639
2.47831 1.77869 9.1212
2.47833 1.77867 9.1716
2.47832 1.77868 9.14639
2.49375 1.76325 9.159
2.47833 1.77867 9.1716
2.49375 1.76325 9.159
2.49376 1.76324 9.18421
2.49376 1.76324 9.18421
2.47834 1.77866 9.19682
2.47833 1.77867 9.1716
2.47833 1.77867 9.1716
2.47834 1.77866 9.19682
2.46289 1.79411 9.18419
2.49377 1.76323 9.20943
2.47834 1.77866 9.19682
2.49376 1.76324 9.18421
2.49377 1.76323 9.23464
2.47835 1.77865 9.24734
2.47834 1.77866 9.22206
2.47834 1.77866 9.22206
2.49377 1.76323 9.20943
2.49377 1.76323 9.23464
2.47834 1.77866 9.19682
2.49377 1.76323 9.20943
2.47834 1.77866 9.22206
2.7852 1.4718 8.46738
2.78544 1.47156 8.44116
2.8005 1.4565 8.45645
2.76997 1.48703 8.45573
2.78544 1.47156 8.44116
2.7852 1.4718 8.46738
2.64739 1.60961 8.45548
2.64738 1.60962 8.4325
2.66272 1.59428 8.44021
2.70875 1.54825 8.4325
2.6934 1.5636 8.44017
2.67805 1.57895 8.4325
2.67805 1.57895 8.4325
2.66272 1.59428 8.44021
2.64738 1.60962 8.4325
2.19638 2.06062 8.46897
2.1963 2.0607 8.44286
2.2122 2.0448 8.45645
2.2122 2.0448 8.45645
2.22771 2.02929 8.44101
2.22802 2.02898 8.46745
2.18073 2.07627 8.45782
2.1963 2.0607 8.44286
2.19638 2.06062 8.46897
2.18073 2.07627 8.45782
2.18123 2.07577 8.4325
2.1963 2.0607 8.44286
2.27543 1.98157 8.45567
2.27541 1.98159 8.4325
2.29123 1.96577 8.44063
2.30701 1.94999 8.4325
[...]
<PointData Scalars="View Factor" >
<DataArray type="Float64" Name="View Factor" NumberOfComponents="1" format="ascii">
8.07172e-06
8.07172e-06
8.07172e-06
8.4843e-06
8.4843e-06
8.4843e-06
8.34495e-06
8.34495e-06
8.34495e-06
7.65555e-06
7.65555e-06
7.65555e-06
7.76894e-06
7.76894e-06
7.76894e-06
7.96599e-06
7.96599e-06
7.96599e-06
7.93644e-06
7.93644e-06
7.93644e-06
7.87249e-06
7.87249e-06
7.87249e-06
8.10774e-06
8.10774e-06
8.10774e-06
8.03957e-06
8.03957e-06
8.03957e-06
8.07782e-06
8.07782e-06
8.07782e-06
8.13941e-06
8.13941e-06
8.13941e-06
8.27683e-06
8.27683e-06
8.27683e-06
8.21123e-06
8.21123e-06
8.21123e-06
8.4185e-06
8.4185e-06
8.4185e-06
8.55413e-06
8.55413e-06
8.55413e-06
8.51983e-06
8.51983e-06
8.51983e-06
8.44981e-06
8.44981e-06
8.44981e-06
9.31524e-06
9.31524e-06
9.31524e-06
8.58749e-06
8.58749e-06
8.58749e-06
8.65811e-06
8.65811e-06
8.65811e-06
8.76229e-06
8.76229e-06
8.76229e-06
5.4543e-06
5.4543e-06
5.4543e-06
4.81306e-06
4.81306e-06
4.81306e-06
8.31235e-06
8.31235e-06
8.31235e-06
8.24342e-06
8.24342e-06
8.24342e-06
8.27881e-06
8.27881e-06
8.27881e-06
8.38282e-06
8.38282e-06
8.38282e-06
8.38597e-06
8.38597e-06
8.38597e-06
8.35032e-06
8.35032e-06
8.35032e-06
8.27277e-06
8.27277e-06
8.27277e-06
8.181e-06
8.181e-06
8.181e-06
8.24707e-06
8.24707e-06
8.24707e-06
8.62328e-06
8.62328e-06
8.62328e-06
8.48574e-06
8.48574e-06
8.48574e-06
8.45193e-06
8.45193e-06
8.45193e-06
8.41683e-06
8.41683e-06
8.41683e-06
8.83481e-06
8.83481e-06
8.83481e-06
9.2385e-06
9.2385e-06
9.2385e-06
8.37144e-06
8.37144e-06
8.37144e-06
8.51896e-06
8.51896e-06
8.51896e-06
8.5886e-06
8.5886e-06
8.5886e-06
8.44653e-06
8.44653e-06
8.44653e-06
8.55248e-06
8.55248e-06
8.55248e-06
8.30932e-06
8.30932e-06
8.30932e-06
8.37908e-06
8.37908e-06
8.37908e-06
8.06054e-06
8.06054e-06
8.06054e-06
5.79005e-06
5.79005e-06
5.79005e-06
5.44112e-06
5.44112e-06
5.44112e-06
9.66772e-06
9.66772e-06
9.66772e-06
4.80634e-06
4.80634e-06
4.80634e-06
4.80506e-06
4.80506e-06
4.80506e-06
4.83207e-06
4.83207e-06
4.83207e-06
8.86248e-06
8.86248e-06
8.86248e-06
8.97925e-06
8.97925e-06
8.97925e-06
8.90667e-06
8.90667e-06
8.90667e-06
8.64543e-06
8.64543e-06
8.64543e-06
8.68285e-06
8.68285e-06
8.68285e-06
8.75891e-06
8.75891e-06
8.75891e-06
8.40343e-06
8.40343e-06
8.40343e-06
8.0044e-06
8.0044e-06
8.0044e-06
8.36292e-06
8.36292e-06
8.36292e-06
8.47176e-06
8.47176e-06
8.47176e-06
8.32494e-06
8.32494e-06
8.32494e-06
8.3969e-06
8.3969e-06
8.3969e-06
8.87066e-06
8.87066e-06
8.87066e-06
8.83445e-06
8.83445e-06
8.83445e-06
8.79828e-06
8.79828e-06
8.79828e-06
8.68944e-06
8.68944e-06
8.68944e-06
8.26238e-06
8.26238e-06
8.26238e-06
8.33525e-06
8.33525e-06
8.33525e-06
7.93902e-06
7.93902e-06
7.93902e-06
8.04651e-06
8.04651e-06
8.04651e-06
8.79913e-06
8.79913e-06
8.79913e-06
8.44074e-06
8.44074e-06
8.44074e-06
8.36991e-06
8.36991e-06
8.36991e-06
8.40666e-06
8.40666e-06
8.40666e-06
8.41054e-06
8.41054e-06
8.41054e-06
8.48115e-06
8.48115e-06
8.48115e-06
8.44545e-06
8.44545e-06
8.44545e-06
8.09235e-06
8.09235e-06
8.09235e-06
8.12891e-06
8.12891e-06
8.12891e-06
8.23475e-06
8.23475e-06
8.23475e-06
8.30445e-06
8.30445e-06
8.30445e-06
7.98636e-06
7.98636e-06
7.98636e-06
7.77524e-06
7.77524e-06
7.77524e-06
8.17237e-06
8.17237e-06
8.17237e-06
8.10304e-06
8.10304e-06
8.10304e-06
8.09655e-06
8.09655e-06
8.09655e-06
8.02764e-06
8.02764e-06
8.02764e-06
7.43204e-06
7.43204e-06
7.43204e-06
7.80633e-06
7.80633e-06
7.80633e-06
7.84405e-06
7.84405e-06
7.84405e-06
7.95024e-06
7.95024e-06
7.95024e-06
8.01954e-06
8.01954e-06
8.01954e-06
6.10183e-06
6.10183e-06
6.10183e-06
6.03752e-06
6.03752e-06
6.03752e-06
5.93392e-06
5.93392e-06
5.93392e-06
5.89388e-06
5.89388e-06
5.89388e-06
5.75043e-06
5.75043e-06
5.75043e-06
5.81988e-06
5.81988e-06
5.81988e-06
4.88315e-06
4.88315e-06
4.88315e-06
4.83985e-06
4.83985e-06
4.83985e-06
4.80858e-06
4.80858e-06
4.80858e-06
4.78929e-06
4.78929e-06
4.78929e-06
4.75507e-06
4.75507e-06
4.75507e-06
4.89542e-06
4.89542e-06
4.89542e-06
5.00102e-06
5.00102e-06
5.00102e-06
4.73833e-06
4.73833e-06
4.73833e-06
4.73207e-06
4.73207e-06
4.73207e-06
4.71998e-06
4.71998e-06
4.71998e-06
4.8069e-06
4.8069e-06
4.8069e-06
5.80167e-06
5.80167e-06
5.80167e-06
5.86973e-06
5.86973e-06
5.86973e-06
5.91102e-06
5.91102e-06
5.91102e-06
5.72664e-06
5.72664e-06
5.72664e-06
5.76631e-06
5.76631e-06
5.76631e-06
5.70455e-06
5.70455e-06
5.70455e-06
4.74324e-06
4.74324e-06
4.74324e-06
5.46273e-06
5.46273e-06
5.46273e-06
5.39898e-06
5.39898e-06
5.39898e-06
5.37735e-06
5.37735e-06
5.37735e-06
5.4196e-06
5.4196e-06
5.4196e-06
5.35553e-06
5.35553e-06
5.35553e-06
5.24964e-06
5.24964e-06
5.24964e-06
5.39733e-06
5.39733e-06
5.39733e-06
5.31242e-06
5.31242e-06
5.31242e-06
5.37598e-06
5.37598e-06
5.37598e-06
5.33381e-06
5.33381e-06
5.33381e-06
9.58947e-06
9.58947e-06
9.58947e-06
9.47159e-06
9.47159e-06
9.47159e-06
8.00386e-06
8.00386e-06
8.00386e-06
8.49102e-06
8.49102e-06
8.49102e-06
8.13215e-06
8.13215e-06
8.13215e-06
5.62252e-06
5.62252e-06
5.62252e-06
5.59391e-06
5.59391e-06
5.59391e-06
5.63701e-06
5.63701e-06
5.63701e-06
5.65549e-06
5.65549e-06
5.65549e-06
5.52489e-06
5.52489e-06
5.52489e-06
5.47529e-06
5.47529e-06
5.47529e-06
5.51686e-06
5.51686e-06
5.51686e-06
5.49657e-06
5.49657e-06
5.49657e-06
5.4781e-06
5.4781e-06
5.4781e-06
4.75674e-06
4.75674e-06
4.75674e-06
4.80336e-06
4.80336e-06
4.80336e-06
4.78779e-06
4.78779e-06
4.78779e-06
5.03045e-06
5.03045e-06
5.03045e-06
5.01403e-06
5.01403e-06
5.01403e-06
4.88107e-06
4.88107e-06
4.88107e-06
9.27695e-06
9.27695e-06
9.27695e-06
9.05255e-06
9.05255e-06
9.05255e-06
8.78999e-06
8.78999e-06
8.78999e-06
8.7161e-06
8.7161e-06
8.7161e-06
8.82592e-06
8.82592e-06
8.82592e-06
8.75171e-06
8.75171e-06
8.75171e-06
8.63928e-06
8.63928e-06
8.63928e-06
8.60016e-06
8.60016e-06
8.60016e-06
8.67506e-06
8.67506e-06
8.67506e-06
8.78795e-06
8.78795e-06
8.78795e-06
6.81477e-06
6.81477e-06
6.81477e-06
6.74294e-06
6.74294e-06
6.74294e-06
6.70308e-06
6.70308e-06
6.70308e-06
8.63537e-06
8.63537e-06
8.63537e-06
9.2771e-06
9.2771e-06
9.2771e-06
7.3542e-06
7.3542e-06
7.3542e-06
7.1371e-06
7.1371e-06
7.1371e-06
7.78766e-06
7.78766e-06
7.78766e-06
7.26483e-06
7.26483e-06
7.26483e-06
7.62413e-06
7.62413e-06
7.62413e-06
7.58378e-06
7.58378e-06
7.58378e-06
7.47365e-06
7.47365e-06
7.47365e-06
7.40354e-06
7.40354e-06
7.40354e-06
8.53437e-06
8.53437e-06
8.53437e-06
9.01581e-06
9.01581e-06
9.01581e-06
8.94219e-06
8.94219e-06
8.94219e-06
8.83157e-06
8.83157e-06
8.83157e-06
8.79367e-06
8.79367e-06
8.79367e-06
8.86756e-06
8.86756e-06
8.86756e-06
8.97862e-06
8.97862e-06
8.97862e-06
6.77122e-06
6.77122e-06
6.77122e-06
6.84067e-06
6.84067e-06
6.84067e-06
7.4639e-06
7.4639e-06
7.4639e-06
7.50442e-06
7.50442e-06
7.50442e-06
7.43439e-06
7.43439e-06
7.43439e-06
7.32401e-06
7.32401e-06
7.32401e-06
6.86851e-06
6.86851e-06
6.86851e-06
6.82613e-06
6.82613e-06
6.82613e-06
6.68854e-06
6.68854e-06
6.68854e-06
6.79947e-06
6.79947e-06
6.79947e-06
7.35307e-06
7.35307e-06
7.35307e-06
7.28323e-06
7.28323e-06
7.28323e-06
8.5823e-06
8.5823e-06
8.5823e-06
8.47411e-06
8.47411e-06
8.47411e-06
8.43708e-06
8.43708e-06
8.43708e-06
8.65389e-06
8.65389e-06
8.65389e-06
8.61755e-06
8.61755e-06
8.61755e-06
8.50893e-06
8.50893e-06
8.50893e-06
8.11277e-06
8.11277e-06
8.11277e-06
8.3287e-06
8.3287e-06
8.3287e-06
8.29213e-06
8.29213e-06
8.29213e-06
8.18352e-06
8.18352e-06
8.18352e-06
7.85103e-06
7.85103e-06
7.85103e-06
8.03035e-06
8.03035e-06
8.03035e-06
7.92088e-06
7.92088e-06
7.92088e-06
8.72517e-06
8.72517e-06
8.72517e-06
8.57862e-06
8.57862e-06
8.57862e-06
8.68812e-06
8.68812e-06
8.68812e-06
8.50617e-06
8.50617e-06
8.50617e-06
8.54347e-06
8.54347e-06
8.54347e-06
8.65253e-06
8.65253e-06
8.65253e-06
8.22442e-06
8.22442e-06
8.22442e-06
8.11667e-06
8.11667e-06
8.11667e-06
8.07956e-06
8.07956e-06
8.07956e-06
8.29549e-06
8.29549e-06
8.29549e-06
8.15044e-06
8.15044e-06
8.15044e-06
8.25863e-06
8.25863e-06
8.25863e-06
7.97164e-06
7.97164e-06
7.97164e-06
7.93372e-06
7.93372e-06
7.93372e-06
7.82558e-06
7.82558e-06
7.82558e-06
7.90125e-06
7.90125e-06
7.90125e-06
8.1916e-06
8.1916e-06
8.1916e-06
8.08429e-06
8.08429e-06
8.08429e-06
8.22817e-06
8.22817e-06
8.22817e-06
8.1581e-06
8.1581e-06
8.1581e-06
7.87015e-06
7.87015e-06
7.87015e-06
8.62025e-06
8.62025e-06
8.62025e-06
8.72825e-06
8.72825e-06
8.72825e-06
8.76364e-06
8.76364e-06
8.76364e-06
8.5485e-06
8.5485e-06
8.5485e-06
8.69312e-06
8.69312e-06
8.69312e-06
8.47836e-06
8.47836e-06
8.47836e-06
8.62221e-06
8.62221e-06
8.62221e-06
8.51547e-06
8.51547e-06
8.51547e-06
8.72828e-06
8.72828e-06
8.72828e-06
8.69126e-06
8.69126e-06
8.69126e-06
8.58371e-06
8.58371e-06
8.58371e-06
8.51403e-06
8.51403e-06
8.51403e-06
8.55041e-06
8.55041e-06
8.55041e-06
8.65754e-06
8.65754e-06
8.65754e-06
8.12598e-06
8.12598e-06
8.12598e-06
8.33895e-06
8.33895e-06
8.33895e-06
8.16227e-06
8.16227e-06
8.16227e-06
8.26853e-06
8.26853e-06
8.26853e-06
8.19577e-06
8.19577e-06
8.19577e-06
8.30247e-06
8.30247e-06
8.30247e-06
7.95495e-06
7.95495e-06
7.95495e-06
7.91736e-06
7.91736e-06
7.91736e-06
7.81162e-06
7.81162e-06
7.81162e-06
8.20444e-06
8.20444e-06
8.20444e-06
7.99577e-06
7.99577e-06
7.99577e-06
8.16931e-06
8.16931e-06
8.16931e-06
8.06433e-06
8.06433e-06
8.06433e-06
8.13647e-06
8.13647e-06
8.13647e-06
8.03193e-06
8.03193e-06
8.03193e-06
7.90105e-06
7.90105e-06
7.90105e-06
7.96815e-06
7.96815e-06
7.96815e-06
7.72997e-06
7.72997e-06
7.72997e-06
7.79768e-06
7.79768e-06
7.79768e-06
7.76064e-06
7.76064e-06
7.76064e-06
7.96295e-06
7.96295e-06
7.96295e-06
7.82768e-06
7.82768e-06
7.82768e-06
7.999e-06
7.999e-06
7.999e-06
7.93141e-06
7.93141e-06
7.93141e-06
8.20194e-06
8.20194e-06
8.20194e-06
8.41338e-06
8.41338e-06
8.41338e-06
8.34332e-06
8.34332e-06
8.34332e-06
8.23802e-06
8.23802e-06
8.23802e-06
8.37751e-06
8.37751e-06
8.37751e-06
8.27179e-06
8.27179e-06
8.27179e-06
6.7035e-06
6.7035e-06
6.7035e-06
6.66307e-06
6.66307e-06
6.66307e-06
7.02869e-06
7.02869e-06
7.02869e-06
6.8119e-06
6.8119e-06
6.8119e-06
7.47087e-06
7.47087e-06
7.47087e-06
6.11094e-06
6.11094e-06
6.11094e-06
6.01423e-06
6.01423e-06
6.01423e-06
6.07648e-06
6.07648e-06
6.07648e-06
5.75231e-06
5.75231e-06
5.75231e-06
5.93043e-06
5.93043e-06
5.93043e-06
6.61927e-06
6.61927e-06
6.61927e-06
6.66076e-06
6.66076e-06
6.66076e-06
4.89909e-06
4.89909e-06
4.89909e-06
4.86888e-06
4.86888e-06
4.86888e-06
4.87883e-06
4.87883e-06
4.87883e-06
4.98446e-06
4.98446e-06
4.98446e-06
4.99362e-06
4.99362e-06
4.99362e-06
4.9971e-06
4.9971e-06
4.9971e-06
4.8242e-06
4.8242e-06
4.8242e-06
4.78527e-06
4.78527e-06
4.78527e-06
4.7976e-06
4.7976e-06
4.7976e-06
4.79449e-06
4.79449e-06
4.79449e-06
4.79632e-06
4.79632e-06
4.79632e-06
4.79936e-06
4.79936e-06
4.79936e-06
4.77178e-06
4.77178e-06
4.77178e-06
4.7872e-06
4.7872e-06
4.7872e-06
4.82978e-06
4.82978e-06
4.82978e-06
4.81762e-06
4.81762e-06
4.81762e-06
4.85437e-06
4.85437e-06
4.85437e-06
4.86677e-06
4.86677e-06
4.86677e-06
4.88284e-06
4.88284e-06
4.88284e-06
4.85661e-06
4.85661e-06
4.85661e-06
4.77895e-06
4.77895e-06
4.77895e-06
4.79103e-06
4.79103e-06
4.79103e-06
4.91162e-06
4.91162e-06
4.91162e-06
4.91519e-06
4.91519e-06
4.91519e-06
4.92235e-06
4.92235e-06
4.92235e-06
5.00462e-06
5.00462e-06
5.00462e-06
4.70325e-06
4.70325e-06
4.70325e-06
4.66741e-06
4.66741e-06
4.66741e-06
4.81743e-06
4.81743e-06
4.81743e-06
4.81374e-06
4.81374e-06
4.81374e-06
5.4907e-06
5.4907e-06
5.4907e-06
5.60124e-06
5.60124e-06
5.60124e-06
5.35643e-06
5.35643e-06
5.35643e-06
5.29115e-06
5.29115e-06
5.29115e-06
5.59234e-06
5.59234e-06
5.59234e-06
4.93781e-06
4.93781e-06
4.93781e-06
5.20737e-06
5.20737e-06
5.20737e-06
5.27101e-06
5.27101e-06
5.27101e-06
5.2074e-06
5.2074e-06
5.2074e-06
4.9977e-06
4.9977e-06
4.9977e-06
9.56468e-06
9.56468e-06
9.56468e-06
9.43313e-06
9.43313e-06
9.43313e-06
8.88045e-06
8.88045e-06
8.88045e-06
8.95608e-06
8.95608e-06
8.95608e-06
8.84916e-06
8.84916e-06
8.84916e-06
5.58284e-06
5.58284e-06
5.58284e-06
5.57941e-06
5.57941e-06
5.57941e-06
5.56109e-06
5.56109e-06
5.56109e-06
5.56819e-06
5.56819e-06
5.56819e-06
5.55055e-06
5.55055e-06
5.55055e-06
5.53932e-06
5.53932e-06
5.53932e-06
5.53604e-06
5.53604e-06
5.53604e-06
5.51652e-06
5.51652e-06
5.51652e-06
5.5888e-06
5.5888e-06
5.5888e-06
5.59902e-06
5.59902e-06
5.59902e-06
5.60318e-06
5.60318e-06
5.60318e-06
5.62653e-06
5.62653e-06
5.62653e-06
5.61231e-06
5.61231e-06
5.61231e-06
5.64859e-06
5.64859e-06
5.64859e-06
5.60494e-06
5.60494e-06
5.60494e-06
5.3942e-06
5.3942e-06
5.3942e-06
5.1945e-06
5.1945e-06
5.1945e-06
5.35798e-06
5.35798e-06
5.35798e-06
5.35336e-06
5.35336e-06
5.35336e-06
5.3751e-06
5.3751e-06
5.3751e-06
5.35699e-06
5.35699e-06
5.35699e-06
5.34626e-06
5.34626e-06
5.34626e-06
5.3426e-06
5.3426e-06
5.3426e-06
5.46307e-06
5.46307e-06
5.46307e-06
5.35417e-06
5.35417e-06
5.35417e-06
5.24979e-06
5.24979e-06
5.24979e-06
5.22568e-06
5.22568e-06
5.22568e-06
5.20823e-06
5.20823e-06
5.20823e-06
5.42418e-06
5.42418e-06
5.42418e-06
5.40996e-06
5.40996e-06
5.40996e-06
5.45287e-06
5.45287e-06
5.45287e-06
5.46735e-06
5.46735e-06
5.46735e-06
5.4635e-06
5.4635e-06
5.4635e-06
5.3377e-06
5.3377e-06
5.3377e-06
5.50759e-06
5.50759e-06
5.50759e-06
5.52995e-06
5.52995e-06
5.52995e-06
5.51134e-06
5.51134e-06
5.51134e-06
5.04829e-06
5.04829e-06
5.04829e-06
5.03179e-06
5.03179e-06
5.03179e-06
5.0672e-06
5.0672e-06
5.0672e-06
4.99875e-06
4.99875e-06
4.99875e-06
5.00271e-06
5.00271e-06
5.00271e-06
5.01932e-06
5.01932e-06
5.01932e-06
5.2654e-06
5.2654e-06
5.2654e-06
5.17557e-06
5.17557e-06
5.17557e-06
5.13467e-06
5.13467e-06
5.13467e-06
5.13822e-06
5.13822e-06
5.13822e-06
4.74702e-06
4.74702e-06
4.74702e-06
4.75925e-06
4.75925e-06
4.75925e-06
4.77541e-06
4.77541e-06
4.77541e-06
4.7788e-06
4.7788e-06
4.7788e-06
4.76908e-06
4.76908e-06
4.76908e-06
4.78373e-06
4.78373e-06
4.78373e-06
4.77604e-06
4.77604e-06
4.77604e-06
4.79374e-06
4.79374e-06
4.79374e-06
4.79622e-06
4.79622e-06
4.79622e-06
5.20421e-06
5.20421e-06
5.20421e-06
5.18334e-06
5.18334e-06
5.18334e-06
5.18676e-06
5.18676e-06
5.18676e-06
5.01047e-06
5.01047e-06
5.01047e-06
5.0029e-06
5.0029e-06
5.0029e-06
5.01957e-06
5.01957e-06
5.01957e-06
5.0236e-06
5.0236e-06
5.0236e-06
5.04986e-06
5.04986e-06
5.04986e-06
5.02957e-06
5.02957e-06
5.02957e-06
5.0328e-06
5.0328e-06
5.0328e-06
5.0429e-06
5.0429e-06
5.0429e-06
4.88457e-06
4.88457e-06
4.88457e-06
4.89187e-06
4.89187e-06
4.89187e-06
4.95955e-06
4.95955e-06
4.95955e-06
4.96251e-06
4.96251e-06
4.96251e-06
4.89379e-06
4.89379e-06
4.89379e-06
4.845e-06
4.845e-06
4.845e-06
4.85206e-06
4.85206e-06
4.85206e-06
4.871e-06
4.871e-06
4.871e-06
4.81588e-06
4.81588e-06
4.81588e-06
4.81279e-06
4.81279e-06
4.81279e-06
4.82145e-06
4.82145e-06
4.82145e-06
4.83419e-06
4.83419e-06
4.83419e-06
4.82543e-06
4.82543e-06
4.82543e-06
4.84167e-06
4.84167e-06
4.84167e-06
8.7616e-06
8.7616e-06
8.7616e-06
8.71859e-06
8.71859e-06
8.71859e-06
8.59941e-06
8.59941e-06
8.59941e-06
8.52346e-06
8.52346e-06
8.52346e-06
8.24176e-06
8.24176e-06
8.24176e-06
8.36079e-06
8.36079e-06
8.36079e-06
8.40464e-06
8.40464e-06
8.40464e-06
6.89523e-06
6.89523e-06
6.89523e-06
9.39143e-06
9.39143e-06
9.39143e-06
9.2737e-06
9.2737e-06
9.2737e-06
8.9197e-06
8.9197e-06
8.9197e-06
9.03784e-06
9.03784e-06
9.03784e-06
8.7538e-06
8.7538e-06
8.7538e-06
8.68069e-06
8.68069e-06
8.68069e-06
8.71912e-06
8.71912e-06
8.71912e-06
8.83041e-06
8.83041e-06
8.83041e-06
9.12662e-06
9.12662e-06
9.12662e-06
8.90219e-06
8.90219e-06
8.90219e-06
8.60414e-06
8.60414e-06
8.60414e-06
8.38064e-06
8.38064e-06
8.38064e-06
8.45383e-06
8.45383e-06
8.45383e-06
8.56602e-06
8.56602e-06
8.56602e-06
6.07081e-06
6.07081e-06
6.07081e-06
6.20875e-06
6.20875e-06
6.20875e-06
6.33691e-06
6.33691e-06
6.33691e-06
6.15198e-06
6.15198e-06
6.15198e-06
6.03728e-06
6.03728e-06
6.03728e-06
5.99223e-06
5.99223e-06
5.99223e-06
6.22209e-06
6.22209e-06
6.22209e-06
6.06218e-06
6.06218e-06
6.06218e-06
6.17735e-06
6.17735e-06
6.17735e-06
6.19687e-06
6.19687e-06
6.19687e-06
5.96764e-06
5.96764e-06
5.96764e-06
5.82909e-06
5.82909e-06
5.82909e-06
5.27199e-06
5.27199e-06
5.27199e-06
5.87721e-06
5.87721e-06
5.87721e-06
5.38941e-06
5.38941e-06
5.38941e-06
7.15268e-06
7.15268e-06
7.15268e-06
6.27714e-06
6.27714e-06
6.27714e-06
6.23351e-06
6.23351e-06
6.23351e-06
6.51308e-06
6.51308e-06
6.51308e-06
6.69673e-06
6.69673e-06
6.69673e-06
6.62684e-06
6.62684e-06
6.62684e-06
6.78754e-06
6.78754e-06
6.78754e-06
7.88491e-06
7.88491e-06
7.88491e-06
7.49852e-06
7.49852e-06
7.49852e-06
7.45554e-06
7.45554e-06
7.45554e-06
7.33681e-06
7.33681e-06
7.33681e-06
7.29035e-06
7.29035e-06
7.29035e-06
6.40748e-06
6.40748e-06
6.40748e-06
6.77986e-06
6.77986e-06
6.77986e-06
6.54939e-06
6.54939e-06
6.54939e-06
8.82349e-06
8.82349e-06
8.82349e-06
8.71015e-06
8.71015e-06
8.71015e-06
7.12306e-06
7.12306e-06
7.12306e-06
7.35019e-06
7.35019e-06
7.35019e-06
7.30882e-06
7.30882e-06
7.30882e-06
7.1952e-06
7.1952e-06
7.1952e-06
7.58688e-06
7.58688e-06
7.58688e-06
7.18968e-06
7.18968e-06
7.18968e-06
7.53538e-06
7.53538e-06
7.53538e-06
9.20212e-06
9.20212e-06
9.20212e-06
9.2392e-06
9.2392e-06
9.2392e-06
9.20146e-06
9.20146e-06
9.20146e-06
8.97563e-06
8.97563e-06
8.97563e-06
9.0493e-06
9.0493e-06
9.0493e-06
9.16268e-06
9.16268e-06
9.16268e-06
9.16394e-06
9.16394e-06
9.16394e-06
9.08903e-06
9.08903e-06
9.08903e-06
8.97659e-06
8.97659e-06
8.97659e-06
8.93859e-06
8.93859e-06
8.93859e-06
9.01377e-06
9.01377e-06
9.01377e-06
9.12667e-06
9.12667e-06
9.12667e-06
8.86943e-06
8.86943e-06
8.86943e-06
8.75972e-06
8.75972e-06
8.75972e-06
8.72253e-06
8.72253e-06
8.72253e-06
8.94287e-06
8.94287e-06
8.94287e-06
8.79579e-06
8.79579e-06
8.79579e-06
8.90595e-06
8.90595e-06
8.90595e-06
7.38328e-06
7.38328e-06
7.38328e-06
7.20586e-06
7.20586e-06
7.20586e-06
7.31444e-06
7.31444e-06
7.31444e-06
7.34374e-06
7.34374e-06
7.34374e-06
7.67929e-06
7.67929e-06
7.67929e-06
7.46258e-06
7.46258e-06
7.46258e-06
7.50156e-06
7.50156e-06
7.50156e-06
7.60969e-06
7.60969e-06
7.60969e-06
7.49209e-06
7.49209e-06
7.49209e-06
7.5316e-06
7.5316e-06
7.5316e-06
7.64018e-06
7.64018e-06
7.64018e-06
7.70967e-06
7.70967e-06
7.70967e-06
7.95389e-06
7.95389e-06
7.95389e-06
7.73407e-06
7.73407e-06
7.73407e-06
7.88252e-06
7.88252e-06
7.88252e-06
7.77285e-06
7.77285e-06
7.77285e-06
8.10233e-06
8.10233e-06
8.10233e-06
8.06383e-06
8.06383e-06
8.06383e-06
7.61504e-06
7.61504e-06
7.61504e-06
7.65477e-06
7.65477e-06
7.65477e-06
7.37432e-06
7.37432e-06
7.37432e-06
7.41364e-06
7.41364e-06
7.41364e-06
7.55383e-06
7.55383e-06
7.55383e-06
7.44413e-06
7.44413e-06
7.44413e-06
8.26868e-06
8.26868e-06
8.26868e-06
8.196e-06
8.196e-06
8.196e-06
8.01836e-06
8.01836e-06
8.01836e-06
8.49611e-06
8.49611e-06
8.49611e-06
8.56917e-06
8.56917e-06
8.56917e-06
8.41903e-06
8.41903e-06
8.41903e-06
8.53076e-06
8.53076e-06
8.53076e-06
7.16605e-06
7.16605e-06
7.16605e-06
7.23472e-06
7.23472e-06
7.23472e-06
7.19549e-06
7.19549e-06
7.19549e-06
7.08623e-06
7.08623e-06
7.08623e-06
7.01663e-06
7.01663e-06
7.01663e-06
7.05721e-06
7.05721e-06
7.05721e-06
6.98827e-06
6.98827e-06
6.98827e-06
6.87965e-06
6.87965e-06
6.87965e-06
7.22399e-06
7.22399e-06
7.22399e-06
7.29362e-06
7.29362e-06
7.29362e-06
7.25408e-06
7.25408e-06
7.25408e-06
7.14392e-06
7.14392e-06
7.14392e-06
6.81295e-06
6.81295e-06
6.81295e-06
6.92317e-06
6.92317e-06
6.92317e-06
7.31251e-06
7.31251e-06
7.31251e-06
7.23155e-06
7.23155e-06
7.23155e-06
6.95134e-06
6.95134e-06
6.95134e-06
7.17262e-06
7.17262e-06
7.17262e-06
6.99245e-06
6.99245e-06
6.99245e-06
7.10287e-06
7.10287e-06
7.10287e-06
7.10753e-06
7.10753e-06
7.10753e-06
6.25162e-06
6.25162e-06
6.25162e-06
6.18288e-06
6.18288e-06
6.18288e-06
6.71476e-06
6.71476e-06
6.71476e-06
6.64623e-06
6.64623e-06
6.64623e-06
7.88965e-06
7.88965e-06
7.88965e-06
7.81847e-06
7.81847e-06
7.81847e-06
7.96594e-06
7.96594e-06
7.96594e-06
7.85733e-06
7.85733e-06
7.85733e-06
8.17795e-06
8.17795e-06
8.17795e-06
8.06871e-06
8.06871e-06
8.06871e-06
8.21591e-06
8.21591e-06
8.21591e-06
7.99868e-06
7.99868e-06
7.99868e-06
8.1453e-06
8.1453e-06
8.1453e-06
8.03649e-06
8.03649e-06
8.03649e-06
7.73114e-06
7.73114e-06
7.73114e-06
8.01524e-06
8.01524e-06
8.01524e-06
7.90817e-06
7.90817e-06
7.90817e-06
8.05125e-06
8.05125e-06
8.05125e-06
7.83795e-06
7.83795e-06
7.83795e-06
7.98125e-06