<VTKFile type="UnstructuredGrid" version="1.0">
<UnstructuredGrid>
<Piece NumberOfPoints="8859" NumberOfCells="2953">
<Points>
<DataArray type="Float64" NumberOfComponents="3" format="ascii">
0.5 3.01 10.355
0.512524 3.01 10.3775
0.487476 3.01 10.3775
0.17352 3.01 9.4775
0.160827 3.01 9.49922
0.148445 3.01 9.4775
0.122979 3.01 9.52089
0.110383 3.01 9.49921
0.135644 3.01 9.49922
0.135644 3.01 9.49922
0.110383 3.01 9.49921
0.123433 3.01 9.4775
0.123433 3.01 9.4775
0.148445 3.01 9.4775
0.135644 3.01 9.49922
0.135644 3.01 9.49922
0.148445 3.01 9.4775
0.160827 3.01 9.49922
0.17352 3.01 9.4775
0.198629 3.01 9.4775
0.185985 3.01 9.4992
0.185985 3.01 9.4992
0.160827 3.01 9.49922
0.17352 3.01 9.4775
0.0732297 3.01 9.52067
0.0586606 3.01 9.49881
0.0848754 3.01 9.49914
0.05 3.01 10.3103
0.05 3.01 10.2651
0.058509 3.01 10.2876
0.324276 3.01 9.4775
0.349395 3.01 9.4775
0.336827 3.01 9.49916
0.148138 3.01 9.5209
0.135644 3.01 9.49922
0.160827 3.01 9.49922
0.122979 3.01 9.52089
0.135644 3.01 9.49922
0.148138 3.01 9.5209
0.160827 3.01 9.49922
0.185985 3.01 9.4992
0.173316 3.01 9.52089
0.185806 3.01 9.54255
0.160572 3.01 9.54255
0.173316 3.01 9.52089
0.173316 3.01 9.52089
0.148138 3.01 9.5209
0.160827 3.01 9.49922
0.160572 3.01 9.54255
0.148138 3.01 9.5209
0.173316 3.01 9.52089
0.211137 3.01 9.49919
0.185985 3.01 9.4992
0.198629 3.01 9.4775
0.0979162 3.01 9.52084
0.110383 3.01 9.49921
0.122979 3.01 9.52089
0.122979 3.01 9.52089
0.109875 3.01 9.54249
0.0979162 3.01 9.52084
0.0732297 3.01 9.52067
0.0848754 3.01 9.49914
0.0979162 3.01 9.52084
0.0979162 3.01 9.52084
0.0848754 3.01 9.49914
0.110383 3.01 9.49921
0.0975729 3.01 9.56404
0.109875 3.01 9.54249
0.122678 3.01 9.56414
0.0841718 3.01 9.54235
0.0577122 3.01 9.54202
0.0732297 3.01 9.52067
0.0729308 3.01 9.56388
0.0577122 3.01 9.54202
0.0841718 3.01 9.54235
0.0732297 3.01 9.52067
0.0979162 3.01 9.52084
0.0841718 3.01 9.54235
0.0841718 3.01 9.54235
0.0979162 3.01 9.52084
0.109875 3.01 9.54249
0.0975729 3.01 9.56404
0.0729308 3.01 9.56388
0.0841718 3.01 9.54235
0.0841718 3.01 9.54235
0.109875 3.01 9.54249
0.0975729 3.01 9.56404
0.073948 3.01 9.4775
0.0586606 3.01 9.49881
0.05 3.01 9.4775
0.073948 3.01 9.4775
0.0848754 3.01 9.49914
0.0586606 3.01 9.49881
0.05 3.01 10.3533
0.05 3.01 10.3103
0.0603641 3.01 10.332
0.0603641 3.01 10.332
0.0753197 3.01 10.354
0.05 3.01 10.3533
0.0709395 3.01 10.3775
0.05 3.01 10.3775
0.05 3.01 10.3533
0.05 3.01 10.3533
0.0753197 3.01 10.354
0.0709395 3.01 10.3775
0.0579641 3.01 10.0646
0.05 3.01 10.0867
0.05 3.01 10.0426
0.0841948 3.01 9.9768
0.097638 3.01 9.95493
0.109814 3.01 9.9768
0.0841948 3.01 9.9768
0.0730539 3.01 9.9987
0.0578646 3.01 9.9768
0.0580261 3.01 10.1088
0.05 3.01 10.1309
0.05 3.01 10.0867
0.942292 3.01 9.67236
0.95 3.01 9.65067
0.95 3.01 9.69404
0.95 3.01 9.60726
0.95 3.01 9.65067
0.942332 3.01 9.62897
0.73872 3.01 9.88953
0.726137 3.01 9.86776
0.75132 3.01 9.86775
0.751305 3.01 9.91132
0.726124 3.01 9.91133
0.73872 3.01 9.88953
0.713546 3.01 9.88954
0.726137 3.01 9.86776
0.73872 3.01 9.88953
0.73872 3.01 9.88953
0.726124 3.01 9.91133
0.713546 3.01 9.88954
0.814318 3.01 9.93311
0.789096 3.01 9.93312
0.801709 3.01 9.9113
0.7765 3.01 9.91131
0.789115 3.01 9.88951
0.801709 3.01 9.9113
0.801709 3.01 9.9113
0.789096 3.01 9.93312
0.7765 3.01 9.91131
0.7765 3.01 9.91131
0.789096 3.01 9.93312
0.763892 3.01 9.93314
0.763892 3.01 9.93314
0.751305 3.01 9.91132
0.7765 3.01 9.91131
0.95 3.01 10.3775
0.929061 3.01 10.3775
0.95 3.01 10.3533
0.95 3.01 10.1754
0.926844 3.01 10.1754
0.941913 3.01 10.1532
0.941913 3.01 10.1532
0.95 3.01 10.1309
0.95 3.01 10.1754
0.926866 3.01 10.1309
0.95 3.01 10.1309
0.941913 3.01 10.1532
0.941974 3.01 10.1088
0.95 3.01 10.1309
0.926866 3.01 10.1309
0.95 3.01 10.0867
0.95 3.01 10.1309
0.941974 3.01 10.1088
0.941974 3.01 10.1088
0.926895 3.01 10.0867
0.95 3.01 10.0867
0.6127 3.01 10.3775
0.625238 3.01 10.355
0.637734 3.01 10.3775
0.662757 3.01 10.3775
0.637734 3.01 10.3775
0.650275 3.01 10.355
0.650275 3.01 10.355
0.637734 3.01 10.3775
0.625238 3.01 10.355
0.600415 3.01 9.91137
0.587856 3.01 9.9332
0.575304 3.01 9.91137
0.575304 3.01 9.91137
0.587856 3.01 9.9332
0.562749 3.01 9.9332
0.336827 3.01 9.49916
0.349395 3.01 9.4775
0.361946 3.01 9.49916
0.223755 3.01 9.4775
0.211137 3.01 9.49919
0.198629 3.01 9.4775
0.185985 3.01 9.4992
0.211137 3.01 9.49919
0.198492 3.01 9.52088
0.185806 3.01 9.54255
0.173316 3.01 9.52089
0.198492 3.01 9.52088
0.198492 3.01 9.52088
0.173316 3.01 9.52089
0.185985 3.01 9.4992
0.0576202 3.01 9.58553
0.05 3.01 9.60726
0.05 3.01 9.56374
0.05 3.01 9.56374
0.0729308 3.01 9.56388
0.0576202 3.01 9.58553
0.05 3.01 9.56374
0.0577122 3.01 9.54202
0.0729308 3.01 9.56388
0.135283 3.01 9.54254
0.109875 3.01 9.54249
0.122979 3.01 9.52089
0.135283 3.01 9.54254
0.122678 3.01 9.56414
0.109875 3.01 9.54249
0.122979 3.01 9.52089
0.148138 3.01 9.5209
0.135283 3.01 9.54254
0.135283 3.01 9.54254
0.148138 3.01 9.5209
0.160572 3.01 9.54255
0.123433 3.01 9.4775
0.110383 3.01 9.49921
0.0985513 3.01 9.4775
0.110383 3.01 9.49921
0.0848754 3.01 9.49914
0.0985513 3.01 9.4775
0.0848754 3.01 9.49914
0.073948 3.01 9.4775
0.0985513 3.01 9.4775
0.0603641 3.01 10.332
0.05 3.01 10.3103
0.0739464 3.01 10.3095
0.0739464 3.01 10.3095
0.05 3.01 10.3103
0.058509 3.01 10.2876
0.058509 3.01 10.2876
0.0849548 3.01 10.2871
0.0739464 3.01 10.3095
0.058509 3.01 10.2876
0.05 3.01 10.2651
0.0732725 3.01 10.2649
0.0732725 3.01 10.2649
0.0849548 3.01 10.2871
0.058509 3.01 10.2876
0.5 3.01 10.355
0.487476 3.01 10.3775
0.47495 3.01 10.355
0.097663 3.01 9.9987
0.0841948 3.01 9.9768
0.109814 3.01 9.9768
0.0730539 3.01 9.9987
0.0841948 3.01 9.9768
0.097663 3.01 9.9987
0.0578646 3.01 9.9768
0.0730539 3.01 9.9987
0.05 3.01 9.9987
0.05 3.01 9.9987
0.05 3.01 9.95492
0.0578646 3.01 9.9768
0.05 3.01 10.1754
0.05 3.01 10.1309
0.0580869 3.01 10.1532
0.05 3.01 10.1309
0.0580261 3.01 10.1088
0.073134 3.01 10.1309
0.073134 3.01 10.1309
0.0580869 3.01 10.1532
0.05 3.01 10.1309
0.942268 3.01 9.71573
0.95 3.01 9.69404
0.95 3.01 9.73741
0.942292 3.01 9.67236
0.95 3.01 9.69404
0.927025 3.01 9.69404
0.927025 3.01 9.69404
0.942268 3.01 9.71573
0.915919 3.01 9.71572
0.95 3.01 9.69404
0.942268 3.01 9.71573
0.927025 3.01 9.69404
0.927013 3.01 9.73741
0.942268 3.01 9.71573
0.95 3.01 9.73741
0.915919 3.01 9.71572
0.942268 3.01 9.71573
0.927013 3.01 9.73741
0.801738 3.01 9.82425
0.814364 3.01 9.80253
0.826957 3.01 9.82425
0.852174 3.01 9.82424
0.826957 3.01 9.82425
0.839609 3.01 9.80252
0.839609 3.01 9.80252
0.826957 3.01 9.82425
0.814364 3.01 9.80253
0.776516 3.01 9.86775
0.75132 3.01 9.86775
0.763923 3.01 9.846
0.776516 3.01 9.86775
0.801725 3.01 9.86774
0.789115 3.01 9.88951
0.738704 3.01 9.93315
0.751305 3.01 9.91132
0.763892 3.01 9.93314
0.726124 3.01 9.91133
0.751305 3.01 9.91132
0.738704 3.01 9.93315
0.915617 3.01 10.1531
0.902228 3.01 10.1309
0.926866 3.01 10.1309
0.926866 3.01 10.1309
0.941913 3.01 10.1532
0.915617 3.01 10.1531
0.915617 3.01 10.1531
0.941913 3.01 10.1532
0.926844 3.01 10.1754
0.915617 3.01 10.1531
0.926844 3.01 10.1754
0.902193 3.01 10.1754
0.926866 3.01 10.1309
0.902228 3.01 10.1309
0.915668 3.01 10.1088
0.902267 3.01 10.0867
0.926895 3.01 10.0867
0.915668 3.01 10.1088
0.915668 3.01 10.1088
0.941974 3.01 10.1088
0.926866 3.01 10.1309
0.926895 3.01 10.0867
0.941974 3.01 10.1088
0.915668 3.01 10.1088
0.902267 3.01 10.0867
0.915668 3.01 10.1088
0.890059 3.01 10.1088
0.890059 3.01 10.1088
0.915668 3.01 10.1088
0.902228 3.01 10.1309
0.826927 3.01 9.91129
0.814318 3.01 9.93311
0.801709 3.01 9.9113
0.864816 3.01 9.9768
0.877308 3.01 9.95493
0.890186 3.01 9.9768
0.877308 3.01 9.95493
0.864816 3.01 9.9768
0.852122 3.01 9.95494
0.890186 3.01 9.9768
0.877308 3.01 9.95493
0.902362 3.01 9.95493
0.902362 3.01 9.95493
0.915805 3.01 9.9768
0.890186 3.01 9.9768
0.902362 3.01 9.95493
0.926964 3.01 9.95492
0.915805 3.01 9.9768
0.915835 3.01 9.93309
0.926964 3.01 9.95492
0.902362 3.01 9.95493
0.942171 3.01 9.93309
0.926964 3.01 9.95492
0.915835 3.01 9.93309
0.915835 3.01 9.93309
0.926978 3.01 9.91127
0.942171 3.01 9.93309
0.942171 3.01 9.93309
0.926978 3.01 9.91127
0.95 3.01 9.91127
0.87737 3.01 9.78081
0.890277 3.01 9.75911
0.902417 3.01 9.7808
0.852144 3.01 9.91128
0.877329 3.01 9.91128
0.864842 3.01 9.93309
0.877308 3.01 9.95493
0.852122 3.01 9.95494
0.864842 3.01 9.93309
0.902396 3.01 9.86772
0.915858 3.01 9.88948
0.890234 3.01 9.88949
0.926997 3.01 9.82423
0.942237 3.01 9.80251
0.95 3.01 9.82423
0.91589 3.01 9.80251
0.942237 3.01 9.80251
0.926997 3.01 9.82423
0.942199 3.01 9.88948
0.95 3.01 9.86771
0.95 3.01 9.91127
0.95 3.01 9.91127
0.926978 3.01 9.91127
0.942199 3.01 9.88948
0.942199 3.01 9.88948
0.926978 3.01 9.91127
0.915858 3.01 9.88948
0.95 3.01 9.82423
0.95 3.01 9.86771
0.942221 3.01 9.84597
0.942221 3.01 9.84597
0.926997 3.01 9.82423
0.95 3.01 9.82423
0.915876 3.01 9.84597
0.926997 3.01 9.82423
0.942221 3.01 9.84597
0.926989 3.01 9.86771
0.915858 3.01 9.88948
0.902396 3.01 9.86772
0.902396 3.01 9.86772
0.915876 3.01 9.84597
0.926989 3.01 9.86771
0.926989 3.01 9.86771
0.942199 3.01 9.88948
0.915858 3.01 9.88948
0.95 3.01 9.86771
0.942199 3.01 9.88948
0.926989 3.01 9.86771
0.915876 3.01 9.84597
0.942221 3.01 9.84597
0.926989 3.01 9.86771
0.926989 3.01 9.86771
0.942221 3.01 9.84597
0.95 3.01 9.86771
0.91353 3.01 10.3319
0.926054 3.01 10.3095
0.939636 3.01 10.332
0.926728 3.01 10.2649
0.95 3.01 10.2651
0.941491 3.01 10.2876
0.926728 3.01 10.2649
0.941822 3.01 10.2425
0.95 3.01 10.2651
0.95 3.01 10.3103
0.95 3.01 10.3533
0.939636 3.01 10.332
0.95 3.01 10.3103
0.926054 3.01 10.3095
0.941491 3.01 10.2876
0.939636 3.01 10.332
0.926054 3.01 10.3095
0.95 3.01 10.3103
0.941491 3.01 10.2876
0.95 3.01 10.2651
0.95 3.01 10.3103
0.941869 3.01 10.1977
0.926844 3.01 10.1754
0.95 3.01 10.1754
0.762942 3.01 10.3323
0.75028 3.01 10.3549
0.737933 3.01 10.3323
0.71291 3.01 10.3324
0.725533 3.01 10.3099
0.737933 3.01 10.3323
0.71291 3.01 10.3324
0.737933 3.01 10.3323
0.725313 3.01 10.3549
0.725313 3.01 10.3549
0.737933 3.01 10.3323
0.75028 3.01 10.3549
[...]
<PointData Scalars="View Factor" >
<DataArray type="Float64" Name="View Factor" NumberOfComponents="1" format="ascii">
5.73991e-06
5.73991e-06
5.73991e-06
6.52565e-06
6.52565e-06
6.52565e-06
6.50511e-06
6.50511e-06
6.50511e-06
6.51891e-06
6.51891e-06
6.51891e-06
6.52578e-06
6.52578e-06
6.52578e-06
6.51879e-06
6.51879e-06
6.51879e-06
6.5255e-06
6.5255e-06
6.5255e-06
6.51866e-06
6.51866e-06
6.51866e-06
6.50551e-06
6.50551e-06
6.50551e-06
5.81114e-06
5.81114e-06
5.81114e-06
6.52414e-06
6.52414e-06
6.52414e-06
6.50499e-06
6.50499e-06
6.50499e-06
6.49817e-06
6.49817e-06
6.49817e-06
6.50486e-06
6.50486e-06
6.50486e-06
6.4774e-06
6.4774e-06
6.4774e-06
6.49804e-06
6.49804e-06
6.49804e-06
6.48431e-06
6.48431e-06
6.48431e-06
6.5185e-06
6.5185e-06
6.5185e-06
6.4983e-06
6.4983e-06
6.4983e-06
6.48459e-06
6.48459e-06
6.48459e-06
6.49848e-06
6.49848e-06
6.49848e-06
6.50525e-06
6.50525e-06
6.50525e-06
6.45731e-06
6.45731e-06
6.45731e-06
6.47813e-06
6.47813e-06
6.47813e-06
6.46449e-06
6.46449e-06
6.46449e-06
6.48479e-06
6.48479e-06
6.48479e-06
6.47785e-06
6.47785e-06
6.47785e-06
6.45752e-06
6.45752e-06
6.45752e-06
6.46422e-06
6.46422e-06
6.46422e-06
6.52617e-06
6.52617e-06
6.52617e-06
6.51924e-06
6.51924e-06
6.51924e-06
5.7747e-06
5.7747e-06
5.7747e-06
5.76273e-06
5.76273e-06
5.76273e-06
5.74393e-06
5.74393e-06
5.74393e-06
5.75031e-06
5.75031e-06
5.75031e-06
5.99944e-06
5.99944e-06
5.99944e-06
6.08199e-06
6.08199e-06
6.08199e-06
6.06929e-06
6.06929e-06
6.06929e-06
5.96155e-06
5.96155e-06
5.96155e-06
6.33463e-06
6.33463e-06
6.33463e-06
6.37477e-06
6.37477e-06
6.37477e-06
6.15691e-06
6.15691e-06
6.15691e-06
6.13115e-06
6.13115e-06
6.13115e-06
6.15075e-06
6.15075e-06
6.15075e-06
6.13787e-06
6.13787e-06
6.13787e-06
6.11038e-06
6.11038e-06
6.11038e-06
6.12994e-06
6.12994e-06
6.12994e-06
6.1171e-06
6.1171e-06
6.1171e-06
6.111e-06
6.111e-06
6.111e-06
6.11771e-06
6.11771e-06
6.11771e-06
5.7312e-06
5.7312e-06
5.7312e-06
5.89804e-06
5.89804e-06
5.89804e-06
5.91033e-06
5.91033e-06
5.91033e-06
5.92309e-06
5.92309e-06
5.92309e-06
5.93563e-06
5.93563e-06
5.93563e-06
5.94795e-06
5.94795e-06
5.94795e-06
5.96075e-06
5.96075e-06
5.96075e-06
5.73789e-06
5.73789e-06
5.73789e-06
5.73744e-06
5.73744e-06
5.73744e-06
5.74379e-06
5.74379e-06
5.74379e-06
6.12143e-06
6.12143e-06
6.12143e-06
6.11524e-06
6.11524e-06
6.11524e-06
6.51709e-06
6.51709e-06
6.51709e-06
6.52533e-06
6.52533e-06
6.52533e-06
6.50471e-06
6.50471e-06
6.50471e-06
6.48417e-06
6.48417e-06
6.48417e-06
6.4979e-06
6.4979e-06
6.4979e-06
6.43052e-06
6.43052e-06
6.43052e-06
6.4441e-06
6.4441e-06
6.4441e-06
6.45778e-06
6.45778e-06
6.45778e-06
6.47768e-06
6.47768e-06
6.47768e-06
6.46403e-06
6.46403e-06
6.46403e-06
6.48445e-06
6.48445e-06
6.48445e-06
6.47754e-06
6.47754e-06
6.47754e-06
6.52589e-06
6.52589e-06
6.52589e-06
6.51904e-06
6.51904e-06
6.51904e-06
6.526e-06
6.526e-06
6.526e-06
5.78669e-06
5.78669e-06
5.78669e-06
5.7989e-06
5.7989e-06
5.7989e-06
5.80525e-06
5.80525e-06
5.80525e-06
5.82367e-06
5.82367e-06
5.82367e-06
5.81756e-06
5.81756e-06
5.81756e-06
5.74621e-06
5.74621e-06
5.74621e-06
6.06922e-06
6.06922e-06
6.06922e-06
6.06288e-06
6.06288e-06
6.06288e-06
6.06294e-06
6.06294e-06
6.06294e-06
6.0757e-06
6.0757e-06
6.0757e-06
5.92379e-06
5.92379e-06
5.92379e-06
5.94894e-06
5.94894e-06
5.94894e-06
5.93636e-06
5.93636e-06
5.93636e-06
6.29483e-06
6.29483e-06
6.29483e-06
6.32157e-06
6.32157e-06
6.32157e-06
6.30204e-06
6.30204e-06
6.30204e-06
6.3083e-06
6.3083e-06
6.3083e-06
6.28187e-06
6.28187e-06
6.28187e-06
6.28882e-06
6.28882e-06
6.28882e-06
6.20687e-06
6.20687e-06
6.20687e-06
6.20621e-06
6.20621e-06
6.20621e-06
6.21305e-06
6.21305e-06
6.21305e-06
6.16923e-06
6.16923e-06
6.16923e-06
6.1557e-06
6.1557e-06
6.1557e-06
6.1116e-06
6.1116e-06
6.1116e-06
6.1183e-06
6.1183e-06
6.1183e-06
5.92378e-06
5.92378e-06
5.92378e-06
5.91714e-06
5.91714e-06
5.91714e-06
5.90462e-06
5.90462e-06
5.90462e-06
5.89874e-06
5.89874e-06
5.89874e-06
5.93632e-06
5.93632e-06
5.93632e-06
5.96146e-06
5.96146e-06
5.96146e-06
5.94223e-06
5.94223e-06
5.94223e-06
5.95479e-06
5.95479e-06
5.95479e-06
5.95551e-06
5.95551e-06
5.95551e-06
5.94294e-06
5.94294e-06
5.94294e-06
6.11647e-06
6.11647e-06
6.11647e-06
6.07007e-06
6.07007e-06
6.07007e-06
6.07679e-06
6.07679e-06
6.07679e-06
6.0761e-06
6.0761e-06
6.0761e-06
6.06937e-06
6.06937e-06
6.06937e-06
6.0754e-06
6.0754e-06
6.0754e-06
6.08816e-06
6.08816e-06
6.08816e-06
6.09416e-06
6.09416e-06
6.09416e-06
6.10695e-06
6.10695e-06
6.10695e-06
6.11302e-06
6.11302e-06
6.11302e-06
6.24395e-06
6.24395e-06
6.24395e-06
6.11515e-06
6.11515e-06
6.11515e-06
6.08955e-06
6.08955e-06
6.08955e-06
6.14621e-06
6.14621e-06
6.14621e-06
6.20334e-06
6.20334e-06
6.20334e-06
6.21018e-06
6.21018e-06
6.21018e-06
6.13846e-06
6.13846e-06
6.13846e-06
6.12584e-06
6.12584e-06
6.12584e-06
6.1326e-06
6.1326e-06
6.1326e-06
6.17716e-06
6.17716e-06
6.17716e-06
6.19035e-06
6.19035e-06
6.19035e-06
6.18421e-06
6.18421e-06
6.18421e-06
6.1523e-06
6.1523e-06
6.1523e-06
6.1652e-06
6.1652e-06
6.1652e-06
6.14547e-06
6.14547e-06
6.14547e-06
6.15157e-06
6.15157e-06
6.15157e-06
6.17127e-06
6.17127e-06
6.17127e-06
6.16447e-06
6.16447e-06
6.16447e-06
5.76837e-06
5.76837e-06
5.76837e-06
5.81078e-06
5.81078e-06
5.81078e-06
5.8232e-06
5.8232e-06
5.8232e-06
5.76176e-06
5.76176e-06
5.76176e-06
5.78609e-06
5.78609e-06
5.78609e-06
5.77394e-06
5.77394e-06
5.77394e-06
5.79806e-06
5.79806e-06
5.79806e-06
5.88554e-06
5.88554e-06
5.88554e-06
5.76003e-06
5.76003e-06
5.76003e-06
5.77284e-06
5.77284e-06
5.77284e-06
5.76053e-06
5.76053e-06
5.76053e-06
5.75413e-06
5.75413e-06
5.75413e-06
5.73597e-06
5.73597e-06
5.73597e-06
5.74185e-06
5.74185e-06
5.74185e-06
5.73545e-06
5.73545e-06
5.73545e-06
5.81726e-06
5.81726e-06
5.81726e-06
5.79751e-06
5.79751e-06
5.79751e-06
5.77924e-06
5.77924e-06
5.77924e-06
5.79158e-06
5.79158e-06
5.79158e-06
5.78018e-06
5.78018e-06
5.78018e-06
5.79252e-06
5.79252e-06
5.79252e-06
5.75649e-06
5.75649e-06
5.75649e-06
5.74423e-06
5.74423e-06
5.74423e-06
5.73833e-06
5.73833e-06
5.73833e-06
6.14301e-06
6.14301e-06
6.14301e-06
6.11477e-06
6.11477e-06
6.11477e-06
6.07726e-06
6.07726e-06
6.07726e-06
6.06406e-06
6.06406e-06
6.06406e-06
6.07683e-06
6.07683e-06
6.07683e-06
6.08344e-06
6.08344e-06
6.08344e-06
6.10241e-06
6.10241e-06
6.10241e-06
6.09623e-06
6.09623e-06
6.09623e-06
6.0645e-06
6.0645e-06
6.0645e-06
6.05791e-06
6.05791e-06
6.05791e-06
5.98832e-06
5.98832e-06
5.98832e-06
6.07488e-06
6.07488e-06
6.07488e-06
6.08153e-06
6.08153e-06
6.08153e-06
6.09757e-06
6.09757e-06
6.09757e-06
6.07203e-06
6.07203e-06
6.07203e-06
6.52468e-06
6.52468e-06
6.52468e-06
6.52492e-06
6.52492e-06
6.52492e-06
6.5179e-06
6.5179e-06
6.5179e-06
6.50412e-06
6.50412e-06
6.50412e-06
6.51067e-06
6.51067e-06
6.51067e-06
6.19453e-06
6.19453e-06
6.19453e-06
6.16861e-06
6.16861e-06
6.16861e-06
6.18835e-06
6.18835e-06
6.18835e-06
6.17539e-06
6.17539e-06
6.17539e-06
6.17601e-06
6.17601e-06
6.17601e-06
6.16983e-06
6.16983e-06
6.16983e-06
6.49712e-06
6.49712e-06
6.49712e-06
6.52384e-06
6.52384e-06
6.52384e-06
6.51903e-06
6.51903e-06
6.51903e-06
6.31451e-06
6.31451e-06
6.31451e-06
6.32128e-06
6.32128e-06
6.32128e-06
6.47158e-06
6.47158e-06
6.47158e-06
6.51261e-06
6.51261e-06
6.51261e-06
6.49887e-06
6.49887e-06
6.49887e-06
6.48518e-06
6.48518e-06
6.48518e-06
5.79921e-06
5.79921e-06
5.79921e-06
5.74027e-06
5.74027e-06
5.74027e-06
5.98679e-06
5.98679e-06
5.98679e-06
5.97416e-06
5.97416e-06
5.97416e-06
6.05014e-06
6.05014e-06
6.05014e-06
6.41596e-06
6.41596e-06
6.41596e-06
5.98666e-06
5.98666e-06
5.98666e-06
5.97403e-06
5.97403e-06
5.97403e-06
6.08834e-06
6.08834e-06
6.08834e-06
6.0819e-06
6.0819e-06
6.0819e-06
6.10121e-06
6.10121e-06
6.10121e-06
6.08842e-06
6.08842e-06
6.08842e-06
6.08847e-06
6.08847e-06
6.08847e-06
6.08206e-06
6.08206e-06
6.08206e-06
6.1141e-06
6.1141e-06
6.1141e-06
6.10127e-06
6.10127e-06
6.10127e-06
6.10766e-06
6.10766e-06
6.10766e-06
6.12049e-06
6.12049e-06
6.12049e-06
6.12694e-06
6.12694e-06
6.12694e-06
6.12798e-06
6.12798e-06
6.12798e-06
6.13406e-06
6.13406e-06
6.13406e-06
6.28262e-06
6.28262e-06
6.28262e-06
6.19388e-06
6.19388e-06
6.19388e-06
6.18772e-06
6.18772e-06
6.18772e-06
6.17476e-06
6.17476e-06
6.17476e-06
6.21237e-06
6.21237e-06
6.21237e-06
6.20552e-06
6.20552e-06
6.20552e-06
6.25086e-06
6.25086e-06
6.25086e-06
6.32857e-06
6.32857e-06
6.32857e-06
6.28738e-06
6.28738e-06
6.28738e-06
6.15632e-06
6.15632e-06
6.15632e-06
6.13056e-06
6.13056e-06
6.13056e-06
6.13668e-06
6.13668e-06
6.13668e-06
6.14956e-06
6.14956e-06
6.14956e-06
6.15017e-06
6.15017e-06
6.15017e-06
6.13729e-06
6.13729e-06
6.13729e-06
6.09879e-06
6.09879e-06
6.09879e-06
6.09268e-06
6.09268e-06
6.09268e-06
6.11217e-06
6.11217e-06
6.11217e-06
6.09936e-06
6.09936e-06
6.09936e-06
6.0616e-06
6.0616e-06
6.0616e-06
6.05496e-06
6.05496e-06
6.05496e-06
6.09431e-06
6.09431e-06
6.09431e-06
6.05665e-06
6.05665e-06
6.05665e-06
5.96215e-06
5.96215e-06
5.96215e-06
5.9754e-06
5.9754e-06
5.9754e-06
5.97474e-06
5.97474e-06
5.97474e-06
5.98137e-06
5.98137e-06
5.98137e-06
5.77826e-06
5.77826e-06
5.77826e-06
5.77235e-06
5.77235e-06
5.77235e-06
5.77875e-06
5.77875e-06
5.77875e-06
5.79109e-06
5.79109e-06
5.79109e-06
5.8466e-06
5.8466e-06
5.8466e-06
5.80784e-06
5.80784e-06
5.80784e-06
5.79549e-06
5.79549e-06
5.79549e-06
5.86332e-06
5.86332e-06
5.86332e-06
5.85148e-06
5.85148e-06
5.85148e-06
5.86924e-06
5.86924e-06
5.86924e-06
6.16797e-06
6.16797e-06
6.16797e-06
6.10974e-06
6.10974e-06
6.10974e-06
6.11582e-06
6.11582e-06
6.11582e-06
6.10908e-06
6.10908e-06
6.10908e-06
6.09628e-06
6.09628e-06
6.09628e-06
6.05802e-06
6.05802e-06
6.05802e-06
6.07075e-06
6.07075e-06
6.07075e-06
6.11374e-06
6.11374e-06
6.11374e-06
6.12728e-06
6.12728e-06
6.12728e-06
6.12657e-06
6.12657e-06
6.12657e-06
6.13334e-06
6.13334e-06
6.13334e-06
6.08744e-06
6.08744e-06
6.08744e-06
6.09998e-06
6.09998e-06
6.09998e-06
6.17202e-06
6.17202e-06
6.17202e-06
6.19252e-06
6.19252e-06
6.19252e-06
6.18569e-06
6.18569e-06
6.18569e-06
6.22397e-06
6.22397e-06
6.22397e-06
6.21167e-06
6.21167e-06
6.21167e-06
6.23087e-06
6.23087e-06
6.23087e-06
6.2247e-06
6.2247e-06
6.2247e-06
6.25012e-06
6.25012e-06
6.25012e-06
6.26324e-06
6.26324e-06
6.26324e-06
6.26945e-06
6.26945e-06
6.26945e-06
5.75798e-06
5.75798e-06
5.75798e-06
5.77083e-06
5.77083e-06
5.77083e-06
5.75008e-06
5.75008e-06
5.75008e-06
5.75624e-06
5.75624e-06
5.75624e-06
5.7378e-06
5.7378e-06
5.7378e-06
5.77489e-06
5.77489e-06
5.77489e-06
5.81169e-06
5.81169e-06
5.81169e-06
5.78713e-06
5.78713e-06
5.78713e-06
5.79277e-06
5.79277e-06
5.79277e-06
5.80503e-06
5.80503e-06
5.80503e-06
5.83258e-06
5.83258e-06
5.83258e-06
5.8509e-06
5.8509e-06
5.8509e-06
5.84498e-06
5.84498e-06
5.84498e-06
5.84438e-06
5.84438e-06
5.84438e-06
5.88624e-06
5.88624e-06
5.88624e-06
5.87962e-06
5.87962e-06
5.87962e-06
5.8298e-06
5.8298e-06
5.8298e-06
5.82404e-06
5.82404e-06
5.82404e-06
5.77379e-06
5.77379e-06
5.77379e-06
5.77332e-06
5.77332e-06
5.77332e-06
5.77972e-06
5.77972e-06
5.77972e-06
5.73647e-06
5.73647e-06
5.73647e-06
5.74235e-06
5.74235e-06
5.74235e-06
5.75463e-06
5.75463e-06
5.75463e-06
5.76101e-06
5.76101e-06
5.76101e-06
5.73973e-06
5.73973e-06
5.73973e-06
5.7585e-06
5.7585e-06
5.7585e-06
5.75208e-06
5.75208e-06
5.75208e-06
5.73382e-06
5.73382e-06
5.73382e-06
5.75363e-06
5.75363e-06
5.75363e-06
5.74133e-06
5.74133e-06
5.74133e-06
5.80988e-06
5.80988e-06
5.80988e-06
5.81631e-06
5.81631e-06
5.81631e-06
5.904e-06
5.904e-06
5.904e-06
5.91002e-06
5.91002e-06
5.91002e-06
5.8715e-06
5.8715e-06
5.8715e-06
5.82871e-06
5.82871e-06
5.82871e-06
5.83468e-06
5.83468e-06
5.83468e-06
5.82966e-06
5.82966e-06
5.82966e-06
5.86552e-06
5.86552e-06
5.86552e-06
5.85307e-06
5.85307e-06
5.85307e-06
5.8471e-06
5.8471e-06
5.8471e-06
5.85357e-06
5.85357e-06
5.85357e-06
5.79799e-06
5.79799e-06
5.79799e-06
5.81083e-06
5.81083e-06
5.81083e-06
5.79847e-06
5.79847e-06
5.79847e-06
5.79205e-06
5.79205e-06
5.79205e-06
5.81679e-06
5.81679e-06
5.81679e-06
5.81036e-06
5.81036e-06
5.81036e-06
5.77425e-06
5.77425e-06
5.77425e-06
5.76195e-06
5.76195e-06
5.76195e-06
5.75604e-06
5.75604e-06
5.75604e-06
5.76241e-06
5.76241e-06
5.76241e-06
5.79893e-06
5.79893e-06
5.79893e-06
5.8113e-06
5.8113e-06
5.8113e-06
5.81772e-06
5.81772e-06
5.81772e-06
5.93095e-06
5.93095e-06
5.93095e-06
5.94353e-06
5.94353e-06
5.94353e-06
6.17749e-06
6.17749e-06
6.17749e-06
6.12586e-06
6.12586e-06
6.12586e-06
6.18408e-06
6.18408e-06
6.18408e-06
6.1777e-06
6.1777e-06
6.1777e-06
6.11933e-06
6.11933e-06
6.11933e-06
6.13674e-06
6.13674e-06
6.13674e-06
6.14336e-06
6.14336e-06
6.14336e-06
6.07918e-06
6.07918e-06
6.07918e-06
6.08541e-06
6.08541e-06
6.08541e-06
6.09785e-06
6.09785e-06
6.09785e-06
6.06641e-06
6.06641e-06
6.06641e-06
6.0602e-06
6.0602e-06
6.0602e-06
6.04746e-06
6.04746e-06
6.04746e-06
6.04094e-06
6.04094e-06
6.04094e-06
6.12096e-06
6.12096e-06
6.12096e-06
6.10195e-06
6.10195e-06
6.10195e-06
6.09578e-06
6.09578e-06
6.09578e-06
6.08299e-06
6.08299e-06
6.08299e-06
6.07637e-06
6.07637e-06
6.07637e-06
6.02204e-06
6.02204e-06
6.02204e-06
6.02822e-06
6.02822e-06
6.02822e-06
6.05834e-06
6.05834e-06
6.05834e-06
6.04518e-06
6.04518e-06
6.04518e-06
6.07884e-06
6.07884e-06
6.07884e-06
6.08505e-06
6.08505e-06
6.08505e-06
6.02098e-06
6.02098e-06
6.02098e-06
6.02714e-06
6.02714e-06
6.02714e-06
6.06264e-06
6.06264e-06
6.06264e-06
6.0754e-06
6.0754e-06
6.0754e-06
6.0593e-06
6.0593e-06
6.0593e-06
5.95865e-06
5.95865e-06
5.95865e-06
6.52514e-06
6.52514e-06
6.52514e-06
6.51812e-06
6.51812e-06
6.51812e-06
6.51833e-06
6.51833e-06
6.51833e-06
6.38847e-06
6.38847e-06
6.38847e-06
6.41529e-06
6.41529e-06
6.41529e-06
6.40197e-06
6.40197e-06
6.40197e-06
6.51185e-06
6.51185e-06
6.51185e-06
6.51528e-06
6.51528e-06
6.51528e-06
6.51725e-06
6.51725e-06
6.51725e-06
6.19515e-06
6.19515e-06
6.19515e-06
6.18896e-06
6.18896e-06
6.18896e-06
6.19575e-06
6.19575e-06
6.19575e-06
6.20876e-06
6.20876e-06
6.20876e-06
6.1766e-06
6.1766e-06
6.1766e-06
6.18956e-06
6.18956e-06
6.18956e-06
6.51765e-06
6.51765e-06
6.51765e-06
6.50387e-06
6.50387e-06
6.50387e-06
6.52442e-06
6.52442e-06
6.52442e-06
6.51738e-06
6.51738e-06
6.51738e-06
6.50331e-06
6.50331e-06
6.50331e-06
6.49629e-06
6.49629e-06
6.49629e-06
6.48257e-06
6.48257e-06
6.48257e-06
6.48225e-06
6.48225e-06
6.48225e-06
6.47557e-06
6.47557e-06
6.47557e-06
6.45524e-06
6.45524e-06
6.45524e-06
6.4619e-06
6.4619e-06
6.4619e-06
6.52279e-06
6.52279e-06
6.52279e-06
6.51241e-06
6.51241e-06
6.51241e-06
6.30126e-06
6.30126e-06
6.30126e-06
6.27485e-06
6.27485e-06
6.27485e-06
6.49402e-06
6.49402e-06
6.49402e-06
6.49735e-06
6.49735e-06
6.49735e-06
6.48362e-06
6.48362e-06
6.48362e-06
6.50434e-06
6.50434e-06
6.50434e-06
5.87919e-06
5.87919e-06
5.87919e-06
5.85378e-06
5.85378e-06
5.85378e-06
5.8172e-06
5.8172e-06
5.8172e-06
5.8174e-06
5.8174e-06
5.8174e-06
5.8235e-06
5.8235e-06
5.8235e-06
5.85465e-06
5.85465e-06
5.85465e-06
5.83591e-06
5.83591e-06
5.83591e-06
5.84221e-06
5.84221e-06
5.84221e-06
5.82329e-06
5.82329e-06
5.82329e-06
5.80537e-06
5.80537e-06
5.80537e-06
5.83614e-06
5.83614e-06
5.83614e-06
5.84859e-06
5.84859e-06
5.84859e-06
5.74655e-06
5.74655e-06
5.74655e-06
5.77742e-06
5.77742e-06
5.77742e-06
5.76512e-06
5.76512e-06
5.76512e-06
5.75881e-06
5.75881e-06
5.75881e-06
5.8021e-06
5.8021e-06
5.8021e-06
5.77805e-06
5.77805e-06
5.77805e-06
5.76574e-06
5.76574e-06
5.76574e-06
5.99302e-06
5.99302e-06
5.99302e-06
5.98674e-06
5.98674e-06
5.98674e-06
5.99309e-06
5.99309e-06
5.99309e-06
5.95522e-06
5.95522e-06
5.95522e-06
5.96783e-06
5.96783e-06
5.96783e-06
5.9489e-06
5.9489e-06
5.9489e-06
5.95516e-06
5.95516e-06
5.95516e-06
5.97411e-06
5.97411e-06
5.97411e-06
5.96776e-06
5.96776e-06
5.96776e-06
6.04375e-06
6.04375e-06
6.04375e-06
6.03095e-06
6.03095e-06
6.03095e-06
6.03749e-06
6.03749e-06
6.03749e-06
6.0502e-06
6.0502e-06
6.0502e-06
6.04381e-06
6.04381e-06
6.04381e-06
6.41689e-06
6.41689e-06
6.41689e-06
6.31593e-06
6.31593e-06
6.31593e-06
6.34254e-06
6.34254e-06
6.34254e-06
6.27535e-06
6.27535e-06
6.27535e-06
6.26219e-06
6.26219e-06
6.26219e-06
6.26999e-06
6.26999e-06
6.26999e-06
6.23064e-06
6.23064e-06
6.23064e-06
6.21757e-06
6.21757e-06
6.21757e-06
6.30963e-06
6.30963e-06
6.30963e-06
6.32284e-06
6.32284e-06
6.32284e-06
6.33616e-06
6.33616e-06
6.33616e-06
6.3229e-06
6.3229e-06
6.3229e-06
6.31623e-06
6.31623e-06
6.31623e-06
6.32264e-06
6.32264e-06
6.32264e-06
6.33595e-06
6.33595e-06
6.33595e-06
6.35615e-06
6.35615e-06
6.35615e-06
6.34278e-06
6.34278e-06
6.34278e-06
6.33606e-06
6.33606e-06
6.33606e-06
6.34268e-06
6.34268e-06
6.34268e-06
6.40246e-06
6.40246e-06
6.40246e-06
5.94882e-06
5.94882e-06
5.94882e-06
5.93624e-06
5.93624e-06
5.93624e-06
6.0628e-06
6.0628e-06
6.0628e-06
6.06913e-06
6.06913e-06
6.06913e-06
6.05006e-06
6.05006e-06
6.05006e-06
6.04366e-06
6.04366e-06
6.04366e-06
6.08823e-06
6.08823e-06
6.08823e-06
6.19155e-06
6.19155e-06
6.19155e-06
6.19801e-06
6.19801e-06
6.19801e-06
6.20454e-06
6.20454e-06
6.20454e-06
6.20448e-06
6.20448e-06
6.20448e-06
6.19794e-06
6.19794e-06
6.19794e-06
6.12688e-06
6.12688e-06
6.12688e-06
6.13975e-06
6.13975e-06
6.13975e-06
6.18475e-06
6.18475e-06
6.18475e-06
6.10114e-06
6.10114e-06
6.10114e-06
6.1268e-06
6.1268e-06
6.1268e-06
6.10759e-06
6.10759e-06
6.10759e-06
6.12042e-06
6.12042e-06
6.12042e-06
6.30751e-06
6.30751e-06
6.30751e-06
6.29429e-06
6.29429e-06
6.29429e-06
6.22609e-06
6.22609e-06
6.22609e-06
6.27019e-06
6.27019e-06
6.27019e-06
6.26398e-06
6.26398e-06
6.26398e-06
6.23158e-06
6.23158e-06
6.23158e-06
6.24466e-06
6.24466e-06
6.24466e-06
6.2254e-06
6.2254e-06
6.2254e-06
6.23228e-06
6.23228e-06
6.23228e-06
6.23295e-06
6.23295e-06
6.23295e-06
6.24603e-06
6.24603e-06
6.24603e-06
6.30906e-06
6.30906e-06
6.30906e-06
6.32233e-06
6.32233e-06
6.32233e-06
6.0921e-06
6.0921e-06
6.0921e-06
6.09819e-06
6.09819e-06
6.09819e-06
6.09149e-06
6.09149e-06
6.09149e-06
6.07872e-06
6.07872e-06
6.07872e-06
6.07264e-06
6.07264e-06
6.07264e-06
6.07932e-06
6.07932e-06
6.07932e-06
6.09324e-06
6.09324e-06
6.09324e-06
6.08046e-06
6.08046e-06
6.08046e-06
6.081e-06
6.081e-06
6.081e-06
6.07435e-06
6.07435e-06
6.07435e-06
6.11887e-06
6.11887e-06
6.11887e-06
6.13843e-06
6.13843e-06
6.13843e-06
6.13172e-06
6.13172e-06
6.13172e-06
6.06213e-06
6.06213e-06
6.06213e-06
6.0555e-06
6.0555e-06
6.0555e-06
6.05602e-06
6.05602e-06
6.05602e-06
5.97783e-06
5.97783e-06
5.97783e-06
5.96523e-06
5.96523e-06
5.96523e-06
6.03261e-06
6.03261e-06
6.03261e-06
6.04994e-06
6.04994e-06
6.04994e-06
6.05735e-06
6.05735e-06
6.05735e-06
6.05065e-06
6.05065e-06
6.05065e-06
6.05133e-06
6.05133e-06
6.05133e-06
6.03863e-06
6.03863e-06
6.03863e-06
5.9933e-06
5.9933e-06
5.9933e-06
5.97405e-06
5.97405e-06
5.97405e-06
5.98069e-06
5.98069e-06
5.98069e-06
5.93701e-06
5.93701e-06
5.93701e-06
5.90534e-06
5.90534e-06
5.90534e-06
5.91785e-06
5.91785e-06
5.91785e-06
5.92447e-06
5.92447e-06
5.92447e-06
5.91854e-06
5.91854e-06
5.91854e-06
5.88169e-06
5.88169e-06
5.88169e-06
5.7901e-06
5.7901e-06
5.7901e-06
5.77726e-06
5.77726e-06
5.77726e-06
5.78959e-06
5.78959e-06
5.78959e-06
5.79602e-06
5.79602e-06
5.79602e-06
5.79653e-06
5.79653e-06
5.79653e-06
5.79703e-06
5.79703e-06
5.79703e-06
5.7906e-06
5.7906e-06
5.7906e-06
5.80889e-06
5.80889e-06
5.80889e-06
5.78906e-06
5.78906e-06
5.78906e-06
5.7703e-06
5.7703e-06
5.7703e-06
5.77673e-06
5.77673e-06
5.77673e-06
5.79494e-06
5.79494e-06
5.79494e-06
5.82667e-06
5.82667e-06
5.82667e-06
5.81429e-06
5.81429e-06
5.81429e-06
5.80838e-06
5.80838e-06
5.80838e-06
5.81482e-06
5.81482e-06
5.81482e-06
5.88034e-06
5.88034e-06
5.88034e-06
5.86788e-06
5.86788e-06
5.86788e-06
5.8627e-06
5.8627e-06
5.8627e-06
5.85027e-06
5.85027e-06
5.85027e-06
5.86201e-06
5.86201e-06
5.86201e-06
5.86858e-06
5.86858e-06
5.86858e-06
6.15506e-06
6.15506e-06
6.15506e-06
6.12931e-06
6.12931e-06
6.12931e-06
6.13606e-06
6.13606e-06
6.13606e-06
6.14893e-06
6.14893e-06
6.14893e-06
6.12866e-06
6.12866e-06
6.12866e-06
6.1544e-06
6.1544e-06
6.1544e-06
6.13541e-06
6.13541e-06
6.13541e-06
6.14829e-06
6.14829e-06
6.14829e-06
6.13475e-06
6.13475e-06
6.13475e-06
6.14762e-06
6.14762e-06
6.14762e-06
6.18706e-06
6.18706e-06
6.18706e-06
6.17411e-06
6.17411e-06
6.17411e-06
6.16731e-06
6.16731e-06
6.16731e-06
6.19321e-06
6.19321e-06