<VTKFile type="UnstructuredGrid" version="1.0">
<UnstructuredGrid>
<Piece NumberOfPoints="8859" NumberOfCells="2953">
<Points>
<DataArray type="Float64" NumberOfComponents="3" format="ascii">
2.04744 2.20956 3.00263
2.06275 2.19425 3.01458
2.04754 2.20946 3.02833
2.07804 2.17896 2.95167
2.07805 2.17895 2.92651
2.0934 2.1636 2.93898
2.06271 2.19429 2.96436
2.07804 2.17896 2.95167
2.07804 2.17896 2.97686
2.01701 2.23999 3.05488
2.03242 2.22458 3.0625
2.00164 2.25536 3.0625
2.01701 2.23999 3.05488
2.03232 2.22468 3.03957
2.03242 2.22458 3.0625
2.04777 2.20923 3.05479
2.06326 2.19374 3.0625
2.03242 2.22458 3.0625
2.04777 2.20923 3.05479
2.03232 2.22468 3.03957
2.04754 2.20946 3.02833
2.03242 2.22458 3.0625
2.03232 2.22468 3.03957
2.04777 2.20923 3.05479
2.04754 2.20946 3.02833
2.06275 2.19425 3.01458
2.06287 2.19413 3.03927
2.06287 2.19413 3.03927
2.04777 2.20923 3.05479
2.04754 2.20946 3.02833
2.06326 2.19374 3.0625
2.04777 2.20923 3.05479
2.06287 2.19413 3.03927
2.06275 2.19425 3.01458
2.04744 2.20956 3.00263
2.06271 2.19429 2.98952
2.06271 2.19429 2.96436
2.07804 2.17896 2.97686
2.06271 2.19429 2.98952
2.07809 2.17891 3.02762
2.06287 2.19413 3.03927
2.06275 2.19425 3.01458
2.0934 2.1636 3.01395
2.0934 2.1636 3.03855
2.07809 2.17891 3.02762
2.0934 2.1636 2.91387
2.0934 2.1636 2.93898
2.07805 2.17895 2.92651
2.07804 2.17896 2.95167
2.0934 2.1636 2.93898
2.0934 2.1636 2.96406
2.0934 2.1636 2.96406
2.07804 2.17896 2.97686
2.07804 2.17896 2.95167
2.0934 2.1636 2.38652
2.0934 2.1636 2.41165
2.07807 2.17893 2.39907
2.07807 2.17893 2.85107
2.0934 2.1636 2.86361
2.07806 2.17894 2.87621
2.0934 2.1636 2.83848
2.0934 2.1636 2.86361
2.07807 2.17893 2.85107
2.07808 2.17892 2.72544
2.0934 2.1636 2.73799
2.07808 2.17892 2.75055
1.61564 2.64136 2.17059
1.63134 2.62566 2.1625
1.63134 2.62566 2.18563
1.5683 2.6887 3.0625
1.53648 2.72052 3.0625
1.55243 2.70457 3.05432
2.07804 2.17896 3.00212
2.06271 2.19429 2.98952
2.07804 2.17896 2.97686
2.06275 2.19425 3.01458
2.06271 2.19429 2.98952
2.07804 2.17896 3.00212
2.07804 2.17896 3.00212
2.07809 2.17891 3.02762
2.06275 2.19425 3.01458
2.0934 2.1636 3.01395
2.07809 2.17891 3.02762
2.07804 2.17896 3.00212
2.07833 2.17867 3.05384
2.0934 2.1636 3.03855
2.0934 2.1636 3.0625
2.07833 2.17867 3.05384
2.07809 2.17891 3.02762
2.0934 2.1636 3.03855
2.0934 2.1636 3.0625
2.06326 2.19374 3.0625
2.07833 2.17867 3.05384
2.06326 2.19374 3.0625
2.06287 2.19413 3.03927
2.07833 2.17867 3.05384
2.06287 2.19413 3.03927
2.07809 2.17891 3.02762
2.07833 2.17867 3.05384
2.07806 2.17894 2.87621
2.0934 2.1636 2.86361
2.0934 2.1636 2.88875
2.07804 2.17896 2.97686
2.0934 2.1636 2.96406
2.0934 2.1636 2.98907
2.0934 2.1636 3.01395
2.07804 2.17896 3.00212
2.0934 2.1636 2.98907
2.0934 2.1636 2.98907
2.07804 2.17896 3.00212
2.07804 2.17896 2.97686
2.0934 2.1636 2.71288
2.0934 2.1636 2.73799
2.07808 2.17892 2.72544
2.07807 2.17893 2.39907
2.0934 2.1636 2.41165
2.07807 2.17893 2.4242
2.06275 2.19425 2.83853
2.04743 2.20957 2.82598
2.06275 2.19425 2.81338
2.07806 2.17894 2.90136
2.0934 2.1636 2.91387
2.07805 2.17895 2.92651
2.07806 2.17894 2.90136
2.0934 2.1636 2.88875
2.0934 2.1636 2.91387
2.07806 2.17894 2.90136
2.06273 2.19427 2.88884
2.07806 2.17894 2.87621
2.07806 2.17894 2.87621
2.0934 2.1636 2.88875
2.07806 2.17894 2.90136
2.06271 2.19429 2.93918
2.07804 2.17896 2.95167
2.06271 2.19429 2.96436
2.06271 2.19429 2.93918
2.07805 2.17895 2.92651
2.07804 2.17896 2.95167
2.04741 2.20959 2.90149
2.03209 2.22491 2.91415
2.0321 2.2249 2.88894
1.83285 2.42415 3.02838
1.81747 2.43953 3.0149
1.83285 2.42415 3.00275
1.78664 2.47036 2.8638
1.78664 2.47036 2.889
1.77121 2.48579 2.87639
2.0934 2.1636 2.1625
2.0934 2.1636 2.18645
2.07833 2.17867 2.17116
1.56833 2.68867 3.03933
1.5683 2.6887 3.0625
1.55243 2.70457 3.05432
1.63134 2.62566 2.96446
1.61565 2.64135 2.97714
1.61564 2.64136 2.95185
1.55243 2.70457 3.05432
1.53648 2.72052 3.0625
1.53664 2.72036 3.03923
2.06276 2.19424 2.487
2.04745 2.20955 2.47443
2.06276 2.19424 2.46188
2.0934 2.1636 2.63759
2.07808 2.17892 2.62505
2.0934 2.1636 2.6125
2.07808 2.17892 2.67524
2.0934 2.1636 2.66269
2.0934 2.1636 2.68778
2.06277 2.19423 2.58741
2.04745 2.20955 2.59995
2.04745 2.20955 2.57486
2.06277 2.19423 2.6125
2.04745 2.20955 2.59995
2.06277 2.19423 2.58741
2.07808 2.17892 2.62505
2.06277 2.19423 2.63759
2.06277 2.19423 2.6125
2.04745 2.20955 2.75057
2.06276 2.19424 2.76312
2.04744 2.20956 2.7757
2.01682 2.24018 2.72547
2.01682 2.24018 2.75059
2.0015 2.2555 2.73803
2.04745 2.20955 2.72545
2.03214 2.22486 2.7129
2.04745 2.20955 2.70035
2.04745 2.20955 2.70035
2.06277 2.19423 2.71289
2.04745 2.20955 2.72545
2.03214 2.22486 2.7129
2.03214 2.22486 2.6878
2.04745 2.20955 2.70035
2.04745 2.20955 2.70035
2.03214 2.22486 2.6878
2.04745 2.20955 2.67524
2.0934 2.1636 2.68778
2.0934 2.1636 2.71288
2.07808 2.17892 2.70034
2.07808 2.17892 2.70034
2.07808 2.17892 2.67524
2.0934 2.1636 2.68778
2.07808 2.17892 2.70034
2.0934 2.1636 2.71288
2.07808 2.17892 2.72544
2.07808 2.17892 2.72544
2.06277 2.19423 2.71289
2.07808 2.17892 2.70034
2.04744 2.20956 2.80083
2.03213 2.22487 2.78828
2.04744 2.20956 2.7757
2.04744 2.20956 2.80083
2.06275 2.19425 2.81338
2.04743 2.20957 2.82598
2.0015 2.2555 2.7883
2.01681 2.24019 2.77572
2.01681 2.24019 2.80086
2.01681 2.24019 2.80086
2.01681 2.24019 2.77572
2.03213 2.22487 2.78828
2.0934 2.1636 2.7631
2.07808 2.17892 2.75055
2.0934 2.1636 2.73799
2.04744 2.20956 2.7757
2.06276 2.19424 2.76312
2.06276 2.19424 2.78825
2.06276 2.19424 2.78825
2.04744 2.20956 2.80083
2.04744 2.20956 2.7757
2.06275 2.19425 2.81338
2.04744 2.20956 2.80083
2.06276 2.19424 2.78825
2.07806 2.17894 2.87621
2.06273 2.19427 2.88884
2.06274 2.19426 2.86368
2.06274 2.19426 2.86368
2.07807 2.17893 2.85107
2.07806 2.17894 2.87621
2.06275 2.19425 2.83853
2.07807 2.17893 2.85107
2.06274 2.19426 2.86368
2.0321 2.2249 2.88894
2.03211 2.22489 2.86375
2.04742 2.20958 2.8763
2.04742 2.20958 2.8763
2.04741 2.20959 2.90149
2.0321 2.2249 2.88894
2.06273 2.19427 2.88884
2.04741 2.20959 2.90149
2.04742 2.20958 2.8763
2.04742 2.20958 2.8763
2.06274 2.19426 2.86368
2.06273 2.19427 2.88884
2.01679 2.24021 2.87638
2.03211 2.22489 2.86375
2.0321 2.2249 2.88894
2.01679 2.24021 2.87638
2.00148 2.25552 2.88901
2.00148 2.25552 2.86381
2.06271 2.19429 2.96436
2.06271 2.19429 2.98952
2.04741 2.20959 2.97722
2.04741 2.20959 2.97722
2.06271 2.19429 2.98952
2.04744 2.20956 3.00263
2.03209 2.22491 2.91415
2.04741 2.20959 2.90149
2.0474 2.2096 2.92669
2.0474 2.2096 2.92669
2.03209 2.22491 2.93937
2.03209 2.22491 2.91415
1.97087 2.28613 2.76317
1.95555 2.30145 2.77575
1.95555 2.30145 2.75061
2.00148 2.25552 2.86381
2.00149 2.25551 2.83862
2.0168 2.2402 2.85119
2.0168 2.2402 2.85119
2.01679 2.24021 2.87638
2.00148 2.25552 2.86381
2.03211 2.22489 2.86375
2.01679 2.24021 2.87638
2.0168 2.2402 2.85119
2.03211 2.22489 2.83858
2.03211 2.22489 2.86375
2.0168 2.2402 2.85119
1.86358 2.39342 3.00276
1.86358 2.39342 3.02839
1.84822 2.40878 3.01491
1.84822 2.40878 3.01491
1.86358 2.39342 3.02839
1.84822 2.40878 3.0395
1.84822 2.40878 3.01491
1.84822 2.40878 3.0395
1.83285 2.42415 3.02838
1.83285 2.42415 3.02838
1.83285 2.42415 3.00275
1.84822 2.40878 3.01491
1.81747 2.43953 2.98984
1.83285 2.42415 3.00275
1.81747 2.43953 3.0149
1.80202 2.45498 2.62505
1.80202 2.45498 2.65015
1.7866 2.4704 2.6376
1.70922 2.54778 2.75056
1.69367 2.56333 2.738
1.70922 2.54778 2.72545
1.70924 2.54776 2.80083
1.6937 2.5633 2.81339
1.69369 2.56331 2.78825
1.63134 2.62566 2.96446
1.61564 2.64136 2.95185
1.63132 2.62568 2.93924
1.63135 2.62565 2.98966
1.61565 2.64135 2.97714
1.63134 2.62566 2.96446
1.69376 2.56324 2.91412
1.69378 2.56322 2.93934
1.6782 2.5788 2.92672
1.59983 2.65717 2.86358
1.61554 2.64146 2.85103
1.61557 2.64143 2.8762
1.59973 2.65727 2.76303
1.58397 2.67303 2.77556
1.58396 2.67304 2.75046
1.61564 2.64136 3.05441
1.63134 2.62566 3.0625
1.5999 2.6571 3.0625
1.63134 2.62566 3.03937
1.63134 2.62566 3.0625
1.61564 2.64136 3.05441
1.647 2.61 3.05447
1.63134 2.62566 3.0625
1.63134 2.62566 3.03937
1.59993 2.65707 2.98961
1.59992 2.65708 3.01469
1.58418 2.67282 3.00246
1.84822 2.40878 3.0625
1.81747 2.43953 3.0625
1.83285 2.42415 3.05472
1.83285 2.42415 3.02838
1.84822 2.40878 3.0395
1.83285 2.42415 3.05472
1.83285 2.42415 3.05472
1.84822 2.40878 3.0395
1.84822 2.40878 3.0625
1.81747 2.43953 3.03949
1.81747 2.43953 3.0149
1.83285 2.42415 3.02838
1.83285 2.42415 3.02838
1.83285 2.42415 3.05472
1.81747 2.43953 3.03949
1.81747 2.43953 3.03949
1.83285 2.42415 3.05472
1.81747 2.43953 3.0625
1.70931 2.54769 2.92676
1.69378 2.56322 2.93934
1.69376 2.56324 2.91412
1.7712 2.4858 2.8512
1.78663 2.47037 2.83862
1.78664 2.47036 2.8638
1.78664 2.47036 2.8638
1.77121 2.48579 2.87639
1.7712 2.4858 2.8512
1.77122 2.48578 2.9016
1.77121 2.48579 2.87639
1.78664 2.47036 2.889
1.77122 2.48578 2.9016
1.78664 2.47036 2.889
1.78665 2.47035 2.91421
1.78665 2.47035 2.91421
1.77123 2.48577 2.92682
1.77122 2.48578 2.9016
1.77122 2.48578 2.9016
1.77123 2.48577 2.92682
1.75578 2.50122 2.91419
1.78666 2.47034 2.93943
1.77123 2.48577 2.92682
1.78665 2.47035 2.91421
1.78666 2.47034 2.96464
1.77124 2.48576 2.97734
1.77124 2.48576 2.95206
1.77124 2.48576 2.95206
1.78666 2.47034 2.93943
1.78666 2.47034 2.96464
1.77123 2.48577 2.92682
1.78666 2.47034 2.93943
1.77124 2.48576 2.95206
2.07809 2.17891 2.19738
2.07833 2.17867 2.17116
2.0934 2.1636 2.18645
2.06287 2.19413 2.18573
2.07833 2.17867 2.17116
2.07809 2.17891 2.19738
1.94028 2.31672 2.18548
1.94028 2.31672 2.1625
1.95561 2.30139 2.17021
2.00164 2.25536 2.1625
1.98629 2.27071 2.17017
1.97095 2.28605 2.1625
1.97095 2.28605 2.1625
1.95561 2.30139 2.17021
1.94028 2.31672 2.1625
1.48928 2.76772 2.19897
1.48919 2.76781 2.17286
1.50509 2.75191 2.18645
1.50509 2.75191 2.18645
1.5206 2.7364 2.17101
1.52092 2.73608 2.19745
1.47362 2.78338 2.18782
1.48919 2.76781 2.17286
1.48928 2.76772 2.19897
1.47362 2.78338 2.18782
1.47412 2.78288 2.1625
1.48919 2.76781 2.17286
1.56833 2.68867 2.18567
1.5683 2.6887 2.1625
1.58412 2.67288 2.17063
[...]
<PointData Scalars="View Factor" >
<DataArray type="Float64" Name="View Factor" NumberOfComponents="1" format="ascii">
0.00362175
0.00362175
0.00362175
0.00337162
0.00337162
0.00337162
0.00345144
0.00345144
0.00345144
0.00382149
0.00382149
0.00382149
0.00377674
0.00377674
0.00377674
0.00375671
0.00375671
0.00375671
0.00371269
0.00371269
0.00371269
0.00375534
0.00375534
0.00375534
0.00364627
0.00364627
0.00364627
0.00369298
0.00369298
0.00369298
0.00371553
0.00371553
0.00371553
0.00357736
0.00357736
0.00357736
0.00349252
0.00349252
0.00349252
0.00362791
0.00362791
0.00362791
0.00359421
0.00359421
0.00359421
0.00333291
0.00333291
0.00333291
0.00339611
0.00339611
0.00339611
0.00343578
0.00343578
0.00343578
0.00228764
0.00228764
0.00228764
0.00318782
0.00318782
0.00318782
0.00315174
0.00315174
0.00315174
0.00290835
0.00290835
0.00290835
0.00382341
0.00382341
0.00382341
0.00812373
0.00812373
0.00812373
0.0035177
0.0035177
0.0035177
0.00355955
0.00355955
0.00355955
0.0035855
0.0035855
0.0035855
0.00356885
0.00356885
0.00356885
0.00366295
0.00366295
0.00366295
0.00363846
0.00363846
0.00363846
0.0037013
0.0037013
0.0037013
0.00369652
0.00369652
0.00369652
0.00365551
0.00365551
0.00365551
0.00321075
0.00321075
0.00321075
0.00346073
0.00346073
0.00346073
0.00352678
0.00352678
0.00352678
0.00350157
0.00350157
0.00350157
0.00287615
0.00287615
0.00287615
0.00231198
0.00231198
0.00231198
0.00313618
0.00313618
0.00313618
0.00330893
0.00330893
0.00330893
0.00327113
0.00327113
0.00327113
0.00326213
0.00326213
0.00326213
0.00324767
0.00324767
0.00324767
0.00342698
0.00342698
0.00342698
0.00338684
0.00338684
0.00338684
0.00335088
0.00335088
0.00335088
0.00509355
0.00509355
0.00509355
0.00498158
0.00498158
0.00498158
0.00196598
0.00196598
0.00196598
0.0079636
0.0079636
0.0079636
0.00687038
0.00687038
0.00687038
0.00818376
0.00818376
0.00818376
0.00244041
0.00244041
0.00244041
0.00267705
0.00267705
0.00267705
0.00277439
0.00277439
0.00277439
0.00264726
0.00264726
0.00264726
0.00266457
0.00266457
0.00266457
0.00269995
0.00269995
0.00269995
0.00300266
0.00300266
0.00300266
0.00301209
0.00301209
0.00301209
0.00290986
0.00290986
0.00290986
0.00289536
0.00289536
0.00289536
0.00289106
0.00289106
0.00289106
0.00285763
0.00285763
0.00285763
0.0028247
0.0028247
0.0028247
0.00280517
0.00280517
0.00280517
0.00285618
0.00285618
0.00285618
0.00286852
0.00286852
0.00286852
0.00307369
0.00307369
0.00307369
0.003115
0.003115
0.003115
0.00312485
0.00312485
0.00312485
0.00310703
0.00310703
0.00310703
0.00292879
0.00292879
0.00292879
0.00302288
0.00302288
0.00302288
0.00305818
0.00305818
0.00305818
0.00307888
0.00307888
0.00307888
0.00323932
0.00323932
0.00323932
0.00320193
0.00320193
0.00320193
0.00317964
0.00317964
0.00317964
0.00328857
0.00328857
0.00328857
0.0033107
0.0033107
0.0033107
0.00329366
0.00329366
0.00329366
0.00325489
0.00325489
0.00325489
0.00330667
0.00330667
0.00330667
0.00334543
0.00334543
0.00334543
0.00350982
0.00350982
0.00350982
0.00355266
0.00355266
0.00355266
0.00337355
0.00337355
0.00337355
0.0034147
0.0034147
0.0034147
0.00316598
0.00316598
0.00316598
0.00328312
0.00328312
0.00328312
0.00330422
0.00330422
0.00330422
0.0032851
0.0032851
0.0032851
0.0032454
0.0032454
0.0032454
0.0047954
0.0047954
0.0047954
0.00489148
0.00489148
0.00489148
0.0049917
0.0049917
0.0049917
0.00499386
0.00499386
0.00499386
0.00509236
0.00509236
0.00509236
0.00405481
0.00405481
0.00405481
0.00510484
0.00510484
0.00510484
0.0053954
0.0053954
0.0053954
0.00675284
0.00675284
0.00675284
0.00688725
0.00688725
0.00688725
0.00603739
0.00603739
0.00603739
0.00644749
0.00644749
0.00644749
0.00614586
0.00614586
0.00614586
0.00746234
0.00746234
0.00746234
0.00730783
0.00730783
0.00730783
0.00719943
0.00719943
0.00719943
0.00733882
0.00733882
0.00733882
0.00522314
0.00522314
0.00522314
0.00509438
0.00509438
0.00509438
0.00508887
0.00508887
0.00508887
0.00519301
0.00519301
0.00519301
0.0051962
0.0051962
0.0051962
0.00529437
0.00529437
0.00529437
0.00594083
0.00594083
0.00594083
0.00488682
0.00488682
0.00488682
0.00497887
0.00497887
0.00497887
0.00507538
0.00507538
0.00507538
0.0050785
0.0050785
0.0050785
0.00517453
0.00517453
0.00517453
0.00526817
0.00526817
0.00526817
0.00517774
0.00517774
0.00517774
0.00538015
0.00538015
0.00538015
0.00527961
0.00527961
0.00527961
0.00527619
0.00527619
0.00527619
0.00198498
0.00198498
0.00198498
0.00199267
0.00199267
0.00199267
0.002166
0.002166
0.002166
0.00205105
0.00205105
0.00205105
0.0021042
0.0021042
0.0021042
0.00456697
0.00456697
0.00456697
0.00445017
0.00445017
0.00445017
0.004625
0.004625
0.004625
0.00461355
0.00461355
0.00461355
0.00410345
0.00410345
0.00410345
0.0038588
0.0038588
0.0038588
0.00402587
0.00402587
0.00402587
0.00521764
0.00521764
0.00521764
0.00523138
0.00523138
0.00523138
0.00752567
0.00752567
0.00752567
0.00746659
0.00746659
0.00746659
0.00748614
0.00748614
0.00748614
0.00621701
0.00621701
0.00621701
0.0062327
0.0062327
0.0062327
0.00689754
0.00689754
0.00689754
0.00227261
0.00227261
0.00227261
0.00258391
0.00258391
0.00258391
0.00252719
0.00252719
0.00252719
0.00255553
0.00255553
0.00255553
0.00248334
0.00248334
0.00248334
0.00251102
0.00251102
0.00251102
0.0025232
0.0025232
0.0025232
0.00250744
0.00250744
0.00250744
0.00247943
0.00247943
0.00247943
0.00246751
0.00246751
0.00246751
0.00268491
0.00268491
0.00268491
0.00273225
0.00273225
0.00273225
0.00272339
0.00272339
0.00272339
0.002464
0.002464
0.002464
0.00232733
0.00232733
0.00232733
0.00318127
0.00318127
0.00318127
0.00333576
0.00333576
0.00333576
0.0030483
0.0030483
0.0030483
0.00314905
0.00314905
0.00314905
0.00290576
0.00290576
0.00290576
0.002889
0.002889
0.002889
0.00295683
0.00295683
0.00295683
0.0030198
0.0030198
0.0030198
0.00266025
0.00266025
0.00266025
0.00262997
0.00262997
0.00262997
0.0026588
0.0026588
0.0026588
0.00267013
0.00267013
0.00267013
0.00265239
0.00265239
0.00265239
0.00262322
0.00262322
0.00262322
0.00261212
0.00261212
0.00261212
0.00339481
0.00339481
0.00339481
0.00332841
0.00332841
0.00332841
0.0029125
0.0029125
0.0029125
0.00290387
0.00290387
0.00290387
0.00296561
0.00296561
0.00296561
0.00303654
0.00303654
0.00303654
0.00326868
0.00326868
0.00326868
0.00327403
0.00327403
0.00327403
0.00340494
0.00340494
0.00340494
0.00333388
0.00333388
0.00333388
0.00298211
0.00298211
0.00298211
0.0030444
0.0030444
0.0030444
0.00295428
0.00295428
0.00295428
0.00296816
0.00296816
0.00296816
0.0029484
0.0029484
0.0029484
0.00292096
0.00292096
0.00292096
0.0029011
0.0029011
0.0029011
0.00291467
0.00291467
0.00291467
0.00299507
0.00299507
0.00299507
0.00296322
0.00296322
0.00296322
0.00294399
0.00294399
0.00294399
0.00295974
0.00295974
0.00295974
0.00293906
0.00293906
0.00293906
0.00288648
0.00288648
0.00288648
0.00290357
0.00290357
0.00290357
0.00281725
0.00281725
0.00281725
0.00281127
0.00281127
0.00281127
0.00279828
0.00279828
0.00279828
0.00284346
0.00284346
0.00284346
0.00286238
0.00286238
0.00286238
0.00284911
0.00284911
0.00284911
0.00305355
0.00305355
0.00305355
0.00307003
0.00307003
0.00307003
0.00305041
0.00305041
0.00305041
0.00301782
0.00301782
0.00301782
0.00301425
0.00301425
0.00301425
0.00299814
0.00299814
0.00299814
0.00306783
0.00306783
0.00306783
0.00304874
0.00304874
0.00304874
0.00306705
0.00306705
0.00306705
0.0031052
0.0031052
0.0031052
0.00311026
0.00311026
0.00311026
0.00312712
0.00312712
0.00312712
0.00313088
0.00313088
0.00313088
0.0031683
0.0031683
0.0031683
0.00316318
0.00316318
0.00316318
0.00297466
0.00297466
0.00297466
0.00296178
0.00296178
0.00296178
0.00298263
0.00298263
0.00298263
0.00300868
0.00300868
0.00300868
0.00309407
0.00309407
0.00309407
0.00312133
0.00312133
0.00312133
0.00312932
0.00312932
0.00312932
0.00314311
0.00314311
0.00314311
0.00303771
0.00303771
0.00303771
0.00301625
0.00301625
0.00301625
0.00302942
0.00302942
0.00302942
0.00306436
0.00306436
0.00306436
0.00308564
0.00308564
0.00308564
0.00307216
0.00307216
0.00307216
0.00322773
0.00322773
0.00322773
0.00319484
0.00319484
0.00319484
0.00324934
0.00324934
0.00324934
0.0032327
0.0032327
0.0032327
0.00318941
0.00318941
0.00318941
0.00317316
0.00317316
0.00317316
0.00336942
0.00336942
0.00336942
0.00334733
0.00334733
0.00334733
0.00336692
0.00336692
0.00336692
0.00344379
0.00344379
0.00344379
0.00348015
0.00348015
0.00348015
0.00342002
0.00342002
0.00342002
0.00343793
0.00343793
0.00343793
0.00348561
0.00348561
0.00348561
0.00350398
0.00350398
0.00350398
0.00368528
0.00368528
0.00368528
0.00364106
0.00364106
0.00364106
0.00375495
0.00375495
0.00375495
0.00370617
0.00370617
0.00370617
0.00368236
0.00368236
0.00368236
0.00354695
0.00354695
0.00354695
0.00363592
0.00363592
0.00363592
0.0035715
0.0035715
0.0035715
0.00361551
0.00361551
0.00361551
0.00335608
0.00335608
0.00335608
0.00332375
0.00332375
0.00332375
0.00336295
0.00336295
0.00336295
0.00337932
0.00337932
0.00337932
0.00330041
0.00330041
0.00330041
0.00331637
0.00331637
0.00331637
0.00364815
0.00364815
0.00364815
0.0036534
0.0036534
0.0036534
0.00341343
0.00341343
0.00341343
0.00356964
0.00356964
0.00356964
0.00318471
0.00318471
0.00318471
0.00491429
0.00491429
0.00491429
0.00498666
0.00498666
0.00498666
0.0048919
0.0048919
0.0048919
0.00413014
0.00413014
0.00413014
0.00397996
0.00397996
0.00397996
0.00347185
0.00347185
0.00347185
0.00346722
0.00346722
0.00346722
0.00509814
0.00509814
0.00509814
0.00585729
0.00585729
0.00585729
0.00519505
0.00519505
0.00519505
0.00531948
0.00531948
0.00531948
0.00549225
0.00549225
0.00549225
0.0054005
0.0054005
0.0054005
0.00673629
0.00673629
0.00673629
0.00700781
0.00700781
0.00700781
0.00711113
0.00711113
0.00711113
0.00723415
0.00723415
0.00723415
0.00665296
0.00665296
0.00665296
0.0065384
0.0065384
0.0065384
0.00645372
0.00645372
0.00645372
0.00643983
0.00643983
0.00643983
0.00608709
0.00608709
0.00608709
0.00599364
0.00599364
0.00599364
0.0062747
0.0062747
0.0062747
0.00636876
0.00636876
0.00636876
0.00635407
0.00635407
0.00635407
0.00576745
0.00576745
0.00576745
0.00623125
0.00623125
0.00623125
0.00632853
0.00632853
0.00632853
0.00643197
0.00643197
0.00643197
0.00632444
0.00632444
0.00632444
0.00611452
0.00611452
0.00611452
0.00604504
0.00604504
0.00604504
0.00713505
0.00713505
0.00713505
0.00680974
0.00680974
0.00680974
0.00697158
0.00697158
0.00697158
0.00709186
0.00709186
0.00709186
0.00553446
0.00553446
0.00553446
0.0053976
0.0053976
0.0053976
0.00478724
0.00478724
0.00478724
0.00487578
0.00487578
0.00487578
0.00470763
0.00470763
0.00470763
0.00602205
0.00602205
0.00602205
0.00526375
0.00526375
0.00526375
0.00516716
0.00516716
0.00516716
0.00547763
0.00547763
0.00547763
0.0056734
0.0056734
0.0056734
0.00196324
0.00196324
0.00196324
0.00198143
0.00198143
0.00198143
0.00203817
0.00203817
0.00203817
0.00201771
0.00201771
0.00201771
0.00201772
0.00201772
0.00201772
0.00433009
0.00433009
0.00433009
0.00439281
0.00439281
0.00439281
0.00419449
0.00419449
0.00419449
0.00427304
0.00427304
0.00427304
0.00427803
0.00427803
0.00427803
0.00415991
0.00415991
0.00415991
0.00422105
0.00422105
0.00422105
0.00423087
0.00423087
0.00423087
0.0045196
0.0045196
0.0045196
0.0046478
0.0046478
0.0046478
0.00457858
0.00457858
0.00457858
0.00450182
0.00450182
0.00450182
0.00444393
0.00444393
0.00444393
0.00453215
0.00453215
0.00453215
0.00436411
0.00436411
0.00436411
0.00448474
0.00448474
0.00448474
0.00578898
0.00578898
0.00578898
0.00450179
0.00450179
0.00450179
0.00608234
0.00608234
0.00608234
0.00597236
0.00597236
0.00597236
0.00599055
0.00599055
0.00599055
0.00582744
0.00582744
0.00582744
0.00591743
0.00591743
0.00591743
0.00555644
0.00555644
0.00555644
0.00565138
0.00565138
0.00565138
0.00656914
0.00656914
0.00656914
0.00585048
0.00585048
0.00585048
0.00586613
0.00586613
0.00586613
0.00489405
0.00489405
0.00489405
0.00482975
0.00482975
0.00482975
0.00502309
0.00502309
0.00502309
0.00508781
0.00508781
0.00508781
0.00516598
0.00516598
0.00516598
0.00487265
0.00487265
0.00487265
0.00536231
0.00536231
0.00536231
0.00526864
0.00526864
0.00526864
0.00528266
0.00528266
0.00528266
0.00463044
0.00463044
0.00463044
0.004636
0.004636
0.004636
0.00527181
0.00527181
0.00527181
0.00464679
0.00464679
0.00464679
0.00456731
0.00456731
0.00456731
0.00456244
0.00456244
0.00456244
0.00443232
0.00443232
0.00443232
0.00442641
0.00442641
0.00442641
0.00523095
0.00523095
0.00523095
0.00514609
0.00514609
0.00514609
0.00729546
0.00729546
0.00729546
0.00740327
0.00740327
0.00740327
0.00737921
0.00737921
0.00737921
0.0072551
0.0072551
0.0072551
0.00763481
0.00763481
0.00763481
0.00761942
0.00761942
0.00761942
0.00779214
0.00779214
0.00779214
0.00785375
0.00785375
0.00785375
0.00772789
0.00772789
0.00772789
0.00692622
0.00692622
0.00692622
0.00705818
0.00705818
0.00705818
0.00694934
0.00694934
0.00694934
0.00633598
0.00633598
0.00633598
0.00654761
0.00654761
0.00654761
0.00652974
0.00652974
0.00652974
0.00642386
0.00642386
0.00642386
0.00659989
0.00659989
0.00659989
0.00672699
0.00672699
0.00672699
0.00661861
0.00661861
0.00661861
0.00681682
0.00681682
0.00681682
0.0067823
0.0067823
0.0067823
0.00655738
0.00655738
0.00655738
0.00691661
0.00691661
0.00691661
0.00680367
0.00680367
0.00680367
0.00699513
0.00699513
0.00699513
0.00829344
0.00829344
0.00829344
0.00845674
0.00845674
0.00845674
0.00851188
0.00851188
0.00851188
0.00757264
0.00757264
0.00757264
0.00770056
0.00770056
0.00770056
0.00794538
0.00794538
0.00794538
0.00805407
0.00805407
0.00805407
0.00780787
0.00780787
0.00780787
0.00778478
0.00778478
0.00778478
0.00204876
0.00204876
0.00204876
0.00203878
0.00203878
0.00203878
0.00204994
0.00204994
0.00204994
0.00207125
0.00207125
0.00207125
0.00208587
0.00208587
0.00208587
0.00207349
0.00207349
0.00207349
0.00208312
0.00208312
0.00208312
0.00290508
0.00290508
0.00290508
0.0020143
0.0020143
0.0020143
0.00202273
0.00202273
0.00202273
0.00205116
0.00205116
0.00205116
0.0020412
0.0020412
0.0020412
0.00257201
0.00257201
0.00257201
0.0026009
0.0026009
0.0026009
0.00261779
0.00261779
0.00261779
0.00260586
0.00260586
0.00260586
0.00249471
0.00249471
0.00249471
0.00251577
0.00251577
0.00251577
0.00256797
0.00256797
0.00256797
0.00259461
0.00259461
0.00259461
0.00256502
0.00256502
0.00256502
0.00255182
0.00255182
0.00255182
0.00369928
0.00369928
0.00369928
0.00356477
0.00356477
0.00356477
0.00326097
0.00326097
0.00326097
0.00338441
0.00338441
0.00338441
0.00344765
0.00344765
0.00344765
0.00344866
0.00344866
0.00344866
0.00332334
0.00332334
0.00332334
0.00338716
0.00338716
0.00338716
0.00332508
0.00332508
0.00332508
0.00338269
0.00338269
0.00338269
0.0035103
0.0035103
0.0035103
0.00363864
0.00363864
0.00363864
0.00362745
0.00362745
0.00362745
0.00351158
0.00351158
0.00351158
0.00356798
0.00356798
0.00356798
0.00287399
0.00287399
0.00287399
0.00349914
0.00349914
0.00349914
0.00350137
0.00350137
0.00350137
0.00324976
0.00324976
0.00324976
0.00312576
0.00312576
0.00312576
0.00318563
0.00318563
0.00318563
0.00273
0.00273
0.00273
0.00221721
0.00221721
0.00221721
0.00241134
0.00241134
0.00241134
0.00241602
0.00241602
0.00241602
0.00246833
0.00246833
0.00246833
0.00247548
0.00247548
0.00247548
0.00320146
0.00320146
0.00320146
0.00296495
0.00296495
0.00296495
0.00308526
0.00308526
0.00308526
0.00242491
0.00242491
0.00242491
0.00243658
0.00243658
0.00243658
0.00292522
0.00292522
0.00292522
0.00279827
0.00279827
0.00279827
0.00280503
0.00280503
0.00280503
0.00286793
0.00286793
0.00286793
0.00271166
0.00271166
0.00271166
0.00301178
0.00301178
0.00301178
0.00285209
0.00285209
0.00285209
0.00235223
0.00235223
0.00235223
0.00236786
0.00236786
0.00236786
0.00240925
0.00240925
0.00240925
0.00242946
0.00242946
0.00242946
0.00240318
0.00240318
0.00240318
0.00239319
0.00239319
0.00239319
0.00245153
0.00245153
0.00245153
0.00247799
0.00247799
0.00247799
0.00248842
0.00248842
0.00248842
0.00247215
0.00247215
0.00247215
0.00244537
0.00244537
0.00244537
0.00243516
0.00243516
0.00243516
0.0027553
0.0027553
0.0027553
0.00276712
0.00276712
0.00276712
0.00274857
0.00274857
0.00274857
0.00272518
0.00272518
0.00272518
0.00271809
0.00271809
0.00271809
0.00270652
0.00270652
0.00270652
0.0031232
0.0031232
0.0031232
0.00326673
0.00326673
0.00326673
0.0031902
0.0031902
0.0031902
0.00313208
0.00313208
0.00313208
0.00306749
0.00306749
0.00306749
0.00310804
0.00310804
0.00310804
0.00312634
0.00312634
0.00312634
0.00310584
0.00310584
0.00310584
0.00305137
0.00305137
0.00305137
0.00306924
0.00306924
0.00306924
0.00304922
0.00304922
0.00304922
0.00301174
0.00301174
0.00301174
0.00285167
0.00285167
0.00285167
0.00288707
0.00288707
0.00288707
0.00288614
0.00288614
0.00288614
0.00290408
0.00290408
0.00290408
0.00285238
0.00285238
0.00285238
0.00283496
0.00283496
0.00283496
0.00283733
0.00283733
0.00283733
0.00285369
0.00285369
0.00285369
0.00307539
0.00307539
0.00307539
0.00306645
0.00306645
0.00306645
0.00294194
0.00294194
0.00294194
0.00301107
0.00301107
0.00301107
0.00260884
0.00260884
0.00260884
0.0026395
0.0026395
0.0026395
0.002751
0.002751
0.002751
0.00264354
0.00264354
0.00264354
0.0026136
0.0026136
0.0026136
0.00261065
0.00261065
0.00261065
0.00259715
0.00259715
0.00259715
0.00327479
0.00327479
0.00327479
0.00320715
0.00320715
0.00320715
0.00321523
0.00321523
0.00321523
0.00328999
0.00328999
0.00328999
0.00335817
0.00335817
0.00335817
0.00335098
0.00335098
0.00335098
0.0034206
0.0034206
0.0034206
0.00349796
0.00349796
0.00349796
0.00315697
0.00315697
0.00315697
0.00309208
0.00309208
0.00309208
0.00310005
0.00310005
0.00310005
0.00317203
0.00317203
0.00317203
0.00338946
0.00338946
0.00338946
0.00331674
0.00331674
0.00331674
0.00298997
0.00298997
0.00298997
0.00300478
0.00300478
0.00300478
0.00325704
0.00325704
0.00325704
0.00311503
0.00311503
0.00311503
0.00325079
0.00325079
0.00325079
0.00317912
0.00317912
0.00317912
0.00302486
0.00302486
0.00302486
0.0035625
0.0035625
0.0035625
0.00362954
0.00362954
0.00362954
0.00334376
0.00334376
0.00334376
0.00340947
0.00340947
0.00340947
0.00295685
0.00295685
0.00295685
0.002993
0.002993
0.002993
0.00299339
0.00299339
0.00299339
0.00301129
0.00301129
0.00301129
0.00288814
0.00288814
0.00288814
0.0029044
0.0029044
0.0029044
0.00290646
0.00290646
0.00290646
0.00293935
0.00293935
0.00293935
0.002941
0.002941
0.002941
0.00295763
0.00295763
0.00295763
0.00324217
0.00324217
0.00324217
0.00316507
0.00316507
0.00316507
0.0031833
0.0031833
0.0031833
0.00318558
0.00318558
0.00318558
0.00322253
0.00322253
0.00322253
0.00322428
0.00322428
0.00322428
0.00324295
0.00324295
0.00324295
0.00382233
0.00382233
0.00382233
0.00377751
0.00377751
0.00377751
0.00361192
0.00361192
0.00361192
0.00356688
0.00356688
0.00356688
0.00436634
0.00436634
0.00436634
0.00386375
0.00386375
0.00386375
0.00378679
0.00378679
0.00378679
0.00339814
0.00339814
0.00339814
0.00324064
0.00324064
0.00324064
0.00324966
0.00324966
0.00324966
0.00332768
0.00332768
0.00332768
0.00352747
0.00352747
0.00352747
0.00316373
0.00316373
0.00316373
0.00312394
0.00312394
0.00312394
0.00312454
0.00312454
0.00312454
0.0031049
0.0031049
0.0031049
0.00322303
0.00322303
0.00322303
0.00324263
0.00324263
0.00324263
0.00322206
0.00322206
0.00322206
0.00318237
0.00318237
0.00318237
0.00316278
0.00316278
0.00316278
0.00318287
0.00318287
0.00318287
0.00324449
0.00324449
0.00324449
0.00328604
0.00328604
0.00328604
0.00336371
0.00336371
0.00336371
0.00322529
0.00322529
0.00322529
0.00330322
0.00330322
0.00330322
0.00328271
0.00328271
0.00328271
0.0034275
0.0034275
0.0034275
0.00351928
0.00351928
0.00351928
0.00343662
0.00343662
0.00343662
0.00359446
0.00359446
0.00359446
0.00350198
0.00350198
0.00350198
0.00358628
0.00358628
0.00358628
0.00538392
0.00538392
0.00538392
0.00528587
0.00528587
0.00528587
0.0054907
0.0054907
0.0054907
0.00548696
0.00548696
0.00548696
0.00519153
0.00519153
0.00519153
0.00519036
0.00519036
0.00519036
0.00539063
0.00539063
0.00539063
0.00528895
0.00528895
0.00528895
0.00511717
0.00511717
0.00511717
0.00530113
0.00530113
0.00530113
0.00520175
0.00520175
0.00520175
0.00529399
0.00529399
0.00529399
0.00444176
0.00444176
0.00444176
0.00380594
0.00380594
0.00380594
0.00373156
0.00373156
0.00373156
0.00344033
0.00344033
0.00344033
0.00351587