<VTKFile type="UnstructuredGrid" version="1.0">
<UnstructuredGrid>
<Piece NumberOfPoints="8859" NumberOfCells="2953">
<Points>
<DataArray type="Float64" NumberOfComponents="3" format="ascii">
2.75455 1.50245 5.09263
2.76986 1.48714 5.10458
2.75465 1.50235 5.11833
2.78515 1.47185 5.04167
2.78516 1.47184 5.01651
2.8005 1.4565 5.02898
2.76981 1.48719 5.05436
2.78515 1.47185 5.04167
2.78514 1.47186 5.06686
2.72412 1.53288 5.14488
2.73952 1.51748 5.1525
2.70875 1.54825 5.1525
2.72412 1.53288 5.14488
2.73943 1.51757 5.12957
2.73952 1.51748 5.1525
2.75488 1.50212 5.14479
2.77036 1.48664 5.1525
2.73952 1.51748 5.1525
2.75488 1.50212 5.14479
2.73943 1.51757 5.12957
2.75465 1.50235 5.11833
2.73952 1.51748 5.1525
2.73943 1.51757 5.12957
2.75488 1.50212 5.14479
2.75465 1.50235 5.11833
2.76986 1.48714 5.10458
2.76997 1.48703 5.12927
2.76997 1.48703 5.12927
2.75488 1.50212 5.14479
2.75465 1.50235 5.11833
2.77036 1.48664 5.1525
2.75488 1.50212 5.14479
2.76997 1.48703 5.12927
2.76986 1.48714 5.10458
2.75455 1.50245 5.09263
2.76982 1.48718 5.07952
2.76981 1.48719 5.05436
2.78514 1.47186 5.06686
2.76982 1.48718 5.07952
2.7852 1.4718 5.11762
2.76997 1.48703 5.12927
2.76986 1.48714 5.10458
2.8005 1.4565 5.10395
2.8005 1.4565 5.12855
2.7852 1.4718 5.11762
2.8005 1.4565 5.00387
2.8005 1.4565 5.02898
2.78516 1.47184 5.01651
2.78515 1.47185 5.04167
2.8005 1.4565 5.02898
2.8005 1.4565 5.05406
2.8005 1.4565 5.05406
2.78514 1.47186 5.06686
2.78515 1.47185 5.04167
2.8005 1.4565 4.47652
2.8005 1.4565 4.50165
2.78518 1.47182 4.48907
2.78517 1.47183 4.94107
2.8005 1.4565 4.95361
2.78517 1.47183 4.96621
2.8005 1.4565 4.92848
2.8005 1.4565 4.95361
2.78517 1.47183 4.94107
2.78519 1.47181 4.81544
2.8005 1.4565 4.82799
2.78519 1.47181 4.84055
2.32274 1.93426 4.26059
2.33845 1.91855 4.2525
2.33845 1.91855 4.27563
2.27541 1.98159 5.1525
2.24359 2.01341 5.1525
2.25954 1.99746 5.14432
2.78515 1.47185 5.09212
2.76982 1.48718 5.07952
2.78514 1.47186 5.06686
2.76986 1.48714 5.10458
2.76982 1.48718 5.07952
2.78515 1.47185 5.09212
2.78515 1.47185 5.09212
2.7852 1.4718 5.11762
2.76986 1.48714 5.10458
2.8005 1.4565 5.10395
2.7852 1.4718 5.11762
2.78515 1.47185 5.09212
2.78544 1.47156 5.14384
2.8005 1.4565 5.12855
2.8005 1.4565 5.1525
2.78544 1.47156 5.14384
2.7852 1.4718 5.11762
2.8005 1.4565 5.12855
2.8005 1.4565 5.1525
2.77036 1.48664 5.1525
2.78544 1.47156 5.14384
2.77036 1.48664 5.1525
2.76997 1.48703 5.12927
2.78544 1.47156 5.14384
2.76997 1.48703 5.12927
2.7852 1.4718 5.11762
2.78544 1.47156 5.14384
2.78517 1.47183 4.96621
2.8005 1.4565 4.95361
2.8005 1.4565 4.97874
2.78514 1.47186 5.06686
2.8005 1.4565 5.05406
2.8005 1.4565 5.07907
2.8005 1.4565 5.10395
2.78515 1.47185 5.09212
2.8005 1.4565 5.07907
2.8005 1.4565 5.07907
2.78515 1.47185 5.09212
2.78514 1.47186 5.06686
2.8005 1.4565 4.80289
2.8005 1.4565 4.82799
2.78519 1.47181 4.81544
2.78518 1.47182 4.48907
2.8005 1.4565 4.50165
2.78518 1.47182 4.5142
2.76985 1.48715 4.92853
2.75454 1.50246 4.91598
2.76986 1.48714 4.90338
2.78516 1.47184 4.99136
2.8005 1.4565 5.00387
2.78516 1.47184 5.01651
2.78516 1.47184 4.99136
2.8005 1.4565 4.97874
2.8005 1.4565 5.00387
2.78516 1.47184 4.99136
2.76984 1.48716 4.97884
2.78517 1.47183 4.96621
2.78517 1.47183 4.96621
2.8005 1.4565 4.97874
2.78516 1.47184 4.99136
2.76982 1.48718 5.02918
2.78515 1.47185 5.04167
2.76981 1.48719 5.05436
2.76982 1.48718 5.02918
2.78516 1.47184 5.01651
2.78515 1.47185 5.04167
2.75451 1.50249 4.99149
2.7392 1.5178 5.00415
2.73921 1.51779 4.97894
2.53996 1.71704 5.11838
2.52458 1.73242 5.1049
2.53996 1.71704 5.09275
2.49374 1.76326 4.9538
2.49375 1.76325 4.979
2.47832 1.77868 4.96639
2.8005 1.4565 4.2525
2.8005 1.4565 4.27645
2.78544 1.47156 4.26116
2.27543 1.98157 5.12933
2.27541 1.98159 5.1525
2.25954 1.99746 5.14432
2.33845 1.91855 5.05446
2.32276 1.93424 5.06714
2.32275 1.93425 5.04185
2.25954 1.99746 5.14432
2.24359 2.01341 5.1525
2.24374 2.01326 5.12923
2.76987 1.48713 4.577
2.75455 1.50245 4.56443
2.76987 1.48713 4.55188
2.8005 1.4565 4.72759
2.78519 1.47181 4.71505
2.8005 1.4565 4.7025
2.78519 1.47181 4.76524
2.8005 1.4565 4.75269
2.8005 1.4565 4.77778
2.76988 1.48712 4.67741
2.75456 1.50244 4.68995
2.75456 1.50244 4.66486
2.76988 1.48712 4.7025
2.75456 1.50244 4.68995
2.76988 1.48712 4.67741
2.78519 1.47181 4.71505
2.76988 1.48712 4.72759
2.76988 1.48712 4.7025
2.75455 1.50245 4.84057
2.76987 1.48713 4.85312
2.75455 1.50245 4.8657
2.72393 1.53307 4.81547
2.72392 1.53308 4.84059
2.70861 1.54839 4.82803
2.75456 1.50244 4.81545
2.73924 1.51776 4.8029
2.75456 1.50244 4.79035
2.75456 1.50244 4.79035
2.76987 1.48713 4.80289
2.75456 1.50244 4.81545
2.73924 1.51776 4.8029
2.73925 1.51775 4.7778
2.75456 1.50244 4.79035
2.75456 1.50244 4.79035
2.73925 1.51775 4.7778
2.75456 1.50244 4.76524
2.8005 1.4565 4.77778
2.8005 1.4565 4.80289
2.78519 1.47181 4.79034
2.78519 1.47181 4.79034
2.78519 1.47181 4.76524
2.8005 1.4565 4.77778
2.78519 1.47181 4.79034
2.8005 1.4565 4.80289
2.78519 1.47181 4.81544
2.78519 1.47181 4.81544
2.76987 1.48713 4.80289
2.78519 1.47181 4.79034
2.75454 1.50246 4.89083
2.73923 1.51777 4.87828
2.75455 1.50245 4.8657
2.75454 1.50246 4.89083
2.76986 1.48714 4.90338
2.75454 1.50246 4.91598
2.7086 1.5484 4.8783
2.72392 1.53308 4.86572
2.72392 1.53308 4.89086
2.72392 1.53308 4.89086
2.72392 1.53308 4.86572
2.73923 1.51777 4.87828
2.8005 1.4565 4.8531
2.78519 1.47181 4.84055
2.8005 1.4565 4.82799
2.75455 1.50245 4.8657
2.76987 1.48713 4.85312
2.76986 1.48714 4.87825
2.76986 1.48714 4.87825
2.75454 1.50246 4.89083
2.75455 1.50245 4.8657
2.76986 1.48714 4.90338
2.75454 1.50246 4.89083
2.76986 1.48714 4.87825
2.78517 1.47183 4.96621
2.76984 1.48716 4.97884
2.76985 1.48715 4.95368
2.76985 1.48715 4.95368
2.78517 1.47183 4.94107
2.78517 1.47183 4.96621
2.76985 1.48715 4.92853
2.78517 1.47183 4.94107
2.76985 1.48715 4.95368
2.73921 1.51779 4.97894
2.73921 1.51779 4.95375
2.75452 1.50248 4.9663
2.75452 1.50248 4.9663
2.75451 1.50249 4.99149
2.73921 1.51779 4.97894
2.76984 1.48716 4.97884
2.75451 1.50249 4.99149
2.75452 1.50248 4.9663
2.75452 1.50248 4.9663
2.76985 1.48715 4.95368
2.76984 1.48716 4.97884
2.7239 1.5331 4.96638
2.73921 1.51779 4.95375
2.73921 1.51779 4.97894
2.7239 1.5331 4.96638
2.70859 1.54841 4.97901
2.70859 1.54841 4.95381
2.76981 1.48719 5.05436
2.76982 1.48718 5.07952
2.75451 1.50249 5.06722
2.75451 1.50249 5.06722
2.76982 1.48718 5.07952
2.75455 1.50245 5.09263
2.7392 1.5178 5.00415
2.75451 1.50249 4.99149
2.75451 1.50249 5.01669
2.75451 1.50249 5.01669
2.7392 1.5178 5.02937
2.7392 1.5178 5.00415
2.67798 1.57902 4.85317
2.66266 1.59434 4.86575
2.66266 1.59434 4.84061
2.70859 1.54841 4.95381
2.70859 1.54841 4.92862
2.7239 1.5331 4.94119
2.7239 1.5331 4.94119
2.7239 1.5331 4.96638
2.70859 1.54841 4.95381
2.73921 1.51779 4.95375
2.7239 1.5331 4.96638
2.7239 1.5331 4.94119
2.73922 1.51778 4.92858
2.73921 1.51779 4.95375
2.7239 1.5331 4.94119
2.57068 1.68632 5.09276
2.57068 1.68632 5.11839
2.55533 1.70167 5.10491
2.55533 1.70167 5.10491
2.57068 1.68632 5.11839
2.55533 1.70167 5.1295
2.55533 1.70167 5.10491
2.55533 1.70167 5.1295
2.53996 1.71704 5.11838
2.53996 1.71704 5.11838
2.53996 1.71704 5.09275
2.55533 1.70167 5.10491
2.52458 1.73242 5.07984
2.53996 1.71704 5.09275
2.52458 1.73242 5.1049
2.50912 1.74788 4.71505
2.50912 1.74788 4.74015
2.49371 1.76329 4.7276
2.41633 1.84067 4.84056
2.40077 1.85623 4.828
2.41632 1.84068 4.81545
2.41635 1.84065 4.89083
2.40081 1.85619 4.90339
2.40079 1.85621 4.87825
2.33845 1.91855 5.05446
2.32275 1.93425 5.04185
2.33843 1.91857 5.02924
2.33845 1.91855 5.07966
2.32276 1.93424 5.06714
2.33845 1.91855 5.05446
2.40087 1.85613 5.00412
2.40088 1.85612 5.02934
2.38531 1.87169 5.01672
2.30693 1.95007 4.95358
2.32265 1.93435 4.94103
2.32267 1.93433 4.9662
2.30684 1.95016 4.85303
2.29108 1.96592 4.86556
2.29106 1.96594 4.84046
2.32274 1.93426 5.14441
2.33845 1.91855 5.1525
2.30701 1.94999 5.1525
2.33845 1.91855 5.12937
2.33845 1.91855 5.1525
2.32274 1.93426 5.14441
2.35411 1.90289 5.14447
2.33845 1.91855 5.1525
2.33845 1.91855 5.12937
2.30704 1.94996 5.07961
2.30703 1.94997 5.10469
2.29128 1.96572 5.09246
2.55533 1.70167 5.1525
2.52458 1.73242 5.1525
2.53996 1.71704 5.14472
2.53996 1.71704 5.11838
2.55533 1.70167 5.1295
2.53996 1.71704 5.14472
2.53996 1.71704 5.14472
2.55533 1.70167 5.1295
2.55533 1.70167 5.1525
2.52458 1.73242 5.12949
2.52458 1.73242 5.1049
2.53996 1.71704 5.11838
2.53996 1.71704 5.11838
2.53996 1.71704 5.14472
2.52458 1.73242 5.12949
2.52458 1.73242 5.12949
2.53996 1.71704 5.14472
2.52458 1.73242 5.1525
2.41642 1.84058 5.01676
2.40088 1.85612 5.02934
2.40087 1.85613 5.00412
2.47831 1.77869 4.9412
2.49374 1.76326 4.92862
2.49374 1.76326 4.9538
2.49374 1.76326 4.9538
2.47832 1.77868 4.96639
2.47831 1.77869 4.9412
2.47833 1.77867 4.9916
2.47832 1.77868 4.96639
2.49375 1.76325 4.979
2.47833 1.77867 4.9916
2.49375 1.76325 4.979
2.49376 1.76324 5.00421
2.49376 1.76324 5.00421
2.47834 1.77866 5.01682
2.47833 1.77867 4.9916
2.47833 1.77867 4.9916
2.47834 1.77866 5.01682
2.46289 1.79411 5.00419
2.49377 1.76323 5.02943
2.47834 1.77866 5.01682
2.49376 1.76324 5.00421
2.49377 1.76323 5.05464
2.47835 1.77865 5.06734
2.47834 1.77866 5.04206
2.47834 1.77866 5.04206
2.49377 1.76323 5.02943
2.49377 1.76323 5.05464
2.47834 1.77866 5.01682
2.49377 1.76323 5.02943
2.47834 1.77866 5.04206
2.7852 1.4718 4.28738
2.78544 1.47156 4.26116
2.8005 1.4565 4.27645
2.76997 1.48703 4.27573
2.78544 1.47156 4.26116
2.7852 1.4718 4.28738
2.64739 1.60961 4.27548
2.64738 1.60962 4.2525
2.66272 1.59428 4.26021
2.70875 1.54825 4.2525
2.6934 1.5636 4.26017
2.67805 1.57895 4.2525
2.67805 1.57895 4.2525
2.66272 1.59428 4.26021
2.64738 1.60962 4.2525
2.19638 2.06062 4.28897
2.1963 2.0607 4.26286
2.2122 2.0448 4.27645
2.2122 2.0448 4.27645
2.22771 2.02929 4.26101
2.22802 2.02898 4.28745
2.18073 2.07627 4.27782
2.1963 2.0607 4.26286
2.19638 2.06062 4.28897
2.18073 2.07627 4.27782
2.18123 2.07577 4.2525
2.1963 2.0607 4.26286
2.27543 1.98157 4.27567
2.27541 1.98159 4.2525
2.29123 1.96577 4.26063
2.30701 1.94999 4.2525
[...]
<PointData Scalars="View Factor" >
<DataArray type="Float64" Name="View Factor" NumberOfComponents="1" format="ascii">
2.54432e-05
2.54432e-05
2.54432e-05
2.68561e-05
2.68561e-05
2.68561e-05
2.63787e-05
2.63787e-05
2.63787e-05
2.40701e-05
2.40701e-05
2.40701e-05
2.44372e-05
2.44372e-05
2.44372e-05
2.50508e-05
2.50508e-05
2.50508e-05
2.49823e-05
2.49823e-05
2.49823e-05
2.47645e-05
2.47645e-05
2.47645e-05
2.55414e-05
2.55414e-05
2.55414e-05
2.53085e-05
2.53085e-05
2.53085e-05
2.54146e-05
2.54146e-05
2.54146e-05
2.56751e-05
2.56751e-05
2.56751e-05
2.61446e-05
2.61446e-05
2.61446e-05
2.58693e-05
2.58693e-05
2.58693e-05
2.65259e-05
2.65259e-05
2.65259e-05
2.7096e-05
2.7096e-05
2.7096e-05
2.69515e-05
2.69515e-05
2.69515e-05
2.67118e-05
2.67118e-05
2.67118e-05
3.03635e-05
3.03635e-05
3.03635e-05
2.72918e-05
2.72918e-05
2.72918e-05
2.75355e-05
2.75355e-05
2.75355e-05
2.80357e-05
2.80357e-05
2.80357e-05
1.79104e-05
1.79104e-05
1.79104e-05
1.50528e-05
1.50528e-05
1.50528e-05
2.62401e-05
2.62401e-05
2.62401e-05
2.60049e-05
2.60049e-05
2.60049e-05
2.60999e-05
2.60999e-05
2.60999e-05
2.64296e-05
2.64296e-05
2.64296e-05
2.63889e-05
2.63889e-05
2.63889e-05
2.62916e-05
2.62916e-05
2.62916e-05
2.60214e-05
2.60214e-05
2.60214e-05
2.57411e-05
2.57411e-05
2.57411e-05
2.59648e-05
2.59648e-05
2.59648e-05
2.7388e-05
2.7388e-05
2.7388e-05
2.68082e-05
2.68082e-05
2.68082e-05
2.66662e-05
2.66662e-05
2.66662e-05
2.65716e-05
2.65716e-05
2.65716e-05
2.82874e-05
2.82874e-05
2.82874e-05
3.00919e-05
3.00919e-05
3.00919e-05
2.66555e-05
2.66555e-05
2.66555e-05
2.70014e-05
2.70014e-05
2.70014e-05
2.72415e-05
2.72415e-05
2.72415e-05
2.68067e-05
2.68067e-05
2.68067e-05
2.71446e-05
2.71446e-05
2.71446e-05
2.62827e-05
2.62827e-05
2.62827e-05
2.65215e-05
2.65215e-05
2.65215e-05
2.55585e-05
2.55585e-05
2.55585e-05
1.82232e-05
1.82232e-05
1.82232e-05
1.7244e-05
1.7244e-05
1.7244e-05
3.19148e-05
3.19148e-05
3.19148e-05
1.50395e-05
1.50395e-05
1.50395e-05
1.51163e-05
1.51163e-05
1.51163e-05
1.51165e-05
1.51165e-05
1.51165e-05
2.87617e-05
2.87617e-05
2.87617e-05
2.89067e-05
2.89067e-05
2.89067e-05
2.8595e-05
2.8595e-05
2.8595e-05
2.78834e-05
2.78834e-05
2.78834e-05
2.79861e-05
2.79861e-05
2.79861e-05
2.81937e-05
2.81937e-05
2.81937e-05
2.68461e-05
2.68461e-05
2.68461e-05
2.55991e-05
2.55991e-05
2.55991e-05
2.67874e-05
2.67874e-05
2.67874e-05
2.71377e-05
2.71377e-05
2.71377e-05
2.66834e-05
2.66834e-05
2.66834e-05
2.69328e-05
2.69328e-05
2.69328e-05
2.84407e-05
2.84407e-05
2.84407e-05
2.83426e-05
2.83426e-05
2.83426e-05
2.81887e-05
2.81887e-05
2.81887e-05
2.78384e-05
2.78384e-05
2.78384e-05
2.6358e-05
2.6358e-05
2.6358e-05
2.6557e-05
2.6557e-05
2.6557e-05
2.53223e-05
2.53223e-05
2.53223e-05
2.56668e-05
2.56668e-05
2.56668e-05
2.8135e-05
2.8135e-05
2.8135e-05
2.69476e-05
2.69476e-05
2.69476e-05
2.67026e-05
2.67026e-05
2.67026e-05
2.68027e-05
2.68027e-05
2.68027e-05
2.67096e-05
2.67096e-05
2.67096e-05
2.69523e-05
2.69523e-05
2.69523e-05
2.68557e-05
2.68557e-05
2.68557e-05
2.56944e-05
2.56944e-05
2.56944e-05
2.5794e-05
2.5794e-05
2.5794e-05
2.61315e-05
2.61315e-05
2.61315e-05
2.63711e-05
2.63711e-05
2.63711e-05
2.53563e-05
2.53563e-05
2.53563e-05
2.46821e-05
2.46821e-05
2.46821e-05
2.58129e-05
2.58129e-05
2.58129e-05
2.55767e-05
2.55767e-05
2.55767e-05
2.56567e-05
2.56567e-05
2.56567e-05
2.54206e-05
2.54206e-05
2.54206e-05
2.37289e-05
2.37289e-05
2.37289e-05
2.48144e-05
2.48144e-05
2.48144e-05
2.49181e-05
2.49181e-05
2.49181e-05
2.5257e-05
2.5257e-05
2.5257e-05
2.54951e-05
2.54951e-05
2.54951e-05
1.92088e-05
1.92088e-05
1.92088e-05
1.89939e-05
1.89939e-05
1.89939e-05
1.86665e-05
1.86665e-05
1.86665e-05
1.85515e-05
1.85515e-05
1.85515e-05
1.81095e-05
1.81095e-05
1.81095e-05
1.86837e-05
1.86837e-05
1.86837e-05
1.55756e-05
1.55756e-05
1.55756e-05
1.53839e-05
1.53839e-05
1.53839e-05
1.51387e-05
1.51387e-05
1.51387e-05
1.50582e-05
1.50582e-05
1.50582e-05
1.50103e-05
1.50103e-05
1.50103e-05
1.54794e-05
1.54794e-05
1.54794e-05
1.5892e-05
1.5892e-05
1.5892e-05
1.4832e-05
1.4832e-05
1.4832e-05
1.48209e-05
1.48209e-05
1.48209e-05
1.47859e-05
1.47859e-05
1.47859e-05
1.50862e-05
1.50862e-05
1.50862e-05
1.82173e-05
1.82173e-05
1.82173e-05
1.8451e-05
1.8451e-05
1.8451e-05
1.85703e-05
1.85703e-05
1.85703e-05
1.80116e-05
1.80116e-05
1.80116e-05
1.81245e-05
1.81245e-05
1.81245e-05
1.79188e-05
1.79188e-05
1.79188e-05
1.49769e-05
1.49769e-05
1.49769e-05
1.73358e-05
1.73358e-05
1.73358e-05
1.71209e-05
1.71209e-05
1.71209e-05
1.70296e-05
1.70296e-05
1.70296e-05
1.71527e-05
1.71527e-05
1.71527e-05
1.69382e-05
1.69382e-05
1.69382e-05
1.66018e-05
1.66018e-05
1.66018e-05
1.706e-05
1.706e-05
1.706e-05
1.67575e-05
1.67575e-05
1.67575e-05
1.69698e-05
1.69698e-05
1.69698e-05
1.68473e-05
1.68473e-05
1.68473e-05
3.1635e-05
3.1635e-05
3.1635e-05
3.12446e-05
3.12446e-05
3.12446e-05
2.63977e-05
2.63977e-05
2.63977e-05
2.80246e-05
2.80246e-05
2.80246e-05
2.68352e-05
2.68352e-05
2.68352e-05
1.84182e-05
1.84182e-05
1.84182e-05
1.83283e-05
1.83283e-05
1.83283e-05
1.84642e-05
1.84642e-05
1.84642e-05
1.85369e-05
1.85369e-05
1.85369e-05
1.81257e-05
1.81257e-05
1.81257e-05
1.79833e-05
1.79833e-05
1.79833e-05
1.81106e-05
1.81106e-05
1.81106e-05
1.78421e-05
1.78421e-05
1.78421e-05
1.77704e-05
1.77704e-05
1.77704e-05
1.48927e-05
1.48927e-05
1.48927e-05
1.50639e-05
1.50639e-05
1.50639e-05
1.50066e-05
1.50066e-05
1.50066e-05
1.59929e-05
1.59929e-05
1.59929e-05
1.5931e-05
1.5931e-05
1.5931e-05
1.53885e-05
1.53885e-05
1.53885e-05
3.0259e-05
3.0259e-05
3.0259e-05
2.92226e-05
2.92226e-05
2.92226e-05
2.84481e-05
2.84481e-05
2.84481e-05
2.81886e-05
2.81886e-05
2.81886e-05
2.86038e-05
2.86038e-05
2.86038e-05
2.83429e-05
2.83429e-05
2.83429e-05
2.7977e-05
2.7977e-05
2.7977e-05
2.7869e-05
2.7869e-05
2.7869e-05
2.81314e-05
2.81314e-05
2.81314e-05
2.84992e-05
2.84992e-05
2.84992e-05
2.24567e-05
2.24567e-05
2.24567e-05
2.22045e-05
2.22045e-05
2.22045e-05
2.20972e-05
2.20972e-05
2.20972e-05
2.80219e-05
2.80219e-05
2.80219e-05
3.0197e-05
3.0197e-05
3.0197e-05
2.35101e-05
2.35101e-05
2.35101e-05
2.2813e-05
2.2813e-05
2.2813e-05
2.49027e-05
2.49027e-05
2.49027e-05
2.33006e-05
2.33006e-05
2.33006e-05
2.44915e-05
2.44915e-05
2.44915e-05
2.43783e-05
2.43783e-05
2.43783e-05
2.40225e-05
2.40225e-05
2.40225e-05
2.37801e-05
2.37801e-05
2.37801e-05
2.75235e-05
2.75235e-05
2.75235e-05
2.90641e-05
2.90641e-05
2.90641e-05
2.88062e-05
2.88062e-05
2.88062e-05
2.84482e-05
2.84482e-05
2.84482e-05
2.8345e-05
2.8345e-05
2.8345e-05
2.86032e-05
2.86032e-05
2.86032e-05
2.89632e-05
2.89632e-05
2.89632e-05
2.17688e-05
2.17688e-05
2.17688e-05
2.20076e-05
2.20076e-05
2.20076e-05
2.40394e-05
2.40394e-05
2.40394e-05
2.4154e-05
2.4154e-05
2.4154e-05
2.39111e-05
2.39111e-05
2.39111e-05
2.35544e-05
2.35544e-05
2.35544e-05
2.21274e-05
2.21274e-05
2.21274e-05
2.20056e-05
2.20056e-05
2.20056e-05
2.153e-05
2.153e-05
2.153e-05
2.18889e-05
2.18889e-05
2.18889e-05
2.36808e-05
2.36808e-05
2.36808e-05
2.34386e-05
2.34386e-05
2.34386e-05
2.74389e-05
2.74389e-05
2.74389e-05
2.70914e-05
2.70914e-05
2.70914e-05
2.69904e-05
2.69904e-05
2.69904e-05
2.76873e-05
2.76873e-05
2.76873e-05
2.75885e-05
2.75885e-05
2.75885e-05
2.72392e-05
2.72392e-05
2.72392e-05
2.59474e-05
2.59474e-05
2.59474e-05
2.66421e-05
2.66421e-05
2.66421e-05
2.65415e-05
2.65415e-05
2.65415e-05
2.61922e-05
2.61922e-05
2.61922e-05
2.51734e-05
2.51734e-05
2.51734e-05
2.57691e-05
2.57691e-05
2.57691e-05
2.54161e-05
2.54161e-05
2.54161e-05
2.79904e-05
2.79904e-05
2.79904e-05
2.75365e-05
2.75365e-05
2.75365e-05
2.78897e-05
2.78897e-05
2.78897e-05
2.72849e-05
2.72849e-05
2.72849e-05
2.73868e-05
2.73868e-05
2.73868e-05
2.77381e-05
2.77381e-05
2.77381e-05
2.62544e-05
2.62544e-05
2.62544e-05
2.59088e-05
2.59088e-05
2.59088e-05
2.58066e-05
2.58066e-05
2.58066e-05
2.64996e-05
2.64996e-05
2.64996e-05
2.60511e-05
2.60511e-05
2.60511e-05
2.63986e-05
2.63986e-05
2.63986e-05
2.54603e-05
2.54603e-05
2.54603e-05
2.53555e-05
2.53555e-05
2.53555e-05
2.50082e-05
2.50082e-05
2.50082e-05
2.5218e-05
2.5218e-05
2.5218e-05
2.61141e-05
2.61141e-05
2.61141e-05
2.57704e-05
2.57704e-05
2.57704e-05
2.62142e-05
2.62142e-05
2.62142e-05
2.59727e-05
2.59727e-05
2.59727e-05
2.50842e-05
2.50842e-05
2.50842e-05
2.75414e-05
2.75414e-05
2.75414e-05
2.7888e-05
2.7888e-05
2.7888e-05
2.79837e-05
2.79837e-05
2.79837e-05
2.72933e-05
2.72933e-05
2.72933e-05
2.76839e-05
2.76839e-05
2.76839e-05
2.69976e-05
2.69976e-05
2.69976e-05
2.74389e-05
2.74389e-05
2.74389e-05
2.70976e-05
2.70976e-05
2.70976e-05
2.78333e-05
2.78333e-05
2.78333e-05
2.77338e-05
2.77338e-05
2.77338e-05
2.73891e-05
2.73891e-05
2.73891e-05
2.71466e-05
2.71466e-05
2.71466e-05
2.72451e-05
2.72451e-05
2.72451e-05
2.7588e-05
2.7588e-05
2.7588e-05
2.58351e-05
2.58351e-05
2.58351e-05
2.65154e-05
2.65154e-05
2.65154e-05
2.59342e-05
2.59342e-05
2.59342e-05
2.62735e-05
2.62735e-05
2.62735e-05
2.60753e-05
2.60753e-05
2.60753e-05
2.64164e-05
2.64164e-05
2.64164e-05
2.52221e-05
2.52221e-05
2.52221e-05
2.51196e-05
2.51196e-05
2.51196e-05
2.47825e-05
2.47825e-05
2.47825e-05
2.59494e-05
2.59494e-05
2.59494e-05
2.52856e-05
2.52856e-05
2.52856e-05
2.5854e-05
2.5854e-05
2.5854e-05
2.55202e-05
2.55202e-05
2.55202e-05
2.57158e-05
2.57158e-05
2.57158e-05
2.53838e-05
2.53838e-05
2.53838e-05
2.48871e-05
2.48871e-05
2.48871e-05
2.51151e-05
2.51151e-05
2.51151e-05
2.4329e-05
2.4329e-05
2.4329e-05
2.456e-05
2.456e-05
2.456e-05
2.44583e-05
2.44583e-05
2.44583e-05
2.51489e-05
2.51489e-05
2.51489e-05
2.46873e-05
2.46873e-05
2.46873e-05
2.52467e-05
2.52467e-05
2.52467e-05
2.50161e-05
2.50161e-05
2.50161e-05
2.59923e-05
2.59923e-05
2.59923e-05
2.66652e-05
2.66652e-05
2.66652e-05
2.64251e-05
2.64251e-05
2.64251e-05
2.609e-05
2.609e-05
2.609e-05
2.65685e-05
2.65685e-05
2.65685e-05
2.62316e-05
2.62316e-05
2.62316e-05
2.14206e-05
2.14206e-05
2.14206e-05
2.13047e-05
2.13047e-05
2.13047e-05
2.24649e-05
2.24649e-05
2.24649e-05
2.17687e-05
2.17687e-05
2.17687e-05
2.38376e-05
2.38376e-05
2.38376e-05
1.91929e-05
1.91929e-05
1.91929e-05
1.88961e-05
1.88961e-05
1.88961e-05
1.9104e-05
1.9104e-05
1.9104e-05
1.84539e-05
1.84539e-05
1.84539e-05
1.90403e-05
1.90403e-05
1.90403e-05
2.12919e-05
2.12919e-05
2.12919e-05
2.14119e-05
2.14119e-05
2.14119e-05
1.56347e-05
1.56347e-05
1.56347e-05
1.54401e-05
1.54401e-05
1.54401e-05
1.55496e-05
1.55496e-05
1.55496e-05
1.59214e-05
1.59214e-05
1.59214e-05
1.59345e-05
1.59345e-05
1.59345e-05
1.59582e-05
1.59582e-05
1.59582e-05
1.51966e-05
1.51966e-05
1.51966e-05
1.50346e-05
1.50346e-05
1.50346e-05
1.50707e-05
1.50707e-05
1.50707e-05
1.50496e-05
1.50496e-05
1.50496e-05
1.51031e-05
1.51031e-05
1.51031e-05
1.51245e-05
1.51245e-05
1.51245e-05
1.50323e-05
1.50323e-05
1.50323e-05
1.50894e-05
1.50894e-05
1.50894e-05
1.52755e-05
1.52755e-05
1.52755e-05
1.52406e-05
1.52406e-05
1.52406e-05
1.53467e-05
1.53467e-05
1.53467e-05
1.53829e-05
1.53829e-05
1.53829e-05
1.54424e-05
1.54424e-05
1.54424e-05
1.54048e-05
1.54048e-05
1.54048e-05
1.50783e-05
1.50783e-05
1.50783e-05
1.51129e-05
1.51129e-05
1.51129e-05
1.55396e-05
1.55396e-05
1.55396e-05
1.55625e-05
1.55625e-05
1.55625e-05
1.56087e-05
1.56087e-05
1.56087e-05
1.59153e-05
1.59153e-05
1.59153e-05
1.47298e-05
1.47298e-05
1.47298e-05
1.46277e-05
1.46277e-05
1.46277e-05
1.51525e-05
1.51525e-05
1.51525e-05
1.51299e-05
1.51299e-05
1.51299e-05
1.72377e-05
1.72377e-05
1.72377e-05
1.75929e-05
1.75929e-05
1.75929e-05
1.70527e-05
1.70527e-05
1.70527e-05
1.68333e-05
1.68333e-05
1.68333e-05
1.77722e-05
1.77722e-05
1.77722e-05
1.55093e-05
1.55093e-05
1.55093e-05
1.64781e-05
1.64781e-05
1.64781e-05
1.66914e-05
1.66914e-05
1.66914e-05
1.64248e-05
1.64248e-05
1.64248e-05
1.57602e-05
1.57602e-05
1.57602e-05
3.15858e-05
3.15858e-05
3.15858e-05
3.11365e-05
3.11365e-05
3.11365e-05
2.92857e-05
2.92857e-05
2.92857e-05
2.9556e-05
2.9556e-05
2.9556e-05
2.9213e-05
2.9213e-05
2.9213e-05
1.83066e-05
1.83066e-05
1.83066e-05
1.82826e-05
1.82826e-05
1.82826e-05
1.82472e-05
1.82472e-05
1.82472e-05
1.82607e-05
1.82607e-05
1.82607e-05
1.8192e-05
1.8192e-05
1.8192e-05
1.81704e-05
1.81704e-05
1.81704e-05
1.81468e-05
1.81468e-05
1.81468e-05
1.80709e-05
1.80709e-05
1.80709e-05
1.82971e-05
1.82971e-05
1.82971e-05
1.83152e-05
1.83152e-05
1.83152e-05
1.83423e-05
1.83423e-05
1.83423e-05
1.84444e-05
1.84444e-05
1.84444e-05
1.83997e-05
1.83997e-05
1.83997e-05
1.85239e-05
1.85239e-05
1.85239e-05
1.83853e-05
1.83853e-05
1.83853e-05
1.7563e-05
1.7563e-05
1.7563e-05
1.66414e-05
1.66414e-05
1.66414e-05
1.74238e-05
1.74238e-05
1.74238e-05
1.71998e-05
1.71998e-05
1.71998e-05
1.7293e-05
1.7293e-05
1.7293e-05
1.72233e-05
1.72233e-05
1.72233e-05
1.72015e-05
1.72015e-05
1.72015e-05
1.71777e-05
1.71777e-05
1.71777e-05
1.76718e-05
1.76718e-05
1.76718e-05
1.72507e-05
1.72507e-05
1.72507e-05
1.67656e-05
1.67656e-05
1.67656e-05
1.67501e-05
1.67501e-05
1.67501e-05
1.66837e-05
1.66837e-05
1.66837e-05
1.76138e-05
1.76138e-05
1.76138e-05
1.75695e-05
1.75695e-05
1.75695e-05
1.77037e-05
1.77037e-05
1.77037e-05
1.77493e-05
1.77493e-05
1.77493e-05
1.7724e-05
1.7724e-05
1.7724e-05
1.72917e-05
1.72917e-05
1.72917e-05
1.78646e-05
1.78646e-05
1.78646e-05
1.79616e-05
1.79616e-05
1.79616e-05
1.78892e-05
1.78892e-05
1.78892e-05
1.62466e-05
1.62466e-05
1.62466e-05
1.61846e-05
1.61846e-05
1.61846e-05
1.62315e-05
1.62315e-05
1.62315e-05
1.60612e-05
1.60612e-05
1.60612e-05
1.60871e-05
1.60871e-05
1.60871e-05
1.6149e-05
1.6149e-05
1.6149e-05
1.68963e-05
1.68963e-05
1.68963e-05
1.66288e-05
1.66288e-05
1.66288e-05
1.6486e-05
1.6486e-05
1.6486e-05
1.65102e-05
1.65102e-05
1.65102e-05
1.48749e-05
1.48749e-05
1.48749e-05
1.49106e-05
1.49106e-05
1.49106e-05
1.49702e-05
1.49702e-05
1.49702e-05
1.49915e-05
1.49915e-05
1.49915e-05
1.49289e-05
1.49289e-05
1.49289e-05
1.49827e-05
1.49827e-05
1.49827e-05
1.49422e-05
1.49422e-05
1.49422e-05
1.5002e-05
1.5002e-05
1.5002e-05
1.50196e-05
1.50196e-05
1.50196e-05
1.65645e-05
1.65645e-05
1.65645e-05
1.64761e-05
1.64761e-05
1.64761e-05
1.64981e-05
1.64981e-05
1.64981e-05
1.5908e-05
1.5908e-05
1.5908e-05
1.58612e-05
1.58612e-05
1.58612e-05
1.59236e-05
1.59236e-05
1.59236e-05
1.59475e-05
1.59475e-05
1.59475e-05
1.60274e-05
1.60274e-05
1.60274e-05
1.59419e-05
1.59419e-05
1.59419e-05
1.59638e-05
1.59638e-05
1.59638e-05
1.59826e-05
1.59826e-05
1.59826e-05
1.54109e-05
1.54109e-05
1.54109e-05
1.54566e-05
1.54566e-05
1.54566e-05
1.56707e-05
1.56707e-05
1.56707e-05
1.56918e-05
1.56918e-05
1.56918e-05
1.54264e-05
1.54264e-05
1.54264e-05
1.51556e-05
1.51556e-05
1.51556e-05
1.51703e-05
1.51703e-05
1.51703e-05
1.52346e-05
1.52346e-05
1.52346e-05
1.5101e-05
1.5101e-05
1.5101e-05
1.50807e-05
1.50807e-05
1.50807e-05
1.50948e-05
1.50948e-05
1.50948e-05
1.5133e-05
1.5133e-05
1.5133e-05
1.51183e-05
1.51183e-05
1.51183e-05
1.51776e-05
1.51776e-05
1.51776e-05
2.88918e-05
2.88918e-05
2.88918e-05
2.87674e-05
2.87674e-05
2.87674e-05
2.83721e-05
2.83721e-05
2.83721e-05
2.81028e-05
2.81028e-05
2.81028e-05
2.71864e-05
2.71864e-05
2.71864e-05
2.75812e-05
2.75812e-05
2.75812e-05
2.7709e-05
2.7709e-05
2.7709e-05
2.24883e-05
2.24883e-05
2.24883e-05
3.09558e-05
3.09558e-05
3.09558e-05
3.05662e-05
3.05662e-05
3.05662e-05
2.9394e-05
2.9394e-05
2.9394e-05
2.97852e-05
2.97852e-05
2.97852e-05
2.82923e-05
2.82923e-05
2.82923e-05
2.80355e-05
2.80355e-05
2.80355e-05
2.81408e-05
2.81408e-05
2.81408e-05
2.85017e-05
2.85017e-05
2.85017e-05
2.95429e-05
2.95429e-05
2.95429e-05
2.8813e-05
2.8813e-05
2.8813e-05
2.78248e-05
2.78248e-05
2.78248e-05
2.70982e-05
2.70982e-05
2.70982e-05
2.73546e-05
2.73546e-05
2.73546e-05
2.77194e-05
2.77194e-05
2.77194e-05
1.95856e-05
1.95856e-05
1.95856e-05
2.00594e-05
2.00594e-05
2.00594e-05
2.06158e-05
2.06158e-05
2.06158e-05
1.99975e-05
1.99975e-05
1.99975e-05
1.96229e-05
1.96229e-05
1.96229e-05
1.94891e-05
1.94891e-05
1.94891e-05
2.02404e-05
2.02404e-05
2.02404e-05
1.97313e-05
1.97313e-05
1.97313e-05
2.0108e-05
2.0108e-05
2.0108e-05
2.01301e-05
2.01301e-05
2.01301e-05
1.93822e-05
1.93822e-05
1.93822e-05
1.89042e-05
1.89042e-05
1.89042e-05
1.7231e-05
1.7231e-05
1.7231e-05
1.91132e-05
1.91132e-05
1.91132e-05
1.76166e-05
1.76166e-05
1.76166e-05
2.3236e-05
2.3236e-05
2.3236e-05
2.02957e-05
2.02957e-05
2.02957e-05
2.01676e-05
2.01676e-05
2.01676e-05
2.11336e-05
2.11336e-05
2.11336e-05
2.17479e-05
2.17479e-05
2.17479e-05
2.15045e-05
2.15045e-05
2.15045e-05
2.23356e-05
2.23356e-05
2.23356e-05
2.60033e-05
2.60033e-05
2.60033e-05
2.46879e-05
2.46879e-05
2.46879e-05
2.45638e-05
2.45638e-05
2.45638e-05
2.41706e-05
2.41706e-05
2.41706e-05
2.40326e-05
2.40326e-05
2.40326e-05
2.08608e-05
2.08608e-05
2.08608e-05
2.21101e-05
2.21101e-05
2.21101e-05
2.13546e-05
2.13546e-05
2.13546e-05
2.86545e-05
2.86545e-05
2.86545e-05
2.82847e-05
2.82847e-05
2.82847e-05
2.3108e-05
2.3108e-05
2.3108e-05
2.38482e-05
2.38482e-05
2.38482e-05
2.37292e-05
2.37292e-05
2.37292e-05
2.33585e-05
2.33585e-05
2.33585e-05
2.45698e-05
2.45698e-05
2.45698e-05
2.32145e-05
2.32145e-05
2.32145e-05
2.42865e-05
2.42865e-05
2.42865e-05
2.99304e-05
2.99304e-05
2.99304e-05
3.00318e-05
3.00318e-05
3.00318e-05
2.98676e-05
2.98676e-05
2.98676e-05
2.91307e-05
2.91307e-05
2.91307e-05
2.93923e-05
2.93923e-05
2.93923e-05
2.97623e-05
2.97623e-05
2.97623e-05
2.97047e-05
2.97047e-05
2.97047e-05
2.94406e-05
2.94406e-05
2.94406e-05
2.90747e-05
2.90747e-05
2.90747e-05
2.89708e-05
2.89708e-05
2.89708e-05
2.92352e-05
2.92352e-05
2.92352e-05
2.96031e-05
2.96031e-05
2.96031e-05
2.84943e-05
2.84943e-05
2.84943e-05
2.81402e-05
2.81402e-05
2.81402e-05
2.8039e-05
2.8039e-05
2.8039e-05
2.87503e-05
2.87503e-05
2.87503e-05
2.82943e-05
2.82943e-05
2.82943e-05
2.86503e-05
2.86503e-05
2.86503e-05
2.36356e-05
2.36356e-05
2.36356e-05
2.30492e-05
2.30492e-05
2.30492e-05
2.33982e-05
2.33982e-05
2.33982e-05
2.35241e-05
2.35241e-05
2.35241e-05
2.45545e-05
2.45545e-05
2.45545e-05
2.38582e-05
2.38582e-05
2.38582e-05
2.39675e-05
2.39675e-05
2.39675e-05
2.43147e-05
2.43147e-05
2.43147e-05
2.39856e-05
2.39856e-05
2.39856e-05
2.40963e-05
2.40963e-05
2.40963e-05
2.44454e-05
2.44454e-05
2.44454e-05
2.46856e-05
2.46856e-05
2.46856e-05
2.55561e-05
2.55561e-05
2.55561e-05
2.48464e-05
2.48464e-05
2.48464e-05
2.53091e-05
2.53091e-05
2.53091e-05
2.49552e-05
2.49552e-05
2.49552e-05
2.6018e-05
2.6018e-05
2.6018e-05
2.59111e-05
2.59111e-05
2.59111e-05
2.45118e-05
2.45118e-05
2.45118e-05
2.46238e-05
2.46238e-05
2.46238e-05
2.36535e-05
2.36535e-05
2.36535e-05
2.37646e-05
2.37646e-05
2.37646e-05
2.42484e-05
2.42484e-05
2.42484e-05
2.38945e-05
2.38945e-05
2.38945e-05
2.67344e-05
2.67344e-05
2.67344e-05
2.64803e-05
2.64803e-05
2.64803e-05
2.5834e-05
2.5834e-05
2.5834e-05
2.7418e-05
2.7418e-05
2.7418e-05
2.76736e-05
2.76736e-05
2.76736e-05
2.72048e-05
2.72048e-05
2.72048e-05
2.75676e-05
2.75676e-05
2.75676e-05
2.29365e-05
2.29365e-05
2.29365e-05
2.31732e-05
2.31732e-05
2.31732e-05
2.30617e-05
2.30617e-05
2.30617e-05
2.27098e-05
2.27098e-05
2.27098e-05
2.24713e-05
2.24713e-05
2.24713e-05
2.25865e-05
2.25865e-05
2.25865e-05
2.23502e-05
2.23502e-05
2.23502e-05
2.20011e-05
2.20011e-05
2.20011e-05
2.31851e-05
2.31851e-05
2.31851e-05
2.34253e-05
2.34253e-05
2.34253e-05
2.33127e-05
2.33127e-05
2.33127e-05
2.2957e-05
2.2957e-05
2.2957e-05
2.18886e-05
2.18886e-05
2.18886e-05
2.22445e-05
2.22445e-05
2.22445e-05
2.35653e-05
2.35653e-05
2.35653e-05
2.3334e-05
2.3334e-05
2.3334e-05
2.23654e-05
2.23654e-05
2.23654e-05
2.30809e-05
2.30809e-05
2.30809e-05
2.24832e-05
2.24832e-05
2.24832e-05
2.284e-05
2.284e-05
2.284e-05
2.29785e-05
2.29785e-05
2.29785e-05
2.01854e-05
2.01854e-05
2.01854e-05
1.9949e-05
1.9949e-05
1.9949e-05
2.16448e-05
2.16448e-05
2.16448e-05
2.14078e-05
2.14078e-05
2.14078e-05
2.52809e-05
2.52809e-05
2.52809e-05
2.50357e-05
2.50357e-05
2.50357e-05
2.54928e-05
2.54928e-05
2.54928e-05
2.51436e-05
2.51436e-05
2.51436e-05
2.62275e-05
2.62275e-05
2.62275e-05
2.58755e-05
2.58755e-05
2.58755e-05
2.63322e-05
2.63322e-05
2.63322e-05
2.5632e-05
2.5632e-05
2.5632e-05
2.6087e-05
2.6087e-05
2.6087e-05
2.57369e-05
2.57369e-05
2.57369e-05
2.46068e-05
2.46068e-05
2.46068e-05
2.55317e-05
2.55317e-05
2.55317e-05
2.5189e-05
2.5189e-05
2.5189e-05
2.56309e-05
2.56309e-05
2.56309e-05
2.49484e-05
2.49484e-05
2.49484e-05
2.53905e-05
2.53905e-05