<VTKFile type="UnstructuredGrid" version="1.0">
<UnstructuredGrid>
<Piece NumberOfPoints="8859" NumberOfCells="2953">
<Points>
<DataArray type="Float64" NumberOfComponents="3" format="ascii">
3.01 0.5 6.175
3.01 0.487476 6.1975
3.01 0.512524 6.1975
3.01 0.17352 5.2975
3.01 0.148445 5.2975
3.01 0.160827 5.31922
3.01 0.122979 5.34089
3.01 0.135644 5.31922
3.01 0.110383 5.31921
3.01 0.135644 5.31922
3.01 0.123433 5.2975
3.01 0.110383 5.31921
3.01 0.123433 5.2975
3.01 0.135644 5.31922
3.01 0.148445 5.2975
3.01 0.135644 5.31922
3.01 0.160827 5.31922
3.01 0.148445 5.2975
3.01 0.17352 5.2975
3.01 0.185985 5.3192
3.01 0.198629 5.2975
3.01 0.185985 5.3192
3.01 0.17352 5.2975
3.01 0.160827 5.31922
3.01 0.0732297 5.34067
3.01 0.0848754 5.31914
3.01 0.0586606 5.31881
3.01 0.05 6.13027
3.01 0.058509 6.10756
3.01 0.05 6.0851
3.01 0.324276 5.2975
3.01 0.336827 5.31916
3.01 0.349395 5.2975
3.01 0.148138 5.3409
3.01 0.160827 5.31922
3.01 0.135644 5.31922
3.01 0.122979 5.34089
3.01 0.148138 5.3409
3.01 0.135644 5.31922
3.01 0.160827 5.31922
3.01 0.173316 5.34089
3.01 0.185985 5.3192
3.01 0.185806 5.36255
3.01 0.173316 5.34089
3.01 0.160572 5.36255
3.01 0.173316 5.34089
3.01 0.160827 5.31922
3.01 0.148138 5.3409
3.01 0.160572 5.36255
3.01 0.173316 5.34089
3.01 0.148138 5.3409
3.01 0.211137 5.31919
3.01 0.198629 5.2975
3.01 0.185985 5.3192
3.01 0.0979162 5.34084
3.01 0.122979 5.34089
3.01 0.110383 5.31921
3.01 0.122979 5.34089
3.01 0.0979162 5.34084
3.01 0.109875 5.36249
3.01 0.0732297 5.34067
3.01 0.0979162 5.34084
3.01 0.0848754 5.31914
3.01 0.0979162 5.34084
3.01 0.110383 5.31921
3.01 0.0848754 5.31914
3.01 0.0975729 5.38404
3.01 0.122678 5.38414
3.01 0.109875 5.36249
3.01 0.0841718 5.36235
3.01 0.0732297 5.34067
3.01 0.0577122 5.36202
3.01 0.0729308 5.38388
3.01 0.0841718 5.36235
3.01 0.0577122 5.36202
3.01 0.0732297 5.34067
3.01 0.0841718 5.36235
3.01 0.0979162 5.34084
3.01 0.0841718 5.36235
3.01 0.109875 5.36249
3.01 0.0979162 5.34084
3.01 0.0975729 5.38404
3.01 0.0841718 5.36235
3.01 0.0729308 5.38388
3.01 0.0841718 5.36235
3.01 0.0975729 5.38404
3.01 0.109875 5.36249
3.01 0.073948 5.2975
3.01 0.05 5.2975
3.01 0.0586606 5.31881
3.01 0.073948 5.2975
3.01 0.0586606 5.31881
3.01 0.0848754 5.31914
3.01 0.05 6.17329
3.01 0.0603641 6.15197
3.01 0.05 6.13027
3.01 0.0603641 6.15197
3.01 0.05 6.17329
3.01 0.0753197 6.17399
3.01 0.0709395 6.1975
3.01 0.05 6.17329
3.01 0.05 6.1975
3.01 0.05 6.17329
3.01 0.0709395 6.1975
3.01 0.0753197 6.17399
3.01 0.0579641 5.88463
3.01 0.05 5.86261
3.01 0.05 5.90669
3.01 0.0841948 5.79679
3.01 0.109814 5.7968
3.01 0.097638 5.77493
3.01 0.0841948 5.79679
3.01 0.0578646 5.7968
3.01 0.0730539 5.8187
3.01 0.0580261 5.9288
3.01 0.05 5.90669
3.01 0.05 5.95095
3.01 0.942292 5.49236
3.01 0.95 5.51404
3.01 0.95 5.47067
3.01 0.95 5.42726
3.01 0.942332 5.44897
3.01 0.95 5.47067
3.01 0.73872 5.70953
3.01 0.75132 5.68775
3.01 0.726137 5.68776
3.01 0.751305 5.73132
3.01 0.73872 5.70953
3.01 0.726124 5.73133
3.01 0.713546 5.70954
3.01 0.73872 5.70953
3.01 0.726137 5.68776
3.01 0.73872 5.70953
3.01 0.713546 5.70954
3.01 0.726124 5.73133
3.01 0.814318 5.75311
3.01 0.801709 5.7313
3.01 0.789096 5.75312
3.01 0.7765 5.73131
3.01 0.801709 5.7313
3.01 0.789115 5.70951
3.01 0.801709 5.7313
3.01 0.7765 5.73131
3.01 0.789096 5.75312
3.01 0.7765 5.73131
3.01 0.763892 5.75314
3.01 0.789096 5.75312
3.01 0.763892 5.75314
3.01 0.7765 5.73131
3.01 0.751305 5.73132
3.01 0.95 6.1975
3.01 0.95 6.17329
3.01 0.929061 6.1975
3.01 0.95 5.9954
3.01 0.941913 5.97315
3.01 0.926844 5.9954
3.01 0.941913 5.97315
3.01 0.95 5.9954
3.01 0.95 5.95095
3.01 0.926866 5.95094
3.01 0.941913 5.97315
3.01 0.95 5.95095
3.01 0.941974 5.9288
3.01 0.926866 5.95094
3.01 0.95 5.95095
3.01 0.95 5.90669
3.01 0.941974 5.9288
3.01 0.95 5.95095
3.01 0.941974 5.9288
3.01 0.95 5.90669
3.01 0.926895 5.90669
3.01 0.6127 6.1975
3.01 0.637734 6.1975
3.01 0.625238 6.17498
3.01 0.662757 6.1975
3.01 0.650275 6.17497
3.01 0.637734 6.1975
3.01 0.650275 6.17497
3.01 0.625238 6.17498
3.01 0.637734 6.1975
3.01 0.600415 5.73137
3.01 0.575304 5.73137
3.01 0.587856 5.7532
3.01 0.575304 5.73137
3.01 0.562749 5.7532
3.01 0.587856 5.7532
3.01 0.336827 5.31916
3.01 0.361946 5.31916
3.01 0.349395 5.2975
3.01 0.223755 5.2975
3.01 0.198629 5.2975
3.01 0.211137 5.31919
3.01 0.185985 5.3192
3.01 0.198492 5.34088
3.01 0.211137 5.31919
3.01 0.185806 5.36255
3.01 0.198492 5.34088
3.01 0.173316 5.34089
3.01 0.198492 5.34088
3.01 0.185985 5.3192
3.01 0.173316 5.34089
3.01 0.0576202 5.40553
3.01 0.05 5.38374
3.01 0.05 5.42726
3.01 0.05 5.38374
3.01 0.0576202 5.40553
3.01 0.0729308 5.38388
3.01 0.05 5.38374
3.01 0.0729308 5.38388
3.01 0.0577122 5.36202
3.01 0.135283 5.36254
3.01 0.122979 5.34089
3.01 0.109875 5.36249
3.01 0.135283 5.36254
3.01 0.109875 5.36249
3.01 0.122678 5.38414
3.01 0.122979 5.34089
3.01 0.135283 5.36254
3.01 0.148138 5.3409
3.01 0.135283 5.36254
3.01 0.160572 5.36255
3.01 0.148138 5.3409
3.01 0.123433 5.2975
3.01 0.0985513 5.2975
3.01 0.110383 5.31921
3.01 0.110383 5.31921
3.01 0.0985513 5.2975
3.01 0.0848754 5.31914
3.01 0.0848754 5.31914
3.01 0.0985513 5.2975
3.01 0.073948 5.2975
3.01 0.0603641 6.15197
3.01 0.0739464 6.12949
3.01 0.05 6.13027
3.01 0.0739464 6.12949
3.01 0.058509 6.10756
3.01 0.05 6.13027
3.01 0.058509 6.10756
3.01 0.0739464 6.12949
3.01 0.0849548 6.10711
3.01 0.058509 6.10756
3.01 0.0732725 6.08488
3.01 0.05 6.0851
3.01 0.0732725 6.08488
3.01 0.058509 6.10756
3.01 0.0849548 6.10711
3.01 0.5 6.175
3.01 0.47495 6.175
3.01 0.487476 6.1975
3.01 0.097663 5.8187
3.01 0.109814 5.7968
3.01 0.0841948 5.79679
3.01 0.0730539 5.8187
3.01 0.097663 5.8187
3.01 0.0841948 5.79679
3.01 0.0578646 5.7968
3.01 0.05 5.8187
3.01 0.0730539 5.8187
3.01 0.05 5.8187
3.01 0.0578646 5.7968
3.01 0.05 5.77492
3.01 0.05 5.9954
3.01 0.0580869 5.97315
3.01 0.05 5.95095
3.01 0.05 5.95095
3.01 0.073134 5.95094
3.01 0.0580261 5.9288
3.01 0.073134 5.95094
3.01 0.05 5.95095
3.01 0.0580869 5.97315
3.01 0.942268 5.53573
3.01 0.95 5.55741
3.01 0.95 5.51404
3.01 0.942292 5.49236
3.01 0.927025 5.51404
3.01 0.95 5.51404
3.01 0.927025 5.51404
3.01 0.915919 5.53572
3.01 0.942268 5.53573
3.01 0.95 5.51404
3.01 0.927025 5.51404
3.01 0.942268 5.53573
3.01 0.927013 5.55741
3.01 0.95 5.55741
3.01 0.942268 5.53573
3.01 0.915919 5.53572
3.01 0.927013 5.55741
3.01 0.942268 5.53573
3.01 0.801738 5.64425
3.01 0.826957 5.64425
3.01 0.814364 5.62253
3.01 0.852174 5.64424
3.01 0.839609 5.62252
3.01 0.826957 5.64425
3.01 0.839609 5.62252
3.01 0.814364 5.62253
3.01 0.826957 5.64425
3.01 0.776516 5.68775
3.01 0.763923 5.666
3.01 0.75132 5.68775
3.01 0.776516 5.68775
3.01 0.789115 5.70951
3.01 0.801725 5.68774
3.01 0.738704 5.75315
3.01 0.763892 5.75314
3.01 0.751305 5.73132
3.01 0.726124 5.73133
3.01 0.738704 5.75315
3.01 0.751305 5.73132
3.01 0.915617 5.97314
3.01 0.926866 5.95094
3.01 0.902228 5.95094
3.01 0.926866 5.95094
3.01 0.915617 5.97314
3.01 0.941913 5.97315
3.01 0.915617 5.97314
3.01 0.926844 5.9954
3.01 0.941913 5.97315
3.01 0.915617 5.97314
3.01 0.902193 5.99538
3.01 0.926844 5.9954
3.01 0.926866 5.95094
3.01 0.915668 5.92879
3.01 0.902228 5.95094
3.01 0.902267 5.90668
3.01 0.915668 5.92879
3.01 0.926895 5.90669
3.01 0.915668 5.92879
3.01 0.926866 5.95094
3.01 0.941974 5.9288
3.01 0.926895 5.90669
3.01 0.915668 5.92879
3.01 0.941974 5.9288
3.01 0.902267 5.90668
3.01 0.890059 5.92879
3.01 0.915668 5.92879
3.01 0.890059 5.92879
3.01 0.902228 5.95094
3.01 0.915668 5.92879
3.01 0.826927 5.73129
3.01 0.801709 5.7313
3.01 0.814318 5.75311
3.01 0.864816 5.7968
3.01 0.890186 5.7968
3.01 0.877308 5.77493
3.01 0.877308 5.77493
3.01 0.852122 5.77494
3.01 0.864816 5.7968
3.01 0.890186 5.7968
3.01 0.902362 5.77493
3.01 0.877308 5.77493
3.01 0.902362 5.77493
3.01 0.890186 5.7968
3.01 0.915805 5.79679
3.01 0.902362 5.77493
3.01 0.915805 5.79679
3.01 0.926964 5.77492
3.01 0.915835 5.75309
3.01 0.902362 5.77493
3.01 0.926964 5.77492
3.01 0.942171 5.75309
3.01 0.915835 5.75309
3.01 0.926964 5.77492
3.01 0.915835 5.75309
3.01 0.942171 5.75309
3.01 0.926978 5.73127
3.01 0.942171 5.75309
3.01 0.95 5.73127
3.01 0.926978 5.73127
3.01 0.87737 5.60081
3.01 0.902417 5.6008
3.01 0.890277 5.57911
3.01 0.852144 5.73128
3.01 0.864842 5.75309
3.01 0.877329 5.73128
3.01 0.877308 5.77493
3.01 0.864842 5.75309
3.01 0.852122 5.77494
3.01 0.902396 5.68772
3.01 0.890234 5.70949
3.01 0.915858 5.70948
3.01 0.926997 5.64423
3.01 0.95 5.64423
3.01 0.942237 5.62251
3.01 0.91589 5.62251
3.01 0.926997 5.64423
3.01 0.942237 5.62251
3.01 0.942199 5.70948
3.01 0.95 5.73127
3.01 0.95 5.68771
3.01 0.95 5.73127
3.01 0.942199 5.70948
3.01 0.926978 5.73127
3.01 0.942199 5.70948
3.01 0.915858 5.70948
3.01 0.926978 5.73127
3.01 0.95 5.64423
3.01 0.942221 5.66597
3.01 0.95 5.68771
3.01 0.942221 5.66597
3.01 0.95 5.64423
3.01 0.926997 5.64423
3.01 0.915876 5.66597
3.01 0.942221 5.66597
3.01 0.926997 5.64423
3.01 0.926989 5.68771
3.01 0.902396 5.68772
3.01 0.915858 5.70948
3.01 0.902396 5.68772
3.01 0.926989 5.68771
3.01 0.915876 5.66597
3.01 0.926989 5.68771
3.01 0.915858 5.70948
3.01 0.942199 5.70948
3.01 0.95 5.68771
3.01 0.926989 5.68771
3.01 0.942199 5.70948
3.01 0.915876 5.66597
3.01 0.926989 5.68771
3.01 0.942221 5.66597
3.01 0.926989 5.68771
3.01 0.95 5.68771
3.01 0.942221 5.66597
3.01 0.91353 6.15185
3.01 0.939636 6.15197
3.01 0.926054 6.12949
3.01 0.926728 6.08488
3.01 0.941491 6.10756
3.01 0.95 6.0851
3.01 0.926728 6.08488
3.01 0.95 6.0851
3.01 0.941822 6.06254
3.01 0.95 6.13027
3.01 0.939636 6.15197
3.01 0.95 6.17329
3.01 0.95 6.13027
3.01 0.941491 6.10756
3.01 0.926054 6.12949
3.01 0.939636 6.15197
3.01 0.95 6.13027
3.01 0.926054 6.12949
3.01 0.941491 6.10756
3.01 0.95 6.13027
3.01 0.95 6.0851
3.01 0.941869 6.01772
3.01 0.95 5.9954
3.01 0.926844 5.9954
3.01 0.762942 6.15228
3.01 0.737933 6.15234
3.01 0.75028 6.17489
3.01 0.71291 6.15239
3.01 0.737933 6.15234
3.01 0.725533 6.12985
3.01 0.71291 6.15239
3.01 0.725313 6.17492
3.01 0.737933 6.15234
3.01 0.725313 6.17492
3.01 0.75028 6.17489
3.01 0.737933 6.15234
3.01 0.737693 6.1975
[...]
<PointData Scalars="View Factor" >
<DataArray type="Float64" Name="View Factor" NumberOfComponents="1" format="ascii">
0.362906
0.362906
0.362906
0.107505
0.107505
0.107505
0.111135
0.111135
0.111135
0.108788
0.108788
0.108788
0.107595
0.107595
0.107595
0.108706
0.108706
0.108706
0.107401
0.107401
0.107401
0.108607
0.108607
0.108607
0.111218
0.111218
0.111218
0.337043
0.337043
0.337043
0.106449
0.106449
0.106449
0.111052
0.111052
0.111052
0.112288
0.112288
0.112288
0.110951
0.110951
0.110951
0.115794
0.115794
0.115794
0.112195
0.112195
0.112195
0.114617
0.114617
0.114617
0.108493
0.108493
0.108493
0.112361
0.112361
0.112361
0.114783
0.114783
0.114783
0.112405
0.112405
0.112405
0.111196
0.111196
0.111196
0.119787
0.119787
0.119787
0.116057
0.116057
0.116057
0.118558
0.118558
0.118558
0.114824
0.114824
0.114824
0.116038
0.116038
0.116038
0.119828
0.119828
0.119828
0.118539
0.118539
0.118539
0.107749
0.107749
0.107749
0.108881
0.108881
0.108881
0.355193
0.355193
0.355193
0.3612
0.3612
0.3612
0.37079
0.37079
0.37079
0.367494
0.367494
0.367494
0.252002
0.252002
0.252002
0.220234
0.220234
0.220234
0.224967
0.224967
0.224967
0.267731
0.267731
0.267731
0.127646
0.127646
0.127646
0.119598
0.119598
0.119598
0.180969
0.180969
0.180969
0.18889
0.18889
0.18889
0.183332
0.183332
0.183332
0.1873
0.1873
0.1873
0.192709
0.192709
0.192709
0.187103
0.187103
0.187103
0.191144
0.191144
0.191144
0.193668
0.193668
0.193668
0.192074
0.192074
0.192074
0.337522
0.337522
0.337522
0.262879
0.262879
0.262879
0.257203
0.257203
0.257203
0.252588
0.252588
0.252588
0.247545
0.247545
0.247545
0.242105
0.242105
0.242105
0.237675
0.237675
0.237675
0.357873
0.357873
0.357873
0.356692
0.356692
0.356692
0.354252
0.354252
0.354252
0.197538
0.197538
0.197538
0.199975
0.199975
0.199975
0.107484
0.107484
0.107484
0.107281
0.107281
0.107281
0.110834
0.110834
0.110834
0.114505
0.114505
0.114505
0.112085
0.112085
0.112085
0.12511
0.12511
0.12511
0.122442
0.122442
0.122442
0.119837
0.119837
0.119837
0.115981
0.115981
0.115981
0.118484
0.118484
0.118484
0.114711
0.114711
0.114711
0.115898
0.115898
0.115898
0.107668
0.107668
0.107668
0.108851
0.108851
0.108851
0.107723
0.107723
0.107723
0.349141
0.349141
0.349141
0.343062
0.343062
0.343062
0.339857
0.339857
0.339857
0.330872
0.330872
0.330872
0.333802
0.333802
0.333802
0.360258
0.360258
0.360258
0.224874
0.224874
0.224874
0.227273
0.227273
0.227273
0.227351
0.227351
0.227351
0.222689
0.222689
0.222689
0.284142
0.284142
0.284142
0.2731
0.2731
0.2731
0.278571
0.278571
0.278571
0.13624
0.13624
0.13624
0.130708
0.130708
0.130708
0.13543
0.13543
0.13543
0.133578
0.133578
0.133578
0.139509
0.139509
0.139509
0.138404
0.138404
0.138404
0.163605
0.163605
0.163605
0.162727
0.162727
0.162727
0.161415
0.161415
0.161415
0.176299
0.176299
0.176299
0.179251
0.179251
0.179251
0.194588
0.194588
0.194588
0.192966
0.192966
0.192966
0.25412
0.25412
0.25412
0.25586
0.25586
0.25586
0.26102
0.26102
0.26102
0.264466
0.264466
0.264466
0.249049
0.249049
0.249049
0.239124
0.239124
0.239124
0.245749
0.245749
0.245749
0.240801
0.240801
0.240801
0.242285
0.242285
0.242285
0.247261
0.247261
0.247261
0.190175
0.190175
0.190175
0.202076
0.202076
0.202076
0.200523
0.200523
0.200523
0.199367
0.199367
0.199367
0.20088
0.20088
0.20088
0.198172
0.198172
0.198172
0.194005
0.194005
0.194005
0.19132
0.19132
0.19132
0.18728
0.18728
0.18728
0.184754
0.184754
0.184754
0.150746
0.150746
0.150746
0.188115
0.188115
0.188115
0.19631
0.19631
0.19631
0.176723
0.176723
0.176723
0.1589
0.1589
0.1589
0.157647
0.157647
0.157647
0.176649
0.176649
0.176649
0.180839
0.180839
0.180839
0.179428
0.179428
0.179428
0.165593
0.165593
0.165593
0.162375
0.162375
0.162375
0.164616
0.164616
0.164616
0.174311
0.174311
0.174311
0.170597
0.170597
0.170597
0.175614
0.175614
0.175614
0.173233
0.173233
0.173233
0.168209
0.168209
0.168209
0.16954
0.16954
0.16954
0.321552
0.321552
0.321552
0.300894
0.300894
0.300894
0.295288
0.295288
0.295288
0.322801
0.322801
0.322801
0.312186
0.312186
0.312186
0.317862
0.317862
0.317862
0.305987
0.305987
0.305987
0.268126
0.268126
0.268126
0.339326
0.339326
0.339326
0.334768
0.334768
0.334768
0.340741
0.340741
0.340741
0.343037
0.343037
0.343037
0.352769
0.352769
0.352769
0.349045
0.349045
0.349045
0.351331
0.351331
0.351331
0.317207
0.317207
0.317207
0.322925
0.322925
0.322925
0.332463
0.332463
0.332463
0.326533
0.326533
0.326533
0.334979
0.334979
0.334979
0.329016
0.329016
0.329016
0.349321
0.349321
0.349321
0.355396
0.355396
0.355396
0.358994
0.358994
0.358994
0.194366
0.194366
0.194366
0.199312
0.199312
0.199312
0.213732
0.213732
0.213732
0.217594
0.217594
0.217594
0.213069
0.213069
0.213069
0.211169
0.211169
0.211169
0.204259
0.204259
0.204259
0.206759
0.206759
0.206759
0.218268
0.218268
0.218268
0.220231
0.220231
0.220231
0.247166
0.247166
0.247166
0.21005
0.21005
0.21005
0.208252
0.208252
0.208252
0.196857
0.196857
0.196857
0.205387
0.205387
0.205387
0.106828
0.106828
0.106828
0.106994
0.106994
0.106994
0.108059
0.108059
0.108059
0.110389
0.110389
0.110389
0.102845
0.102845
0.102845
0.168039
0.168039
0.168039
0.175439
0.175439
0.175439
0.170283
0.170283
0.170283
0.173991
0.173991
0.173991
0.174826
0.174826
0.174826
0.177124
0.177124
0.177124
0.111485
0.111485
0.111485
0.106236
0.106236
0.106236
0.102817
0.102817
0.102817
0.14861
0.14861
0.14861
0.147146
0.147146
0.147146
0.117287
0.117287
0.117287
0.11004
0.11004
0.11004
0.112392
0.112392
0.112392
0.114811
0.114811
0.114811
0.342772
0.342772
0.342772
0.363748
0.363748
0.363748
0.257142
0.257142
0.257142
0.262385
0.262385
0.262385
0.232035
0.232035
0.232035
0.127307
0.127307
0.127307
0.256938
0.256938
0.256938
0.262177
0.262177
0.262177
0.217888
0.217888
0.217888
0.220116
0.220116
0.220116
0.213471
0.213471
0.213471
0.217991
0.217991
0.217991
0.218067
0.218067
0.218067
0.220325
0.220325
0.220325
0.209125
0.209125
0.209125
0.213546
0.213546
0.213546
0.211285
0.211285
0.211285
0.206886
0.206886
0.206886
0.204746
0.204746
0.204746
0.184133
0.184133
0.184133
0.181643
0.181643
0.181643
0.140383
0.140383
0.140383
0.167177
0.167177
0.167177
0.16943
0.16943
0.16943
0.173121
0.173121
0.173121
0.160528
0.160528
0.160528
0.161814
0.161814
0.161814
0.149561
0.149561
0.149561
0.129673
0.129673
0.129673
0.145826
0.145826
0.145826
0.180128
0.180128
0.180128
0.188015
0.188015
0.188015
0.185568
0.185568
0.185568
0.181633
0.181633
0.181633
0.1825
0.1825
0.1825
0.186452
0.186452
0.186452
0.198772
0.198772
0.198772
0.201352
0.201352
0.201352
0.195468
0.195468
0.195468
0.19967
0.19967
0.19967
0.213654
0.213654
0.213654
0.215459
0.215459
0.215459
0.203893
0.203893
0.203893
0.205174
0.205174
0.205174
0.240543
0.240543
0.240543
0.23701
0.23701
0.23701
0.235663
0.235663
0.235663
0.233921
0.233921
0.233921
0.329678
0.329678
0.329678
0.333367
0.333367
0.333367
0.331106
0.331106
0.331106
0.325193
0.325193
0.325193
0.298479
0.298479
0.298479
0.311271
0.311271
0.311271
0.317044
0.317044
0.317044
0.28518
0.28518
0.28518
0.292195
0.292195
0.292195
0.28169
0.28169
0.28169
0.174542
0.174542
0.174542
0.19171
0.19171
0.19171
0.189165
0.189165
0.189165
0.190669
0.190669
0.190669
0.194777
0.194777
0.194777
0.207565
0.207565
0.207565
0.203225
0.203225
0.203225
0.185901
0.185901
0.185901
0.183065
0.183065
0.183065
0.181962
0.181962
0.181962
0.180559
0.180559
0.180559
0.192812
0.192812
0.192812
0.188374
0.188374
0.188374
0.169274
0.169274
0.169274
0.16535
0.16535
0.16535
0.166658
0.166658
0.166658
0.155248
0.155248
0.155248
0.159606
0.159606
0.159606
0.15405
0.15405
0.15405
0.156188
0.156188
0.156188
0.14866
0.14866
0.14866
0.145468
0.145468
0.145468
0.143465
0.143465
0.143465
0.332933
0.332933
0.332933
0.328731
0.328731
0.328731
0.329064
0.329064
0.329064
0.327281
0.327281
0.327281
0.335192
0.335192
0.335192
0.319642
0.319642
0.319642
0.302591
0.302591
0.302591
0.313905
0.313905
0.313905
0.310142
0.310142
0.310142
0.304509
0.304509
0.304509
0.299872
0.299872
0.299872
0.290707
0.290707
0.290707
0.294249
0.294249
0.294249
0.292718
0.292718
0.292718
0.26974
0.26974
0.26974
0.271538
0.271538
0.271538
0.293307
0.293307
0.293307
0.296992
0.296992
0.296992
0.337364
0.337364
0.337364
0.336099
0.336099
0.336099
0.333754
0.333754
0.333754
0.354141
0.354141
0.354141
0.350445
0.350445
0.350445
0.344424
0.344424
0.344424
0.342088
0.342088
0.342088
0.342751
0.342751
0.342751
0.334644
0.334644
0.334644
0.336767
0.336767
0.336767
0.34661
0.34661
0.34661
0.34158
0.34158
0.34158
0.347577
0.347577
0.347577
0.317064
0.317064
0.317064
0.314793
0.314793
0.314793
0.276432
0.276432
0.276432
0.273176
0.273176
0.273176
0.287254
0.287254
0.287254
0.308991
0.308991
0.308991
0.30548
0.30548
0.30548
0.311369
0.311369
0.311369
0.290672
0.290672
0.290672
0.296296
0.296296
0.296296
0.299763
0.299763
0.299763
0.297538
0.297538
0.297538
0.324223
0.324223
0.324223
0.319559
0.319559
0.319559
0.325456
0.325456
0.325456
0.327807
0.327807
0.327807
0.316032
0.316032
0.316032
0.318344
0.318344
0.318344
0.338565
0.338565
0.338565
0.344583
0.344583
0.344583
0.34819
0.34819
0.34819
0.345737
0.345737
0.345737
0.326626
0.326626
0.326626
0.320713
0.320713
0.320713
0.318323
0.318323
0.318323
0.269454
0.269454
0.269454
0.264119
0.264119
0.264119
0.186887
0.186887
0.186887
0.20345
0.20345
0.20345
0.185026
0.185026
0.185026
0.187125
0.187125
0.187125
0.205471
0.205471
0.205471
0.196676
0.196676
0.196676
0.194821
0.194821
0.194821
0.216533
0.216533
0.216533
0.21403
0.21403
0.21403
0.209074
0.209074
0.209074
0.221117
0.221117
0.221117
0.22368
0.22368
0.22368
0.228389
0.228389
0.228389
0.230527
0.230527
0.230527
0.196864
0.196864
0.196864
0.203585
0.203585
0.203585
0.206096
0.206096
0.206096
0.210495
0.210495
0.210495
0.21237
0.21237
0.21237
0.238049
0.238049
0.238049
0.235353
0.235353
0.235353
0.220893
0.220893
0.220893
0.224882
0.224882
0.224882
0.216039
0.216039
0.216039
0.213524
0.213524
0.213524
0.236401
0.236401
0.236401
0.233665
0.233665
0.233665
0.215347
0.215347
0.215347
0.210862
0.210862
0.210862
0.20977
0.20977
0.20977
0.248828
0.248828
0.248828
0.107145
0.107145
0.107145
0.108219
0.108219
0.108219
0.108364
0.108364
0.108364
0.117266
0.117266
0.117266
0.112064
0.112064
0.112064
0.114751
0.114751
0.114751
0.103715
0.103715
0.103715
0.100072
0.100072
0.100072
0.101525
0.101525
0.101525
0.168866
0.168866
0.168866
0.171101
0.171101
0.171101
0.16966
0.16966
0.16966
0.166039
0.166039
0.166039
0.175625
0.175625
0.175625
0.171886
0.171886
0.171886
0.107883
0.107883
0.107883
0.110209
0.110209
0.110209
0.106647
0.106647
0.106647
0.107691
0.107691
0.107691
0.109802
0.109802
0.109802
0.110868
0.110868
0.110868
0.113264
0.113264
0.113264
0.113021
0.113021
0.113021
0.114362
0.114362
0.114362
0.118221
0.118221
0.118221
0.116838
0.116838
0.116838
0.105502
0.105502
0.105502
0.104123
0.104123
0.104123
0.151845
0.151845
0.151845
0.158525
0.158525
0.158525
0.109188
0.109188
0.109188
0.111658
0.111658
0.111658
0.114071
0.114071
0.114071
0.110553
0.110553
0.110553
0.30281
0.30281
0.30281
0.313839
0.313839
0.313839
0.332731
0.332731
0.332731
0.332974
0.332974
0.332974
0.329834
0.329834
0.329834
0.315022
0.315022
0.315022
0.323824
0.323824
0.323824
0.320956
0.320956
0.320956
0.329573
0.329573
0.329573
0.339639
0.339639
0.339639
0.324818
0.324818
0.324818
0.318864
0.318864
0.318864
0.361069
0.361069
0.361069
0.346115
0.346115
0.346115
0.352233
0.352233
0.352233
0.35492
0.35492
0.35492
0.333972
0.333972
0.333972
0.347487
0.347487
0.347487
0.353625
0.353625
0.353625
0.25441
0.25441
0.25441
0.257055
0.257055
0.257055
0.254514
0.254514
0.254514
0.270355
0.270355
0.270355
0.264997
0.264997
0.264997
0.273008
0.273008
0.273008
0.270246
0.270246
0.270246
0.262296
0.262296
0.262296
0.26489
0.26489
0.26489
0.234397
0.234397
0.234397
0.239156
0.239156
0.239156
0.236983
0.236983
0.236983
0.232115
0.232115
0.232115
0.234494
0.234494
0.234494
0.127824
0.127824
0.127824
0.149931
0.149931
0.149931
0.143618
0.143618
0.143618
0.159035
0.159035
0.159035
0.16249
0.16249
0.16249
0.161965
0.161965
0.161965
0.172725
0.172725
0.172725
0.176444
0.176444
0.176444
0.151853
0.151853
0.151853
0.148551
0.148551
0.148551
0.145389
0.145389
0.145389
0.148607
0.148607
0.148607
0.15019
0.15019
0.15019
0.148382
0.148382
0.148382
0.145224
0.145224
0.145224
0.140738
0.140738
0.140738
0.1438
0.1438
0.1438
0.145315
0.145315
0.145315
0.143718
0.143718
0.143718
0.130069
0.130069
0.130069
0.272885
0.272885
0.272885
0.278351
0.278351
0.278351
0.227167
0.227167
0.227167
0.224755
0.224755
0.224755
0.231928
0.231928
0.231928
0.234275
0.234275
0.234275
0.217759
0.217759
0.217759
0.184158
0.184158
0.184158
0.18216
0.18216
0.18216
0.180254
0.180254
0.180254
0.180189
0.180189
0.180189
0.182081
0.182081
0.182081
0.204674
0.204674
0.204674
0.200396
0.200396
0.200396
0.185775
0.185775
0.185775
0.21337
0.21337
0.21337
0.204577
0.204577
0.204577
0.211196
0.211196
0.211196
0.206798
0.206798
0.206798
0.141488
0.141488
0.141488
0.144586
0.144586
0.144586
0.15796
0.15796
0.15796
0.144344
0.144344
0.144344
0.146351
0.146351
0.146351
0.154958
0.154958
0.154958
0.151635
0.151635
0.151635
0.157091
0.157091
0.157091
0.155834
0.155834
0.155834
0.156678
0.156678
0.156678
0.153321
0.153321
0.153321
0.134415
0.134415
0.134415
0.131527
0.131527
0.131527
0.200426
0.200426
0.200426
0.197835
0.197835
0.197835
0.199459
0.199459
0.199459
0.203734
0.203734
0.203734
0.206403
0.206403
0.206403
0.204719
0.204719
0.204719
0.202238
0.202238
0.202238
0.206566
0.206566
0.206566
0.207428
0.207428
0.207428
0.2092
0.2092
0.2092
0.193819
0.193819
0.193819
0.188111
0.188111
0.188111
0.189727
0.189727
0.189727
0.214521
0.214521
0.214521
0.216354
0.216354
0.216354
0.217208
0.217208
0.217208
0.24189
0.24189
0.24189
0.246885
0.246885
0.246885
0.216478
0.216478
0.216478
0.206737
0.206737
0.206737
0.206394
0.206394
0.206394
0.207979
0.207979
0.207979
0.209181
0.209181
0.209181
0.213626
0.213626
0.213626
0.227799
0.227799
0.227799
0.234271
0.234271
0.234271
0.232553
0.232553
0.232553
0.25052
0.25052
0.25052
0.262613
0.262613
0.262613
0.257427
0.257427
0.257427
0.255617
0.255617
0.255617
0.258923
0.258923
0.258923
0.276263
0.276263
0.276263
0.322303
0.322303
0.322303
0.326606
0.326606
0.326606
0.320751
0.320751
0.320751
0.318619
0.318619
0.318619
0.320125
0.320125
0.320125
0.32156
0.32156
0.32156
0.323783
0.323783
0.323783
0.314304
0.314304
0.314304
0.319129
0.319129
0.319129
0.327039
0.327039
0.327039
0.324962
0.324962
0.324962
0.315402
0.315402
0.315402
0.303466
0.303466
0.303466
0.30918
0.30918
0.30918
0.312821
0.312821
0.312821
0.310684
0.310684
0.310684
0.273184
0.273184
0.273184
0.278562
0.278562
0.278562
0.283662
0.283662
0.283662
0.289162
0.289162
0.289162
0.282092
0.282092
0.282092
0.280155
0.280155
0.280155
0.178336
0.178336
0.178336
0.186152
0.186152
0.186152
0.184645
0.184645
0.184645
0.180728
0.180728
0.180728
0.185162
0.185162
0.185162
0.177385
0.177385
0.177385
0.183684
0.183684
0.183684
0.179786
0.179786
0.179786
0.182684
0.182684
0.182684
0.178805
0.178805
0.178805
0.168542
0.168542
0.168542
0.172215
0.172215
0.172215
0.173609
0.173609
0.173609
0.166281
0.166281
0.166281
0.167619
0.167619
0.167619
0.171273
0.171273
0.171273
0.201636
0.201636
0.201636
0.198451
0.198451
0.198451
0.202706
0.202706
0.202706
0.204328
0.204328
0.204328
0.195838
0.195838
0.195838
0.197402
0.197402
0.197402
0.195176
0.195176
0.195176
0.193673
0.193673
0.193673
0.192522
0.192522
0.192522
0.188459
0.188459
0.188459
0.189586
0.189586
0.189586
0.187026
0.187026
0.187026
0.199629
0.199629
0.199629
0.196955
0.196955
0.196955
0.20078
0.20078
0.20078
0.20547
0.20547
0.20547
0.203898
0.203898
0.203898
0.176396
0.176396
0.176396
0.17264
0.17264
0.17264
0.17537
0.17537
0.17537
0.177785
0.177785
0.177785
0.171635
0.171635
0.171635
0.170293
0.170293
0.170293
0.159893
0.159893
0.159893
0.158647
0.158647
0.158647
0.163389
0.163389
0.163389
0.165659
0.165659
0.165659
0.164385
0.164385
0.164385
0.160869
0.160869
0.160869
0.142572
0.142572
0.142572
0.144548
0.144548
0.144548
0.155188
0.155188
0.155188
0.145412
0.145412
0.145412
0.339458
0.339458
0.339458
0.323248
0.323248
0.323248
0.317443
0.317443
0.317443
0.306256
0.306256
0.306256
0.311936
0.311936
0.311936
0.307982
0.307982
0.307982
0.304302
0.304302
0.304302
0.313698
0.313698
0.313698
0.315697
0.315697
0.315697
0.301924
0.301924
0.301924
0.305982
0.305982
0.305982
0.300324
0.300324
0.300324
0.298313
0.298313
0.298313
0.309656
0.309656
0.309656
0.307611
0.307611
0.307611
0.29503
0.29503
0.29503
0.289491
0.289491
0.289491
0.298674
0.298674
0.298674
0.296697
0.296697
0.296697
0.287567
0.287567
0.287567
0.29113
0.29113
0.29113
0.276893
0.276893
0.276893
0.287783
0.287783
0.287783
0.280473
0.280473
0.280473
0.285928
0.285928
0.285928
0.351778
0.351778
0.351778
0.353047
0.353047
0.353047
0.355448
0.355448
0.355448
0.346999
0.346999
0.346999
0.343368
0.343368
0.343368
0.345744
0.345744
0.345744
0.349825
0.349825
0.349825
0.337839
0.337839
0.337839
0.331896
0.331896
0.331896
0.33035
0.33035
0.33035
0.328179
0.328179
0.328179
0.344431
0.344431
0.344431
0.340051
0.340051
0.340051
0.348251
0.348251
0.348251
0.34604
0.34604
0.34604
0.338447
0.338447
0.338447
0.336279
0.336279
0.336279
0.307708
0.307708
0.307708
0.30636
0.30636
0.30636
0.304175
0.304175
0.304175
0.312121
0.312121
0.312121
0.31349
0.31349
0.31349
0.315718
0.315718
0.315718
0.275326
0.275326
0.275326
0.288496
0.288496
0.288496
0.291894
0.291894
0.291894
0.282951
0.282951
0.282951
0.280785
0.280785
0.280785
0.26231
0.26231
0.26231
0.257096
0.257096
0.257096
0.253923
0.253923
0.253923
0.286642
0.286642
0.286642
0.283169
0.283169
0.283169
0.289389
0.289389
0.289389
0.294991
0.294991
0.294991
0.292886
0.292886
0.292886
0.295213
0.295213
0.295213
0.299844
0.299844
0.299844
0.310211
0.310211
0.310211
0.307901
0.307901
0.307901
0.306721
0.306721
0.306721
0.302146
0.302146
0.302146
0.300985
0.300985
0.300985
0.29872
0.29872
0.29872
0.301921
0.301921
0.301921
0.297152
0.297152
0.297152
0.296208
0.296208
0.296208
0.293848
0.293848
0.293848
0.313511
0.313511
0.313511
0.304296
0.304296
0.304296
0.30091
0.30091
0.30091
0.30325
0.30325
0.30325
0.309021
0.309021
0.309021
0.312468
0.312468
0.312468
0.310084
0.310084
0.310084
0.346831
0.346831
0.346831
0.353268
0.353268
0.353268
0.359395
0.359395
0.359395
0.36201
0.36201
0.36201
0.190642
0.190642
0.190642
0.19919
0.19919
0.19919
0.196956
0.196956
0.196956
0.192818
0.192818
0.192818
0.190909
0.190909
0.190909
0.20393
0.20393
0.20393
0.212704
0.212704
0.212704
0.210586
0.210586
0.210586
0.206198
0.206198
0.206198
0.191151
0.191151
0.191151
0.19944
0.19944
0.19944
0.193075
0.193075
0.193075
0.197217
0.197217
0.197217
0.181339
0.181339
0.181339
0.18525
0.18525
0.18525
0.185449
0.185449
0.185449
0.187338
0.187338
0.187338
0.199663
0.199663
0.199663
0.197452
0.197452
0.197452
0.193306
0.193306
0.193306
0.191368
0.191368
0.191368
0.190717
0.190717
0.190717
0.211256
0.211256
0.211256
0.20485
0.20485
0.20485
0.209218
0.209218
0.209218
0.215742
0.215742
0.215742
0.217827
0.217827
0.217827
0.214505
0.214505
0.214505
0.224138
0.224138
0.224138
0.221587
0.221587
0.221587
0.222025
0.222025
0.222025
0.216995
0.216995
0.216995
0.209571
0.209571
0.209571
0.207129
0.207129
0.207129
0.200895
0.200895
0.200895
0.202795
0.202795
0.202795
0.198178
0.198178
0.198178
0.208544
0.208544
0.208544
0.20662
0.20662
0.20662
0.206079
0.206079
0.206079
0.227891
0.227891
0.227891
0.222667
0.222667
0.222667
0.22319
0.22319
0.22319
0.220615
0.220615
0.220615
0.238529
0.238529
0.238529
0.235846
0.235846
0.235846
0.228854
0.228854
0.228854
0.231013
0.231013
0.231013
0.198615
0.198615
0.198615
0.20213
0.20213
0.20213
0.197883
0.197883
0.197883
0.196156
0.196156
0.196156
0.29476
0.29476
0.29476
0.289115
0.289115
0.289115
0.286743
0.286743
0.286743
0.27257
0.27257
0.27257
0.278017
0.278017
0.278017
0.281187
0.281187
0.281187
0.261887
0.261887
0.261887
0.257427
0.257427
0.257427
0.250064
0.250064
0.250064
0.2552
0.2552
0.2552
0.310706
0.310706
0.310706
0.242477
0.242477
0.242477
0.237535
0.237535
0.237535
0.226192
0.226192
0.226192
0.226793
0.226793
0.226793
0.228867
0.228867
0.228867
0.234424
0.234424
0.234424
0.242152