<VTKFile type="UnstructuredGrid" version="1.0">
<UnstructuredGrid>
<Piece NumberOfPoints="8859" NumberOfCells="2953">
<Points>
<DataArray type="Float64" NumberOfComponents="3" format="ascii">
2.75455 1.50245 4.04763
2.76986 1.48714 4.05958
2.75465 1.50235 4.07333
2.78515 1.47185 3.99667
2.78516 1.47184 3.97151
2.8005 1.4565 3.98398
2.76981 1.48719 4.00936
2.78515 1.47185 3.99667
2.78514 1.47186 4.02186
2.72412 1.53288 4.09988
2.73952 1.51748 4.1075
2.70875 1.54825 4.1075
2.72412 1.53288 4.09988
2.73943 1.51757 4.08457
2.73952 1.51748 4.1075
2.75488 1.50212 4.09979
2.77036 1.48664 4.1075
2.73952 1.51748 4.1075
2.75488 1.50212 4.09979
2.73943 1.51757 4.08457
2.75465 1.50235 4.07333
2.73952 1.51748 4.1075
2.73943 1.51757 4.08457
2.75488 1.50212 4.09979
2.75465 1.50235 4.07333
2.76986 1.48714 4.05958
2.76997 1.48703 4.08427
2.76997 1.48703 4.08427
2.75488 1.50212 4.09979
2.75465 1.50235 4.07333
2.77036 1.48664 4.1075
2.75488 1.50212 4.09979
2.76997 1.48703 4.08427
2.76986 1.48714 4.05958
2.75455 1.50245 4.04763
2.76982 1.48718 4.03452
2.76981 1.48719 4.00936
2.78514 1.47186 4.02186
2.76982 1.48718 4.03452
2.7852 1.4718 4.07262
2.76997 1.48703 4.08427
2.76986 1.48714 4.05958
2.8005 1.4565 4.05895
2.8005 1.4565 4.08355
2.7852 1.4718 4.07262
2.8005 1.4565 3.95887
2.8005 1.4565 3.98398
2.78516 1.47184 3.97151
2.78515 1.47185 3.99667
2.8005 1.4565 3.98398
2.8005 1.4565 4.00906
2.8005 1.4565 4.00906
2.78514 1.47186 4.02186
2.78515 1.47185 3.99667
2.8005 1.4565 3.43152
2.8005 1.4565 3.45665
2.78518 1.47182 3.44407
2.78517 1.47183 3.89607
2.8005 1.4565 3.90861
2.78517 1.47183 3.92121
2.8005 1.4565 3.88348
2.8005 1.4565 3.90861
2.78517 1.47183 3.89607
2.78519 1.47181 3.77044
2.8005 1.4565 3.78299
2.78519 1.47181 3.79555
2.32274 1.93426 3.21559
2.33845 1.91855 3.2075
2.33845 1.91855 3.23063
2.27541 1.98159 4.1075
2.24359 2.01341 4.1075
2.25954 1.99746 4.09932
2.78515 1.47185 4.04712
2.76982 1.48718 4.03452
2.78514 1.47186 4.02186
2.76986 1.48714 4.05958
2.76982 1.48718 4.03452
2.78515 1.47185 4.04712
2.78515 1.47185 4.04712
2.7852 1.4718 4.07262
2.76986 1.48714 4.05958
2.8005 1.4565 4.05895
2.7852 1.4718 4.07262
2.78515 1.47185 4.04712
2.78544 1.47156 4.09884
2.8005 1.4565 4.08355
2.8005 1.4565 4.1075
2.78544 1.47156 4.09884
2.7852 1.4718 4.07262
2.8005 1.4565 4.08355
2.8005 1.4565 4.1075
2.77036 1.48664 4.1075
2.78544 1.47156 4.09884
2.77036 1.48664 4.1075
2.76997 1.48703 4.08427
2.78544 1.47156 4.09884
2.76997 1.48703 4.08427
2.7852 1.4718 4.07262
2.78544 1.47156 4.09884
2.78517 1.47183 3.92121
2.8005 1.4565 3.90861
2.8005 1.4565 3.93375
2.78514 1.47186 4.02186
2.8005 1.4565 4.00906
2.8005 1.4565 4.03407
2.8005 1.4565 4.05895
2.78515 1.47185 4.04712
2.8005 1.4565 4.03407
2.8005 1.4565 4.03407
2.78515 1.47185 4.04712
2.78514 1.47186 4.02186
2.8005 1.4565 3.75788
2.8005 1.4565 3.78299
2.78519 1.47181 3.77044
2.78518 1.47182 3.44407
2.8005 1.4565 3.45665
2.78518 1.47182 3.4692
2.76985 1.48715 3.88353
2.75454 1.50246 3.87098
2.76986 1.48714 3.85838
2.78516 1.47184 3.94636
2.8005 1.4565 3.95887
2.78516 1.47184 3.97151
2.78516 1.47184 3.94636
2.8005 1.4565 3.93375
2.8005 1.4565 3.95887
2.78516 1.47184 3.94636
2.76984 1.48716 3.93384
2.78517 1.47183 3.92121
2.78517 1.47183 3.92121
2.8005 1.4565 3.93375
2.78516 1.47184 3.94636
2.76982 1.48718 3.98418
2.78515 1.47185 3.99667
2.76981 1.48719 4.00936
2.76982 1.48718 3.98418
2.78516 1.47184 3.97151
2.78515 1.47185 3.99667
2.75451 1.50249 3.94649
2.7392 1.5178 3.95915
2.73921 1.51779 3.93394
2.53996 1.71704 4.07338
2.52458 1.73242 4.0599
2.53996 1.71704 4.04775
2.49374 1.76326 3.9088
2.49375 1.76325 3.934
2.47832 1.77868 3.92139
2.8005 1.4565 3.2075
2.8005 1.4565 3.23145
2.78544 1.47156 3.21616
2.27543 1.98157 4.08433
2.27541 1.98159 4.1075
2.25954 1.99746 4.09932
2.33845 1.91855 4.00946
2.32276 1.93424 4.02214
2.32275 1.93425 3.99685
2.25954 1.99746 4.09932
2.24359 2.01341 4.1075
2.24374 2.01326 4.08423
2.76987 1.48713 3.532
2.75455 1.50245 3.51943
2.76987 1.48713 3.50688
2.8005 1.4565 3.68259
2.78519 1.47181 3.67005
2.8005 1.4565 3.6575
2.78519 1.47181 3.72024
2.8005 1.4565 3.70769
2.8005 1.4565 3.73278
2.76988 1.48712 3.63241
2.75456 1.50244 3.64495
2.75456 1.50244 3.61986
2.76988 1.48712 3.6575
2.75456 1.50244 3.64495
2.76988 1.48712 3.63241
2.78519 1.47181 3.67005
2.76988 1.48712 3.68259
2.76988 1.48712 3.6575
2.75455 1.50245 3.79557
2.76987 1.48713 3.80812
2.75455 1.50245 3.8207
2.72393 1.53307 3.77047
2.72392 1.53308 3.79559
2.70861 1.54839 3.78303
2.75456 1.50244 3.77045
2.73924 1.51776 3.7579
2.75456 1.50244 3.74535
2.75456 1.50244 3.74535
2.76987 1.48713 3.75789
2.75456 1.50244 3.77045
2.73924 1.51776 3.7579
2.73925 1.51775 3.7328
2.75456 1.50244 3.74535
2.75456 1.50244 3.74535
2.73925 1.51775 3.7328
2.75456 1.50244 3.72024
2.8005 1.4565 3.73278
2.8005 1.4565 3.75788
2.78519 1.47181 3.74534
2.78519 1.47181 3.74534
2.78519 1.47181 3.72024
2.8005 1.4565 3.73278
2.78519 1.47181 3.74534
2.8005 1.4565 3.75788
2.78519 1.47181 3.77044
2.78519 1.47181 3.77044
2.76987 1.48713 3.75789
2.78519 1.47181 3.74534
2.75454 1.50246 3.84583
2.73923 1.51777 3.83328
2.75455 1.50245 3.8207
2.75454 1.50246 3.84583
2.76986 1.48714 3.85838
2.75454 1.50246 3.87098
2.7086 1.5484 3.8333
2.72392 1.53308 3.82072
2.72392 1.53308 3.84586
2.72392 1.53308 3.84586
2.72392 1.53308 3.82072
2.73923 1.51777 3.83328
2.8005 1.4565 3.8081
2.78519 1.47181 3.79555
2.8005 1.4565 3.78299
2.75455 1.50245 3.8207
2.76987 1.48713 3.80812
2.76986 1.48714 3.83325
2.76986 1.48714 3.83325
2.75454 1.50246 3.84583
2.75455 1.50245 3.8207
2.76986 1.48714 3.85838
2.75454 1.50246 3.84583
2.76986 1.48714 3.83325
2.78517 1.47183 3.92121
2.76984 1.48716 3.93384
2.76985 1.48715 3.90868
2.76985 1.48715 3.90868
2.78517 1.47183 3.89607
2.78517 1.47183 3.92121
2.76985 1.48715 3.88353
2.78517 1.47183 3.89607
2.76985 1.48715 3.90868
2.73921 1.51779 3.93394
2.73921 1.51779 3.90875
2.75452 1.50248 3.9213
2.75452 1.50248 3.9213
2.75451 1.50249 3.94649
2.73921 1.51779 3.93394
2.76984 1.48716 3.93384
2.75451 1.50249 3.94649
2.75452 1.50248 3.9213
2.75452 1.50248 3.9213
2.76985 1.48715 3.90868
2.76984 1.48716 3.93384
2.7239 1.5331 3.92138
2.73921 1.51779 3.90875
2.73921 1.51779 3.93394
2.7239 1.5331 3.92138
2.70859 1.54841 3.93401
2.70859 1.54841 3.90881
2.76981 1.48719 4.00936
2.76982 1.48718 4.03452
2.75451 1.50249 4.02222
2.75451 1.50249 4.02222
2.76982 1.48718 4.03452
2.75455 1.50245 4.04763
2.7392 1.5178 3.95915
2.75451 1.50249 3.94649
2.75451 1.50249 3.97169
2.75451 1.50249 3.97169
2.7392 1.5178 3.98437
2.7392 1.5178 3.95915
2.67798 1.57902 3.80817
2.66266 1.59434 3.82075
2.66266 1.59434 3.79561
2.70859 1.54841 3.90881
2.70859 1.54841 3.88362
2.7239 1.5331 3.89619
2.7239 1.5331 3.89619
2.7239 1.5331 3.92138
2.70859 1.54841 3.90881
2.73921 1.51779 3.90875
2.7239 1.5331 3.92138
2.7239 1.5331 3.89619
2.73922 1.51778 3.88358
2.73921 1.51779 3.90875
2.7239 1.5331 3.89619
2.57068 1.68632 4.04776
2.57068 1.68632 4.07339
2.55533 1.70167 4.05991
2.55533 1.70167 4.05991
2.57068 1.68632 4.07339
2.55533 1.70167 4.0845
2.55533 1.70167 4.05991
2.55533 1.70167 4.0845
2.53996 1.71704 4.07338
2.53996 1.71704 4.07338
2.53996 1.71704 4.04775
2.55533 1.70167 4.05991
2.52458 1.73242 4.03484
2.53996 1.71704 4.04775
2.52458 1.73242 4.0599
2.50912 1.74788 3.67005
2.50912 1.74788 3.69515
2.49371 1.76329 3.6826
2.41633 1.84067 3.79556
2.40077 1.85623 3.783
2.41632 1.84068 3.77045
2.41635 1.84065 3.84583
2.40081 1.85619 3.85839
2.40079 1.85621 3.83325
2.33845 1.91855 4.00946
2.32275 1.93425 3.99685
2.33843 1.91857 3.98424
2.33845 1.91855 4.03466
2.32276 1.93424 4.02214
2.33845 1.91855 4.00946
2.40087 1.85613 3.95912
2.40088 1.85612 3.98434
2.38531 1.87169 3.97172
2.30693 1.95007 3.90858
2.32265 1.93435 3.89603
2.32267 1.93433 3.9212
2.30684 1.95016 3.80803
2.29108 1.96592 3.82056
2.29106 1.96594 3.79546
2.32274 1.93426 4.09941
2.33845 1.91855 4.1075
2.30701 1.94999 4.1075
2.33845 1.91855 4.08437
2.33845 1.91855 4.1075
2.32274 1.93426 4.09941
2.35411 1.90289 4.09947
2.33845 1.91855 4.1075
2.33845 1.91855 4.08437
2.30704 1.94996 4.03461
2.30703 1.94997 4.05969
2.29128 1.96572 4.04746
2.55533 1.70167 4.1075
2.52458 1.73242 4.1075
2.53996 1.71704 4.09972
2.53996 1.71704 4.07338
2.55533 1.70167 4.0845
2.53996 1.71704 4.09972
2.53996 1.71704 4.09972
2.55533 1.70167 4.0845
2.55533 1.70167 4.1075
2.52458 1.73242 4.08449
2.52458 1.73242 4.0599
2.53996 1.71704 4.07338
2.53996 1.71704 4.07338
2.53996 1.71704 4.09972
2.52458 1.73242 4.08449
2.52458 1.73242 4.08449
2.53996 1.71704 4.09972
2.52458 1.73242 4.1075
2.41642 1.84058 3.97176
2.40088 1.85612 3.98434
2.40087 1.85613 3.95912
2.47831 1.77869 3.8962
2.49374 1.76326 3.88362
2.49374 1.76326 3.9088
2.49374 1.76326 3.9088
2.47832 1.77868 3.92139
2.47831 1.77869 3.8962
2.47833 1.77867 3.9466
2.47832 1.77868 3.92139
2.49375 1.76325 3.934
2.47833 1.77867 3.9466
2.49375 1.76325 3.934
2.49376 1.76324 3.95921
2.49376 1.76324 3.95921
2.47834 1.77866 3.97182
2.47833 1.77867 3.9466
2.47833 1.77867 3.9466
2.47834 1.77866 3.97182
2.46289 1.79411 3.95919
2.49377 1.76323 3.98443
2.47834 1.77866 3.97182
2.49376 1.76324 3.95921
2.49377 1.76323 4.00964
2.47835 1.77865 4.02234
2.47834 1.77866 3.99706
2.47834 1.77866 3.99706
2.49377 1.76323 3.98443
2.49377 1.76323 4.00964
2.47834 1.77866 3.97182
2.49377 1.76323 3.98443
2.47834 1.77866 3.99706
2.7852 1.4718 3.24238
2.78544 1.47156 3.21616
2.8005 1.4565 3.23145
2.76997 1.48703 3.23073
2.78544 1.47156 3.21616
2.7852 1.4718 3.24238
2.64739 1.60961 3.23048
2.64738 1.60962 3.2075
2.66272 1.59428 3.21521
2.70875 1.54825 3.2075
2.6934 1.5636 3.21517
2.67805 1.57895 3.2075
2.67805 1.57895 3.2075
2.66272 1.59428 3.21521
2.64738 1.60962 3.2075
2.19638 2.06062 3.24397
2.1963 2.0607 3.21786
2.2122 2.0448 3.23145
2.2122 2.0448 3.23145
2.22771 2.02929 3.21601
2.22802 2.02898 3.24245
2.18073 2.07627 3.23282
2.1963 2.0607 3.21786
2.19638 2.06062 3.24397
2.18073 2.07627 3.23282
2.18123 2.07577 3.2075
2.1963 2.0607 3.21786
2.27543 1.98157 3.23067
2.27541 1.98159 3.2075
2.29123 1.96577 3.21563
2.30701 1.94999 3.2075
[...]
<PointData Scalars="View Factor" >
<DataArray type="Float64" Name="View Factor" NumberOfComponents="1" format="ascii">
2.05107e-05
2.05107e-05
2.05107e-05
2.16306e-05
2.16306e-05
2.16306e-05
2.12523e-05
2.12523e-05
2.12523e-05
1.94143e-05
1.94143e-05
1.94143e-05
1.97085e-05
1.97085e-05
1.97085e-05
2.02044e-05
2.02044e-05
2.02044e-05
2.0145e-05
2.0145e-05
2.0145e-05
1.99721e-05
1.99721e-05
1.99721e-05
2.05925e-05
2.05925e-05
2.05925e-05
2.04078e-05
2.04078e-05
2.04078e-05
2.04957e-05
2.04957e-05
2.04957e-05
2.06945e-05
2.06945e-05
2.06945e-05
2.10668e-05
2.10668e-05
2.10668e-05
2.08565e-05
2.08565e-05
2.08565e-05
2.13852e-05
2.13852e-05
2.13852e-05
2.18206e-05
2.18206e-05
2.18206e-05
2.17103e-05
2.17103e-05
2.17103e-05
2.15203e-05
2.15203e-05
2.15203e-05
2.43052e-05
2.43052e-05
2.43052e-05
2.1963e-05
2.1963e-05
2.1963e-05
2.21559e-05
2.21559e-05
2.21559e-05
2.25298e-05
2.25298e-05
2.25298e-05
1.43162e-05
1.43162e-05
1.43162e-05
1.21562e-05
1.21562e-05
1.21562e-05
2.11466e-05
2.11466e-05
2.11466e-05
2.096e-05
2.096e-05
2.096e-05
2.10394e-05
2.10394e-05
2.10394e-05
2.13048e-05
2.13048e-05
2.13048e-05
2.12806e-05
2.12806e-05
2.12806e-05
2.11996e-05
2.11996e-05
2.11996e-05
2.09862e-05
2.09862e-05
2.09862e-05
2.07587e-05
2.07587e-05
2.07587e-05
2.09364e-05
2.09364e-05
2.09364e-05
2.20434e-05
2.20434e-05
2.20434e-05
2.16008e-05
2.16008e-05
2.16008e-05
2.14924e-05
2.14924e-05
2.14924e-05
2.14134e-05
2.14134e-05
2.14134e-05
2.27287e-05
2.27287e-05
2.27287e-05
2.40914e-05
2.40914e-05
2.40914e-05
2.14426e-05
2.14426e-05
2.14426e-05
2.17416e-05
2.17416e-05
2.17416e-05
2.19316e-05
2.19316e-05
2.19316e-05
2.1579e-05
2.1579e-05
2.1579e-05
2.18507e-05
2.18507e-05
2.18507e-05
2.11721e-05
2.11721e-05
2.11721e-05
2.13614e-05
2.13614e-05
2.13614e-05
2.05782e-05
2.05782e-05
2.05782e-05
1.46956e-05
1.46956e-05
1.46956e-05
1.3886e-05
1.3886e-05
1.3886e-05
2.54785e-05
2.54785e-05
2.54785e-05
1.21441e-05
1.21441e-05
1.21441e-05
1.21921e-05
1.21921e-05
1.21921e-05
1.22069e-05
1.22069e-05
1.22069e-05
2.30443e-05
2.30443e-05
2.30443e-05
2.31997e-05
2.31997e-05
2.31997e-05
2.29627e-05
2.29627e-05
2.29627e-05
2.23698e-05
2.23698e-05
2.23698e-05
2.24553e-05
2.24553e-05
2.24553e-05
2.26281e-05
2.26281e-05
2.26281e-05
2.15809e-05
2.15809e-05
2.15809e-05
2.05739e-05
2.05739e-05
2.05739e-05
2.15218e-05
2.15218e-05
2.15218e-05
2.18029e-05
2.18029e-05
2.18029e-05
2.14352e-05
2.14352e-05
2.14352e-05
2.16323e-05
2.16323e-05
2.16323e-05
2.28453e-05
2.28453e-05
2.28453e-05
2.27635e-05
2.27635e-05
2.27635e-05
2.26463e-05
2.26463e-05
2.26463e-05
2.23652e-05
2.23652e-05
2.23652e-05
2.11948e-05
2.11948e-05
2.11948e-05
2.13605e-05
2.13605e-05
2.13605e-05
2.03628e-05
2.03628e-05
2.03628e-05
2.06395e-05
2.06395e-05
2.06395e-05
2.26127e-05
2.26127e-05
2.26127e-05
2.16654e-05
2.16654e-05
2.16654e-05
2.14717e-05
2.14717e-05
2.14717e-05
2.1555e-05
2.1555e-05
2.1555e-05
2.14979e-05
2.14979e-05
2.14979e-05
2.16901e-05
2.16901e-05
2.16901e-05
2.16095e-05
2.16095e-05
2.16095e-05
2.06817e-05
2.06817e-05
2.06817e-05
2.07646e-05
2.07646e-05
2.07646e-05
2.1036e-05
2.1036e-05
2.1036e-05
2.12258e-05
2.12258e-05
2.12258e-05
2.04098e-05
2.04098e-05
2.04098e-05
1.98679e-05
1.98679e-05
1.98679e-05
2.07999e-05
2.07999e-05
2.07999e-05
2.06125e-05
2.06125e-05
2.06125e-05
2.06599e-05
2.06599e-05
2.06599e-05
2.04728e-05
2.04728e-05
2.04728e-05
1.90776e-05
1.90776e-05
1.90776e-05
1.99687e-05
1.99687e-05
1.99687e-05
2.00548e-05
2.00548e-05
2.00548e-05
2.03273e-05
2.03273e-05
2.03273e-05
2.05159e-05
2.05159e-05
2.05159e-05
1.54896e-05
1.54896e-05
1.54896e-05
1.53185e-05
1.53185e-05
1.53185e-05
1.50547e-05
1.50547e-05
1.50547e-05
1.49601e-05
1.49601e-05
1.49601e-05
1.4602e-05
1.4602e-05
1.4602e-05
1.50046e-05
1.50046e-05
1.50046e-05
1.25257e-05
1.25257e-05
1.25257e-05
1.23807e-05
1.23807e-05
1.23807e-05
1.22083e-05
1.22083e-05
1.22083e-05
1.21467e-05
1.21467e-05
1.21467e-05
1.20976e-05
1.20976e-05
1.20976e-05
1.24718e-05
1.24718e-05
1.24718e-05
1.2791e-05
1.2791e-05
1.2791e-05
1.19754e-05
1.19754e-05
1.19754e-05
1.1965e-05
1.1965e-05
1.1965e-05
1.19361e-05
1.19361e-05
1.19361e-05
1.2174e-05
1.2174e-05
1.2174e-05
1.4698e-05
1.4698e-05
1.4698e-05
1.48832e-05
1.48832e-05
1.48832e-05
1.49812e-05
1.49812e-05
1.49812e-05
1.4527e-05
1.4527e-05
1.4527e-05
1.46201e-05
1.46201e-05
1.46201e-05
1.44561e-05
1.44561e-05
1.44561e-05
1.20699e-05
1.20699e-05
1.20699e-05
1.3956e-05
1.3956e-05
1.3956e-05
1.37851e-05
1.37851e-05
1.37851e-05
1.37154e-05
1.37154e-05
1.37154e-05
1.38163e-05
1.38163e-05
1.38163e-05
1.36455e-05
1.36455e-05
1.36455e-05
1.33748e-05
1.33748e-05
1.33748e-05
1.37454e-05
1.37454e-05
1.37454e-05
1.35075e-05
1.35075e-05
1.35075e-05
1.36765e-05
1.36765e-05
1.36765e-05
1.3576e-05
1.3576e-05
1.3576e-05
2.52588e-05
2.52588e-05
2.52588e-05
2.49474e-05
2.49474e-05
2.49474e-05
2.10787e-05
2.10787e-05
2.10787e-05
2.23742e-05
2.23742e-05
2.23742e-05
2.14256e-05
2.14256e-05
2.14256e-05
1.47303e-05
1.47303e-05
1.47303e-05
1.46577e-05
1.46577e-05
1.46577e-05
1.47673e-05
1.47673e-05
1.47673e-05
1.48234e-05
1.48234e-05
1.48234e-05
1.44915e-05
1.44915e-05
1.44915e-05
1.43739e-05
1.43739e-05
1.43739e-05
1.44774e-05
1.44774e-05
1.44774e-05
1.42969e-05
1.42969e-05
1.42969e-05
1.42415e-05
1.42415e-05
1.42415e-05
1.20239e-05
1.20239e-05
1.20239e-05
1.2158e-05
1.2158e-05
1.2158e-05
1.21132e-05
1.21132e-05
1.21132e-05
1.2871e-05
1.2871e-05
1.2871e-05
1.28228e-05
1.28228e-05
1.28228e-05
1.24063e-05
1.24063e-05
1.24063e-05
2.42181e-05
2.42181e-05
2.42181e-05
2.34397e-05
2.34397e-05
2.34397e-05
2.28062e-05
2.28062e-05
2.28062e-05
2.26017e-05
2.26017e-05
2.26017e-05
2.29244e-05
2.29244e-05
2.29244e-05
2.27187e-05
2.27187e-05
2.27187e-05
2.24258e-05
2.24258e-05
2.24258e-05
2.23361e-05
2.23361e-05
2.23361e-05
2.2543e-05
2.2543e-05
2.2543e-05
2.28375e-05
2.28375e-05
2.28375e-05
1.79354e-05
1.79354e-05
1.79354e-05
1.77366e-05
1.77366e-05
1.77366e-05
1.76469e-05
1.76469e-05
1.76469e-05
2.24521e-05
2.24521e-05
2.24521e-05
2.4179e-05
2.4179e-05
2.4179e-05
1.88967e-05
1.88967e-05
1.88967e-05
1.8337e-05
1.8337e-05
1.8337e-05
2.00147e-05
2.00147e-05
2.00147e-05
1.87155e-05
1.87155e-05
1.87155e-05
1.96655e-05
1.96655e-05
1.96655e-05
1.95718e-05
1.95718e-05
1.95718e-05
1.92865e-05
1.92865e-05
1.92865e-05
1.90948e-05
1.90948e-05
1.90948e-05
2.20814e-05
2.20814e-05
2.20814e-05
2.33193e-05
2.33193e-05
2.33193e-05
2.31159e-05
2.31159e-05
2.31159e-05
2.28289e-05
2.28289e-05
2.28289e-05
2.2743e-05
2.2743e-05
2.2743e-05
2.29467e-05
2.29467e-05
2.29467e-05
2.32352e-05
2.32352e-05
2.32352e-05
1.74766e-05
1.74766e-05
1.74766e-05
1.76657e-05
1.76657e-05
1.76657e-05
1.92919e-05
1.92919e-05
1.92919e-05
1.93866e-05
1.93866e-05
1.93866e-05
1.91946e-05
1.91946e-05
1.91946e-05
1.89085e-05
1.89085e-05
1.89085e-05
1.77567e-05
1.77567e-05
1.77567e-05
1.76565e-05
1.76565e-05
1.76565e-05
1.72804e-05
1.72804e-05
1.72804e-05
1.7568e-05
1.7568e-05
1.7568e-05
1.90044e-05
1.90044e-05
1.90044e-05
1.8813e-05
1.8813e-05
1.8813e-05
2.20538e-05
2.20538e-05
2.20538e-05
2.17747e-05
2.17747e-05
2.17747e-05
2.16907e-05
2.16907e-05
2.16907e-05
2.22501e-05
2.22501e-05
2.22501e-05
2.21678e-05
2.21678e-05
2.21678e-05
2.18873e-05
2.18873e-05
2.18873e-05
2.08534e-05
2.08534e-05
2.08534e-05
2.1411e-05
2.1411e-05
2.1411e-05
2.13274e-05
2.13274e-05
2.13274e-05
2.10471e-05
2.10471e-05
2.10471e-05
2.02208e-05
2.02208e-05
2.02208e-05
2.06958e-05
2.06958e-05
2.06958e-05
2.04126e-05
2.04126e-05
2.04126e-05
2.2481e-05
2.2481e-05
2.2481e-05
2.21137e-05
2.21137e-05
2.21137e-05
2.2397e-05
2.2397e-05
2.2397e-05
2.19149e-05
2.19149e-05
2.19149e-05
2.19997e-05
2.19997e-05
2.19997e-05
2.22816e-05
2.22816e-05
2.22816e-05
2.11086e-05
2.11086e-05
2.11086e-05
2.08311e-05
2.08311e-05
2.08311e-05
2.07462e-05
2.07462e-05
2.07462e-05
2.13027e-05
2.13027e-05
2.13027e-05
2.09396e-05
2.09396e-05
2.09396e-05
2.12186e-05
2.12186e-05
2.12186e-05
2.0468e-05
2.0468e-05
2.0468e-05
2.0381e-05
2.0381e-05
2.0381e-05
2.01022e-05
2.01022e-05
2.01022e-05
2.02762e-05
2.02762e-05
2.02762e-05
2.10018e-05
2.10018e-05
2.10018e-05
2.07257e-05
2.07257e-05
2.07257e-05
2.10851e-05
2.10851e-05
2.10851e-05
2.0894e-05
2.0894e-05
2.0894e-05
2.01745e-05
2.01745e-05
2.01745e-05
2.21392e-05
2.21392e-05
2.21392e-05
2.24176e-05
2.24176e-05
2.24176e-05
2.24975e-05
2.24975e-05
2.24975e-05
2.1943e-05
2.1943e-05
2.1943e-05
2.22691e-05
2.22691e-05
2.22691e-05
2.17174e-05
2.17174e-05
2.17174e-05
2.20752e-05
2.20752e-05
2.20752e-05
2.1801e-05
2.1801e-05
2.1801e-05
2.23829e-05
2.23829e-05
2.23829e-05
2.22998e-05
2.22998e-05
2.22998e-05
2.20229e-05
2.20229e-05
2.20229e-05
2.18313e-05
2.18313e-05
2.18313e-05
2.19134e-05
2.19134e-05
2.19134e-05
2.2189e-05
2.2189e-05
2.2189e-05
2.07892e-05
2.07892e-05
2.07892e-05
2.1336e-05
2.1336e-05
2.1336e-05
2.08717e-05
2.08717e-05
2.08717e-05
2.11444e-05
2.11444e-05
2.11444e-05
2.09794e-05
2.09794e-05
2.09794e-05
2.12535e-05
2.12535e-05
2.12535e-05
2.03076e-05
2.03076e-05
2.03076e-05
2.02223e-05
2.02223e-05
2.02223e-05
1.99512e-05
1.99512e-05
1.99512e-05
2.09039e-05
2.09039e-05
2.09039e-05
2.03698e-05
2.03698e-05
2.03698e-05
2.08244e-05
2.08244e-05
2.08244e-05
2.05558e-05
2.05558e-05
2.05558e-05
2.07188e-05
2.07188e-05
2.07188e-05
2.04516e-05
2.04516e-05
2.04516e-05
2.00655e-05
2.00655e-05
2.00655e-05
2.02465e-05
2.02465e-05
2.02465e-05
1.96188e-05
1.96188e-05
1.96188e-05
1.98021e-05
1.98021e-05
1.98021e-05
1.97175e-05
1.97175e-05
1.97175e-05
2.02653e-05
2.02653e-05
2.02653e-05
1.98992e-05
1.98992e-05
1.98992e-05
2.03468e-05
2.03468e-05
2.03468e-05
2.01639e-05
2.01639e-05
2.01639e-05
2.09298e-05
2.09298e-05
2.09298e-05
2.14712e-05
2.14712e-05
2.14712e-05
2.12809e-05
2.12809e-05
2.12809e-05
2.10113e-05
2.10113e-05
2.10113e-05
2.13904e-05
2.13904e-05
2.13904e-05
2.11195e-05
2.11195e-05
2.11195e-05
1.7219e-05
1.7219e-05
1.7219e-05
1.71236e-05
1.71236e-05
1.71236e-05
1.80575e-05
1.80575e-05
1.80575e-05
1.74985e-05
1.74985e-05
1.74985e-05
1.91676e-05
1.91676e-05
1.91676e-05
1.54843e-05
1.54843e-05
1.54843e-05
1.52437e-05
1.52437e-05
1.52437e-05
1.54093e-05
1.54093e-05
1.54093e-05
1.48222e-05
1.48222e-05
1.48222e-05
1.52906e-05
1.52906e-05
1.52906e-05
1.70918e-05
1.70918e-05
1.70918e-05
1.71904e-05
1.71904e-05
1.71904e-05
1.25719e-05
1.25719e-05
1.25719e-05
1.24323e-05
1.24323e-05
1.24323e-05
1.2507e-05
1.2507e-05
1.2507e-05
1.28004e-05
1.28004e-05
1.28004e-05
1.28138e-05
1.28138e-05
1.28138e-05
1.28307e-05
1.28307e-05
1.28307e-05
1.22536e-05
1.22536e-05
1.22536e-05
1.21296e-05
1.21296e-05
1.21296e-05
1.21592e-05
1.21592e-05
1.21592e-05
1.21441e-05
1.21441e-05
1.21441e-05
1.2179e-05
1.2179e-05
1.2179e-05
1.21943e-05
1.21943e-05
1.21943e-05
1.21208e-05
1.21208e-05
1.21208e-05
1.21654e-05
1.21654e-05
1.21654e-05
1.23066e-05
1.23066e-05
1.23066e-05
1.22778e-05
1.22778e-05
1.22778e-05
1.23652e-05
1.23652e-05
1.23652e-05
1.23949e-05
1.23949e-05
1.23949e-05
1.24414e-05
1.24414e-05
1.24414e-05
1.24032e-05
1.24032e-05
1.24032e-05
1.21538e-05
1.21538e-05
1.21538e-05
1.21824e-05
1.21824e-05
1.21824e-05
1.25188e-05
1.25188e-05
1.25188e-05
1.25352e-05
1.25352e-05
1.25352e-05
1.25684e-05
1.25684e-05
1.25684e-05
1.28077e-05
1.28077e-05
1.28077e-05
1.18914e-05
1.18914e-05
1.18914e-05
1.18071e-05
1.18071e-05
1.18071e-05
1.22219e-05
1.22219e-05
1.22219e-05
1.22055e-05
1.22055e-05
1.22055e-05
1.39083e-05
1.39083e-05
1.39083e-05
1.41934e-05
1.41934e-05
1.41934e-05
1.37189e-05
1.37189e-05
1.37189e-05
1.35443e-05
1.35443e-05
1.35443e-05
1.4303e-05
1.4303e-05
1.4303e-05
1.25126e-05
1.25126e-05
1.25126e-05
1.32735e-05
1.32735e-05
1.32735e-05
1.34432e-05
1.34432e-05
1.34432e-05
1.32395e-05
1.32395e-05
1.32395e-05
1.27044e-05
1.27044e-05
1.27044e-05
2.5214e-05
2.5214e-05
2.5214e-05
2.48579e-05
2.48579e-05
2.48579e-05
2.3385e-05
2.3385e-05
2.3385e-05
2.35973e-05
2.35973e-05
2.35973e-05
2.33218e-05
2.33218e-05
2.33218e-05
1.46379e-05
1.46379e-05
1.46379e-05
1.46208e-05
1.46208e-05
1.46208e-05
1.45882e-05
1.45882e-05
1.45882e-05
1.46007e-05
1.46007e-05
1.46007e-05
1.45476e-05
1.45476e-05
1.45476e-05
1.45277e-05
1.45277e-05
1.45277e-05
1.4511e-05
1.4511e-05
1.4511e-05
1.44523e-05
1.44523e-05
1.44523e-05
1.46352e-05
1.46352e-05
1.46352e-05
1.46523e-05
1.46523e-05
1.46523e-05
1.46717e-05
1.46717e-05
1.46717e-05
1.4749e-05
1.4749e-05
1.4749e-05
1.47129e-05
1.47129e-05
1.47129e-05
1.48114e-05
1.48114e-05
1.48114e-05
1.46997e-05
1.46997e-05
1.46997e-05
1.4064e-05
1.4064e-05
1.4064e-05
1.33715e-05
1.33715e-05
1.33715e-05
1.39561e-05
1.39561e-05
1.39561e-05
1.38121e-05
1.38121e-05
1.38121e-05
1.3883e-05
1.3883e-05
1.3883e-05
1.3829e-05
1.3829e-05
1.3829e-05
1.38092e-05
1.38092e-05
1.38092e-05
1.37922e-05
1.37922e-05
1.37922e-05
1.41709e-05
1.41709e-05
1.41709e-05
1.38448e-05
1.38448e-05
1.38448e-05
1.34804e-05
1.34804e-05
1.34804e-05
1.34575e-05
1.34575e-05
1.34575e-05
1.34058e-05
1.34058e-05
1.34058e-05
1.41128e-05
1.41128e-05
1.41128e-05
1.4077e-05
1.4077e-05
1.4077e-05
1.41854e-05
1.41854e-05
1.41854e-05
1.42222e-05
1.42222e-05
1.42222e-05
1.42042e-05
1.42042e-05
1.42042e-05
1.38615e-05
1.38615e-05
1.38615e-05
1.43172e-05
1.43172e-05
1.43172e-05
1.43909e-05
1.43909e-05
1.43909e-05
1.43349e-05
1.43349e-05
1.43349e-05
1.30411e-05
1.30411e-05
1.30411e-05
1.29928e-05
1.29928e-05
1.29928e-05
1.30422e-05
1.30422e-05
1.30422e-05
1.28965e-05
1.28965e-05
1.28965e-05
1.29151e-05
1.29151e-05
1.29151e-05
1.29634e-05
1.29634e-05
1.29634e-05
1.35705e-05
1.35705e-05
1.35705e-05
1.33522e-05
1.33522e-05
1.33522e-05
1.32403e-05
1.32403e-05
1.32403e-05
1.32576e-05
1.32576e-05
1.32576e-05
1.20074e-05
1.20074e-05
1.20074e-05
1.20367e-05
1.20367e-05
1.20367e-05
1.20833e-05
1.20833e-05
1.20833e-05
1.20987e-05
1.20987e-05
1.20987e-05
1.20536e-05
1.20536e-05
1.20536e-05
1.20958e-05
1.20958e-05
1.20958e-05
1.20658e-05
1.20658e-05
1.20658e-05
1.21134e-05
1.21134e-05
1.21134e-05
1.2126e-05
1.2126e-05
1.2126e-05
1.33281e-05
1.33281e-05
1.33281e-05
1.32607e-05
1.32607e-05
1.32607e-05
1.32765e-05
1.32765e-05
1.32765e-05
1.28063e-05
1.28063e-05
1.28063e-05
1.27725e-05
1.27725e-05
1.27725e-05
1.28212e-05
1.28212e-05
1.28212e-05
1.28385e-05
1.28385e-05
1.28385e-05
1.29035e-05
1.29035e-05
1.29035e-05
1.28382e-05
1.28382e-05
1.28382e-05
1.28538e-05
1.28538e-05
1.28538e-05
1.28713e-05
1.28713e-05
1.28713e-05
1.24224e-05
1.24224e-05
1.24224e-05
1.24554e-05
1.24554e-05
1.24554e-05
1.26281e-05
1.26281e-05
1.26281e-05
1.26431e-05
1.26431e-05
1.26431e-05
1.24373e-05
1.24373e-05
1.24373e-05
1.22387e-05
1.22387e-05
1.22387e-05
1.22518e-05
1.22518e-05
1.22518e-05
1.2303e-05
1.2303e-05
1.2303e-05
1.21883e-05
1.21883e-05
1.21883e-05
1.21737e-05
1.21737e-05
1.21737e-05
1.21874e-05
1.21874e-05
1.21874e-05
1.22186e-05
1.22186e-05
1.22186e-05
1.22045e-05
1.22045e-05
1.22045e-05
1.22509e-05
1.22509e-05
1.22509e-05
2.30708e-05
2.30708e-05
2.30708e-05
2.29686e-05
2.29686e-05
2.29686e-05
2.26533e-05
2.26533e-05
2.26533e-05
2.24415e-05
2.24415e-05
2.24415e-05
2.17077e-05
2.17077e-05
2.17077e-05
2.20225e-05
2.20225e-05
2.20225e-05
2.21274e-05
2.21274e-05
2.21274e-05
1.79997e-05
1.79997e-05
1.79997e-05
2.47209e-05
2.47209e-05
2.47209e-05
2.44101e-05
2.44101e-05
2.44101e-05
2.3475e-05
2.3475e-05
2.3475e-05
2.37871e-05
2.37871e-05
2.37871e-05
2.26879e-05
2.26879e-05
2.26879e-05
2.24854e-05
2.24854e-05
2.24854e-05
2.2573e-05
2.2573e-05
2.2573e-05
2.28622e-05
2.28622e-05
2.28622e-05
2.36829e-05
2.36829e-05
2.36829e-05
2.30984e-05
2.30984e-05
2.30984e-05
2.23103e-05
2.23103e-05
2.23103e-05
2.17284e-05
2.17284e-05
2.17284e-05
2.19306e-05
2.19306e-05
2.19306e-05
2.22227e-05
2.22227e-05
2.22227e-05
1.57125e-05
1.57125e-05
1.57125e-05
1.60877e-05
1.60877e-05
1.60877e-05
1.65098e-05
1.65098e-05
1.65098e-05
1.60176e-05
1.60176e-05
1.60176e-05
1.57178e-05
1.57178e-05
1.57178e-05
1.56086e-05
1.56086e-05
1.56086e-05
1.62096e-05
1.62096e-05
1.62096e-05
1.58e-05
1.58e-05
1.58e-05
1.61013e-05
1.61013e-05
1.61013e-05
1.6126e-05
1.6126e-05
1.6126e-05
1.55275e-05
1.55275e-05
1.55275e-05
1.51493e-05
1.51493e-05
1.51493e-05
1.3786e-05
1.3786e-05
1.3786e-05
1.53079e-05
1.53079e-05
1.53079e-05
1.40942e-05
1.40942e-05
1.40942e-05
1.86136e-05
1.86136e-05
1.86136e-05
1.62746e-05
1.62746e-05
1.62746e-05
1.61697e-05
1.61697e-05
1.61697e-05
1.69337e-05
1.69337e-05
1.69337e-05
1.74228e-05
1.74228e-05
1.74228e-05
1.72306e-05
1.72306e-05
1.72306e-05
1.78439e-05
1.78439e-05
1.78439e-05
2.07642e-05
2.07642e-05
2.07642e-05
1.97208e-05
1.97208e-05
1.97208e-05
1.96188e-05
1.96188e-05
1.96188e-05
1.93051e-05
1.93051e-05
1.93051e-05
1.91924e-05
1.91924e-05
1.91924e-05
1.67034e-05
1.67034e-05
1.67034e-05
1.76974e-05
1.76974e-05
1.76974e-05
1.70934e-05
1.70934e-05
1.70934e-05
2.29552e-05
2.29552e-05
2.29552e-05
2.26592e-05
2.26592e-05
2.26592e-05
1.85164e-05
1.85164e-05
1.85164e-05
1.91089e-05
1.91089e-05
1.91089e-05
1.9011e-05
1.9011e-05
1.9011e-05
1.87143e-05
1.87143e-05
1.87143e-05
1.96949e-05
1.96949e-05
1.96949e-05
1.86202e-05
1.86202e-05
1.86202e-05
1.94874e-05
1.94874e-05
1.94874e-05
2.39693e-05
2.39693e-05
2.39693e-05
2.40538e-05
2.40538e-05
2.40538e-05
2.39293e-05
2.39293e-05
2.39293e-05
2.33396e-05
2.33396e-05
2.33396e-05
2.35454e-05
2.35454e-05
2.35454e-05
2.38415e-05
2.38415e-05
2.38415e-05
2.38057e-05
2.38057e-05
2.38057e-05
2.35977e-05
2.35977e-05
2.35977e-05
2.33047e-05
2.33047e-05
2.33047e-05
2.32182e-05
2.32182e-05
2.32182e-05
2.34265e-05
2.34265e-05
2.34265e-05
2.3721e-05
2.3721e-05
2.3721e-05
2.28787e-05
2.28787e-05
2.28787e-05
2.25947e-05
2.25947e-05
2.25947e-05
2.25104e-05
2.25104e-05
2.25104e-05
2.30808e-05
2.30808e-05
2.30808e-05
2.27119e-05
2.27119e-05
2.27119e-05
2.29974e-05
2.29974e-05
2.29974e-05
1.89921e-05
1.89921e-05
1.89921e-05
1.85241e-05
1.85241e-05
1.85241e-05
1.88043e-05
1.88043e-05
1.88043e-05
1.89e-05
1.89e-05
1.89e-05
1.97352e-05
1.97352e-05
1.97352e-05
1.91762e-05
1.91762e-05
1.91762e-05
1.92666e-05
1.92666e-05
1.92666e-05
1.95454e-05
1.95454e-05
1.95454e-05
1.92731e-05
1.92731e-05
1.92731e-05
1.93647e-05
1.93647e-05
1.93647e-05
1.96449e-05
1.96449e-05
1.96449e-05
1.98349e-05
1.98349e-05
1.98349e-05
2.05193e-05
2.05193e-05
2.05193e-05
1.99501e-05
1.99501e-05
1.99501e-05
2.03239e-05
2.03239e-05
2.03239e-05
2.00401e-05
2.00401e-05
2.00401e-05
2.08926e-05
2.08926e-05
2.08926e-05
2.0804e-05
2.0804e-05
2.0804e-05
1.96734e-05
1.96734e-05
1.96734e-05
1.9766e-05
1.9766e-05
1.9766e-05
1.89986e-05
1.89986e-05
1.89986e-05
1.90904e-05
1.90904e-05
1.90904e-05
1.94731e-05
1.94731e-05
1.94731e-05
1.91893e-05
1.91893e-05
1.91893e-05
2.1437e-05
2.1437e-05
2.1437e-05
2.12365e-05
2.12365e-05
2.12365e-05
2.07304e-05
2.07304e-05
2.07304e-05
2.19938e-05
2.19938e-05
2.19938e-05
2.21955e-05
2.21955e-05
2.21955e-05
2.18168e-05
2.18168e-05
2.18168e-05
2.21075e-05
2.21075e-05
2.21075e-05
1.84311e-05
1.84311e-05
1.84311e-05
1.86184e-05
1.86184e-05
1.86184e-05
1.85264e-05
1.85264e-05
1.85264e-05
1.8244e-05
1.8244e-05
1.8244e-05
1.80551e-05
1.80551e-05
1.80551e-05
1.81501e-05
1.81501e-05
1.81501e-05
1.79629e-05
1.79629e-05
1.79629e-05
1.76827e-05
1.76827e-05
1.76827e-05
1.86201e-05
1.86201e-05
1.86201e-05
1.88102e-05
1.88102e-05
1.88102e-05
1.87174e-05
1.87174e-05
1.87174e-05
1.84321e-05
1.84321e-05
1.84321e-05
1.75752e-05
1.75752e-05
1.75752e-05
1.78606e-05
1.78606e-05
1.78606e-05
1.89092e-05
1.89092e-05
1.89092e-05
1.87186e-05
1.87186e-05
1.87186e-05
1.79526e-05
1.79526e-05
1.79526e-05
1.85262e-05
1.85262e-05
1.85262e-05
1.80496e-05
1.80496e-05
1.80496e-05
1.83357e-05
1.83357e-05
1.83357e-05
1.84259e-05
1.84259e-05
1.84259e-05
1.61909e-05
1.61909e-05
1.61909e-05
1.60037e-05
1.60037e-05
1.60037e-05
1.73674e-05
1.73674e-05
1.73674e-05
1.718e-05
1.718e-05
1.718e-05
2.03099e-05
2.03099e-05
2.03099e-05
2.01158e-05
2.01158e-05
2.01158e-05
2.04856e-05
2.04856e-05
2.04856e-05
2.02053e-05
2.02053e-05
2.02053e-05
2.10665e-05
2.10665e-05
2.10665e-05
2.0784e-05
2.0784e-05
2.0784e-05
2.11534e-05
2.11534e-05
2.11534e-05
2.05917e-05
2.05917e-05
2.05917e-05
2.09597e-05
2.09597e-05
2.09597e-05
2.06787e-05
2.06787e-05
2.06787e-05
1.97963e-05
1.97963e-05
1.97963e-05
2.05368e-05
2.05368e-05
2.05368e-05
2.02615e-05
2.02615e-05
2.02615e-05
2.06193e-05
2.06193e-05
2.06193e-05
2.00708e-05
2.00708e-05
2.00708e-05
2.04289e-05
2.04289e-05