<VTKFile type="UnstructuredGrid" version="1.0">
<UnstructuredGrid>
<Piece NumberOfPoints="8859" NumberOfCells="2953">
<Points>
<DataArray type="Float64" NumberOfComponents="3" format="ascii">
2.04744 2.20956 0.912625
2.06275 2.19425 0.924584
2.04754 2.20946 0.938328
2.07804 2.17896 0.861673
2.07805 2.17895 0.836515
2.0934 2.1636 0.84898
2.06271 2.19429 0.874362
2.07804 2.17896 0.861673
2.07804 2.17896 0.886856
2.01701 2.23999 0.96488
2.03242 2.22458 0.9725
2.00164 2.25536 0.9725
2.01701 2.23999 0.96488
2.03232 2.22468 0.949569
2.03242 2.22458 0.9725
2.04777 2.20923 0.964788
2.06326 2.19374 0.9725
2.03242 2.22458 0.9725
2.04777 2.20923 0.964788
2.03232 2.22468 0.949569
2.04754 2.20946 0.938328
2.03242 2.22458 0.9725
2.03232 2.22468 0.949569
2.04777 2.20923 0.964788
2.04754 2.20946 0.938328
2.06275 2.19425 0.924584
2.06287 2.19413 0.94927
2.06287 2.19413 0.94927
2.04777 2.20923 0.964788
2.04754 2.20946 0.938328
2.06326 2.19374 0.9725
2.04777 2.20923 0.964788
2.06287 2.19413 0.94927
2.06275 2.19425 0.924584
2.04744 2.20956 0.912625
2.06271 2.19429 0.899521
2.06271 2.19429 0.874362
2.07804 2.17896 0.886856
2.06271 2.19429 0.899521
2.07809 2.17891 0.937625
2.06287 2.19413 0.94927
2.06275 2.19425 0.924584
2.0934 2.1636 0.923949
2.0934 2.1636 0.948552
2.07809 2.17891 0.937625
2.0934 2.1636 0.823871
2.0934 2.1636 0.84898
2.07805 2.17895 0.836515
2.07804 2.17896 0.861673
2.0934 2.1636 0.84898
2.0934 2.1636 0.874055
2.0934 2.1636 0.874055
2.07804 2.17896 0.886856
2.07804 2.17896 0.861673
2.0934 2.1636 0.29652
2.0934 2.1636 0.321651
2.07807 2.17893 0.309069
2.07807 2.17893 0.76107
2.0934 2.1636 0.773613
2.07806 2.17894 0.786215
2.0934 2.1636 0.74848
2.0934 2.1636 0.773613
2.07807 2.17893 0.76107
2.07808 2.17892 0.635442
2.0934 2.1636 0.647992
2.07808 2.17892 0.660554
1.61564 2.64136 0.0805869
1.63134 2.62566 0.0725
1.63134 2.62566 0.095634
1.5683 2.6887 0.9725
1.53648 2.72052 0.9725
1.55243 2.70457 0.964321
2.07804 2.17896 0.912117
2.06271 2.19429 0.899521
2.07804 2.17896 0.886856
2.06275 2.19425 0.924584
2.06271 2.19429 0.899521
2.07804 2.17896 0.912117
2.07804 2.17896 0.912117
2.07809 2.17891 0.937625
2.06275 2.19425 0.924584
2.0934 2.1636 0.923949
2.07809 2.17891 0.937625
2.07804 2.17896 0.912117
2.07833 2.17867 0.963839
2.0934 2.1636 0.948552
2.0934 2.1636 0.9725
2.07833 2.17867 0.963839
2.07809 2.17891 0.937625
2.0934 2.1636 0.948552
2.0934 2.1636 0.9725
2.06326 2.19374 0.9725
2.07833 2.17867 0.963839
2.06326 2.19374 0.9725
2.06287 2.19413 0.94927
2.07833 2.17867 0.963839
2.06287 2.19413 0.94927
2.07809 2.17891 0.937625
2.07833 2.17867 0.963839
2.07806 2.17894 0.786215
2.0934 2.1636 0.773613
2.0934 2.1636 0.798745
2.07804 2.17896 0.886856
2.0934 2.1636 0.874055
2.0934 2.1636 0.899067
2.0934 2.1636 0.923949
2.07804 2.17896 0.912117
2.0934 2.1636 0.899067
2.0934 2.1636 0.899067
2.07804 2.17896 0.912117
2.07804 2.17896 0.886856
2.0934 2.1636 0.622885
2.0934 2.1636 0.647992
2.07808 2.17892 0.635442
2.07807 2.17893 0.309069
2.0934 2.1636 0.321651
2.07807 2.17893 0.334202
2.06275 2.19425 0.748526
2.04743 2.20957 0.735977
2.06275 2.19425 0.723383
2.07806 2.17894 0.811363
2.0934 2.1636 0.823871
2.07805 2.17895 0.836515
2.07806 2.17894 0.811363
2.0934 2.1636 0.798745
2.0934 2.1636 0.823871
2.07806 2.17894 0.811363
2.06273 2.19427 0.798839
2.07806 2.17894 0.786215
2.07806 2.17894 0.786215
2.0934 2.1636 0.798745
2.07806 2.17894 0.811363
2.06271 2.19429 0.849184
2.07804 2.17896 0.861673
2.06271 2.19429 0.874362
2.06271 2.19429 0.849184
2.07805 2.17895 0.836515
2.07804 2.17896 0.861673
2.04741 2.20959 0.81149
2.03209 2.22491 0.824146
2.0321 2.2249 0.798941
1.83285 2.42415 0.938376
1.81747 2.43953 0.924896
1.83285 2.42415 0.91275
1.78664 2.47036 0.773805
1.78664 2.47036 0.799
1.77121 2.48579 0.786392
2.0934 2.1636 0.0725
2.0934 2.1636 0.096448
2.07833 2.17867 0.0811606
1.56833 2.68867 0.949328
1.5683 2.6887 0.9725
1.55243 2.70457 0.964321
1.63134 2.62566 0.874462
1.61565 2.64135 0.88714
1.61564 2.64136 0.861854
1.55243 2.70457 0.964321
1.53648 2.72052 0.9725
1.53664 2.72036 0.949228
2.06276 2.19424 0.396996
2.04745 2.20955 0.384429
2.06276 2.19424 0.371878
2.0934 2.1636 0.547592
2.07808 2.17892 0.535047
2.0934 2.1636 0.5225
2.07808 2.17892 0.585237
2.0934 2.1636 0.572686
2.0934 2.1636 0.597784
2.06277 2.19423 0.497406
2.04745 2.20955 0.509952
2.04745 2.20955 0.484856
2.06277 2.19423 0.5225
2.04745 2.20955 0.509952
2.06277 2.19423 0.497406
2.07808 2.17892 0.535047
2.06277 2.19423 0.547594
2.06277 2.19423 0.5225
2.04745 2.20955 0.660571
2.06276 2.19424 0.673122
2.04744 2.20956 0.685697
2.01682 2.24018 0.635467
2.01682 2.24018 0.660589
2.0015 2.2555 0.648033
2.04745 2.20955 0.635455
2.03214 2.22486 0.622905
2.04745 2.20955 0.610346
2.04745 2.20955 0.610346
2.06277 2.19423 0.622894
2.04745 2.20955 0.635455
2.03214 2.22486 0.622905
2.03214 2.22486 0.597797
2.04745 2.20955 0.610346
2.04745 2.20955 0.610346
2.03214 2.22486 0.597797
2.04745 2.20955 0.585242
2.0934 2.1636 0.597784
2.0934 2.1636 0.622885
2.07808 2.17892 0.610337
2.07808 2.17892 0.610337
2.07808 2.17892 0.585237
2.0934 2.1636 0.597784
2.07808 2.17892 0.610337
2.0934 2.1636 0.622885
2.07808 2.17892 0.635442
2.07808 2.17892 0.635442
2.06277 2.19423 0.622894
2.07808 2.17892 0.610337
2.04744 2.20956 0.710831
2.03213 2.22487 0.698277
2.04744 2.20956 0.685697
2.04744 2.20956 0.710831
2.06275 2.19425 0.723383
2.04743 2.20957 0.735977
2.0015 2.2555 0.698302
2.01681 2.24019 0.68572
2.01681 2.24019 0.710864
2.01681 2.24019 0.710864
2.01681 2.24019 0.68572
2.03213 2.22487 0.698277
2.0934 2.1636 0.673105
2.07808 2.17892 0.660554
2.0934 2.1636 0.647992
2.04744 2.20956 0.685697
2.06276 2.19424 0.673122
2.06276 2.19424 0.698248
2.06276 2.19424 0.698248
2.04744 2.20956 0.710831
2.04744 2.20956 0.685697
2.06275 2.19425 0.723383
2.04744 2.20956 0.710831
2.06276 2.19424 0.698248
2.07806 2.17894 0.786215
2.06273 2.19427 0.798839
2.06274 2.19426 0.773678
2.06274 2.19426 0.773678
2.07807 2.17893 0.76107
2.07806 2.17894 0.786215
2.06275 2.19425 0.748526
2.07807 2.17893 0.76107
2.06274 2.19426 0.773678
2.0321 2.2249 0.798941
2.03211 2.22489 0.773753
2.04742 2.20958 0.786304
2.04742 2.20958 0.786304
2.04741 2.20959 0.81149
2.0321 2.2249 0.798941
2.06273 2.19427 0.798839
2.04741 2.20959 0.81149
2.04742 2.20958 0.786304
2.04742 2.20958 0.786304
2.06274 2.19426 0.773678
2.06273 2.19427 0.798839
2.01679 2.24021 0.786381
2.03211 2.22489 0.773753
2.0321 2.2249 0.798941
2.01679 2.24021 0.786381
2.00148 2.25552 0.799009
2.00148 2.25552 0.773807
2.06271 2.19429 0.874362
2.06271 2.19429 0.899521
2.04741 2.20959 0.887217
2.04741 2.20959 0.887217
2.06271 2.19429 0.899521
2.04744 2.20956 0.912625
2.03209 2.22491 0.824146
2.04741 2.20959 0.81149
2.0474 2.2096 0.836694
2.0474 2.2096 0.836694
2.03209 2.22491 0.849368
2.03209 2.22491 0.824146
1.97087 2.28613 0.673174
1.95555 2.30145 0.685749
1.95555 2.30145 0.660611
2.00148 2.25552 0.773807
2.00149 2.25551 0.748623
2.0168 2.2402 0.761192
2.0168 2.2402 0.761192
2.01679 2.24021 0.786381
2.00148 2.25552 0.773807
2.03211 2.22489 0.773753
2.01679 2.24021 0.786381
2.0168 2.2402 0.761192
2.03211 2.22489 0.748581
2.03211 2.22489 0.773753
2.0168 2.2402 0.761192
1.86358 2.39342 0.912763
1.86358 2.39342 0.93839
1.84822 2.40878 0.924907
1.84822 2.40878 0.924907
1.86358 2.39342 0.93839
1.84822 2.40878 0.949497
1.84822 2.40878 0.924907
1.84822 2.40878 0.949497
1.83285 2.42415 0.938376
1.83285 2.42415 0.938376
1.83285 2.42415 0.91275
1.84822 2.40878 0.924907
1.81747 2.43953 0.899845
1.83285 2.42415 0.91275
1.81747 2.43953 0.924896
1.80202 2.45498 0.53505
1.80202 2.45498 0.56015
1.7866 2.4704 0.547599
1.70922 2.54778 0.660564
1.69367 2.56333 0.647996
1.70922 2.54778 0.635447
1.70924 2.54776 0.710832
1.6937 2.5633 0.723393
1.69369 2.56331 0.698249
1.63134 2.62566 0.874462
1.61564 2.64136 0.861854
1.63132 2.62568 0.849241
1.63135 2.62565 0.899657
1.61565 2.64135 0.88714
1.63134 2.62566 0.874462
1.69376 2.56324 0.824121
1.69378 2.56322 0.849338
1.6782 2.5788 0.836717
1.59983 2.65717 0.773576
1.61554 2.64146 0.761025
1.61557 2.64143 0.786199
1.59973 2.65727 0.67303
1.58397 2.67303 0.685563
1.58396 2.67304 0.660458
1.61564 2.64136 0.964413
1.63134 2.62566 0.9725
1.5999 2.6571 0.9725
1.63134 2.62566 0.949366
1.63134 2.62566 0.9725
1.61564 2.64136 0.964413
1.647 2.61 0.964474
1.63134 2.62566 0.9725
1.63134 2.62566 0.949366
1.59993 2.65707 0.89961
1.59992 2.65708 0.924693
1.58418 2.67282 0.912459
1.84822 2.40878 0.9725
1.81747 2.43953 0.9725
1.83285 2.42415 0.964721
1.83285 2.42415 0.938376
1.84822 2.40878 0.949497
1.83285 2.42415 0.964721
1.83285 2.42415 0.964721
1.84822 2.40878 0.949497
1.84822 2.40878 0.9725
1.81747 2.43953 0.949489
1.81747 2.43953 0.924896
1.83285 2.42415 0.938376
1.83285 2.42415 0.938376
1.83285 2.42415 0.964721
1.81747 2.43953 0.949489
1.81747 2.43953 0.949489
1.83285 2.42415 0.964721
1.81747 2.43953 0.9725
1.70931 2.54769 0.836759
1.69378 2.56322 0.849338
1.69376 2.56324 0.824121
1.7712 2.4858 0.761204
1.78663 2.47037 0.748624
1.78664 2.47036 0.773805
1.78664 2.47036 0.773805
1.77121 2.48579 0.786392
1.7712 2.4858 0.761204
1.77122 2.48578 0.811596
1.77121 2.48579 0.786392
1.78664 2.47036 0.799
1.77122 2.48578 0.811596
1.78664 2.47036 0.799
1.78665 2.47035 0.824208
1.78665 2.47035 0.824208
1.77123 2.48577 0.836818
1.77122 2.48578 0.811596
1.77122 2.48578 0.811596
1.77123 2.48577 0.836818
1.75578 2.50122 0.824187
1.78666 2.47034 0.849427
1.77123 2.48577 0.836818
1.78665 2.47035 0.824208
1.78666 2.47034 0.874644
1.77124 2.48576 0.887342
1.77124 2.48576 0.862061
1.77124 2.48576 0.862061
1.78666 2.47034 0.849427
1.78666 2.47034 0.874644
1.77123 2.48577 0.836818
1.78666 2.47034 0.849427
1.77124 2.48576 0.862061
2.07809 2.17891 0.107375
2.07833 2.17867 0.0811606
2.0934 2.1636 0.096448
2.06287 2.19413 0.0957297
2.07833 2.17867 0.0811606
2.07809 2.17891 0.107375
1.94028 2.31672 0.0954754
1.94028 2.31672 0.0725
1.95561 2.30139 0.0802084
2.00164 2.25536 0.0725
1.98629 2.27071 0.0801683
1.97095 2.28605 0.0725
1.97095 2.28605 0.0725
1.95561 2.30139 0.0802084
[...]
<PointData Scalars="View Factor" >
<DataArray type="Float64" Name="View Factor" NumberOfComponents="1" format="ascii">
0.0414634
0.0414634
0.0414634
0.0458881
0.0458881
0.0458881
0.0443233
0.0443233
0.0443233
0.0399195
0.0399195
0.0399195
0.0399965
0.0399965
0.0399965
0.03877
0.03877
0.03877
0.0401447
0.0401447
0.0401447
0.0396089
0.0396089
0.0396089
0.0404764
0.0404764
0.0404764
0.0397886
0.0397886
0.0397886
0.0389031
0.0389031
0.0389031
0.0421591
0.0421591
0.0421591
0.0435803
0.0435803
0.0435803
0.0401543
0.0401543
0.0401543
0.039579
0.039579
0.039579
0.046711
0.046711
0.046711
0.0447642
0.0447642
0.0447642
0.0439892
0.0439892
0.0439892
0.143295
0.143295
0.143295
0.0523327
0.0523327
0.0523327
0.0533303
0.0533303
0.0533303
0.0662792
0.0662792
0.0662792
0.305468
0.305468
0.305468
0.0844459
0.0844459
0.0844459
0.0425127
0.0425127
0.0425127
0.0418163
0.0418163
0.0418163
0.0407998
0.0407998
0.0407998
0.040504
0.040504
0.040504
0.038044
0.038044
0.038044
0.0388869
0.0388869
0.0388869
0.0378391
0.0378391
0.0378391
0.0386007
0.0386007
0.0386007
0.039166
0.039166
0.039166
0.0509837
0.0509837
0.0509837
0.0429318
0.0429318
0.0429318
0.0412059
0.0412059
0.0412059
0.0421979
0.0421979
0.0421979
0.0676947
0.0676947
0.0676947
0.139144
0.139144
0.139144
0.0572236
0.0572236
0.0572236
0.0479049
0.0479049
0.0479049
0.0487809
0.0487809
0.0487809
0.0504422
0.0504422
0.0504422
0.0500496
0.0500496
0.0500496
0.045451
0.045451
0.045451
0.0462413
0.0462413
0.0462413
0.0509131
0.0509131
0.0509131
0.0613635
0.0613635
0.0613635
0.0834794
0.0834794
0.0834794
0.261742
0.261742
0.261742
0.084447
0.084447
0.084447
0.0900968
0.0900968
0.0900968
0.0862658
0.0862658
0.0862658
0.121039
0.121039
0.121039
0.0834412
0.0834412
0.0834412
0.0749906
0.0749906
0.0749906
0.0933332
0.0933332
0.0933332
0.0903576
0.0903576
0.0903576
0.0847815
0.0847815
0.0847815
0.0647402
0.0647402
0.0647402
0.0708227
0.0708227
0.0708227
0.0721843
0.0721843
0.0721843
0.0714992
0.0714992
0.0714992
0.0744097
0.0744097
0.0744097
0.0759717
0.0759717
0.0759717
0.0712113
0.0712113
0.0712113
0.0733452
0.0733452
0.0733452
0.0696864
0.0696864
0.0696864
0.0702486
0.0702486
0.0702486
0.0622826
0.0622826
0.0622826
0.0588416
0.0588416
0.0588416
0.06425
0.06425
0.06425
0.0635627
0.0635627
0.0635627
0.0644181
0.0644181
0.0644181
0.0629013
0.0629013
0.0629013
0.0616924
0.0616924
0.0616924
0.0599684
0.0599684
0.0599684
0.0517892
0.0517892
0.0517892
0.0527461
0.0527461
0.0527461
0.0541784
0.0541784
0.0541784
0.0532284
0.0532284
0.0532284
0.0518008
0.0518008
0.0518008
0.0513183
0.0513183
0.0513183
0.0522388
0.0522388
0.0522388
0.0537668
0.0537668
0.0537668
0.0549261
0.0549261
0.0549261
0.0439437
0.0439437
0.0439437
0.0432191
0.0432191
0.0432191
0.0495677
0.0495677
0.0495677
0.048735
0.048735
0.048735
0.0714611
0.0714611
0.0714611
0.0574765
0.0574765
0.0574765
0.055874
0.055874
0.055874
0.0552797
0.0552797
0.0552797
0.0562583
0.0562583
0.0562583
0.0577726
0.0577726
0.0577726
0.0572422
0.0572422
0.0572422
0.0584216
0.0584216
0.0584216
0.0601715
0.0601715
0.0601715
0.0632384
0.0632384
0.0632384
0.124537
0.124537
0.124537
0.117248
0.117248
0.117248
0.106263
0.106263
0.106263
0.091278
0.091278
0.091278
0.0879017
0.0879017
0.0879017
0.0879697
0.0879697
0.0879697
0.106084
0.106084
0.106084
0.126192
0.126192
0.126192
0.0788258
0.0788258
0.0788258
0.0787276
0.0787276
0.0787276
0.077736
0.077736
0.077736
0.0877127
0.0877127
0.0877127
0.056646
0.056646
0.056646
0.0577856
0.0577856
0.0577856
0.0561934
0.0561934
0.0561934
0.060767
0.060767
0.060767
0.0589373
0.0589373
0.0589373
0.0584615
0.0584615
0.0584615
0.0867794
0.0867794
0.0867794
0.0870954
0.0870954
0.0870954
0.0859576
0.0859576
0.0859576
0.082419
0.082419
0.082419
0.0800517
0.0800517
0.0800517
0.0790602
0.0790602
0.0790602
0.0803624
0.0803624
0.0803624
0.0768014
0.0768014
0.0768014
0.0728482
0.0728482
0.0728482
0.0737167
0.0737167
0.0737167
0.0758728
0.0758728
0.0758728
0.254272
0.254272
0.254272
0.254956
0.254956
0.254956
0.272631
0.272631
0.272631
0.271678
0.271678
0.271678
0.274067
0.274067
0.274067
0.297665
0.297665
0.297665
0.298769
0.298769
0.298769
0.297118
0.297118
0.297118
0.301127
0.301127
0.301127
0.304795
0.304795
0.304795
0.308555
0.308555
0.308555
0.308033
0.308033
0.308033
0.24253
0.24253
0.24253
0.238486
0.238486
0.238486
0.0806753
0.0806753
0.0806753
0.086587
0.086587
0.086587
0.0845834
0.0845834
0.0845834
0.130309
0.130309
0.130309
0.1273
0.1273
0.1273
0.10042
0.10042
0.10042
0.148536
0.148536
0.148536
0.0932825
0.0932825
0.0932825
0.107303
0.107303
0.107303
0.10465
0.10465
0.10465
0.113898
0.113898
0.113898
0.111008
0.111008
0.111008
0.11199
0.11199
0.11199
0.115896
0.115896
0.115896
0.118905
0.118905
0.118905
0.117888
0.117888
0.117888
0.293729
0.293729
0.293729
0.288417
0.288417
0.288417
0.299139
0.299139
0.299139
0.123105
0.123105
0.123105
0.134286
0.134286
0.134286
0.0768892
0.0768892
0.0768892
0.0806736
0.0806736
0.0806736
0.0724284
0.0724284
0.0724284
0.0903067
0.0903067
0.0903067
0.0891349
0.0891349
0.0891349
0.0920454
0.0920454
0.0920454
0.0942182
0.0942182
0.0942182
0.0928815
0.0928815
0.0928815
0.0942013
0.0942013
0.0942013
0.0881713
0.0881713
0.0881713
0.0860849
0.0860849
0.0860849
0.0867719
0.0867719
0.0867719
0.0895784
0.0895784
0.0895784
0.0917381
0.0917381
0.0917381
0.0910173
0.0910173
0.0910173
0.110972
0.110972
0.110972
0.112757
0.112757
0.112757
0.103218
0.103218
0.103218
0.0993385
0.0993385
0.0993385
0.0978717
0.0978717
0.0978717
0.100128
0.100128
0.100128
0.118706
0.118706
0.118706
0.122938
0.122938
0.122938
0.118898
0.118898
0.118898
0.116764
0.116764
0.116764
0.10556
0.10556
0.10556
0.103936
0.103936
0.103936
0.0654593
0.0654593
0.0654593
0.0660392
0.0660392
0.0660392
0.0680026
0.0680026
0.0680026
0.0668135
0.0668135
0.0668135
0.0687906
0.0687906
0.0687906
0.0694005
0.0694005
0.0694005
0.0700663
0.0700663
0.0700663
0.0686547
0.0686547
0.0686547
0.070737
0.070737
0.070737
0.0714603
0.0714603
0.0714603
0.0801145
0.0801145
0.0801145
0.0808484
0.0808484
0.0808484
0.0817478
0.0817478
0.0817478
0.0739369
0.0739369
0.0739369
0.0768779
0.0768779
0.0768779
0.0762037
0.0762037
0.0762037
0.0752523
0.0752523
0.0752523
0.0730058
0.0730058
0.0730058
0.0723645
0.0723645
0.0723645
0.0641113
0.0641113
0.0641113
0.0647674
0.0647674
0.0647674
0.066705
0.066705
0.066705
0.0653606
0.0653606
0.0653606
0.068
0.068
0.068
0.067311
0.067311
0.067311
0.0674263
0.0674263
0.0674263
0.0694762
0.0694762
0.0694762
0.0702607
0.0702607
0.0702607
0.0661758
0.0661758
0.0661758
0.0611193
0.0611193
0.0611193
0.0617439
0.0617439
0.0617439
0.059403
0.059403
0.059403
0.0583181
0.0583181
0.0583181
0.0630854
0.0630854
0.0630854
0.063609
0.063609
0.063609
0.0631015
0.0631015
0.0631015
0.061361
0.061361
0.061361
0.06235
0.06235
0.06235
0.0558328
0.0558328
0.0558328
0.0567256
0.0567256
0.0567256
0.0547659
0.0547659
0.0547659
0.0552011
0.0552011
0.0552011
0.0585047
0.0585047
0.0585047
0.0601362
0.0601362
0.0601362
0.0606184
0.0606184
0.0606184
0.0594444
0.0594444
0.0594444
0.0578203
0.0578203
0.0578203
0.0573622
0.0573622
0.0573622
0.0556925
0.0556925
0.0556925
0.0546517
0.0546517
0.0546517
0.054176
0.054176
0.054176
0.0536684
0.0536684
0.0536684
0.0567057
0.0567057
0.0567057
0.0561718
0.0561718
0.0561718
0.0514254
0.0514254
0.0514254
0.0528509
0.0528509
0.0528509
0.0534171
0.0534171
0.0534171
0.045835
0.045835
0.045835
0.0466831
0.0466831
0.0466831
0.0470301
0.0470301
0.0470301
0.0474656
0.0474656
0.0474656
0.0450697
0.0450697
0.0450697
0.0454831
0.0454831
0.0454831
0.0412056
0.0412056
0.0412056
0.0418361
0.0418361
0.0418361
0.040933
0.040933
0.040933
0.0416076
0.0416076
0.0416076
0.0426576
0.0426576
0.0426576
0.0447495
0.0447495
0.0447495
0.0433444
0.0433444
0.0433444
0.0436114
0.0436114
0.0436114
0.042924
0.042924
0.042924
0.0491092
0.0491092
0.0491092
0.0482775
0.0482775
0.0482775
0.0474363
0.0474363
0.0474363
0.0478415
0.0478415
0.0478415
0.0495456
0.0495456
0.0495456
0.0499726
0.0499726
0.0499726
0.0880654
0.0880654
0.0880654
0.0911223
0.0911223
0.0911223
0.0825451
0.0825451
0.0825451
0.086242
0.086242
0.086242
0.0693325
0.0693325
0.0693325
0.0532642
0.0532642
0.0532642
0.0550535
0.0550535
0.0550535
0.0554692
0.0554692
0.0554692
0.122532
0.122532
0.122532
0.122742
0.122742
0.122742
0.116965
0.116965
0.116965
0.113046
0.113046
0.113046
0.120463
0.120463
0.120463
0.107062
0.107062
0.107062
0.115495
0.115495
0.115495
0.134514
0.134514
0.134514
0.133692
0.133692
0.133692
0.135796
0.135796
0.135796
0.093566
0.093566
0.093566
0.0867801
0.0867801
0.0867801
0.0878089
0.0878089
0.0878089
0.0867132
0.0867132
0.0867132
0.0901959
0.0901959
0.0901959
0.0913807
0.0913807
0.0913807
0.087991
0.087991
0.087991
0.090266
0.090266
0.090266
0.0988953
0.0988953
0.0988953
0.097698
0.097698
0.097698
0.101238
0.101238
0.101238
0.102383
0.102383
0.102383
0.104956
0.104956
0.104956
0.105819
0.105819
0.105819
0.0903084
0.0903084
0.0903084
0.0914566
0.0914566
0.0914566
0.108704
0.108704
0.108704
0.110249
0.110249
0.110249
0.113444
0.113444
0.113444
0.128089
0.128089
0.128089
0.0758759
0.0758759
0.0758759
0.072842
0.072842
0.072842
0.091147
0.091147
0.091147
0.0899801
0.0899801
0.0899801
0.0599959
0.0599959
0.0599959
0.0595892
0.0595892
0.0595892
0.0992759
0.0992759
0.0992759
0.0978816
0.0978816
0.0978816
0.0894462
0.0894462
0.0894462
0.0679539
0.0679539
0.0679539
0.0826954
0.0826954
0.0826954
0.0837595
0.0837595
0.0837595
0.0740751
0.0740751
0.0740751
0.0765
0.0765
0.0765
0.267528
0.267528
0.267528
0.262821
0.262821
0.262821
0.258248
0.258248
0.258248
0.265089
0.265089
0.265089
0.270398
0.270398
0.270398
0.303596
0.303596
0.303596
0.299166
0.299166
0.299166
0.307197
0.307197
0.307197
0.303968
0.303968
0.303968
0.299814
0.299814
0.299814
0.30455
0.30455
0.30455
0.300057
0.300057
0.300057
0.295129
0.295129
0.295129
0.293796
0.293796
0.293796
0.288738
0.288738
0.288738
0.29332
0.29332
0.29332
0.302149
0.302149
0.302149
0.302774
0.302774
0.302774
0.304528
0.304528
0.304528
0.306057
0.306057
0.306057
0.252759
0.252759
0.252759
0.167062
0.167062
0.167062
0.243269
0.243269
0.243269
0.188858
0.188858
0.188858
0.195472
0.195472
0.195472
0.191845
0.191845
0.191845
0.19429
0.19429
0.19429
0.191231
0.191231
0.191231
0.223746
0.223746
0.223746
0.200601
0.200601
0.200601
0.161081
0.161081
0.161081
0.171559
0.171559
0.171559
0.167977
0.167977
0.167977
0.241304
0.241304
0.241304
0.240943
0.240943
0.240943
0.241905
0.241905
0.241905
0.242149
0.242149
0.242149
0.238248
0.238248
0.238248
0.22324
0.22324
0.22324
0.238871
0.238871
0.238871
0.246639
0.246639
0.246639
0.242677
0.242677
0.242677
0.161432
0.161432
0.161432
0.157309
0.157309
0.157309
0.152259
0.152259
0.152259
0.149249
0.149249
0.149249
0.15179
0.15179
0.15179
0.155874
0.155874
0.155874
0.132999
0.132999
0.132999
0.140729
0.140729
0.140729
0.167395
0.167395
0.167395
0.170196
0.170196
0.170196
0.0805461
0.0805461
0.0805461
0.0815308
0.0815308
0.0815308
0.083604
0.083604
0.083604
0.0846077
0.0846077
0.0846077
0.0816351
0.0816351
0.0816351
0.0834689
0.0834689
0.0834689
0.0816821
0.0816821
0.0816821
0.0835199
0.0835199
0.0835199
0.0844198
0.0844198
0.0844198
0.147904
0.147904
0.147904
0.142804
0.142804
0.142804
0.144923
0.144923
0.144923
0.125433
0.125433
0.125433
0.121819
0.121819
0.121819
0.124663
0.124663
0.124663
0.126503
0.126503
0.126503
0.128572
0.128572
0.128572
0.123885
0.123885
0.123885
0.125697
0.125697
0.125697
0.124885
0.124885
0.124885
0.101792
0.101792
0.101792
0.104622
0.104622
0.104622
0.111446
0.111446
0.111446
0.113018
0.113018
0.113018
0.101464
0.101464
0.101464
0.0871687
0.0871687
0.0871687
0.0871153
0.0871153
0.0871153
0.0889305
0.0889305
0.0889305
0.0875574
0.0875574
0.0875574
0.0865054
0.0865054
0.0865054
0.0862888
0.0862888
0.0862888
0.0872063
0.0872063
0.0872063
0.0874497
0.0874497
0.0874497
0.0894643
0.0894643
0.0894643
0.258825
0.258825
0.258825
0.266083
0.266083
0.266083
0.266561
0.266561
0.266561
0.259948
0.259948
0.259948
0.26795
0.26795
0.26795
0.267502
0.267502
0.267502
0.260498
0.260498
0.260498
0.197598
0.197598
0.197598
0.246837
0.246837
0.246837
0.24761
0.24761
0.24761
0.249726
0.249726
0.249726
0.249033
0.249033
0.249033
0.101209
0.101209
0.101209
0.0987722
0.0987722
0.0987722
0.0955737
0.0955737
0.0955737
0.0947577
0.0947577
0.0947577
0.104801
0.104801
0.104801
0.106414
0.106414
0.106414
0.105594
0.105594
0.105594
0.107616
0.107616
0.107616
0.110259
0.110259
0.110259
0.109229
0.109229
0.109229
0.144244
0.144244
0.144244
0.149511
0.149511
0.149511
0.19218
0.19218
0.19218
0.190345
0.190345
0.190345
0.192221
0.192221
0.192221
0.197868
0.197868
0.197868
0.194148
0.194148
0.194148
0.201818
0.201818
0.201818
0.199978
0.199978
0.199978
0.184727
0.184727
0.184727
0.188508
0.188508
0.188508
0.181393
0.181393
0.181393
0.248424
0.248424
0.248424
0.199623
0.199623
0.199623
0.247368
0.247368
0.247368
0.160957
0.160957
0.160957
0.152263
0.152263
0.152263
0.157156
0.157156
0.157156
0.169549
0.169549
0.169549
0.170649
0.170649
0.170649
0.167346
0.167346
0.167346
0.280718
0.280718
0.280718
0.275482
0.275482
0.275482
0.269172
0.269172
0.269172
0.277672
0.277672
0.277672
0.279802
0.279802
0.279802
0.287093
0.287093
0.287093
0.196074
0.196074
0.196074
0.199891
0.199891
0.199891
0.204211
0.204211
0.204211
0.125336
0.125336
0.125336
0.126384
0.126384
0.126384
0.152327
0.152327
0.152327
0.147128
0.147128
0.147128
0.152667
0.152667
0.152667
0.155291
0.155291
0.155291
0.128716
0.128716
0.128716
0.122498
0.122498
0.122498
0.104826
0.104826
0.104826
0.130483
0.130483
0.130483
0.125985
0.125985
0.125985
0.118339
0.118339
0.118339
0.120082
0.120082
0.120082
0.123392
0.123392
0.123392
0.122505
0.122505
0.122505
0.111294
0.111294
0.111294
0.108371
0.108371
0.108371
0.109195
0.109195
0.109195
0.112974
0.112974
0.112974
0.116006
0.116006
0.116006
0.11515
0.11515
0.11515
0.0772798
0.0772798
0.0772798
0.077902
0.077902
0.077902
0.0803335
0.0803335
0.0803335
0.0790579
0.0790579
0.0790579
0.0821707
0.0821707
0.0821707
0.0815165
0.0815165
0.0815165
0.0807959
0.0807959
0.0807959
0.0817112
0.0817112
0.0817112
0.0797808
0.0797808
0.0797808
0.0838594
0.0838594
0.0838594
0.0732744
0.0732744
0.0732744
0.0750438
0.0750438
0.0750438
0.0727809
0.0727809
0.0727809
0.0719149
0.0719149
0.0719149
0.0788727
0.0788727
0.0788727
0.0764651
0.0764651
0.0764651
0.0755606
0.0755606
0.0755606
0.0770251
0.0770251
0.0770251
0.0861398
0.0861398
0.0861398
0.0881098
0.0881098
0.0881098
0.0843767
0.0843767
0.0843767
0.0853416
0.0853416
0.0853416
0.0825378
0.0825378
0.0825378
0.0852
0.0852
0.0852
0.097078
0.097078
0.097078
0.0939753
0.0939753
0.0939753
0.0882174
0.0882174
0.0882174
0.0849715
0.0849715
0.0849715
0.0873497
0.0873497
0.0873497
0.0894367
0.0894367
0.0894367
0.108686
0.108686
0.108686
0.10615
0.10615
0.10615
0.0959287
0.0959287
0.0959287
0.0973468
0.0973468
0.0973468
0.0996787
0.0996787
0.0996787
0.104051
0.104051
0.104051
0.10306
0.10306
0.10306
0.0847341
0.0847341
0.0847341
0.0858681
0.0858681
0.0858681
0.0890677
0.0890677
0.0890677
0.0910876
0.0910876
0.0910876
0.0898312
0.0898312
0.0898312
0.0866788
0.0866788
0.0866788
0.0855267
0.0855267
0.0855267
0.0874098
0.0874098
0.0874098
0.0936976
0.0936976
0.0936976
0.0950535
0.0950535
0.0950535
0.0986454
0.0986454
0.0986454
0.10082
0.10082
0.10082
0.107175
0.107175
0.107175
0.105086
0.105086
0.105086
0.109597
0.109597
0.109597
0.118065
0.118065
0.118065
0.110601
0.110601
0.110601
0.10619
0.10619
0.10619
0.106726
0.106726
0.106726
0.104557
0.104557
0.104557
0.131768
0.131768
0.131768
0.14484
0.14484
0.14484
0.142281
0.142281
0.142281
0.12513
0.12513
0.12513
0.123032
0.123032
0.123032
0.077652
0.077652
0.077652
0.0761405
0.0761405
0.0761405
0.0730089
0.0730089
0.0730089
0.0738307
0.0738307
0.0738307
0.0775253
0.0775253
0.0775253
0.0783561
0.0783561
0.0783561
0.0751687
0.0751687
0.0751687
0.0767917
0.0767917
0.0767917
0.0736659
0.0736659
0.0736659
0.0744589
0.0744589
0.0744589
0.0608715
0.0608715
0.0608715
0.060621
0.060621
0.060621
0.0612758
0.0612758
0.0612758
0.0589128
0.0589128
0.0589128
0.0601902
0.0601902
0.0601902
0.057866
0.057866
0.057866
0.05849
0.05849
0.05849
0.0408378
0.0408378
0.0408378
0.0413616
0.0413616
0.0413616
0.044472
0.044472
0.044472
0.0451907
0.0451907
0.0451907
0.0944897
0.0944897
0.0944897
0.0791497
0.0791497
0.0791497
0.0801529
0.0801529
0.0801529
0.076867
0.076867
0.076867
0.0732315
0.0732315
0.0732315
0.0759622
0.0759622
0.0759622
0.0778169
0.0778169
0.0778169
0.0699404
0.0699404
0.0699404
0.0685041
0.0685041
0.0685041
0.0669246
0.0669246
0.0669246
0.0697672
0.0697672
0.0697672
0.0689585
0.0689585
0.0689585
0.065309
0.065309
0.065309
0.0634089
0.0634089
0.0634089
0.0626714
0.0626714
0.0626714
0.0637998
0.0637998
0.0637998
0.0657125
0.0657125
0.0657125
0.0664848
0.0664848
0.0664848
0.066101
0.066101
0.066101
0.0649577
0.0649577
0.0649577
0.0665874
0.0665874
0.0665874
0.0681049
0.0681049
0.0681049
0.0581261
0.0581261
0.0581261
0.0598198
0.0598198
0.0598198
0.0635671
0.0635671
0.0635671
0.0675211
0.0675211
0.0675211
0.0658778
0.0658778
0.0658778
0.066788
0.066788
0.066788
0.0629172
0.0629172
0.0629172
0.0644956
0.0644956
0.0644956
0.0707902
0.0707902
0.0707902
0.0695688
0.0695688
0.0695688
0.0680152
0.0680152
0.0680152
0.069973
0.069973
0.069973
0.0644426
0.0644426
0.0644426
0.0663544
0.0663544
0.0663544
0.0668315
0.0668315
0.0668315
0.0675679
0.0675679
0.0675679
0.111018
0.111018
0.111018
0.107811
0.107811
0.107811
0.112413
0.112413
0.112413
0.110766
0.110766
0.110766
0.11847
0.11847
0.11847
0.0916584
0.0916584
0.0916584
0.0929493
0.0929493
0.0929493
0.0950649
0.0950649
0.0950649
0.09702
0.09702
0.09702
0.0956281
0.0956281
0.0956281
0.0917845
0.0917845
0.0917845
0.0924037
0.0924037
0.0924037
0.0905148
0.0905148
0.0905148
0.101225
0.101225
0.101225
0.0975168
0.0975168
0.0975168
0.0961182
0.0961182
0.0961182
0.0979432
0.0979432
0.0979432
0.100426
0.100426
0.100426
0.101938
0.101938
0.101938
0.105531
0.105531
0.105531
0.118979
0.118979
0.118979
0.117152
0.117152
0.117152
0.113484
0.113484
0.113484
0.111723
0.111723
0.111723
0.122328
0.122328
0.122328
0.134588
0.134588
0.134588
0.132409
0.132409
0.132409
0.138404
0.138404
0.138404
0.116865
0.116865
0.116865
0.130392
0.130392
0.130392
0.13922
0.13922
0.13922
0.141445
0.141445
0.141445
0.144996
0.144996
0.144996
0.0937099
0.0937099
0.0937099
0.0948139
0.0948139
0.0948139
0.0975565
0.0975565
0.0975565
0.0950901
0.0950901
0.0950901
0.0938258
0.0938258
0.0938258
0.094964
0.094964
0.094964
0.098717
0.098717
0.098717
0.0973886
0.0973886
0.0973886
0.0982855
0.0982855
0.0982855
0.100716
0.100716
0.100716
0.102098
0.102098
0.102098
0.100988
0.100988
0.100988
0.0985139
0.0985139
0.0985139
0.0971943
0.0971943
0.0971943
0.0846773
0.0846773
0.0846773
0.0836407
0.0836407
0.0836407
0.0816107
0.0816107
0.0816107
0.0836008
0.0836008
0.0836008
0.0868379
0.0868379
0.0868379
0.0868681
0.0868681
0.0868681
0.0879939
0.0879939
0.0879939
0.0844859
0.0844859
0.0844859
0.102646
0.102646
0.102646
0.105556
0.105556
0.105556
0.102883
0.102883
0.102883
0.101464
0.101464
0.101464
0.109485
0.109485
0.109485
0.106433
0.106433
0.106433
0.106758
0.106758
0.106758
0.105269
0.105269
0.105269
0.110666
0.110666
0.110666
0.109106
0.109106
0.109106
0.110177
0.110177
0.110177
0.10734
0.10734
0.10734
0.107589
0.107589
0.107589
0.106057
0.106057
0.106057
0.0879128
0.0879128
0.0879128
0.0903049
0.0903049
0.0903049
0.0915105
0.0915105
0.0915105
0.0902547
0.0902547
0.0902547
0.0914657
0.0914657
0.0914657
0.103277
0.103277
0.103277
0.0915044
0.0915044
0.0915044
0.0939766
0.0939766
0.0939766
0.0951859
0.0951859
0.0951859
0.093917
0.093917
0.093917
0.0903214
0.0903214
0.0903214
0.0915237
0.0915237
0.0915237
0.120754
0.120754
0.120754
0.122527
0.122527
0.122527
0.11297
0.11297
0.11297
0.114602
0.114602
0.114602
0.141754
0.141754
0.141754
0.131167
0.131167
0.131167
0.132277
0.132277
0.132277
0.135391
0.135391
0.135391
0.0846838
0.0846838
0.0846838
0.0868423
0.0868423
0.0868423
0.0879549
0.0879549
0.0879549
0.0868642
0.0868642
0.0868642
0.0785422
0.0785422
0.0785422
0.0805967
0.0805967
0.0805967
0.0815515
0.0815515
0.0815515
0.094637
0.094637
0.094637
0.0934002
0.0934002
0.0934002
0.0969754