<VTKFile type="UnstructuredGrid" version="1.0">
<UnstructuredGrid>
<Piece NumberOfPoints="8859" NumberOfCells="2953">
<Points>
<DataArray type="Float64" NumberOfComponents="3" format="ascii">
3.01 0.5 14.535
3.01 0.487476 14.5575
3.01 0.512524 14.5575
3.01 0.17352 13.6575
3.01 0.148445 13.6575
3.01 0.160827 13.6792
3.01 0.122979 13.7009
3.01 0.135644 13.6792
3.01 0.110383 13.6792
3.01 0.135644 13.6792
3.01 0.123433 13.6575
3.01 0.110383 13.6792
3.01 0.123433 13.6575
3.01 0.135644 13.6792
3.01 0.148445 13.6575
3.01 0.135644 13.6792
3.01 0.160827 13.6792
3.01 0.148445 13.6575
3.01 0.17352 13.6575
3.01 0.185985 13.6792
3.01 0.198629 13.6575
3.01 0.185985 13.6792
3.01 0.17352 13.6575
3.01 0.160827 13.6792
3.01 0.0732297 13.7007
3.01 0.0848754 13.6791
3.01 0.0586606 13.6788
3.01 0.05 14.4903
3.01 0.058509 14.4676
3.01 0.05 14.4451
3.01 0.324276 13.6575
3.01 0.336827 13.6792
3.01 0.349395 13.6575
3.01 0.148138 13.7009
3.01 0.160827 13.6792
3.01 0.135644 13.6792
3.01 0.122979 13.7009
3.01 0.148138 13.7009
3.01 0.135644 13.6792
3.01 0.160827 13.6792
3.01 0.173316 13.7009
3.01 0.185985 13.6792
3.01 0.185806 13.7225
3.01 0.173316 13.7009
3.01 0.160572 13.7226
3.01 0.173316 13.7009
3.01 0.160827 13.6792
3.01 0.148138 13.7009
3.01 0.160572 13.7226
3.01 0.173316 13.7009
3.01 0.148138 13.7009
3.01 0.211137 13.6792
3.01 0.198629 13.6575
3.01 0.185985 13.6792
3.01 0.0979162 13.7008
3.01 0.122979 13.7009
3.01 0.110383 13.6792
3.01 0.122979 13.7009
3.01 0.0979162 13.7008
3.01 0.109875 13.7225
3.01 0.0732297 13.7007
3.01 0.0979162 13.7008
3.01 0.0848754 13.6791
3.01 0.0979162 13.7008
3.01 0.110383 13.6792
3.01 0.0848754 13.6791
3.01 0.0975729 13.744
3.01 0.122678 13.7441
3.01 0.109875 13.7225
3.01 0.0841718 13.7223
3.01 0.0732297 13.7007
3.01 0.0577122 13.722
3.01 0.0729308 13.7439
3.01 0.0841718 13.7223
3.01 0.0577122 13.722
3.01 0.0732297 13.7007
3.01 0.0841718 13.7223
3.01 0.0979162 13.7008
3.01 0.0841718 13.7223
3.01 0.109875 13.7225
3.01 0.0979162 13.7008
3.01 0.0975729 13.744
3.01 0.0841718 13.7223
3.01 0.0729308 13.7439
3.01 0.0841718 13.7223
3.01 0.0975729 13.744
3.01 0.109875 13.7225
3.01 0.073948 13.6575
3.01 0.05 13.6575
3.01 0.0586606 13.6788
3.01 0.073948 13.6575
3.01 0.0586606 13.6788
3.01 0.0848754 13.6791
3.01 0.05 14.5333
3.01 0.0603641 14.512
3.01 0.05 14.4903
3.01 0.0603641 14.512
3.01 0.05 14.5333
3.01 0.0753197 14.534
3.01 0.0709395 14.5575
3.01 0.05 14.5333
3.01 0.05 14.5575
3.01 0.05 14.5333
3.01 0.0709395 14.5575
3.01 0.0753197 14.534
3.01 0.0579641 14.2446
3.01 0.05 14.2226
3.01 0.05 14.2667
3.01 0.0841948 14.1568
3.01 0.109814 14.1568
3.01 0.097638 14.1349
3.01 0.0841948 14.1568
3.01 0.0578646 14.1568
3.01 0.0730539 14.1787
3.01 0.0580261 14.2888
3.01 0.05 14.2667
3.01 0.05 14.3109
3.01 0.942292 13.8524
3.01 0.95 13.874
3.01 0.95 13.8307
3.01 0.95 13.7873
3.01 0.942332 13.809
3.01 0.95 13.8307
3.01 0.73872 14.0695
3.01 0.75132 14.0478
3.01 0.726137 14.0478
3.01 0.751305 14.0913
3.01 0.73872 14.0695
3.01 0.726124 14.0913
3.01 0.713546 14.0695
3.01 0.73872 14.0695
3.01 0.726137 14.0478
3.01 0.73872 14.0695
3.01 0.713546 14.0695
3.01 0.726124 14.0913
3.01 0.814318 14.1131
3.01 0.801709 14.0913
3.01 0.789096 14.1131
3.01 0.7765 14.0913
3.01 0.801709 14.0913
3.01 0.789115 14.0695
3.01 0.801709 14.0913
3.01 0.7765 14.0913
3.01 0.789096 14.1131
3.01 0.7765 14.0913
3.01 0.763892 14.1131
3.01 0.789096 14.1131
3.01 0.763892 14.1131
3.01 0.7765 14.0913
3.01 0.751305 14.0913
3.01 0.95 14.5575
3.01 0.95 14.5333
3.01 0.929061 14.5575
3.01 0.95 14.3554
3.01 0.941913 14.3332
3.01 0.926844 14.3554
3.01 0.941913 14.3332
3.01 0.95 14.3554
3.01 0.95 14.3109
3.01 0.926866 14.3109
3.01 0.941913 14.3332
3.01 0.95 14.3109
3.01 0.941974 14.2888
3.01 0.926866 14.3109
3.01 0.95 14.3109
3.01 0.95 14.2667
3.01 0.941974 14.2888
3.01 0.95 14.3109
3.01 0.941974 14.2888
3.01 0.95 14.2667
3.01 0.926895 14.2667
3.01 0.6127 14.5575
3.01 0.637734 14.5575
3.01 0.625238 14.535
3.01 0.662757 14.5575
3.01 0.650275 14.535
3.01 0.637734 14.5575
3.01 0.650275 14.535
3.01 0.625238 14.535
3.01 0.637734 14.5575
3.01 0.600415 14.0914
3.01 0.575304 14.0914
3.01 0.587856 14.1132
3.01 0.575304 14.0914
3.01 0.562749 14.1132
3.01 0.587856 14.1132
3.01 0.336827 13.6792
3.01 0.361946 13.6792
3.01 0.349395 13.6575
3.01 0.223755 13.6575
3.01 0.198629 13.6575
3.01 0.211137 13.6792
3.01 0.185985 13.6792
3.01 0.198492 13.7009
3.01 0.211137 13.6792
3.01 0.185806 13.7225
3.01 0.198492 13.7009
3.01 0.173316 13.7009
3.01 0.198492 13.7009
3.01 0.185985 13.6792
3.01 0.173316 13.7009
3.01 0.0576202 13.7655
3.01 0.05 13.7437
3.01 0.05 13.7873
3.01 0.05 13.7437
3.01 0.0576202 13.7655
3.01 0.0729308 13.7439
3.01 0.05 13.7437
3.01 0.0729308 13.7439
3.01 0.0577122 13.722
3.01 0.135283 13.7225
3.01 0.122979 13.7009
3.01 0.109875 13.7225
3.01 0.135283 13.7225
3.01 0.109875 13.7225
3.01 0.122678 13.7441
3.01 0.122979 13.7009
3.01 0.135283 13.7225
3.01 0.148138 13.7009
3.01 0.135283 13.7225
3.01 0.160572 13.7226
3.01 0.148138 13.7009
3.01 0.123433 13.6575
3.01 0.0985513 13.6575
3.01 0.110383 13.6792
3.01 0.110383 13.6792
3.01 0.0985513 13.6575
3.01 0.0848754 13.6791
3.01 0.0848754 13.6791
3.01 0.0985513 13.6575
3.01 0.073948 13.6575
3.01 0.0603641 14.512
3.01 0.0739464 14.4895
3.01 0.05 14.4903
3.01 0.0739464 14.4895
3.01 0.058509 14.4676
3.01 0.05 14.4903
3.01 0.058509 14.4676
3.01 0.0739464 14.4895
3.01 0.0849548 14.4671
3.01 0.058509 14.4676
3.01 0.0732725 14.4449
3.01 0.05 14.4451
3.01 0.0732725 14.4449
3.01 0.058509 14.4676
3.01 0.0849548 14.4671
3.01 0.5 14.535
3.01 0.47495 14.535
3.01 0.487476 14.5575
3.01 0.097663 14.1787
3.01 0.109814 14.1568
3.01 0.0841948 14.1568
3.01 0.0730539 14.1787
3.01 0.097663 14.1787
3.01 0.0841948 14.1568
3.01 0.0578646 14.1568
3.01 0.05 14.1787
3.01 0.0730539 14.1787
3.01 0.05 14.1787
3.01 0.0578646 14.1568
3.01 0.05 14.1349
3.01 0.05 14.3554
3.01 0.0580869 14.3332
3.01 0.05 14.3109
3.01 0.05 14.3109
3.01 0.073134 14.3109
3.01 0.0580261 14.2888
3.01 0.073134 14.3109
3.01 0.05 14.3109
3.01 0.0580869 14.3332
3.01 0.942268 13.8957
3.01 0.95 13.9174
3.01 0.95 13.874
3.01 0.942292 13.8524
3.01 0.927025 13.874
3.01 0.95 13.874
3.01 0.927025 13.874
3.01 0.915919 13.8957
3.01 0.942268 13.8957
3.01 0.95 13.874
3.01 0.927025 13.874
3.01 0.942268 13.8957
3.01 0.927013 13.9174
3.01 0.95 13.9174
3.01 0.942268 13.8957
3.01 0.915919 13.8957
3.01 0.927013 13.9174
3.01 0.942268 13.8957
3.01 0.801738 14.0043
3.01 0.826957 14.0042
3.01 0.814364 13.9825
3.01 0.852174 14.0042
3.01 0.839609 13.9825
3.01 0.826957 14.0042
3.01 0.839609 13.9825
3.01 0.814364 13.9825
3.01 0.826957 14.0042
3.01 0.776516 14.0477
3.01 0.763923 14.026
3.01 0.75132 14.0478
3.01 0.776516 14.0477
3.01 0.789115 14.0695
3.01 0.801725 14.0477
3.01 0.738704 14.1131
3.01 0.763892 14.1131
3.01 0.751305 14.0913
3.01 0.726124 14.0913
3.01 0.738704 14.1131
3.01 0.751305 14.0913
3.01 0.915617 14.3331
3.01 0.926866 14.3109
3.01 0.902228 14.3109
3.01 0.926866 14.3109
3.01 0.915617 14.3331
3.01 0.941913 14.3332
3.01 0.915617 14.3331
3.01 0.926844 14.3554
3.01 0.941913 14.3332
3.01 0.915617 14.3331
3.01 0.902193 14.3554
3.01 0.926844 14.3554
3.01 0.926866 14.3109
3.01 0.915668 14.2888
3.01 0.902228 14.3109
3.01 0.902267 14.2667
3.01 0.915668 14.2888
3.01 0.926895 14.2667
3.01 0.915668 14.2888
3.01 0.926866 14.3109
3.01 0.941974 14.2888
3.01 0.926895 14.2667
3.01 0.915668 14.2888
3.01 0.941974 14.2888
3.01 0.902267 14.2667
3.01 0.890059 14.2888
3.01 0.915668 14.2888
3.01 0.890059 14.2888
3.01 0.902228 14.3109
3.01 0.915668 14.2888
3.01 0.826927 14.0913
3.01 0.801709 14.0913
3.01 0.814318 14.1131
3.01 0.864816 14.1568
3.01 0.890186 14.1568
3.01 0.877308 14.1349
3.01 0.877308 14.1349
3.01 0.852122 14.1349
3.01 0.864816 14.1568
3.01 0.890186 14.1568
3.01 0.902362 14.1349
3.01 0.877308 14.1349
3.01 0.902362 14.1349
3.01 0.890186 14.1568
3.01 0.915805 14.1568
3.01 0.902362 14.1349
3.01 0.915805 14.1568
3.01 0.926964 14.1349
3.01 0.915835 14.1131
3.01 0.902362 14.1349
3.01 0.926964 14.1349
3.01 0.942171 14.1131
3.01 0.915835 14.1131
3.01 0.926964 14.1349
3.01 0.915835 14.1131
3.01 0.942171 14.1131
3.01 0.926978 14.0913
3.01 0.942171 14.1131
3.01 0.95 14.0913
3.01 0.926978 14.0913
3.01 0.87737 13.9608
3.01 0.902417 13.9608
3.01 0.890277 13.9391
3.01 0.852144 14.0913
3.01 0.864842 14.1131
3.01 0.877329 14.0913
3.01 0.877308 14.1349
3.01 0.864842 14.1131
3.01 0.852122 14.1349
3.01 0.902396 14.0477
3.01 0.890234 14.0695
3.01 0.915858 14.0695
3.01 0.926997 14.0042
3.01 0.95 14.0042
3.01 0.942237 13.9825
3.01 0.91589 13.9825
3.01 0.926997 14.0042
3.01 0.942237 13.9825
3.01 0.942199 14.0695
3.01 0.95 14.0913
3.01 0.95 14.0477
3.01 0.95 14.0913
3.01 0.942199 14.0695
3.01 0.926978 14.0913
3.01 0.942199 14.0695
3.01 0.915858 14.0695
3.01 0.926978 14.0913
3.01 0.95 14.0042
3.01 0.942221 14.026
3.01 0.95 14.0477
3.01 0.942221 14.026
3.01 0.95 14.0042
3.01 0.926997 14.0042
3.01 0.915876 14.026
3.01 0.942221 14.026
3.01 0.926997 14.0042
3.01 0.926989 14.0477
3.01 0.902396 14.0477
3.01 0.915858 14.0695
3.01 0.902396 14.0477
3.01 0.926989 14.0477
3.01 0.915876 14.026
3.01 0.926989 14.0477
3.01 0.915858 14.0695
3.01 0.942199 14.0695
3.01 0.95 14.0477
3.01 0.926989 14.0477
3.01 0.942199 14.0695
3.01 0.915876 14.026
3.01 0.926989 14.0477
3.01 0.942221 14.026
3.01 0.926989 14.0477
3.01 0.95 14.0477
3.01 0.942221 14.026
3.01 0.91353 14.5119
3.01 0.939636 14.512
3.01 0.926054 14.4895
3.01 0.926728 14.4449
3.01 0.941491 14.4676
3.01 0.95 14.4451
3.01 0.926728 14.4449
3.01 0.95 14.4451
3.01 0.941822 14.4225
3.01 0.95 14.4903
3.01 0.939636 14.512
3.01 0.95 14.5333
3.01 0.95 14.4903
3.01 0.941491 14.4676
3.01 0.926054 14.4895
3.01 0.939636 14.512
3.01 0.95 14.4903
3.01 0.926054 14.4895
3.01 0.941491 14.4676
3.01 0.95 14.4903
3.01 0.95 14.4451
3.01 0.941869 14.3777
3.01 0.95 14.3554
3.01 0.926844 14.3554
3.01 0.762942 14.5123
3.01 0.737933 14.5123
3.01 0.75028 14.5349
3.01 0.71291 14.5124
3.01 0.737933 14.5123
3.01 0.725533 14.4899
3.01 0.71291 14.5124
3.01 0.725313 14.5349
3.01 0.737933 14.5123
3.01 0.725313 14.5349
[...]
<PointData Scalars="View Factor" >
<DataArray type="Float64" Name="View Factor" NumberOfComponents="1" format="ascii">
2.464e-06
2.464e-06
2.464e-06
2.75461e-06
2.75461e-06
2.75461e-06
2.74707e-06
2.74707e-06
2.74707e-06
2.75213e-06
2.75213e-06
2.75213e-06
2.75465e-06
2.75465e-06
2.75465e-06
2.75209e-06
2.75209e-06
2.75209e-06
2.75456e-06
2.75456e-06
2.75456e-06
2.75205e-06
2.75205e-06
2.75205e-06
2.74721e-06
2.74721e-06
2.74721e-06
2.49045e-06
2.49045e-06
2.49045e-06
2.75413e-06
2.75413e-06
2.75413e-06
2.74703e-06
2.74703e-06
2.74703e-06
2.74453e-06
2.74453e-06
2.74453e-06
2.74699e-06
2.74699e-06
2.74699e-06
2.73693e-06
2.73693e-06
2.73693e-06
2.74449e-06
2.74449e-06
2.74449e-06
2.73946e-06
2.73946e-06
2.73946e-06
2.752e-06
2.752e-06
2.752e-06
2.74457e-06
2.74457e-06
2.74457e-06
2.73955e-06
2.73955e-06
2.73955e-06
2.74464e-06
2.74464e-06
2.74464e-06
2.74712e-06
2.74712e-06
2.74712e-06
2.72954e-06
2.72954e-06
2.72954e-06
2.73717e-06
2.73717e-06
2.73717e-06
2.73217e-06
2.73217e-06
2.73217e-06
2.73962e-06
2.73962e-06
2.73962e-06
2.73708e-06
2.73708e-06
2.73708e-06
2.72962e-06
2.72962e-06
2.72962e-06
2.73208e-06
2.73208e-06
2.73208e-06
2.75478e-06
2.75478e-06
2.75478e-06
2.75224e-06
2.75224e-06
2.75224e-06
2.47684e-06
2.47684e-06
2.47684e-06
2.47237e-06
2.47237e-06
2.47237e-06
2.46534e-06
2.46534e-06
2.46534e-06
2.46772e-06
2.46772e-06
2.46772e-06
2.56055e-06
2.56055e-06
2.56055e-06
2.59117e-06
2.59117e-06
2.59117e-06
2.58646e-06
2.58646e-06
2.58646e-06
2.54647e-06
2.54647e-06
2.54647e-06
2.68517e-06
2.68517e-06
2.68517e-06
2.69994e-06
2.69994e-06
2.69994e-06
2.61931e-06
2.61931e-06
2.61931e-06
2.60978e-06
2.60978e-06
2.60978e-06
2.61702e-06
2.61702e-06
2.61702e-06
2.61225e-06
2.61225e-06
2.61225e-06
2.60216e-06
2.60216e-06
2.60216e-06
2.60939e-06
2.60939e-06
2.60939e-06
2.60464e-06
2.60464e-06
2.60464e-06
2.60236e-06
2.60236e-06
2.60236e-06
2.60483e-06
2.60483e-06
2.60483e-06
2.46118e-06
2.46118e-06
2.46118e-06
2.52347e-06
2.52347e-06
2.52347e-06
2.52806e-06
2.52806e-06
2.52806e-06
2.5328e-06
2.5328e-06
2.5328e-06
2.53746e-06
2.53746e-06
2.53746e-06
2.54206e-06
2.54206e-06
2.54206e-06
2.54681e-06
2.54681e-06
2.54681e-06
2.46334e-06
2.46334e-06
2.46334e-06
2.4632e-06
2.4632e-06
2.4632e-06
2.46556e-06
2.46556e-06
2.46556e-06
2.60603e-06
2.60603e-06
2.60603e-06
2.60373e-06
2.60373e-06
2.60373e-06
2.75155e-06
2.75155e-06
2.75155e-06
2.75451e-06
2.75451e-06
2.75451e-06
2.74695e-06
2.74695e-06
2.74695e-06
2.73941e-06
2.73941e-06
2.73941e-06
2.74445e-06
2.74445e-06
2.74445e-06
2.7197e-06
2.7197e-06
2.7197e-06
2.72469e-06
2.72469e-06
2.72469e-06
2.72971e-06
2.72971e-06
2.72971e-06
2.73702e-06
2.73702e-06
2.73702e-06
2.73201e-06
2.73201e-06
2.73201e-06
2.7395e-06
2.7395e-06
2.7395e-06
2.73697e-06
2.73697e-06
2.73697e-06
2.75468e-06
2.75468e-06
2.75468e-06
2.75217e-06
2.75217e-06
2.75217e-06
2.75472e-06
2.75472e-06
2.75472e-06
2.48132e-06
2.48132e-06
2.48132e-06
2.48588e-06
2.48588e-06
2.48588e-06
2.48825e-06
2.48825e-06
2.48825e-06
2.49512e-06
2.49512e-06
2.49512e-06
2.49284e-06
2.49284e-06
2.49284e-06
2.46635e-06
2.46635e-06
2.46635e-06
2.58644e-06
2.58644e-06
2.58644e-06
2.58409e-06
2.58409e-06
2.58409e-06
2.5841e-06
2.5841e-06
2.5841e-06
2.58883e-06
2.58883e-06
2.58883e-06
2.53243e-06
2.53243e-06
2.53243e-06
2.54178e-06
2.54178e-06
2.54178e-06
2.5371e-06
2.5371e-06
2.5371e-06
2.67051e-06
2.67051e-06
2.67051e-06
2.68035e-06
2.68035e-06
2.68035e-06
2.67313e-06
2.67313e-06
2.67313e-06
2.67546e-06
2.67546e-06
2.67546e-06
2.66572e-06
2.66572e-06
2.66572e-06
2.66826e-06
2.66826e-06
2.66826e-06
2.63787e-06
2.63787e-06
2.63787e-06
2.63765e-06
2.63765e-06
2.63765e-06
2.64016e-06
2.64016e-06
2.64016e-06
2.62389e-06
2.62389e-06
2.62389e-06
2.61892e-06
2.61892e-06
2.61892e-06
2.60255e-06
2.60255e-06
2.60255e-06
2.60502e-06
2.60502e-06
2.60502e-06
2.53302e-06
2.53302e-06
2.53302e-06
2.53057e-06
2.53057e-06
2.53057e-06
2.52591e-06
2.52591e-06
2.52591e-06
2.5237e-06
2.5237e-06
2.5237e-06
2.53769e-06
2.53769e-06
2.53769e-06
2.54704e-06
2.54704e-06
2.54704e-06
2.5399e-06
2.5399e-06
2.5399e-06
2.54458e-06
2.54458e-06
2.54458e-06
2.54481e-06
2.54481e-06
2.54481e-06
2.54014e-06
2.54014e-06
2.54014e-06
2.60443e-06
2.60443e-06
2.60443e-06
2.58732e-06
2.58732e-06
2.58732e-06
2.58979e-06
2.58979e-06
2.58979e-06
2.58957e-06
2.58957e-06
2.58957e-06
2.58709e-06
2.58709e-06
2.58709e-06
2.58934e-06
2.58934e-06
2.58934e-06
2.59407e-06
2.59407e-06
2.59407e-06
2.59632e-06
2.59632e-06
2.59632e-06
2.60106e-06
2.60106e-06
2.60106e-06
2.60332e-06
2.60332e-06
2.60332e-06
2.65166e-06
2.65166e-06
2.65166e-06
2.60401e-06
2.60401e-06
2.60401e-06
2.59453e-06
2.59453e-06
2.59453e-06
2.61555e-06
2.61555e-06
2.61555e-06
2.63673e-06
2.63673e-06
2.63673e-06
2.63924e-06
2.63924e-06
2.63924e-06
2.61275e-06
2.61275e-06
2.61275e-06
2.60807e-06
2.60807e-06
2.60807e-06
2.61055e-06
2.61055e-06
2.61055e-06
2.62707e-06
2.62707e-06
2.62707e-06
2.63193e-06
2.63193e-06
2.63193e-06
2.62965e-06
2.62965e-06
2.62965e-06
2.61782e-06
2.61782e-06
2.61782e-06
2.6226e-06
2.6226e-06
2.6226e-06
2.61532e-06
2.61532e-06
2.61532e-06
2.61759e-06
2.61759e-06
2.61759e-06
2.62486e-06
2.62486e-06
2.62486e-06
2.62236e-06
2.62236e-06
2.62236e-06
2.47506e-06
2.47506e-06
2.47506e-06
2.49092e-06
2.49092e-06
2.49092e-06
2.49556e-06
2.49556e-06
2.49556e-06
2.47262e-06
2.47262e-06
2.47262e-06
2.4817e-06
2.4817e-06
2.4817e-06
2.47716e-06
2.47716e-06
2.47716e-06
2.48618e-06
2.48618e-06
2.48618e-06
2.51881e-06
2.51881e-06
2.51881e-06
2.47174e-06
2.47174e-06
2.47174e-06
2.4765e-06
2.4765e-06
2.4765e-06
2.4719e-06
2.4719e-06
2.4719e-06
2.46952e-06
2.46952e-06
2.46952e-06
2.46272e-06
2.46272e-06
2.46272e-06
2.46493e-06
2.46493e-06
2.46493e-06
2.46255e-06
2.46255e-06
2.46255e-06
2.49303e-06
2.49303e-06
2.49303e-06
2.48572e-06
2.48572e-06
2.48572e-06
2.47888e-06
2.47888e-06
2.47888e-06
2.48349e-06
2.48349e-06
2.48349e-06
2.47919e-06
2.47919e-06
2.47919e-06
2.4838e-06
2.4838e-06
2.4838e-06
2.47029e-06
2.47029e-06
2.47029e-06
2.4657e-06
2.4657e-06
2.4657e-06
2.46349e-06
2.46349e-06
2.46349e-06
2.6139e-06
2.6139e-06
2.6139e-06
2.60358e-06
2.60358e-06
2.60358e-06
2.58964e-06
2.58964e-06
2.58964e-06
2.58477e-06
2.58477e-06
2.58477e-06
2.5895e-06
2.5895e-06
2.5895e-06
2.59194e-06
2.59194e-06
2.59194e-06
2.59898e-06
2.59898e-06
2.59898e-06
2.59668e-06
2.59668e-06
2.59668e-06
2.58491e-06
2.58491e-06
2.58491e-06
2.58247e-06
2.58247e-06
2.58247e-06
2.55663e-06
2.55663e-06
2.55663e-06
2.58887e-06
2.58887e-06
2.58887e-06
2.59132e-06
2.59132e-06
2.59132e-06
2.59742e-06
2.59742e-06
2.59742e-06
2.58795e-06
2.58795e-06
2.58795e-06
2.7543e-06
2.7543e-06
2.7543e-06
2.75438e-06
2.75438e-06
2.75438e-06
2.75181e-06
2.75181e-06
2.75181e-06
2.74676e-06
2.74676e-06
2.74676e-06
2.74951e-06
2.74951e-06
2.74951e-06
2.63327e-06
2.63327e-06
2.63327e-06
2.6237e-06
2.6237e-06
2.6237e-06
2.63098e-06
2.63098e-06
2.63098e-06
2.62619e-06
2.62619e-06
2.62619e-06
2.62638e-06
2.62638e-06
2.62638e-06
2.62409e-06
2.62409e-06
2.62409e-06
2.7442e-06
2.7442e-06
2.7442e-06
2.75403e-06
2.75403e-06
2.75403e-06
2.7525e-06
2.7525e-06
2.7525e-06
2.67713e-06
2.67713e-06
2.67713e-06
2.67962e-06
2.67962e-06
2.67962e-06
2.73477e-06
2.73477e-06
2.73477e-06
2.74981e-06
2.74981e-06
2.74981e-06
2.74478e-06
2.74478e-06
2.74478e-06
2.73976e-06
2.73976e-06
2.73976e-06
2.48599e-06
2.48599e-06
2.48599e-06
2.46412e-06
2.46412e-06
2.46412e-06
2.55585e-06
2.55585e-06
2.55585e-06
2.55116e-06
2.55116e-06
2.55116e-06
2.57936e-06
2.57936e-06
2.57936e-06
2.71439e-06
2.71439e-06
2.71439e-06
2.55581e-06
2.55581e-06
2.55581e-06
2.55111e-06
2.55111e-06
2.55111e-06
2.59352e-06
2.59352e-06
2.59352e-06
2.59114e-06
2.59114e-06
2.59114e-06
2.59829e-06
2.59829e-06
2.59829e-06
2.59355e-06
2.59355e-06
2.59355e-06
2.59357e-06
2.59357e-06
2.59357e-06
2.59119e-06
2.59119e-06
2.59119e-06
2.60306e-06
2.60306e-06
2.60306e-06
2.59831e-06
2.59831e-06
2.59831e-06
2.60067e-06
2.60067e-06
2.60067e-06
2.60542e-06
2.60542e-06
2.60542e-06
2.60781e-06
2.60781e-06
2.60781e-06
2.60876e-06
2.60876e-06
2.60876e-06
2.61102e-06
2.61102e-06
2.61102e-06
2.66596e-06
2.66596e-06
2.66596e-06
2.63307e-06
2.63307e-06
2.63307e-06
2.63077e-06
2.63077e-06
2.63077e-06
2.62598e-06
2.62598e-06
2.62598e-06
2.63995e-06
2.63995e-06
2.63995e-06
2.63743e-06
2.63743e-06
2.63743e-06
2.65419e-06
2.65419e-06
2.65419e-06
2.68291e-06
2.68291e-06
2.68291e-06
2.66748e-06
2.66748e-06
2.66748e-06
2.61912e-06
2.61912e-06
2.61912e-06
2.60959e-06
2.60959e-06
2.60959e-06
2.61187e-06
2.61187e-06
2.61187e-06
2.61663e-06
2.61663e-06
2.61663e-06
2.61683e-06
2.61683e-06
2.61683e-06
2.61206e-06
2.61206e-06
2.61206e-06
2.59781e-06
2.59781e-06
2.59781e-06
2.59553e-06
2.59553e-06
2.59553e-06
2.60274e-06
2.60274e-06
2.60274e-06
2.59799e-06
2.59799e-06
2.59799e-06
2.58397e-06
2.58397e-06
2.58397e-06
2.58152e-06
2.58152e-06
2.58152e-06
2.59606e-06
2.59606e-06
2.59606e-06
2.58238e-06
2.58238e-06
2.58238e-06
2.54726e-06
2.54726e-06
2.54726e-06
2.55216e-06
2.55216e-06
2.55216e-06
2.55194e-06
2.55194e-06
2.55194e-06
2.55439e-06
2.55439e-06
2.55439e-06
2.47857e-06
2.47857e-06
2.47857e-06
2.47634e-06
2.47634e-06
2.47634e-06
2.47873e-06
2.47873e-06
2.47873e-06
2.48334e-06
2.48334e-06
2.48334e-06
2.50407e-06
2.50407e-06
2.50407e-06
2.48969e-06
2.48969e-06
2.48969e-06
2.48508e-06
2.48508e-06
2.48508e-06
2.51041e-06
2.51041e-06
2.51041e-06
2.50596e-06
2.50596e-06
2.50596e-06
2.51262e-06
2.51262e-06
2.51262e-06
2.62349e-06
2.62349e-06
2.62349e-06
2.60196e-06
2.60196e-06
2.60196e-06
2.60422e-06
2.60422e-06
2.60422e-06
2.60174e-06
2.60174e-06
2.60174e-06
2.597e-06
2.597e-06
2.597e-06
2.58282e-06
2.58282e-06
2.58282e-06
2.58754e-06
2.58754e-06
2.58754e-06
2.60355e-06
2.60355e-06
2.60355e-06
2.60853e-06
2.60853e-06
2.60853e-06
2.6083e-06
2.6083e-06
2.6083e-06
2.61079e-06
2.61079e-06
2.61079e-06
2.59384e-06
2.59384e-06
2.59384e-06
2.5985e-06
2.5985e-06
2.5985e-06
2.6251e-06
2.6251e-06
2.6251e-06
2.63263e-06
2.63263e-06
2.63263e-06
2.63012e-06
2.63012e-06
2.63012e-06
2.6443e-06
2.6443e-06
2.6443e-06
2.63972e-06
2.63972e-06
2.63972e-06
2.64683e-06
2.64683e-06
2.64683e-06
2.64453e-06
2.64453e-06
2.64453e-06
2.65395e-06
2.65395e-06
2.65395e-06
2.65879e-06
2.65879e-06
2.65879e-06
2.6611e-06
2.6611e-06
2.6611e-06
2.47108e-06
2.47108e-06
2.47108e-06
2.47586e-06
2.47586e-06
2.47586e-06
2.46824e-06
2.46824e-06
2.46824e-06
2.47053e-06
2.47053e-06
2.47053e-06
2.46364e-06
2.46364e-06
2.46364e-06
2.47748e-06
2.47748e-06
2.47748e-06
2.49123e-06
2.49123e-06
2.49123e-06
2.48206e-06
2.48206e-06
2.48206e-06
2.48418e-06
2.48418e-06
2.48418e-06
2.48876e-06
2.48876e-06
2.48876e-06
2.49892e-06
2.49892e-06
2.49892e-06
2.50577e-06
2.50577e-06
2.50577e-06
2.50355e-06
2.50355e-06
2.50355e-06
2.50336e-06
2.50336e-06
2.50336e-06
2.51904e-06
2.51904e-06
2.51904e-06
2.51659e-06
2.51659e-06
2.51659e-06
2.49801e-06
2.49801e-06
2.49801e-06
2.49584e-06
2.49584e-06
2.49584e-06
2.47681e-06
2.47681e-06
2.47681e-06
2.47666e-06
2.47666e-06
2.47666e-06
2.47904e-06
2.47904e-06
2.47904e-06
2.46288e-06
2.46288e-06
2.46288e-06
2.46509e-06
2.46509e-06
2.46509e-06
2.46968e-06
2.46968e-06
2.46968e-06
2.47206e-06
2.47206e-06
2.47206e-06
2.46424e-06
2.46424e-06
2.46424e-06
2.47125e-06
2.47125e-06
2.47125e-06
2.46886e-06
2.46886e-06
2.46886e-06
2.46202e-06
2.46202e-06
2.46202e-06
2.46936e-06
2.46936e-06
2.46936e-06
2.46476e-06
2.46476e-06
2.46476e-06
2.49034e-06
2.49034e-06
2.49034e-06
2.49273e-06
2.49273e-06
2.49273e-06
2.5254e-06
2.5254e-06
2.5254e-06
2.52765e-06
2.52765e-06
2.52765e-06
2.51335e-06
2.51335e-06
2.51335e-06
2.49736e-06
2.49736e-06
2.49736e-06
2.49959e-06
2.49959e-06
2.49959e-06
2.49766e-06
2.49766e-06
2.49766e-06
2.51111e-06
2.51111e-06
2.51111e-06
2.50647e-06
2.50647e-06
2.50647e-06
2.50423e-06
2.50423e-06
2.50423e-06
2.50663e-06
2.50663e-06
2.50663e-06
2.48588e-06
2.48588e-06
2.48588e-06
2.49065e-06
2.49065e-06
2.49065e-06
2.48603e-06
2.48603e-06
2.48603e-06
2.48365e-06
2.48365e-06
2.48365e-06
2.49288e-06
2.49288e-06
2.49288e-06
2.4905e-06
2.4905e-06
2.4905e-06
2.47696e-06
2.47696e-06
2.47696e-06
2.47236e-06
2.47236e-06
2.47236e-06
2.47014e-06
2.47014e-06
2.47014e-06
2.47251e-06
2.47251e-06
2.47251e-06
2.48618e-06
2.48618e-06
2.48618e-06
2.4908e-06
2.4908e-06
2.4908e-06
2.49318e-06
2.49318e-06
2.49318e-06
2.53534e-06
2.53534e-06
2.53534e-06
2.54002e-06
2.54002e-06
2.54002e-06
2.62655e-06
2.62655e-06
2.62655e-06
2.60746e-06
2.60746e-06
2.60746e-06
2.62898e-06
2.62898e-06
2.62898e-06
2.62662e-06
2.62662e-06
2.62662e-06
2.60505e-06
2.60505e-06
2.60505e-06
2.61158e-06
2.61158e-06
2.61158e-06
2.61402e-06
2.61402e-06
2.61402e-06
2.59026e-06
2.59026e-06
2.59026e-06
2.59257e-06
2.59257e-06
2.59257e-06
2.5972e-06
2.5972e-06
2.5972e-06
2.58553e-06
2.58553e-06
2.58553e-06
2.58321e-06
2.58321e-06
2.58321e-06
2.57849e-06
2.57849e-06
2.57849e-06
2.57608e-06
2.57608e-06
2.57608e-06
2.60588e-06
2.60588e-06
2.60588e-06
2.59883e-06
2.59883e-06
2.59883e-06
2.59653e-06
2.59653e-06
2.59653e-06
2.59179e-06
2.59179e-06
2.59179e-06
2.58935e-06
2.58935e-06
2.58935e-06
2.56906e-06
2.56906e-06
2.56906e-06
2.57136e-06
2.57136e-06
2.57136e-06
2.58261e-06
2.58261e-06
2.58261e-06
2.57775e-06
2.57775e-06
2.57775e-06
2.59015e-06
2.59015e-06
2.59015e-06
2.59246e-06
2.59246e-06
2.59246e-06
2.56872e-06
2.56872e-06
2.56872e-06
2.57101e-06
2.57101e-06
2.57101e-06
2.58431e-06
2.58431e-06
2.58431e-06
2.58904e-06
2.58904e-06
2.58904e-06
2.58323e-06
2.58323e-06
2.58323e-06
2.54583e-06
2.54583e-06
2.54583e-06
2.75444e-06
2.75444e-06
2.75444e-06
2.75188e-06
2.75188e-06
2.75188e-06
2.75194e-06
2.75194e-06
2.75194e-06
2.70497e-06
2.70497e-06
2.70497e-06
2.71484e-06
2.71484e-06
2.71484e-06
2.70993e-06
2.70993e-06
2.70993e-06
2.74988e-06
2.74988e-06
2.74988e-06
2.7513e-06
2.7513e-06
2.7513e-06
2.75193e-06
2.75193e-06
2.75193e-06
2.63347e-06
2.63347e-06
2.63347e-06
2.63117e-06
2.63117e-06
2.63117e-06
2.63367e-06
2.63367e-06
2.63367e-06
2.63847e-06
2.63847e-06
2.63847e-06
2.62657e-06
2.62657e-06
2.62657e-06
2.63136e-06
2.63136e-06
2.63136e-06
2.75173e-06
2.75173e-06
2.75173e-06
2.74668e-06
2.74668e-06
2.74668e-06
2.75422e-06
2.75422e-06
2.75422e-06
2.75164e-06
2.75164e-06
2.75164e-06
2.7465e-06
2.7465e-06
2.7465e-06
2.74394e-06
2.74394e-06
2.74394e-06
2.73891e-06
2.73891e-06
2.73891e-06
2.7388e-06
2.7388e-06
2.7388e-06
2.73635e-06
2.73635e-06
2.73635e-06
2.72888e-06
2.72888e-06
2.72888e-06
2.73133e-06
2.73133e-06
2.73133e-06
2.7537e-06
2.7537e-06
2.7537e-06
2.75006e-06
2.75006e-06
2.75006e-06
2.67225e-06
2.67225e-06
2.67225e-06
2.66252e-06
2.66252e-06
2.66252e-06
2.74321e-06
2.74321e-06
2.74321e-06
2.74427e-06
2.74427e-06
2.74427e-06
2.73924e-06
2.73924e-06
2.73924e-06
2.74683e-06
2.74683e-06
2.74683e-06
2.51586e-06
2.51586e-06
2.51586e-06
2.5064e-06
2.5064e-06
2.5064e-06
2.49273e-06
2.49273e-06
2.49273e-06
2.4928e-06
2.4928e-06
2.4928e-06
2.49508e-06
2.49508e-06
2.49508e-06
2.50669e-06
2.50669e-06
2.50669e-06
2.49971e-06
2.49971e-06
2.49971e-06
2.50206e-06
2.50206e-06
2.50206e-06
2.49501e-06
2.49501e-06
2.49501e-06
2.4883e-06
2.4883e-06
2.4883e-06
2.49977e-06
2.49977e-06
2.49977e-06
2.50442e-06
2.50442e-06
2.50442e-06
2.46646e-06
2.46646e-06
2.46646e-06
2.47799e-06
2.47799e-06
2.47799e-06
2.47339e-06
2.47339e-06
2.47339e-06
2.47104e-06
2.47104e-06
2.47104e-06
2.48721e-06
2.48721e-06
2.48721e-06
2.4782e-06
2.4782e-06
2.4782e-06
2.4736e-06
2.4736e-06
2.4736e-06
2.55817e-06
2.55817e-06
2.55817e-06
2.55583e-06
2.55583e-06
2.55583e-06
2.55819e-06
2.55819e-06
2.55819e-06
2.54412e-06
2.54412e-06
2.54412e-06
2.5488e-06
2.5488e-06
2.5488e-06
2.54177e-06
2.54177e-06
2.54177e-06
2.5441e-06
2.5441e-06
2.5441e-06
2.55114e-06
2.55114e-06
2.55114e-06
2.54878e-06
2.54878e-06
2.54878e-06
2.57699e-06
2.57699e-06
2.57699e-06
2.57225e-06
2.57225e-06
2.57225e-06
2.57467e-06
2.57467e-06
2.57467e-06
2.57938e-06
2.57938e-06
2.57938e-06
2.57701e-06
2.57701e-06
2.57701e-06
2.7147e-06
2.7147e-06
2.7147e-06
2.67759e-06
2.67759e-06
2.67759e-06
2.68738e-06
2.68738e-06
2.68738e-06
2.66268e-06
2.66268e-06
2.66268e-06
2.65783e-06
2.65783e-06
2.65783e-06
2.66065e-06
2.66065e-06
2.66065e-06
2.64613e-06
2.64613e-06
2.64613e-06
2.64131e-06
2.64131e-06
2.64131e-06
2.67525e-06
2.67525e-06
2.67525e-06
2.68012e-06
2.68012e-06
2.68012e-06
2.68502e-06
2.68502e-06
2.68502e-06
2.68014e-06
2.68014e-06
2.68014e-06
2.67768e-06
2.67768e-06
2.67768e-06
2.68005e-06
2.68005e-06
2.68005e-06
2.68495e-06
2.68495e-06
2.68495e-06
2.69238e-06
2.69238e-06
2.69238e-06
2.68746e-06
2.68746e-06
2.68746e-06
2.68499e-06
2.68499e-06
2.68499e-06
2.68743e-06
2.68743e-06
2.68743e-06
2.70943e-06
2.70943e-06
2.70943e-06
2.54174e-06
2.54174e-06
2.54174e-06
2.53707e-06
2.53707e-06
2.53707e-06
2.58406e-06
2.58406e-06
2.58406e-06
2.58641e-06
2.58641e-06
2.58641e-06
2.57934e-06
2.57934e-06
2.57934e-06
2.57696e-06
2.57696e-06
2.57696e-06
2.59349e-06
2.59349e-06
2.59349e-06
2.6317e-06
2.6317e-06
2.6317e-06
2.63409e-06
2.63409e-06
2.63409e-06
2.6365e-06
2.6365e-06
2.6365e-06
2.63648e-06
2.63648e-06
2.63648e-06
2.63406e-06
2.63406e-06
2.63406e-06
2.60779e-06
2.60779e-06
2.60779e-06
2.61255e-06
2.61255e-06
2.61255e-06
2.6292e-06
2.6292e-06
2.6292e-06
2.59826e-06
2.59826e-06
2.59826e-06
2.60776e-06
2.60776e-06
2.60776e-06
2.60065e-06
2.60065e-06
2.60065e-06
2.6054e-06
2.6054e-06
2.6054e-06
2.67489e-06
2.67489e-06
2.67489e-06
2.67001e-06
2.67001e-06
2.67001e-06
2.64498e-06
2.64498e-06
2.64498e-06
2.66134e-06
2.66134e-06
2.66134e-06
2.65903e-06
2.65903e-06
2.65903e-06
2.64706e-06
2.64706e-06
2.64706e-06
2.65189e-06
2.65189e-06
2.65189e-06
2.64476e-06
2.64476e-06
2.64476e-06
2.64728e-06
2.64728e-06
2.64728e-06
2.6475e-06
2.6475e-06
2.6475e-06
2.65233e-06
2.65233e-06
2.65233e-06
2.6757e-06
2.6757e-06
2.6757e-06
2.68059e-06
2.68059e-06
2.68059e-06
2.59534e-06
2.59534e-06
2.59534e-06
2.59762e-06
2.59762e-06
2.59762e-06
2.59515e-06
2.59515e-06
2.59515e-06
2.59042e-06
2.59042e-06
2.59042e-06
2.58815e-06
2.58815e-06
2.58815e-06
2.59061e-06
2.59061e-06
2.59061e-06
2.59571e-06
2.59571e-06
2.59571e-06
2.59098e-06
2.59098e-06
2.59098e-06
2.59115e-06
2.59115e-06
2.59115e-06
2.5887e-06
2.5887e-06
2.5887e-06
2.6052e-06
2.6052e-06
2.6052e-06
2.61243e-06
2.61243e-06
2.61243e-06
2.60996e-06
2.60996e-06
2.60996e-06
2.58414e-06
2.58414e-06
2.58414e-06
2.5817e-06
2.5817e-06
2.5817e-06
2.58186e-06
2.58186e-06
2.58186e-06
2.55294e-06
2.55294e-06
2.55294e-06
2.54826e-06
2.54826e-06
2.54826e-06
2.57339e-06
2.57339e-06
2.57339e-06
2.57991e-06
2.57991e-06
2.57991e-06
2.5826e-06
2.5826e-06
2.5826e-06
2.58013e-06
2.58013e-06
2.58013e-06
2.58035e-06
2.58035e-06
2.58035e-06
2.57564e-06
2.57564e-06
2.57564e-06
2.55886e-06
2.55886e-06
2.55886e-06
2.55172e-06
2.55172e-06
2.55172e-06
2.55417e-06
2.55417e-06
2.55417e-06
2.53791e-06
2.53791e-06
2.53791e-06
2.52614e-06
2.52614e-06
2.52614e-06
2.5308e-06
2.5308e-06
2.5308e-06
2.53325e-06
2.53325e-06
2.53325e-06
2.53102e-06
2.53102e-06
2.53102e-06
2.51727e-06
2.51727e-06
2.51727e-06
2.48302e-06
2.48302e-06
2.48302e-06
2.47825e-06
2.47825e-06
2.47825e-06
2.48286e-06
2.48286e-06
2.48286e-06
2.48524e-06
2.48524e-06
2.48524e-06
2.48541e-06
2.48541e-06
2.48541e-06
2.48557e-06
2.48557e-06
2.48557e-06
2.48318e-06
2.48318e-06
2.48318e-06
2.49002e-06
2.49002e-06
2.49002e-06
2.48269e-06
2.48269e-06
2.48269e-06
2.47569e-06
2.47569e-06
2.47569e-06
2.47808e-06
2.47808e-06
2.47808e-06
2.4849e-06
2.4849e-06
2.4849e-06
2.4967e-06
2.4967e-06
2.4967e-06
2.49208e-06
2.49208e-06
2.49208e-06
2.48986e-06
2.48986e-06
2.48986e-06
2.49225e-06
2.49225e-06
2.49225e-06
2.51683e-06
2.51683e-06
2.51683e-06
2.51218e-06
2.51218e-06
2.51218e-06
2.5102e-06
2.5102e-06
2.5102e-06
2.50557e-06
2.50557e-06
2.50557e-06
2.50998e-06
2.50998e-06
2.50998e-06
2.51241e-06
2.51241e-06
2.51241e-06
2.61871e-06
2.61871e-06
2.61871e-06
2.60919e-06
2.60919e-06
2.60919e-06
2.61167e-06
2.61167e-06
2.61167e-06
2.61643e-06
2.61643e-06
2.61643e-06
2.60897e-06
2.60897e-06
2.60897e-06
2.6185e-06
2.6185e-06
2.6185e-06
2.61146e-06
2.61146e-06
2.61146e-06
2.61622e-06
2.61622e-06
2.61622e-06
2.61125e-06
2.61125e-06
2.61125e-06
2.61601e-06
2.61601e-06
2.61601e-06
2.63056e-06
2.63056e-06
2.63056e-06
2.62577e-06
2.62577e-06
2.62577e-06
2.62328e-06
2.62328e-06
2.62328e-06
2.63285e-06