<VTKFile type="UnstructuredGrid" version="1.0">
<UnstructuredGrid>
<Piece NumberOfPoints="8859" NumberOfCells="2953">
<Points>
<DataArray type="Float64" NumberOfComponents="3" format="ascii">
3.01 0.5 1.995
3.01 0.487476 2.0175
3.01 0.512524 2.0175
3.01 0.17352 1.1175
3.01 0.148445 1.1175
3.01 0.160827 1.13922
3.01 0.122979 1.16089
3.01 0.135644 1.13922
3.01 0.110383 1.13921
3.01 0.135644 1.13922
3.01 0.123433 1.1175
3.01 0.110383 1.13921
3.01 0.123433 1.1175
3.01 0.135644 1.13922
3.01 0.148445 1.1175
3.01 0.135644 1.13922
3.01 0.160827 1.13922
3.01 0.148445 1.1175
3.01 0.17352 1.1175
3.01 0.185985 1.1392
3.01 0.198629 1.1175
3.01 0.185985 1.1392
3.01 0.17352 1.1175
3.01 0.160827 1.13922
3.01 0.0732297 1.16067
3.01 0.0848754 1.13914
3.01 0.0586606 1.13881
3.01 0.05 1.95027
3.01 0.058509 1.92756
3.01 0.05 1.9051
3.01 0.324276 1.1175
3.01 0.336827 1.13916
3.01 0.349395 1.1175
3.01 0.148138 1.1609
3.01 0.160827 1.13922
3.01 0.135644 1.13922
3.01 0.122979 1.16089
3.01 0.148138 1.1609
3.01 0.135644 1.13922
3.01 0.160827 1.13922
3.01 0.173316 1.16089
3.01 0.185985 1.1392
3.01 0.185806 1.18255
3.01 0.173316 1.16089
3.01 0.160572 1.18255
3.01 0.173316 1.16089
3.01 0.160827 1.13922
3.01 0.148138 1.1609
3.01 0.160572 1.18255
3.01 0.173316 1.16089
3.01 0.148138 1.1609
3.01 0.211137 1.13919
3.01 0.198629 1.1175
3.01 0.185985 1.1392
3.01 0.0979162 1.16084
3.01 0.122979 1.16089
3.01 0.110383 1.13921
3.01 0.122979 1.16089
3.01 0.0979162 1.16084
3.01 0.109875 1.18249
3.01 0.0732297 1.16067
3.01 0.0979162 1.16084
3.01 0.0848754 1.13914
3.01 0.0979162 1.16084
3.01 0.110383 1.13921
3.01 0.0848754 1.13914
3.01 0.0975729 1.20404
3.01 0.122678 1.20414
3.01 0.109875 1.18249
3.01 0.0841718 1.18235
3.01 0.0732297 1.16067
3.01 0.0577122 1.18202
3.01 0.0729308 1.20388
3.01 0.0841718 1.18235
3.01 0.0577122 1.18202
3.01 0.0732297 1.16067
3.01 0.0841718 1.18235
3.01 0.0979162 1.16084
3.01 0.0841718 1.18235
3.01 0.109875 1.18249
3.01 0.0979162 1.16084
3.01 0.0975729 1.20404
3.01 0.0841718 1.18235
3.01 0.0729308 1.20388
3.01 0.0841718 1.18235
3.01 0.0975729 1.20404
3.01 0.109875 1.18249
3.01 0.073948 1.1175
3.01 0.05 1.1175
3.01 0.0586606 1.13881
3.01 0.073948 1.1175
3.01 0.0586606 1.13881
3.01 0.0848754 1.13914
3.01 0.05 1.99329
3.01 0.0603641 1.97197
3.01 0.05 1.95027
3.01 0.0603641 1.97197
3.01 0.05 1.99329
3.01 0.0753197 1.99399
3.01 0.0709395 2.0175
3.01 0.05 1.99329
3.01 0.05 2.0175
3.01 0.05 1.99329
3.01 0.0709395 2.0175
3.01 0.0753197 1.99399
3.01 0.0579641 1.70463
3.01 0.05 1.68261
3.01 0.05 1.72669
3.01 0.0841948 1.6168
3.01 0.109814 1.6168
3.01 0.097638 1.59493
3.01 0.0841948 1.6168
3.01 0.0578646 1.6168
3.01 0.0730539 1.6387
3.01 0.0580261 1.7488
3.01 0.05 1.72669
3.01 0.05 1.77095
3.01 0.942292 1.31236
3.01 0.95 1.33404
3.01 0.95 1.29067
3.01 0.95 1.24726
3.01 0.942332 1.26897
3.01 0.95 1.29067
3.01 0.73872 1.52953
3.01 0.75132 1.50775
3.01 0.726137 1.50776
3.01 0.751305 1.55132
3.01 0.73872 1.52953
3.01 0.726124 1.55133
3.01 0.713546 1.52954
3.01 0.73872 1.52953
3.01 0.726137 1.50776
3.01 0.73872 1.52953
3.01 0.713546 1.52954
3.01 0.726124 1.55133
3.01 0.814318 1.57311
3.01 0.801709 1.5513
3.01 0.789096 1.57312
3.01 0.7765 1.55131
3.01 0.801709 1.5513
3.01 0.789115 1.52951
3.01 0.801709 1.5513
3.01 0.7765 1.55131
3.01 0.789096 1.57312
3.01 0.7765 1.55131
3.01 0.763892 1.57314
3.01 0.789096 1.57312
3.01 0.763892 1.57314
3.01 0.7765 1.55131
3.01 0.751305 1.55132
3.01 0.95 2.0175
3.01 0.95 1.99329
3.01 0.929061 2.0175
3.01 0.95 1.8154
3.01 0.941913 1.79315
3.01 0.926844 1.8154
3.01 0.941913 1.79315
3.01 0.95 1.8154
3.01 0.95 1.77095
3.01 0.926866 1.77094
3.01 0.941913 1.79315
3.01 0.95 1.77095
3.01 0.941974 1.7488
3.01 0.926866 1.77094
3.01 0.95 1.77095
3.01 0.95 1.72669
3.01 0.941974 1.7488
3.01 0.95 1.77095
3.01 0.941974 1.7488
3.01 0.95 1.72669
3.01 0.926895 1.72669
3.01 0.6127 2.0175
3.01 0.637734 2.0175
3.01 0.625238 1.99498
3.01 0.662757 2.0175
3.01 0.650275 1.99497
3.01 0.637734 2.0175
3.01 0.650275 1.99497
3.01 0.625238 1.99498
3.01 0.637734 2.0175
3.01 0.600415 1.55137
3.01 0.575304 1.55137
3.01 0.587856 1.5732
3.01 0.575304 1.55137
3.01 0.562749 1.5732
3.01 0.587856 1.5732
3.01 0.336827 1.13916
3.01 0.361946 1.13916
3.01 0.349395 1.1175
3.01 0.223755 1.1175
3.01 0.198629 1.1175
3.01 0.211137 1.13919
3.01 0.185985 1.1392
3.01 0.198492 1.16088
3.01 0.211137 1.13919
3.01 0.185806 1.18255
3.01 0.198492 1.16088
3.01 0.173316 1.16089
3.01 0.198492 1.16088
3.01 0.185985 1.1392
3.01 0.173316 1.16089
3.01 0.0576202 1.22553
3.01 0.05 1.20374
3.01 0.05 1.24726
3.01 0.05 1.20374
3.01 0.0576202 1.22553
3.01 0.0729308 1.20388
3.01 0.05 1.20374
3.01 0.0729308 1.20388
3.01 0.0577122 1.18202
3.01 0.135283 1.18254
3.01 0.122979 1.16089
3.01 0.109875 1.18249
3.01 0.135283 1.18254
3.01 0.109875 1.18249
3.01 0.122678 1.20414
3.01 0.122979 1.16089
3.01 0.135283 1.18254
3.01 0.148138 1.1609
3.01 0.135283 1.18254
3.01 0.160572 1.18255
3.01 0.148138 1.1609
3.01 0.123433 1.1175
3.01 0.0985513 1.1175
3.01 0.110383 1.13921
3.01 0.110383 1.13921
3.01 0.0985513 1.1175
3.01 0.0848754 1.13914
3.01 0.0848754 1.13914
3.01 0.0985513 1.1175
3.01 0.073948 1.1175
3.01 0.0603641 1.97197
3.01 0.0739464 1.94949
3.01 0.05 1.95027
3.01 0.0739464 1.94949
3.01 0.058509 1.92756
3.01 0.05 1.95027
3.01 0.058509 1.92756
3.01 0.0739464 1.94949
3.01 0.0849548 1.92711
3.01 0.058509 1.92756
3.01 0.0732725 1.90488
3.01 0.05 1.9051
3.01 0.0732725 1.90488
3.01 0.058509 1.92756
3.01 0.0849548 1.92711
3.01 0.5 1.995
3.01 0.47495 1.995
3.01 0.487476 2.0175
3.01 0.097663 1.6387
3.01 0.109814 1.6168
3.01 0.0841948 1.6168
3.01 0.0730539 1.6387
3.01 0.097663 1.6387
3.01 0.0841948 1.6168
3.01 0.0578646 1.6168
3.01 0.05 1.6387
3.01 0.0730539 1.6387
3.01 0.05 1.6387
3.01 0.0578646 1.6168
3.01 0.05 1.59492
3.01 0.05 1.8154
3.01 0.0580869 1.79315
3.01 0.05 1.77095
3.01 0.05 1.77095
3.01 0.073134 1.77094
3.01 0.0580261 1.7488
3.01 0.073134 1.77094
3.01 0.05 1.77095
3.01 0.0580869 1.79315
3.01 0.942268 1.35573
3.01 0.95 1.37741
3.01 0.95 1.33404
3.01 0.942292 1.31236
3.01 0.927025 1.33404
3.01 0.95 1.33404
3.01 0.927025 1.33404
3.01 0.915919 1.35572
3.01 0.942268 1.35573
3.01 0.95 1.33404
3.01 0.927025 1.33404
3.01 0.942268 1.35573
3.01 0.927013 1.37741
3.01 0.95 1.37741
3.01 0.942268 1.35573
3.01 0.915919 1.35572
3.01 0.927013 1.37741
3.01 0.942268 1.35573
3.01 0.801738 1.46425
3.01 0.826957 1.46425
3.01 0.814364 1.44253
3.01 0.852174 1.46424
3.01 0.839609 1.44252
3.01 0.826957 1.46425
3.01 0.839609 1.44252
3.01 0.814364 1.44253
3.01 0.826957 1.46425
3.01 0.776516 1.50775
3.01 0.763923 1.486
3.01 0.75132 1.50775
3.01 0.776516 1.50775
3.01 0.789115 1.52951
3.01 0.801725 1.50774
3.01 0.738704 1.57315
3.01 0.763892 1.57314
3.01 0.751305 1.55132
3.01 0.726124 1.55133
3.01 0.738704 1.57315
3.01 0.751305 1.55132
3.01 0.915617 1.79314
3.01 0.926866 1.77094
3.01 0.902228 1.77094
3.01 0.926866 1.77094
3.01 0.915617 1.79314
3.01 0.941913 1.79315
3.01 0.915617 1.79314
3.01 0.926844 1.8154
3.01 0.941913 1.79315
3.01 0.915617 1.79314
3.01 0.902193 1.81538
3.01 0.926844 1.8154
3.01 0.926866 1.77094
3.01 0.915668 1.74879
3.01 0.902228 1.77094
3.01 0.902267 1.72668
3.01 0.915668 1.74879
3.01 0.926895 1.72669
3.01 0.915668 1.74879
3.01 0.926866 1.77094
3.01 0.941974 1.7488
3.01 0.926895 1.72669
3.01 0.915668 1.74879
3.01 0.941974 1.7488
3.01 0.902267 1.72668
3.01 0.890059 1.74879
3.01 0.915668 1.74879
3.01 0.890059 1.74879
3.01 0.902228 1.77094
3.01 0.915668 1.74879
3.01 0.826927 1.55129
3.01 0.801709 1.5513
3.01 0.814318 1.57311
3.01 0.864816 1.6168
3.01 0.890186 1.6168
3.01 0.877308 1.59493
3.01 0.877308 1.59493
3.01 0.852122 1.59494
3.01 0.864816 1.6168
3.01 0.890186 1.6168
3.01 0.902362 1.59493
3.01 0.877308 1.59493
3.01 0.902362 1.59493
3.01 0.890186 1.6168
3.01 0.915805 1.6168
3.01 0.902362 1.59493
3.01 0.915805 1.6168
3.01 0.926964 1.59492
3.01 0.915835 1.57309
3.01 0.902362 1.59493
3.01 0.926964 1.59492
3.01 0.942171 1.57309
3.01 0.915835 1.57309
3.01 0.926964 1.59492
3.01 0.915835 1.57309
3.01 0.942171 1.57309
3.01 0.926978 1.55127
3.01 0.942171 1.57309
3.01 0.95 1.55127
3.01 0.926978 1.55127
3.01 0.87737 1.42081
3.01 0.902417 1.4208
3.01 0.890277 1.39911
3.01 0.852144 1.55128
3.01 0.864842 1.57309
3.01 0.877329 1.55128
3.01 0.877308 1.59493
3.01 0.864842 1.57309
3.01 0.852122 1.59494
3.01 0.902396 1.50772
3.01 0.890234 1.52949
3.01 0.915858 1.52948
3.01 0.926997 1.46423
3.01 0.95 1.46423
3.01 0.942237 1.44251
3.01 0.91589 1.44251
3.01 0.926997 1.46423
3.01 0.942237 1.44251
3.01 0.942199 1.52948
3.01 0.95 1.55127
3.01 0.95 1.50771
3.01 0.95 1.55127
3.01 0.942199 1.52948
3.01 0.926978 1.55127
3.01 0.942199 1.52948
3.01 0.915858 1.52948
3.01 0.926978 1.55127
3.01 0.95 1.46423
3.01 0.942221 1.48597
3.01 0.95 1.50771
3.01 0.942221 1.48597
3.01 0.95 1.46423
3.01 0.926997 1.46423
3.01 0.915876 1.48597
3.01 0.942221 1.48597
3.01 0.926997 1.46423
3.01 0.926989 1.50771
3.01 0.902396 1.50772
3.01 0.915858 1.52948
3.01 0.902396 1.50772
3.01 0.926989 1.50771
3.01 0.915876 1.48597
3.01 0.926989 1.50771
3.01 0.915858 1.52948
3.01 0.942199 1.52948
3.01 0.95 1.50771
3.01 0.926989 1.50771
3.01 0.942199 1.52948
3.01 0.915876 1.48597
3.01 0.926989 1.50771
3.01 0.942221 1.48597
3.01 0.926989 1.50771
3.01 0.95 1.50771
3.01 0.942221 1.48597
3.01 0.91353 1.97185
3.01 0.939636 1.97197
3.01 0.926054 1.94949
3.01 0.926728 1.90488
3.01 0.941491 1.92756
3.01 0.95 1.9051
3.01 0.926728 1.90488
3.01 0.95 1.9051
3.01 0.941822 1.88254
3.01 0.95 1.95027
3.01 0.939636 1.97197
3.01 0.95 1.99329
3.01 0.95 1.95027
3.01 0.941491 1.92756
3.01 0.926054 1.94949
3.01 0.939636 1.97197
3.01 0.95 1.95027
3.01 0.926054 1.94949
3.01 0.941491 1.92756
3.01 0.95 1.95027
3.01 0.95 1.9051
3.01 0.941869 1.83772
3.01 0.95 1.8154
3.01 0.926844 1.8154
3.01 0.762942 1.97228
3.01 0.737933 1.97234
3.01 0.75028 1.99489
3.01 0.71291 1.97239
3.01 0.737933 1.97234
3.01 0.725533 1.94985
3.01 0.71291 1.97239
3.01 0.725313 1.99492
3.01 0.737933 1.97234
3.01 0.725313 1.99492
3.01 0.75028 1.99489
3.01 0.737933 1.97234
3.01 0.737693 2.0175
3.01 0.725313 1.99492
[...]
<PointData Scalars="View Factor" >
<DataArray type="Float64" Name="View Factor" NumberOfComponents="1" format="ascii">
0.0259226
0.0259226
0.0259226
0.0851917
0.0851917
0.0851917
0.0826723
0.0826723
0.0826723
0.0844101
0.0844101
0.0844101
0.0852633
0.0852633
0.0852633
0.0843447
0.0843447
0.0843447
0.0851078
0.0851078
0.0851078
0.084268
0.084268
0.084268
0.0827935
0.0827935
0.0827935
0.0293848
0.0293848
0.0293848
0.0843423
0.0843423
0.0843423
0.0826078
0.0826078
0.0826078
0.0817884
0.0817884
0.0817884
0.0825328
0.0825328
0.0825328
0.079185
0.079185
0.079185
0.0817194
0.0817194
0.0817194
0.080045
0.080045
0.080045
0.0841791
0.0841791
0.0841791
0.0818487
0.0818487
0.0818487
0.0801744
0.0801744
0.0801744
0.0819059
0.0819059
0.0819059
0.0827301
0.0827301
0.0827301
0.0769431
0.0769431
0.0769431
0.0794456
0.0794456
0.0794456
0.0778289
0.0778289
0.0778289
0.080233
0.080233
0.080233
0.0793827
0.0793827
0.0793827
0.0770008
0.0770008
0.0770008
0.0777673
0.0777673
0.0777673
0.085423
0.085423
0.085423
0.0845248
0.0845248
0.0845248
0.0278623
0.0278623
0.0278623
0.0273784
0.0273784
0.0273784
0.0266408
0.0266408
0.0266408
0.0268869
0.0268869
0.0268869
0.0387697
0.0387697
0.0387697
0.0438018
0.0438018
0.0438018
0.0429981
0.0429981
0.0429981
0.0366556
0.0366556
0.0366556
0.0586201
0.0586201
0.0586201
0.0622688
0.0622688
0.0622688
0.046568
0.046568
0.046568
0.0448133
0.0448133
0.0448133
0.0462257
0.0462257
0.0462257
0.0453462
0.0453462
0.0453462
0.0430363
0.0430363
0.0430363
0.0443947
0.0443947
0.0443947
0.0435549
0.0435549
0.0435549
0.0432456
0.0432456
0.0432456
0.0437631
0.0437631
0.0437631
0.0241664
0.0241664
0.0241664
0.0307612
0.0307612
0.0307612
0.0312715
0.0312715
0.0312715
0.031903
0.031903
0.031903
0.0324916
0.0324916
0.0324916
0.0330341
0.0330341
0.0330341
0.033706
0.033706
0.033706
0.0255266
0.0255266
0.0255266
0.0254373
0.0254373
0.0254373
0.0257087
0.0257087
0.0257087
0.0450311
0.0450311
0.0450311
0.0446793
0.0446793
0.0446793
0.0833853
0.0833853
0.0833853
0.0850115
0.0850115
0.0850115
0.0824462
0.0824462
0.0824462
0.0799663
0.0799663
0.0799663
0.0816394
0.0816394
0.0816394
0.0739568
0.0739568
0.0739568
0.0754822
0.0754822
0.0754822
0.0770551
0.0770551
0.0770551
0.0793229
0.0793229
0.0793229
0.0777072
0.0777072
0.0777072
0.0801136
0.0801136
0.0801136
0.0792583
0.0792583
0.0792583
0.0853234
0.0853234
0.0853234
0.0844668
0.0844668
0.0844668
0.0853739
0.0853739
0.0853739
0.0283516
0.0283516
0.0283516
0.0288615
0.0288615
0.0288615
0.0291268
0.0291268
0.0291268
0.0299259
0.0299259
0.0299259
0.0296557
0.0296557
0.0296557
0.0261887
0.0261887
0.0261887
0.0429771
0.0429771
0.0429771
0.0425821
0.0425821
0.0425821
0.0425993
0.0425993
0.0425993
0.0434197
0.0434197
0.0434197
0.0346689
0.0346689
0.0346689
0.0359767
0.0359767
0.0359767
0.0353147
0.0353147
0.0353147
0.0552194
0.0552194
0.0552194
0.0575695
0.0575695
0.0575695
0.0560311
0.0560311
0.0560311
0.0564338
0.0564338
0.0564338
0.0542398
0.0542398
0.0542398
0.0549308
0.0549308
0.0549308
0.0495926
0.0495926
0.0495926
0.0493342
0.0493342
0.0493342
0.049948
0.049948
0.049948
0.0472552
0.0472552
0.0472552
0.0461308
0.0461308
0.0461308
0.0434482
0.0434482
0.0434482
0.0439645
0.0439645
0.0439645
0.0320781
0.0320781
0.0320781
0.031694
0.031694
0.031694
0.0311214
0.0311214
0.0311214
0.0309291
0.0309291
0.0309291
0.0326705
0.0326705
0.0326705
0.0338928
0.0338928
0.0338928
0.0328749
0.0328749
0.0328749
0.0334839
0.0334839
0.0334839
0.0336726
0.0336726
0.0336726
0.0330596
0.0330596
0.0330596
0.0433399
0.0433399
0.0433399
0.0400308
0.0400308
0.0400308
0.0405198
0.0405198
0.0405198
0.0402999
0.0402999
0.0402999
0.0398089
0.0398089
0.0398089
0.0400748
0.0400748
0.0400748
0.0408379
0.0408379
0.0408379
0.0411
0.0411
0.0411
0.0418856
0.0418856
0.0418856
0.042172
0.042172
0.042172
0.0517347
0.0517347
0.0517347
0.0428898
0.0428898
0.0428898
0.0412927
0.0412927
0.0412927
0.0446098
0.0446098
0.0446098
0.0482307
0.0482307
0.0482307
0.0488337
0.0488337
0.0488337
0.0437278
0.0437278
0.0437278
0.0429811
0.0429811
0.0429811
0.0435089
0.0435089
0.0435089
0.0463164
0.0463164
0.0463164
0.0473062
0.0473062
0.0473062
0.046979
0.046979
0.046979
0.0449129
0.0449129
0.0449129
0.0457832
0.0457832
0.0457832
0.0443478
0.0443478
0.0443478
0.0446539
0.0446539
0.0446539
0.0460823
0.0460823
0.0460823
0.0455183
0.0455183
0.0455183
0.0255631
0.0255631
0.0255631
0.0271107
0.0271107
0.0271107
0.0276006
0.0276006
0.0276006
0.0252329
0.0252329
0.0252329
0.0261647
0.0261647
0.0261647
0.0257143
0.0257143
0.0257143
0.0265818
0.0265818
0.0265818
0.0302076
0.0302076
0.0302076
0.0259517
0.0259517
0.0259517
0.026525
0.026525
0.026525
0.0260573
0.0260573
0.0260573
0.0257751
0.0257751
0.0257751
0.0251501
0.0251501
0.0251501
0.0253225
0.0253225
0.0253225
0.0250483
0.0250483
0.0250483
0.0285148
0.0285148
0.0285148
0.0274897
0.0274897
0.0274897
0.0268157
0.0268157
0.0268157
0.0272991
0.0272991
0.0272991
0.0270205
0.0270205
0.0270205
0.0275083
0.0275083
0.0275083
0.0262588
0.0262588
0.0262588
0.0257972
0.0257972
0.0257972
0.0256125
0.0256125
0.0256125
0.047136
0.047136
0.047136
0.0445233
0.0445233
0.0445233
0.0423365
0.0423365
0.0423365
0.0414038
0.0414038
0.0414038
0.0421964
0.0421964
0.0421964
0.0426707
0.0426707
0.0426707
0.0438337
0.0438337
0.0438337
0.0434908
0.0434908
0.0434908
0.041541
0.041541
0.041541
0.0410825
0.0410825
0.0410825
0.0371076
0.0371076
0.0371076
0.0415741
0.0415741
0.0415741
0.0420542
0.0420542
0.0420542
0.0422258
0.0422258
0.0422258
0.0406567
0.0406567
0.0406567
0.0846476
0.0846476
0.0846476
0.0847814
0.0847814
0.0847814
0.0838383
0.0838383
0.0838383
0.0821133
0.0821133
0.0821133
0.0797485
0.0797485
0.0797485
0.0488836
0.0488836
0.0488836
0.0470281
0.0470281
0.0470281
0.0485302
0.0485302
0.0485302
0.0475999
0.0475999
0.0475999
0.0478258
0.0478258
0.0478258
0.0474749
0.0474749
0.0474749
0.0812002
0.0812002
0.0812002
0.0841708
0.0841708
0.0841708
0.0814319
0.0814319
0.0814319
0.0615221
0.0615221
0.0615221
0.0621981
0.0621981
0.0621981
0.0786821
0.0786821
0.0786821
0.0837015
0.0837015
0.0837015
0.0819805
0.0819805
0.0819805
0.0803056
0.0803056
0.0803056
0.0288654
0.0288654
0.0288654
0.0259915
0.0259915
0.0259915
0.0380471
0.0380471
0.0380471
0.0373426
0.0373426
0.0373426
0.0417831
0.0417831
0.0417831
0.0720831
0.0720831
0.0720831
0.0380111
0.0380111
0.0380111
0.0373074
0.0373074
0.0373074
0.0442074
0.0442074
0.0442074
0.0437739
0.0437739
0.0437739
0.0450841
0.0450841
0.0450841
0.0442322
0.0442322
0.0442322
0.0442501
0.0442501
0.0442501
0.0438233
0.0438233
0.0438233
0.0459776
0.0459776
0.0459776
0.0451025
0.0451025
0.0451025
0.0455278
0.0455278
0.0455278
0.0464081
0.0464081
0.0464081
0.0468635
0.0468635
0.0468635
0.0437149
0.0437149
0.0437149
0.0440129
0.0440129
0.0440129
0.0545633
0.0545633
0.0545633
0.0486386
0.0486386
0.0486386
0.0482917
0.0482917
0.0482917
0.0473665
0.0473665
0.0473665
0.0496826
0.0496826
0.0496826
0.049068
0.049068
0.049068
0.0523924
0.0523924
0.0523924
0.0583097
0.0583097
0.0583097
0.0566206
0.0566206
0.0566206
0.046353
0.046353
0.046353
0.0446075
0.0446075
0.0446075
0.04493
0.04493
0.04493
0.0458004
0.0458004
0.0458004
0.0460166
0.0460166
0.0460166
0.0451416
0.0451416
0.0451416
0.0426288
0.0426288
0.0426288
0.0423213
0.0423213
0.0423213
0.043644
0.043644
0.043644
0.0428204
0.0428204
0.0428204
0.0406273
0.0406273
0.0406273
0.0401607
0.0401607
0.0401607
0.042861
0.042861
0.042861
0.0390678
0.0390678
0.0390678
0.0340779
0.0340779
0.0340779
0.034897
0.034897
0.034897
0.0347123
0.0347123
0.0347123
0.0351279
0.0351279
0.0351279
0.0265981
0.0265981
0.0265981
0.0264173
0.0264173
0.0264173
0.0267084
0.0267084
0.0267084
0.0271896
0.0271896
0.0271896
0.0294196
0.0294196
0.0294196
0.0275058
0.0275058
0.0275058
0.0270196
0.0270196
0.0270196
0.0297507
0.0297507
0.0297507
0.029358
0.029358
0.029358
0.0299468
0.0299468
0.0299468
0.0467935
0.0467935
0.0467935
0.0428203
0.0428203
0.0428203
0.0431182
0.0431182
0.0431182
0.0425975
0.0425975
0.0425975
0.0417966
0.0417966
0.0417966
0.0394953
0.0394953
0.0394953
0.0402459
0.0402459
0.0402459
0.0424146
0.0424146
0.0424146
0.0434748
0.0434748
0.0434748
0.0432291
0.0432291
0.0432291
0.0437653
0.0437653
0.0437653
0.0406057
0.0406057
0.0406057
0.0413049
0.0413049
0.0413049
0.0463561
0.0463561
0.0463561
0.0481253
0.0481253
0.0481253
0.0475293
0.0475293
0.0475293
0.0500921
0.0500921
0.0500921
0.0494089
0.0494089
0.0494089
0.0507322
0.0507322
0.0507322
0.0503809
0.0503809
0.0503809
0.0520906
0.0520906
0.0520906
0.0531245
0.0531245
0.0531245
0.0534965
0.0534965
0.0534965
0.0255007
0.0255007
0.0255007
0.0260761
0.0260761
0.0260761
0.0248502
0.0248502
0.0248502
0.0251235
0.0251235
0.0251235
0.0244316
0.0244316
0.0244316
0.0258605
0.0258605
0.0258605
0.0272646
0.0272646
0.0272646
0.0263181
0.0263181
0.0263181
0.0264712
0.0264712
0.0264712
0.0269421
0.0269421
0.0269421
0.0285087
0.0285087
0.0285087
0.0292184
0.0292184
0.0292184
0.029026
0.029026
0.029026
0.0288855
0.0288855
0.0288855
0.030372
0.030372
0.030372
0.0300109
0.0300109
0.0300109
0.0279217
0.0279217
0.0279217
0.0277543
0.0277543
0.0277543
0.0267309
0.0267309
0.0267309
0.0266296
0.0266296
0.0266296
0.0269197
0.0269197
0.0269197
0.025249
0.025249
0.025249
0.0254237
0.0254237
0.0254237
0.0258782
0.0258782
0.0258782
0.0261598
0.0261598
0.0261598
0.02489
0.02489
0.02489
0.0256179
0.0256179
0.0256179
0.0253347
0.0253347
0.0253347
0.0247262
0.0247262
0.0247262
0.0256691
0.0256691
0.0256691
0.0252183
0.0252183
0.0252183
0.0279871
0.0279871
0.0279871
0.0282965
0.0282965
0.0282965
0.0322612
0.0322612
0.0322612
0.0324935
0.0324935
0.0324935
0.030506
0.030506
0.030506
0.0288108
0.0288108
0.0288108
0.0290133
0.0290133
0.0290133
0.029034
0.029034
0.029034
0.0302943
0.0302943
0.0302943
0.0297497
0.0297497
0.0297497
0.0295426
0.0295426
0.0295426
0.0298721
0.0298721
0.0298721
0.0275987
0.0275987
0.0275987
0.0282065
0.0282065
0.0282065
0.0277044
0.0277044
0.0277044
0.0274054
0.0274054
0.0274054
0.0284074
0.0284074
0.0284074
0.0280985
0.0280985
0.0280985
0.026829
0.026829
0.026829
0.0263554
0.0263554
0.0263554
0.0261686
0.0261686
0.0261686
0.0264482
0.0264482
0.0264482
0.0278067
0.0278067
0.0278067
0.028311
0.028311
0.028311
0.0286185
0.0286185
0.0286185
0.0339644
0.0339644
0.0339644
0.0345984
0.0345984
0.0345984
0.0502481
0.0502481
0.0502481
0.0465152
0.0465152
0.0465152
0.050776
0.050776
0.050776
0.050321
0.050321
0.050321
0.0460352
0.0460352
0.0460352
0.0467454
0.0467454
0.0467454
0.0472571
0.0472571
0.0472571
0.0429446
0.0429446
0.0429446
0.0433008
0.0433008
0.0433008
0.0440182
0.0440182
0.0440182
0.0421366
0.0421366
0.0421366
0.0417898
0.0417898
0.0417898
0.0410062
0.0410062
0.0410062
0.0405714
0.0405714
0.0405714
0.0448701
0.0448701
0.0448701
0.043681
0.043681
0.043681
0.043343
0.043343
0.043343
0.042526
0.042526
0.042526
0.0420501
0.0420501
0.0420501
0.039488
0.039488
0.039488
0.0398133
0.0398133
0.0398133
0.0412152
0.0412152
0.0412152
0.0403135
0.0403135
0.0403135
0.0428353
0.0428353
0.0428353
0.0431872
0.0431872
0.0431872
0.0391808
0.0391808
0.0391808
0.0394945
0.0394945
0.0394945
0.040956
0.040956
0.040956
0.041739
0.041739
0.041739
0.0398972
0.0398972
0.0398972
0.0345292
0.0345292
0.0345292
0.0849027
0.0849027
0.0849027
0.0839644
0.0839644
0.0839644
0.084078
0.084078
0.084078
0.0636655
0.0636655
0.0636655
0.0661892
0.0661892
0.0661892
0.0649741
0.0649741
0.0649741
0.0804265
0.0804265
0.0804265
0.0792525
0.0792525
0.0792525
0.0804044
0.0804044
0.0804044
0.0491208
0.0491208
0.0491208
0.048761
0.048761
0.048761
0.0493502
0.0493502
0.0493502
0.0503198
0.0503198
0.0503198
0.0480441
0.0480441
0.0480441
0.0489841
0.0489841
0.0489841
0.0836998
0.0836998
0.0836998
0.0819777
0.0819777
0.0819777
0.0845013
0.0845013
0.0845013
0.0835488
0.0835488
0.0835488
0.0816698
0.0816698
0.0816698
0.0807431
0.0807431
0.0807431
0.0790882
0.0790882
0.0790882
0.078915
0.078915
0.078915
0.0781908
0.0781908
0.0781908
0.0758917
0.0758917
0.0758917
0.0765943
0.0765943
0.0765943
0.08358
0.08358
0.08358
0.0807452
0.0807452
0.0807452
0.0603069
0.0603069
0.0603069
0.0579577
0.0579577
0.0579577
0.0794973
0.0794973
0.0794973
0.0813282
0.0813282
0.0813282
0.0796613
0.0796613
0.0796613
0.0822365
0.0822365
0.0822365
0.032331
0.032331
0.032331
0.0310786
0.0310786
0.0310786
0.0295509
0.0295509
0.0295509
0.029584
0.029584
0.029584
0.0298372
0.0298372
0.0298372
0.0312423
0.0312423
0.0312423
0.0303841
0.0303841
0.0303841
0.0306781
0.0306781
0.0306781
0.0298018
0.0298018
0.0298018
0.0291206
0.0291206
0.0291206
0.0304773
0.0304773
0.0304773
0.0310408
0.0310408
0.0310408
0.0262566
0.0262566
0.0262566
0.0274882
0.0274882
0.0274882
0.027001
0.027001
0.027001
0.0267279
0.0267279
0.0267279
0.028494
0.028494
0.028494
0.027617
0.027617
0.027617
0.027127
0.027127
0.027127
0.03838
0.03838
0.03838
0.038032
0.038032
0.038032
0.0383985
0.0383985
0.0383985
0.0363069
0.0363069
0.0363069
0.0369896
0.0369896
0.0369896
0.0359626
0.0359626
0.0359626
0.0362896
0.0362896
0.0362896
0.0373278
0.0373278
0.0373278
0.036972
0.036972
0.036972
0.0413795
0.0413795
0.0413795
0.0405799
0.0405799
0.0405799
0.0410209
0.0410209
0.0410209
0.0418
0.0418
0.0418
0.0413996
0.0413996
0.0413996
0.0724471
0.0724471
0.0724471
0.0621211
0.0621211
0.0621211
0.0646613
0.0646613
0.0646613
0.058161
0.058161
0.058161
0.0570217
0.0570217
0.0570217
0.0580721
0.0580721
0.0580721
0.0547389
0.0547389
0.0547389
0.0536718
0.0536718
0.0536718
0.0616398
0.0616398
0.0616398
0.062853
0.062853
0.062853
0.064126
0.064126
0.064126
0.0628785
0.0628785
0.0628785
0.0622422
0.0622422
0.0622422
0.0627717
0.0627717
0.0627717
0.0640423
0.0640423
0.0640423
0.0660737
0.0660737
0.0660737
0.0647566
0.0647566
0.0647566
0.0640892
0.0640892
0.0640892
0.0647138
0.0647138
0.0647138
0.0706302
0.0706302
0.0706302
0.0359431
0.0359431
0.0359431
0.0352819
0.0352819
0.0352819
0.0425584
0.0425584
0.0425584
0.0429497
0.0429497
0.0429497
0.0417599
0.0417599
0.0417599
0.0413531
0.0413531
0.0413531
0.044176
0.044176
0.044176
0.0516228
0.0516228
0.0516228
0.0521139
0.0521139
0.0521139
0.0526334
0.0526334
0.0526334
0.0526119
0.0526119
0.0526119
0.0520881
0.0520881
0.0520881
0.0468444
0.0468444
0.0468444
0.0477536
0.0477536
0.0477536
0.0510115
0.0510115
0.0510115
0.0450589
0.0450589
0.0450589
0.0468181
0.0468181
0.0468181
0.0455055
0.0455055
0.0455055
0.0463853
0.0463853
0.0463853
0.0584693
0.0584693
0.0584693
0.0573169
0.0573169
0.0573169
0.050932
0.050932
0.050932
0.0538096
0.0538096
0.0538096
0.053433
0.053433
0.053433
0.0510183
0.0510183
0.0510183
0.0520272
0.0520272
0.0520272
0.0506607
0.0506607
0.0506607
0.0512965
0.0512965
0.0512965
0.0515663
0.0515663
0.0515663
0.0525871
0.0525871
0.0525871
0.0567719
0.0567719
0.0567719
0.0579152
0.0579152
0.0579152
0.0421285
0.0421285
0.0421285
0.0424306
0.0424306
0.0424306
0.0419293
0.0419293
0.0419293
0.0411425
0.0411425
0.0411425
0.0408527
0.0408527
0.0408527
0.0413375
0.0413375
0.0413375
0.0425077
0.0425077
0.0425077
0.0417084
0.0417084
0.0417084
0.0418845
0.0418845
0.0418845
0.0414031
0.0414031
0.0414031
0.0441591
0.0441591
0.0441591
0.0455437
0.0455437
0.0455437
0.0450122
0.0450122
0.0450122
0.0407947
0.0407947
0.0407947
0.0403292
0.0403292
0.0403292
0.0404918
0.0404918
0.0404918
0.0355826
0.0355826
0.0355826
0.0349292
0.0349292
0.0349292
0.0380414
0.0380414
0.0380414
0.0385972
0.0385972
0.0385972
0.0392849
0.0392849
0.0392849
0.0388126
0.0388126
0.0388126
0.0390231
0.0390231
0.0390231
0.0382985
0.0382985
0.0382985
0.0355901
0.0355901
0.0355901
0.0345233
0.0345233
0.0345233
0.0349375
0.0349375
0.0349375
0.0328478
0.0328478
0.0328478
0.0312947
0.0312947
0.0312947
0.0318709
0.0318709
0.0318709
0.0322516
0.0322516
0.0322516
0.032042
0.032042
0.032042
0.0304944
0.0304944
0.0304944
0.0269608
0.0269608
0.0269608
0.0263681
0.0263681
0.0263681
0.0268414
0.0268414
0.0268414
0.0271425
0.0271425
0.0271425
0.0272616
0.0272616
0.0272616
0.0273773
0.0273773
0.0273773
0.0270768
0.0270768
0.0270768
0.0277538
0.0277538
0.0277538
0.0267181
0.0267181
0.0267181
0.0259557
0.0259557
0.0259557
0.026248
0.026248
0.026248
0.0268924
0.0268924
0.0268924
0.02832
0.02832
0.02832
0.027817
0.027817
0.027817
0.0276318
0.0276318
0.0276318
0.0279424
0.0279424
0.0279424
0.0301775
0.0301775
0.0301775
0.029636
0.029636
0.029636
0.0296027
0.0296027
0.0296027
0.0290737
0.0290737
0.0290737
0.0294494
0.0294494
0.0294494
0.0297943
0.0297943
0.0297943
0.0459013
0.0459013
0.0459013
0.044175
0.044175
0.044175
0.0447114
0.0447114
0.0447114
0.0455769
0.0455769
0.0455769
0.0439484
0.0439484
0.0439484
0.0456645
0.0456645
0.0456645
0.0444857
0.0444857
0.0444857
0.0453462
0.0453462
0.0453462
0.0442529
0.0442529
0.0442529
0.0451083
0.0451083
0.0451083
0.0480454
0.0480454
0.0480454
0.0471256
0.0471256
0.0471256
0.0465515
0.0465515
0.0465515
0.0483858
0.0483858
0.0483858
0.0477913
0.0477913
0.0477913
0.046877
0.046877
0.046877
0.0407337
0.0407337
0.0407337
0.0417235
0.0417235
0.0417235
0.0409413
0.0409413
0.0409413
0.0404545
0.0404545
0.0404545
0.0420145
0.0420145
0.0420145
0.0415113
0.0415113
0.0415113
0.0410679
0.0410679
0.0410679
0.0415718
0.0415718
0.0415718
0.04134
0.04134
0.04134
0.0421308
0.0421308
0.0421308
0.0423678
0.0423678
0.0423678
0.042655
0.042655
0.042655
0.0395793
0.0395793
0.0395793
0.0398477
0.0398477
0.0398477
0.0390351
0.0390351
0.0390351
0.0383797
0.0383797
0.0383797
0.0388431
0.0388431
0.0388431
0.0454206
0.0454206
0.0454206
0.0463021
0.0463021
0.0463021
0.0451697
0.0451697
0.0451697
0.044863
0.044863
0.044863
0.0460457
0.0460457
0.0460457
0.0466207
0.0466207
0.0466207
0.0485137
0.0485137
0.0485137
0.0491263
0.0491263
0.0491263
0.0475831
0.0475831
0.0475831
0.0472589
0.0472589
0.0472589
0.0478574
0.0478574
0.0478574
0.0487941
0.0487941
0.0487941
0.0531803
0.0531803
0.0531803
0.0528048
0.0528048
0.0528048
0.0490845
0.0490845
0.0490845
0.0520468
0.0520468
0.0520468
0.0242747
0.0242747
0.0242747
0.0261238
0.0261238
0.0261238
0.0265903
0.0265903
0.0265903
0.0270962
0.0270962
0.0270962
0.0266209
0.0266209
0.0266209
0.0272391
0.0272391
0.0272391
0.0274119
0.0274119
0.0274119
0.0267599
0.0267599
0.0267599
0.0264573
0.0264573
0.0264573
0.0281869
0.0281869
0.0281869
0.0275524
0.0275524
0.0275524
0.0280488
0.0280488
0.0280488
0.0283714
0.0283714
0.0283714
0.0273752
0.0273752
0.0273752
0.0276872
0.0276872
0.0276872
0.0280789
0.0280789
0.0280789
0.0285866
0.0285866
0.0285866
0.0279049
0.0279049
0.0279049
0.0282285
0.0282285
0.0282285
0.0289235
0.0289235
0.0289235
0.0287393
0.0287393
0.0287393
0.0294723
0.0294723
0.0294723
0.0284276
0.0284276
0.0284276
0.0292917
0.0292917
0.0292917
0.0287682
0.0287682
0.0287682
0.0255219
0.0255219
0.0255219
0.0256169
0.0256169
0.0256169
0.0253447
0.0253447
0.0253447
0.026075
0.026075
0.026075
0.0262592
0.0262592
0.0262592
0.0259782
0.0259782
0.0259782
0.0249435
0.0249435
0.0249435
0.0258433
0.0258433
0.0258433
0.0263067
0.0263067
0.0263067
0.026193
0.026193
0.026193
0.0264847
0.0264847
0.0264847
0.0250019
0.0250019
0.0250019
0.0255603
0.0255603
0.0255603
0.0248361
0.0248361
0.0248361
0.0251114
0.0251114
0.0251114
0.0254488
0.0254488
0.0254488
0.025732
0.025732
0.025732
0.0286938
0.0286938
0.0286938
0.0285731
0.0285731
0.0285731
0.0288931
0.0288931
0.0288931
0.028064
0.028064
0.028064
0.028182
0.028182
0.028182
0.0278722
0.0278722
0.0278722
0.0321316
0.0321316
0.0321316
0.0306347
0.0306347
0.0306347
0.0304195
0.0304195
0.0304195
0.031198
0.031198
0.031198
0.031549
0.031549
0.031549
0.033049
0.033049
0.033049
0.0336627
0.0336627
0.0336627
0.0338977
0.0338977
0.0338977
0.0298934
0.0298934
0.0298934
0.0300938
0.0300938
0.0300938
0.030165
0.030165
0.030165
0.0296233
0.0296233
0.0296233
0.0311086
0.0311086
0.0311086
0.0307711
0.0307711
0.0307711
0.0301053
0.0301053
0.0301053
0.0289242
0.0289242
0.0289242
0.0292426
0.0292426
0.0292426
0.0291298
0.0291298
0.0291298
0.0297771
0.0297771
0.0297771
0.0296617
0.0296617
0.0296617
0.0299907
0.0299907
0.0299907
0.0303228
0.0303228
0.0303228
0.0309851
0.0309851
0.0309851
0.0308801
0.0308801
0.0308801
0.0312167
0.0312167
0.0312167
0.0292422
0.0292422
0.0292422
0.0299961
0.0299961
0.0299961
0.030216
0.030216
0.030216
0.0298885
0.0298885
0.0298885
0.0293517
0.0293517
0.0293517
0.02914
0.02914