<VTKFile type="UnstructuredGrid" version="1.0">
<UnstructuredGrid>
<Piece NumberOfPoints="8859" NumberOfCells="2953">
<Points>
<DataArray type="Float64" NumberOfComponents="3" format="ascii">
2.75455 1.50245 5.09263
2.76986 1.48714 5.10458
2.75465 1.50235 5.11833
2.78515 1.47185 5.04167
2.78516 1.47184 5.01651
2.8005 1.4565 5.02898
2.76981 1.48719 5.05436
2.78515 1.47185 5.04167
2.78514 1.47186 5.06686
2.72412 1.53288 5.14488
2.73952 1.51748 5.1525
2.70875 1.54825 5.1525
2.72412 1.53288 5.14488
2.73943 1.51757 5.12957
2.73952 1.51748 5.1525
2.75488 1.50212 5.14479
2.77036 1.48664 5.1525
2.73952 1.51748 5.1525
2.75488 1.50212 5.14479
2.73943 1.51757 5.12957
2.75465 1.50235 5.11833
2.73952 1.51748 5.1525
2.73943 1.51757 5.12957
2.75488 1.50212 5.14479
2.75465 1.50235 5.11833
2.76986 1.48714 5.10458
2.76997 1.48703 5.12927
2.76997 1.48703 5.12927
2.75488 1.50212 5.14479
2.75465 1.50235 5.11833
2.77036 1.48664 5.1525
2.75488 1.50212 5.14479
2.76997 1.48703 5.12927
2.76986 1.48714 5.10458
2.75455 1.50245 5.09263
2.76982 1.48718 5.07952
2.76981 1.48719 5.05436
2.78514 1.47186 5.06686
2.76982 1.48718 5.07952
2.7852 1.4718 5.11762
2.76997 1.48703 5.12927
2.76986 1.48714 5.10458
2.8005 1.4565 5.10395
2.8005 1.4565 5.12855
2.7852 1.4718 5.11762
2.8005 1.4565 5.00387
2.8005 1.4565 5.02898
2.78516 1.47184 5.01651
2.78515 1.47185 5.04167
2.8005 1.4565 5.02898
2.8005 1.4565 5.05406
2.8005 1.4565 5.05406
2.78514 1.47186 5.06686
2.78515 1.47185 5.04167
2.8005 1.4565 4.47652
2.8005 1.4565 4.50165
2.78518 1.47182 4.48907
2.78517 1.47183 4.94107
2.8005 1.4565 4.95361
2.78517 1.47183 4.96621
2.8005 1.4565 4.92848
2.8005 1.4565 4.95361
2.78517 1.47183 4.94107
2.78519 1.47181 4.81544
2.8005 1.4565 4.82799
2.78519 1.47181 4.84055
2.32274 1.93426 4.26059
2.33845 1.91855 4.2525
2.33845 1.91855 4.27563
2.27541 1.98159 5.1525
2.24359 2.01341 5.1525
2.25954 1.99746 5.14432
2.78515 1.47185 5.09212
2.76982 1.48718 5.07952
2.78514 1.47186 5.06686
2.76986 1.48714 5.10458
2.76982 1.48718 5.07952
2.78515 1.47185 5.09212
2.78515 1.47185 5.09212
2.7852 1.4718 5.11762
2.76986 1.48714 5.10458
2.8005 1.4565 5.10395
2.7852 1.4718 5.11762
2.78515 1.47185 5.09212
2.78544 1.47156 5.14384
2.8005 1.4565 5.12855
2.8005 1.4565 5.1525
2.78544 1.47156 5.14384
2.7852 1.4718 5.11762
2.8005 1.4565 5.12855
2.8005 1.4565 5.1525
2.77036 1.48664 5.1525
2.78544 1.47156 5.14384
2.77036 1.48664 5.1525
2.76997 1.48703 5.12927
2.78544 1.47156 5.14384
2.76997 1.48703 5.12927
2.7852 1.4718 5.11762
2.78544 1.47156 5.14384
2.78517 1.47183 4.96621
2.8005 1.4565 4.95361
2.8005 1.4565 4.97874
2.78514 1.47186 5.06686
2.8005 1.4565 5.05406
2.8005 1.4565 5.07907
2.8005 1.4565 5.10395
2.78515 1.47185 5.09212
2.8005 1.4565 5.07907
2.8005 1.4565 5.07907
2.78515 1.47185 5.09212
2.78514 1.47186 5.06686
2.8005 1.4565 4.80289
2.8005 1.4565 4.82799
2.78519 1.47181 4.81544
2.78518 1.47182 4.48907
2.8005 1.4565 4.50165
2.78518 1.47182 4.5142
2.76985 1.48715 4.92853
2.75454 1.50246 4.91598
2.76986 1.48714 4.90338
2.78516 1.47184 4.99136
2.8005 1.4565 5.00387
2.78516 1.47184 5.01651
2.78516 1.47184 4.99136
2.8005 1.4565 4.97874
2.8005 1.4565 5.00387
2.78516 1.47184 4.99136
2.76984 1.48716 4.97884
2.78517 1.47183 4.96621
2.78517 1.47183 4.96621
2.8005 1.4565 4.97874
2.78516 1.47184 4.99136
2.76982 1.48718 5.02918
2.78515 1.47185 5.04167
2.76981 1.48719 5.05436
2.76982 1.48718 5.02918
2.78516 1.47184 5.01651
2.78515 1.47185 5.04167
2.75451 1.50249 4.99149
2.7392 1.5178 5.00415
2.73921 1.51779 4.97894
2.53996 1.71704 5.11838
2.52458 1.73242 5.1049
2.53996 1.71704 5.09275
2.49374 1.76326 4.9538
2.49375 1.76325 4.979
2.47832 1.77868 4.96639
2.8005 1.4565 4.2525
2.8005 1.4565 4.27645
2.78544 1.47156 4.26116
2.27543 1.98157 5.12933
2.27541 1.98159 5.1525
2.25954 1.99746 5.14432
2.33845 1.91855 5.05446
2.32276 1.93424 5.06714
2.32275 1.93425 5.04185
2.25954 1.99746 5.14432
2.24359 2.01341 5.1525
2.24374 2.01326 5.12923
2.76987 1.48713 4.577
2.75455 1.50245 4.56443
2.76987 1.48713 4.55188
2.8005 1.4565 4.72759
2.78519 1.47181 4.71505
2.8005 1.4565 4.7025
2.78519 1.47181 4.76524
2.8005 1.4565 4.75269
2.8005 1.4565 4.77778
2.76988 1.48712 4.67741
2.75456 1.50244 4.68995
2.75456 1.50244 4.66486
2.76988 1.48712 4.7025
2.75456 1.50244 4.68995
2.76988 1.48712 4.67741
2.78519 1.47181 4.71505
2.76988 1.48712 4.72759
2.76988 1.48712 4.7025
2.75455 1.50245 4.84057
2.76987 1.48713 4.85312
2.75455 1.50245 4.8657
2.72393 1.53307 4.81547
2.72392 1.53308 4.84059
2.70861 1.54839 4.82803
2.75456 1.50244 4.81545
2.73924 1.51776 4.8029
2.75456 1.50244 4.79035
2.75456 1.50244 4.79035
2.76987 1.48713 4.80289
2.75456 1.50244 4.81545
2.73924 1.51776 4.8029
2.73925 1.51775 4.7778
2.75456 1.50244 4.79035
2.75456 1.50244 4.79035
2.73925 1.51775 4.7778
2.75456 1.50244 4.76524
2.8005 1.4565 4.77778
2.8005 1.4565 4.80289
2.78519 1.47181 4.79034
2.78519 1.47181 4.79034
2.78519 1.47181 4.76524
2.8005 1.4565 4.77778
2.78519 1.47181 4.79034
2.8005 1.4565 4.80289
2.78519 1.47181 4.81544
2.78519 1.47181 4.81544
2.76987 1.48713 4.80289
2.78519 1.47181 4.79034
2.75454 1.50246 4.89083
2.73923 1.51777 4.87828
2.75455 1.50245 4.8657
2.75454 1.50246 4.89083
2.76986 1.48714 4.90338
2.75454 1.50246 4.91598
2.7086 1.5484 4.8783
2.72392 1.53308 4.86572
2.72392 1.53308 4.89086
2.72392 1.53308 4.89086
2.72392 1.53308 4.86572
2.73923 1.51777 4.87828
2.8005 1.4565 4.8531
2.78519 1.47181 4.84055
2.8005 1.4565 4.82799
2.75455 1.50245 4.8657
2.76987 1.48713 4.85312
2.76986 1.48714 4.87825
2.76986 1.48714 4.87825
2.75454 1.50246 4.89083
2.75455 1.50245 4.8657
2.76986 1.48714 4.90338
2.75454 1.50246 4.89083
2.76986 1.48714 4.87825
2.78517 1.47183 4.96621
2.76984 1.48716 4.97884
2.76985 1.48715 4.95368
2.76985 1.48715 4.95368
2.78517 1.47183 4.94107
2.78517 1.47183 4.96621
2.76985 1.48715 4.92853
2.78517 1.47183 4.94107
2.76985 1.48715 4.95368
2.73921 1.51779 4.97894
2.73921 1.51779 4.95375
2.75452 1.50248 4.9663
2.75452 1.50248 4.9663
2.75451 1.50249 4.99149
2.73921 1.51779 4.97894
2.76984 1.48716 4.97884
2.75451 1.50249 4.99149
2.75452 1.50248 4.9663
2.75452 1.50248 4.9663
2.76985 1.48715 4.95368
2.76984 1.48716 4.97884
2.7239 1.5331 4.96638
2.73921 1.51779 4.95375
2.73921 1.51779 4.97894
2.7239 1.5331 4.96638
2.70859 1.54841 4.97901
2.70859 1.54841 4.95381
2.76981 1.48719 5.05436
2.76982 1.48718 5.07952
2.75451 1.50249 5.06722
2.75451 1.50249 5.06722
2.76982 1.48718 5.07952
2.75455 1.50245 5.09263
2.7392 1.5178 5.00415
2.75451 1.50249 4.99149
2.75451 1.50249 5.01669
2.75451 1.50249 5.01669
2.7392 1.5178 5.02937
2.7392 1.5178 5.00415
2.67798 1.57902 4.85317
2.66266 1.59434 4.86575
2.66266 1.59434 4.84061
2.70859 1.54841 4.95381
2.70859 1.54841 4.92862
2.7239 1.5331 4.94119
2.7239 1.5331 4.94119
2.7239 1.5331 4.96638
2.70859 1.54841 4.95381
2.73921 1.51779 4.95375
2.7239 1.5331 4.96638
2.7239 1.5331 4.94119
2.73922 1.51778 4.92858
2.73921 1.51779 4.95375
2.7239 1.5331 4.94119
2.57068 1.68632 5.09276
2.57068 1.68632 5.11839
2.55533 1.70167 5.10491
2.55533 1.70167 5.10491
2.57068 1.68632 5.11839
2.55533 1.70167 5.1295
2.55533 1.70167 5.10491
2.55533 1.70167 5.1295
2.53996 1.71704 5.11838
2.53996 1.71704 5.11838
2.53996 1.71704 5.09275
2.55533 1.70167 5.10491
2.52458 1.73242 5.07984
2.53996 1.71704 5.09275
2.52458 1.73242 5.1049
2.50912 1.74788 4.71505
2.50912 1.74788 4.74015
2.49371 1.76329 4.7276
2.41633 1.84067 4.84056
2.40077 1.85623 4.828
2.41632 1.84068 4.81545
2.41635 1.84065 4.89083
2.40081 1.85619 4.90339
2.40079 1.85621 4.87825
2.33845 1.91855 5.05446
2.32275 1.93425 5.04185
2.33843 1.91857 5.02924
2.33845 1.91855 5.07966
2.32276 1.93424 5.06714
2.33845 1.91855 5.05446
2.40087 1.85613 5.00412
2.40088 1.85612 5.02934
2.38531 1.87169 5.01672
2.30693 1.95007 4.95358
2.32265 1.93435 4.94103
2.32267 1.93433 4.9662
2.30684 1.95016 4.85303
2.29108 1.96592 4.86556
2.29106 1.96594 4.84046
2.32274 1.93426 5.14441
2.33845 1.91855 5.1525
2.30701 1.94999 5.1525
2.33845 1.91855 5.12937
2.33845 1.91855 5.1525
2.32274 1.93426 5.14441
2.35411 1.90289 5.14447
2.33845 1.91855 5.1525
2.33845 1.91855 5.12937
2.30704 1.94996 5.07961
2.30703 1.94997 5.10469
2.29128 1.96572 5.09246
2.55533 1.70167 5.1525
2.52458 1.73242 5.1525
2.53996 1.71704 5.14472
2.53996 1.71704 5.11838
2.55533 1.70167 5.1295
2.53996 1.71704 5.14472
2.53996 1.71704 5.14472
2.55533 1.70167 5.1295
2.55533 1.70167 5.1525
2.52458 1.73242 5.12949
2.52458 1.73242 5.1049
2.53996 1.71704 5.11838
2.53996 1.71704 5.11838
2.53996 1.71704 5.14472
2.52458 1.73242 5.12949
2.52458 1.73242 5.12949
2.53996 1.71704 5.14472
2.52458 1.73242 5.1525
2.41642 1.84058 5.01676
2.40088 1.85612 5.02934
2.40087 1.85613 5.00412
2.47831 1.77869 4.9412
2.49374 1.76326 4.92862
2.49374 1.76326 4.9538
2.49374 1.76326 4.9538
2.47832 1.77868 4.96639
2.47831 1.77869 4.9412
2.47833 1.77867 4.9916
2.47832 1.77868 4.96639
2.49375 1.76325 4.979
2.47833 1.77867 4.9916
2.49375 1.76325 4.979
2.49376 1.76324 5.00421
2.49376 1.76324 5.00421
2.47834 1.77866 5.01682
2.47833 1.77867 4.9916
2.47833 1.77867 4.9916
2.47834 1.77866 5.01682
2.46289 1.79411 5.00419
2.49377 1.76323 5.02943
2.47834 1.77866 5.01682
2.49376 1.76324 5.00421
2.49377 1.76323 5.05464
2.47835 1.77865 5.06734
2.47834 1.77866 5.04206
2.47834 1.77866 5.04206
2.49377 1.76323 5.02943
2.49377 1.76323 5.05464
2.47834 1.77866 5.01682
2.49377 1.76323 5.02943
2.47834 1.77866 5.04206
2.7852 1.4718 4.28738
2.78544 1.47156 4.26116
2.8005 1.4565 4.27645
2.76997 1.48703 4.27573
2.78544 1.47156 4.26116
2.7852 1.4718 4.28738
2.64739 1.60961 4.27548
2.64738 1.60962 4.2525
2.66272 1.59428 4.26021
2.70875 1.54825 4.2525
2.6934 1.5636 4.26017
2.67805 1.57895 4.2525
2.67805 1.57895 4.2525
2.66272 1.59428 4.26021
2.64738 1.60962 4.2525
2.19638 2.06062 4.28897
2.1963 2.0607 4.26286
2.2122 2.0448 4.27645
2.2122 2.0448 4.27645
2.22771 2.02929 4.26101
2.22802 2.02898 4.28745
2.18073 2.07627 4.27782
2.1963 2.0607 4.26286
2.19638 2.06062 4.28897
2.18073 2.07627 4.27782
2.18123 2.07577 4.2525
2.1963 2.0607 4.26286
2.27543 1.98157 4.27567
2.27541 1.98159 4.2525
2.29123 1.96577 4.26063
2.30701 1.94999 4.2525
[...]
<PointData Scalars="View Factor" >
<DataArray type="Float64" Name="View Factor" NumberOfComponents="1" format="ascii">
0.000620629
0.000620629
0.000620629
0.000668733
0.000668733
0.000668733
0.000652373
0.000652373
0.000652373
0.000579633
0.000579633
0.000579633
0.000589862
0.000589862
0.000589862
0.000604158
0.000604158
0.000604158
0.000605224
0.000605224
0.000605224
0.000598064
0.000598064
0.000598064
0.00062129
0.00062129
0.00062129
0.000613438
0.000613438
0.000613438
0.000614418
0.000614418
0.000614418
0.00062848
0.00062848
0.00062848
0.000644349
0.000644349
0.000644349
0.000629599
0.000629599
0.000629599
0.000646246
0.000646246
0.000646246
0.000677024
0.000677024
0.000677024
0.000669141
0.000669141
0.000669141
0.000660938
0.000660938
0.000660938
0.000872575
0.000872575
0.000872575
0.000692778
0.000692778
0.000692778
0.00070139
0.00070139
0.00070139
0.000735231
0.000735231
0.000735231
0.000522721
0.000522721
0.000522721
0.000346815
0.000346815
0.000346815
0.000644813
0.000644813
0.000644813
0.000636883
0.000636883
0.000636883
0.000637329
0.000637329
0.000637329
0.000645712
0.000645712
0.000645712
0.000638926
0.000638926
0.000638926
0.000638261
0.000638261
0.000638261
0.000628537
0.000628537
0.000628537
0.000622655
0.000622655
0.000622655
0.000630001
0.000630001
0.000630001
0.000693149
0.000693149
0.000693149
0.000661379
0.000661379
0.000661379
0.000653744
0.000653744
0.000653744
0.000653288
0.000653288
0.000653288
0.00074444
0.00074444
0.00074444
0.000861559
0.000861559
0.000861559
0.000682408
0.000682408
0.000682408
0.000676643
0.000676643
0.000676643
0.000685026
0.000685026
0.000685026
0.000675786
0.000675786
0.000675786
0.000684634
0.000684634
0.000684634
0.000651909
0.000651909
0.000651909
0.000660078
0.000660078
0.000660078
0.000641089
0.000641089
0.000641089
0.000438829
0.000438829
0.000438829
0.000428497
0.000428497
0.000428497
0.000977514
0.000977514
0.000977514
0.000347483
0.000347483
0.000347483
0.000359197
0.000359197
0.000359197
0.0003486
0.0003486
0.0003486
0.00080827
0.00080827
0.00080827
0.000781217
0.000781217
0.000781217
0.000762556
0.000762556
0.000762556
0.000759808
0.000759808
0.000759808
0.000760269
0.000760269
0.000760269
0.000761158
0.000761158
0.000761158
0.000698361
0.000698361
0.000698361
0.000668845
0.000668845
0.000668845
0.000705675
0.000705675
0.000705675
0.000715279
0.000715279
0.000715279
0.000705081
0.000705081
0.000705081
0.000714202
0.000714202
0.000714202
0.000753432
0.000753432
0.000753432
0.000753123
0.000753123
0.000753123
0.000744112
0.000744112
0.000744112
0.000734498
0.000734498
0.000734498
0.000680832
0.000680832
0.000680832
0.000681907
0.000681907
0.000681907
0.000653053
0.000653053
0.000653053
0.0006623
0.0006623
0.0006623
0.000735578
0.000735578
0.000735578
0.000698878
0.000698878
0.000698878
0.000690093
0.000690093
0.000690093
0.000690602
0.000690602
0.000690602
0.000675338
0.000675338
0.000675338
0.000683827
0.000683827
0.000683827
0.000683396
0.000683396
0.000683396
0.000648679
0.000648679
0.000648679
0.000649272
0.000649272
0.000649272
0.000658104
0.000658104
0.000658104
0.000666446
0.000666446
0.000666446
0.000639806
0.000639806
0.000639806
0.000622099
0.000622099
0.000622099
0.000635852
0.000635852
0.000635852
0.000627891
0.000627891
0.000627891
0.000641673
0.000641673
0.000641673
0.000633574
0.000633574
0.000633574
0.00061417
0.00061417
0.00061417
0.000629486
0.000629486
0.000629486
0.000630241
0.000630241
0.000630241
0.000639159
0.000639159
0.000639159
0.00064744
0.00064744
0.00064744
0.000463482
0.000463482
0.000463482
0.000456783
0.000456783
0.000456783
0.000448612
0.000448612
0.000448612
0.000447037
0.000447037
0.000447037
0.000437307
0.000437307
0.000437307
0.000494171
0.000494171
0.000494171
0.000397732
0.000397732
0.000397732
0.000386181
0.000386181
0.000386181
0.000361121
0.000361121
0.000361121
0.000357005
0.000357005
0.000357005
0.000364338
0.000364338
0.000364338
0.00037644
0.00037644
0.00037644
0.00039509
0.00039509
0.00039509
0.000344201
0.000344201
0.000344201
0.000345098
0.000345098
0.000345098
0.000344833
0.000344833
0.000344833
0.000353969
0.000353969
0.000353969
0.000434019
0.000434019
0.000434019
0.000441837
0.000441837
0.000441837
0.00044359
0.00044359
0.00044359
0.000432286
0.000432286
0.000432286
0.000433725
0.000433725
0.000433725
0.000427451
0.000427451
0.000427451
0.00036432
0.00036432
0.00036432
0.000433532
0.000433532
0.000433532
0.00042662
0.00042662
0.00042662
0.000421664
0.000421664
0.000421664
0.000423531
0.000423531
0.000423531
0.000416768
0.000416768
0.000416768
0.000408185
0.000408185
0.000408185
0.000418611
0.000418611
0.000418611
0.000407182
0.000407182
0.000407182
0.00041378
0.00041378
0.00041378
0.00041194
0.00041194
0.00041194
0.000965462
0.000965462
0.000965462
0.000953077
0.000953077
0.000953077
0.000801546
0.000801546
0.000801546
0.000855163
0.000855163
0.000855163
0.000817236
0.000817236
0.000817236
0.000527337
0.000527337
0.000527337
0.000525616
0.000525616
0.000525616
0.000528326
0.000528326
0.000528326
0.000532049
0.000532049
0.000532049
0.000524614
0.000524614
0.000524614
0.000524967
0.000524967
0.000524967
0.000526076
0.000526076
0.000526076
0.000488638
0.000488638
0.000488638
0.000485181
0.000485181
0.000485181
0.000345744
0.000345744
0.000345744
0.000352132
0.000352132
0.000352132
0.000349986
0.000349986
0.000349986
0.000398096
0.000398096
0.000398096
0.00039555
0.00039555
0.00039555
0.000368631
0.000368631
0.000368631
0.000872376
0.000872376
0.000872376
0.000800444
0.000800444
0.000800444
0.000788625
0.000788625
0.000788625
0.000778574
0.000778574
0.000778574
0.000798365
0.000798365
0.000798365
0.000788173
0.000788173
0.000788173
0.00077757
0.00077757
0.00077757
0.000777013
0.000777013
0.000777013
0.000787199
0.000787199
0.000787199
0.000797935
0.000797935
0.000797935
0.000676626
0.000676626
0.000676626
0.000666582
0.000666582
0.000666582
0.000666731
0.000666731
0.000666731
0.000786637
0.000786637
0.000786637
0.000861784
0.000861784
0.000861784
0.000612105
0.000612105
0.000612105
0.000593227
0.000593227
0.000593227
0.00064991
0.00064991
0.00064991
0.000616106
0.000616106
0.000616106
0.000653118
0.000653118
0.000653118
0.000652084
0.000652084
0.000652084
0.000642166
0.000642166
0.000642166
0.000633383
0.000633383
0.000633383
0.000749595
0.000749595
0.000749595
0.000790758
0.000790758
0.000790758
0.000780919
0.000780919
0.000780919
0.000770821
0.000770821
0.000770821
0.000770424
0.000770424
0.000770424
0.000780246
0.000780246
0.000780246
0.000790469
0.000790469
0.000790469
0.000581338
0.000581338
0.000581338
0.000589861
0.000589861
0.000589861
0.00064886
0.00064886
0.00064886
0.000649976
0.000649976
0.000649976
0.000641085
0.000641085
0.000641085
0.000631114
0.000631114
0.000631114
0.00059703
0.00059703
0.00059703
0.000595543
0.000595543
0.000595543
0.000578357
0.000578357
0.000578357
0.000588412
0.000588412
0.000588412
0.000638766
0.000638766
0.000638766
0.000629913
0.000629913
0.000629913
0.000716686
0.000716686
0.000716686
0.000707249
0.000707249
0.000707249
0.000706747
0.000706747
0.000706747
0.000725734
0.000725734
0.000725734
0.000725329
0.000725329
0.000725329
0.000715778
0.000715778
0.000715778
0.000678319
0.000678319
0.000678319
0.00069726
0.00069726
0.00069726
0.000696698
0.000696698
0.000696698
0.000687159
0.000687159
0.000687159
0.00066567
0.00066567
0.00066567
0.000684299
0.000684299
0.000684299
0.000674538
0.000674538
0.000674538
0.000743392
0.000743392
0.000743392
0.0007332
0.0007332
0.0007332
0.000742987
0.000742987
0.000742987
0.000723924
0.000723924
0.000723924
0.000724419
0.000724419
0.000724419
0.000734087
0.000734087
0.000734087
0.000680222
0.000680222
0.000680222
0.00067091
0.00067091
0.00067091
0.000670252
0.000670252
0.000670252
0.000688988
0.000688988
0.000688988
0.000678987
0.000678987
0.000678987
0.000688413
0.000688413
0.000688413
0.000660893
0.000660893
0.000660893
0.000660142
0.000660142
0.000660142
0.000650733
0.000650733
0.000650733
0.000652303
0.000652303
0.000652303
0.000672179
0.000672179
0.000672179
0.000662979
0.000662979
0.000662979
0.000672758
0.000672758
0.000672758
0.000664228
0.000664228
0.000664228
0.000644609
0.000644609
0.000644609
0.000717143
0.000717143
0.000717143
0.000726527
0.000726527
0.000726527
0.000726846
0.000726846
0.000726846
0.000708201
0.000708201
0.000708201
0.000709753
0.000709753
0.000709753
0.000691512
0.000691512
0.000691512
0.000701027
0.000701027
0.000701027
0.000691972
0.000691972
0.000691972
0.000718236
0.000718236
0.000718236
0.000717864
0.000717864
0.000717864
0.000708592
0.000708592
0.000708592
0.000699816
0.000699816
0.000699816
0.000700248
0.000700248
0.000700248
0.000709409
0.000709409
0.000709409
0.000656421
0.000656421
0.000656421
0.0006744
0.0006744
0.0006744
0.000657002
0.000657002
0.000657002
0.000665938
0.000665938
0.000665938
0.000664841
0.000664841
0.000664841
0.000673885
0.000673885
0.000673885
0.00063232
0.00063232
0.00063232
0.000631631
0.000631631
0.000631631
0.000622821
0.000622821
0.000622821
0.000643316
0.000643316
0.000643316
0.000626188
0.000626188
0.000626188
0.000642804
0.000642804
0.000642804
0.000634179
0.000634179
0.000634179
0.000635306
0.000635306
0.000635306
0.000626781
0.000626781
0.000626781
0.000604753
0.000604753
0.000604753
0.00061231
0.00061231
0.00061231
0.000588783
0.000588783
0.000588783
0.000596496
0.000596496
0.000596496
0.000595691
0.000595691
0.000595691
0.000618883
0.000618883
0.000618883
0.000603376
0.000603376
0.000603376
0.000619469
0.000619469
0.000619469
0.000611729
0.000611729
0.000611729
0.0006504
0.0006504
0.0006504
0.000667893
0.000667893
0.000667893
0.000659618
0.000659618
0.000659618
0.000650926
0.000650926
0.000650926
0.00066744
0.00066744
0.00066744
0.000658648
0.000658648
0.000658648
0.000555563
0.000555563
0.000555563
0.000554161
0.000554161
0.000554161
0.0005838
0.0005838
0.0005838
0.000564969
0.000564969
0.000564969
0.000615163
0.000615163
0.000615163
0.000458166
0.000458166
0.000458166
0.000451668
0.000451668
0.000451668
0.000458077
0.000458077
0.000458077
0.000486324
0.000486324
0.000486324
0.000503994
0.000503994
0.000503994
0.000569874
0.000569874
0.000569874
0.000571407
0.000571407
0.000571407
0.000400054
0.000400054
0.000400054
0.000381924
0.000381924
0.000381924
0.000395352
0.000395352
0.000395352
0.000407389
0.000407389
0.000407389
0.000405285
0.000405285
0.000405285
0.000407561
0.000407561
0.000407561
0.000363339
0.000363339
0.000363339
0.00035509
0.00035509
0.00035509
0.000355413
0.000355413
0.000355413
0.000353588
0.000353588
0.000353588
0.00036086
0.00036086
0.00036086
0.00036281
0.00036281
0.00036281
0.000360452
0.000360452
0.000360452
0.000362611
0.000362611
0.000362611
0.000373159
0.000373159
0.000373159
0.000373028
0.000373028
0.000373028
0.000373549
0.000373549
0.000373549
0.000373806
0.000373806
0.000373806
0.000376117
0.000376117
0.000376117
0.0003818
0.0003818
0.0003818
0.000364491
0.000364491
0.000364491
0.00036463
0.00036463
0.00036463
0.000378798
0.000378798
0.000378798
0.000380815
0.000380815
0.000380815
0.000384927
0.000384927
0.000384927
0.000397181
0.000397181
0.000397181
0.000343438
0.000343438
0.000343438
0.000342975
0.000342975
0.000342975
0.00035952
0.00035952
0.00035952
0.000357643
0.000357643
0.000357643
0.000409879
0.000409879
0.000409879
0.000419388
0.000419388
0.000419388
0.000432796
0.000432796
0.000432796
0.000425713
0.000425713
0.000425713
0.000447614
0.000447614
0.000447614
0.000369001
0.000369001
0.000369001
0.00040626
0.00040626
0.00040626
0.000412976
0.000412976
0.000412976
0.000398801
0.000398801
0.000398801
0.000382068
0.000382068
0.000382068
0.00096907
0.00096907
0.00096907
0.000952649
0.000952649
0.000952649
0.000890827
0.000890827
0.000890827
0.0009023
0.0009023
0.0009023
0.000893183
0.000893183
0.000893183
0.000527365
0.000527365
0.000527365
0.000524771
0.000524771
0.000524771
0.000527879
0.000527879
0.000527879
0.000526585
0.000526585
0.000526585
0.000523241
0.000523241
0.000523241
0.000525203
0.000525203
0.000525203
0.000522553
0.000522553
0.000522553
0.000518834
0.000518834
0.000518834
0.000522624
0.000522624
0.000522624
0.000520791
0.000520791
0.000520791
0.000523498
0.000523498
0.000523498
0.00052998
0.00052998
0.00052998
0.000529133
0.000529133
0.000529133
0.000533129
0.000533129
0.000533129
0.000530274
0.000530274
0.000530274
0.000490027
0.000490027
0.000490027
0.000428855
0.000428855
0.000428855
0.000483592
0.000483592
0.000483592
0.00044844
0.00044844
0.00044844
0.000453775
0.000453775
0.000453775
0.000450549
0.000450549
0.000450549
0.000451652
0.000451652
0.000451652
0.000449493
0.000449493
0.000449493
0.000475891
0.000475891
0.000475891
0.000456071
0.000456071
0.000456071
0.000424846
0.000424846
0.000424846
0.000432469
0.000432469
0.000432469
0.00042956
0.00042956
0.00042956
0.000484
0.000484
0.000484
0.000483255
0.000483255
0.000483255
0.000485671
0.000485671
0.000485671
0.000486598
0.000486598
0.000486598
0.000484161
0.000484161
0.000484161
0.000470399
0.000470399
0.000470399
0.000487415
0.000487415
0.000487415
0.000493286
0.000493286
0.000493286
0.000489757
0.000489757
0.000489757
0.000432118
0.000432118
0.000432118
0.000429557
0.000429557
0.000429557
0.000420102
0.000420102
0.000420102
0.000424512
0.000424512
0.000424512
0.000427113
0.000427113
0.000427113
0.000429632
0.000429632
0.000429632
0.000445113
0.000445113
0.000445113
0.000440565
0.000440565
0.000440565
0.000430801
0.000430801
0.000430801
0.000433183
0.000433183
0.000433183
0.000347035
0.000347035
0.000347035
0.000347355
0.000347355
0.000347355
0.000349606
0.000349606
0.000349606
0.000351378
0.000351378
0.000351378
0.000346122
0.000346122
0.000346122
0.000348108
0.000348108
0.000348108
0.000345351
0.000345351
0.000345351
0.000346987
0.000346987
0.000346987
0.000348545
0.000348545
0.000348545
0.000413179
0.000413179
0.000413179
0.000408426
0.000408426
0.000408426
0.00041029
0.00041029
0.00041029
0.000393509
0.000393509
0.000393509
0.000389494
0.000389494
0.000389494
0.000392034
0.000392034
0.000392034
0.000394039
0.000394039
0.000394039
0.000395234
0.000395234
0.000395234
0.000390695
0.000390695
0.000390695
0.000392633
0.000392633
0.000392633
0.000391362
0.000391362
0.000391362
0.000370545
0.000370545
0.000370545
0.000374452
0.000374452
0.000374452
0.000378714
0.000378714
0.000378714
0.000380606
0.000380606
0.000380606
0.000369082
0.000369082
0.000369082
0.00034923
0.00034923
0.00034923
0.000348676
0.000348676
0.000348676
0.000350602
0.000350602
0.000350602
0.000352572
0.000352572
0.000352572
0.000350862
0.000350862
0.000350862
0.000349541
0.000349541
0.000349541
0.000350099
0.000350099
0.000350099
0.000351362
0.000351362
0.000351362
0.000353588
0.000353588
0.000353588
0.000878287
0.000878287
0.000878287
0.000877069
0.000877069
0.000877069
0.000864448
0.000864448
0.000864448
0.000853204
0.000853204
0.000853204
0.00082666
0.00082666
0.00082666
0.000839242
0.000839242
0.000839242
0.000840683
0.000840683
0.000840683
0.000644116
0.000644116
0.000644116
0.000940438
0.000940438
0.000940438
0.000928128
0.000928128
0.000928128
0.000890996
0.000890996
0.000890996
0.000903394
0.000903394
0.000903394
0.000779021
0.000779021
0.000779021
0.00076912
0.00076912
0.00076912
0.000769599
0.000769599
0.000769599
0.000779881
0.000779881
0.000779881
0.000820263
0.000820263
0.000820263
0.000799168
0.000799168
0.000799168
0.000768103
0.000768103
0.000768103
0.000747186
0.000747186
0.000747186
0.000757034
0.000757034
0.000757034
0.000767564
0.000767564
0.000767564
0.000530816
0.000530816
0.000530816
0.00054771
0.00054771
0.00054771
0.000582336
0.000582336
0.000582336
0.000562256
0.000562256
0.000562256
0.000551269
0.000551269
0.000551269
0.000549157
0.000549157
0.000549157
0.00057127
0.00057127
0.00057127
0.000558123
0.000558123
0.000558123
0.00056925
0.00056925
0.00056925
0.00056427
0.00056427
0.00056427
0.000542426
0.000542426
0.000542426
0.000525028
0.000525028
0.000525028
0.000496007
0.000496007
0.000496007
0.000538112
0.000538112
0.000538112
0.000507581
0.000507581
0.000507581
0.000653341
0.000653341
0.000653341
0.000556266
0.000556266
0.000556266
0.000554402
0.000554402
0.000554402
0.000589771
0.000589771
0.000589771
0.000609714
0.000609714
0.000609714
0.000600583
0.000600583
0.000600583
0.000668282
0.000668282
0.000668282
0.000789001
0.000789001
0.000789001
0.000742171
0.000742171
0.000742171
0.000740949
0.000740949
0.000740949
0.000728528
0.000728528
0.000728528
0.000726462
0.000726462
0.000726462
0.000591523
0.000591523
0.000591523
0.000632799
0.000632799
0.000632799
0.000610203
0.000610203
0.000610203
0.000807823
0.000807823
0.000807823
0.000796952
0.000796952
0.000796952
0.000645329
0.000645329
0.000645329
0.000666922
0.000666922
0.000666922
0.000665621
0.000665621
0.000665621
0.000654762
0.000654762
0.000654762
0.000681264
0.000681264
0.000681264
0.000633787
0.000633787
0.000633787
0.000657906
0.000657906
0.000657906
0.000850965
0.000850965
0.000850965
0.000851162
0.000851162
0.000851162
0.000840701
0.000840701
0.000840701
0.000819082
0.000819082
0.000819082
0.000829554
0.000829554
0.000829554
0.000840439
0.000840439
0.000840439
0.000830404
0.000830404
0.000830404
0.000820005
0.000820005
0.000820005
0.000809391
0.000809391
0.000809391
0.000809041
0.000809041
0.000809041
0.000819422
0.000819422
0.000819422
0.00083017
0.00083017
0.00083017
0.00076223
0.00076223
0.00076223
0.000752379
0.000752379
0.000752379
0.00075198
0.00075198
0.00075198
0.000771817
0.000771817
0.000771817
0.000761538
0.000761538
0.000761538
0.000771512
0.000771512
0.000771512
0.000619441
0.000619441
0.000619441
0.000601521
0.000601521
0.000601521
0.000611012
0.000611012
0.000611012
0.000618353
0.000618353
0.000618353
0.00064045
0.00064045
0.00064045
0.000621548
0.000621548
0.000621548
0.000622546
0.000622546
0.000622546
0.000631939
0.000631939
0.000631939
0.000629001
0.000629001
0.000629001
0.000630014
0.000630014
0.000630014
0.000639523
0.000639523
0.000639523
0.000648135
0.000648135
0.000648135
0.000682733
0.000682733
0.000682733
0.000662985
0.000662985
0.000662985
0.000673711
0.000673711
0.000673711
0.000663899
0.000663899
0.000663899
0.000693367
0.000693367
0.000693367
0.000692616
0.000692616
0.000692616
0.000660019
0.000660019
0.000660019
0.000661035
0.000661035
0.000661035
0.000625834
0.000625834
0.000625834
0.000626917
0.000626917
0.000626917
0.000644298
0.000644298
0.000644298
0.000634501
0.000634501
0.000634501
0.000736729
0.000736729
0.000736729
0.00072705
0.00072705
0.00072705
0.000699434
0.000699434
0.000699434
0.000749032
0.000749032
0.000749032
0.000758778
0.000758778
0.000758778
0.000747822
0.000747822
0.000747822
0.000758221
0.000758221
0.000758221
0.000600352
0.000600352
0.000600352
0.000608745
0.000608745
0.000608745
0.00060759
0.00060759
0.00060759
0.000597933
0.000597933
0.000597933
0.000589546
0.000589546
0.000589546
0.00059081
0.00059081
0.00059081
0.000582543
0.000582543
0.000582543
0.00057307
0.00057307
0.00057307
0.000614905
0.000614905
0.000614905
0.000623535
0.000623535
0.000623535
0.000622368
0.000622368
0.000622368
0.000612469
0.000612469
0.000612469
0.000582797
0.000582797
0.000582797
0.000592679
0.000592679
0.000592679
0.000637569
0.000637569
0.000637569
0.000635101
0.000635101
0.000635101
0.000599864
0.000599864
0.000599864
0.000619891
0.000619891
0.000619891
0.000601231
0.000601231
0.000601231
0.000611183
0.000611183
0.000611183
0.000631119
0.000631119
0.000631119
0.000549543
0.000549543
0.000549543
0.000541083
0.000541083
0.000541083
0.000585363
0.000585363
0.000585363
0.000576796
0.000576796
0.000576796
0.000666507
0.000666507
0.000666507
0.000657711
0.000657711
0.000657711
0.000668083
0.000668083
0.000668083
0.000658556
0.000658556
0.000658556
0.000694759
0.000694759
0.000694759
0.00068505
0.00068505
0.00068505
0.000695425
0.000695425
0.000695425
0.00067615
0.00067615
0.00067615
0.00068648
0.00068648
0.00068648
0.00067689
0.00067689
0.00067689
0.000627915
0.000627915
0.000627915
0.000654503
0.000654503
0.000654503
0.000645367
0.000645367
0.000645367
0.00065514
0.00065514
0.00065514
0.000636987
0.000636987
0.000636987
0.00064674
0.00064674
0.00064674
0.000637713