<VTKFile type="UnstructuredGrid" version="1.0">
<UnstructuredGrid>
<Piece NumberOfPoints="8859" NumberOfCells="2953">
<Points>
<DataArray type="Float64" NumberOfComponents="3" format="ascii">
2.75455 1.50245 0.912625
2.76986 1.48714 0.924584
2.75465 1.50235 0.938328
2.78515 1.47185 0.861673
2.78516 1.47184 0.836515
2.8005 1.4565 0.84898
2.76981 1.48719 0.874362
2.78515 1.47185 0.861673
2.78514 1.47186 0.886856
2.72412 1.53288 0.96488
2.73952 1.51748 0.9725
2.70875 1.54825 0.9725
2.72412 1.53288 0.96488
2.73943 1.51757 0.949569
2.73952 1.51748 0.9725
2.75488 1.50212 0.964788
2.77036 1.48664 0.9725
2.73952 1.51748 0.9725
2.75488 1.50212 0.964788
2.73943 1.51757 0.949569
2.75465 1.50235 0.938328
2.73952 1.51748 0.9725
2.73943 1.51757 0.949569
2.75488 1.50212 0.964788
2.75465 1.50235 0.938328
2.76986 1.48714 0.924584
2.76997 1.48703 0.94927
2.76997 1.48703 0.94927
2.75488 1.50212 0.964788
2.75465 1.50235 0.938328
2.77036 1.48664 0.9725
2.75488 1.50212 0.964788
2.76997 1.48703 0.94927
2.76986 1.48714 0.924584
2.75455 1.50245 0.912625
2.76982 1.48718 0.899521
2.76981 1.48719 0.874362
2.78514 1.47186 0.886856
2.76982 1.48718 0.899521
2.7852 1.4718 0.937625
2.76997 1.48703 0.94927
2.76986 1.48714 0.924584
2.8005 1.4565 0.923949
2.8005 1.4565 0.948552
2.7852 1.4718 0.937625
2.8005 1.4565 0.823871
2.8005 1.4565 0.84898
2.78516 1.47184 0.836515
2.78515 1.47185 0.861673
2.8005 1.4565 0.84898
2.8005 1.4565 0.874055
2.8005 1.4565 0.874055
2.78514 1.47186 0.886856
2.78515 1.47185 0.861673
2.8005 1.4565 0.29652
2.8005 1.4565 0.321651
2.78518 1.47182 0.309069
2.78517 1.47183 0.76107
2.8005 1.4565 0.773613
2.78517 1.47183 0.786215
2.8005 1.4565 0.74848
2.8005 1.4565 0.773613
2.78517 1.47183 0.76107
2.78519 1.47181 0.635442
2.8005 1.4565 0.647992
2.78519 1.47181 0.660554
2.32274 1.93426 0.0805869
2.33845 1.91855 0.0725
2.33845 1.91855 0.095634
2.27541 1.98159 0.9725
2.24359 2.01341 0.9725
2.25954 1.99746 0.964321
2.78515 1.47185 0.912117
2.76982 1.48718 0.899521
2.78514 1.47186 0.886856
2.76986 1.48714 0.924584
2.76982 1.48718 0.899521
2.78515 1.47185 0.912117
2.78515 1.47185 0.912117
2.7852 1.4718 0.937625
2.76986 1.48714 0.924584
2.8005 1.4565 0.923949
2.7852 1.4718 0.937625
2.78515 1.47185 0.912117
2.78544 1.47156 0.963839
2.8005 1.4565 0.948552
2.8005 1.4565 0.9725
2.78544 1.47156 0.963839
2.7852 1.4718 0.937625
2.8005 1.4565 0.948552
2.8005 1.4565 0.9725
2.77036 1.48664 0.9725
2.78544 1.47156 0.963839
2.77036 1.48664 0.9725
2.76997 1.48703 0.94927
2.78544 1.47156 0.963839
2.76997 1.48703 0.94927
2.7852 1.4718 0.937625
2.78544 1.47156 0.963839
2.78517 1.47183 0.786215
2.8005 1.4565 0.773613
2.8005 1.4565 0.798745
2.78514 1.47186 0.886856
2.8005 1.4565 0.874055
2.8005 1.4565 0.899067
2.8005 1.4565 0.923949
2.78515 1.47185 0.912117
2.8005 1.4565 0.899067
2.8005 1.4565 0.899067
2.78515 1.47185 0.912117
2.78514 1.47186 0.886856
2.8005 1.4565 0.622885
2.8005 1.4565 0.647992
2.78519 1.47181 0.635442
2.78518 1.47182 0.309069
2.8005 1.4565 0.321651
2.78518 1.47182 0.334202
2.76985 1.48715 0.748526
2.75454 1.50246 0.735977
2.76986 1.48714 0.723383
2.78516 1.47184 0.811363
2.8005 1.4565 0.823871
2.78516 1.47184 0.836515
2.78516 1.47184 0.811363
2.8005 1.4565 0.798745
2.8005 1.4565 0.823871
2.78516 1.47184 0.811363
2.76984 1.48716 0.798839
2.78517 1.47183 0.786215
2.78517 1.47183 0.786215
2.8005 1.4565 0.798745
2.78516 1.47184 0.811363
2.76982 1.48718 0.849184
2.78515 1.47185 0.861673
2.76981 1.48719 0.874362
2.76982 1.48718 0.849184
2.78516 1.47184 0.836515
2.78515 1.47185 0.861673
2.75451 1.50249 0.81149
2.7392 1.5178 0.824146
2.73921 1.51779 0.798941
2.53996 1.71704 0.938376
2.52458 1.73242 0.924896
2.53996 1.71704 0.91275
2.49374 1.76326 0.773805
2.49375 1.76325 0.799
2.47832 1.77868 0.786392
2.8005 1.4565 0.0725
2.8005 1.4565 0.096448
2.78544 1.47156 0.0811606
2.27543 1.98157 0.949328
2.27541 1.98159 0.9725
2.25954 1.99746 0.964321
2.33845 1.91855 0.874462
2.32276 1.93424 0.88714
2.32275 1.93425 0.861854
2.25954 1.99746 0.964321
2.24359 2.01341 0.9725
2.24374 2.01326 0.949228
2.76987 1.48713 0.396996
2.75455 1.50245 0.384429
2.76987 1.48713 0.371878
2.8005 1.4565 0.547592
2.78519 1.47181 0.535047
2.8005 1.4565 0.5225
2.78519 1.47181 0.585237
2.8005 1.4565 0.572686
2.8005 1.4565 0.597784
2.76988 1.48712 0.497406
2.75456 1.50244 0.509952
2.75456 1.50244 0.484856
2.76988 1.48712 0.5225
2.75456 1.50244 0.509952
2.76988 1.48712 0.497406
2.78519 1.47181 0.535047
2.76988 1.48712 0.547594
2.76988 1.48712 0.5225
2.75455 1.50245 0.660571
2.76987 1.48713 0.673122
2.75455 1.50245 0.685697
2.72393 1.53307 0.635467
2.72392 1.53308 0.660589
2.70861 1.54839 0.648033
2.75456 1.50244 0.635455
2.73924 1.51776 0.622905
2.75456 1.50244 0.610346
2.75456 1.50244 0.610346
2.76987 1.48713 0.622894
2.75456 1.50244 0.635455
2.73924 1.51776 0.622905
2.73925 1.51775 0.597797
2.75456 1.50244 0.610346
2.75456 1.50244 0.610346
2.73925 1.51775 0.597797
2.75456 1.50244 0.585242
2.8005 1.4565 0.597784
2.8005 1.4565 0.622885
2.78519 1.47181 0.610337
2.78519 1.47181 0.610337
2.78519 1.47181 0.585237
2.8005 1.4565 0.597784
2.78519 1.47181 0.610337
2.8005 1.4565 0.622885
2.78519 1.47181 0.635442
2.78519 1.47181 0.635442
2.76987 1.48713 0.622894
2.78519 1.47181 0.610337
2.75454 1.50246 0.710831
2.73923 1.51777 0.698277
2.75455 1.50245 0.685697
2.75454 1.50246 0.710831
2.76986 1.48714 0.723383
2.75454 1.50246 0.735977
2.7086 1.5484 0.698302
2.72392 1.53308 0.68572
2.72392 1.53308 0.710864
2.72392 1.53308 0.710864
2.72392 1.53308 0.68572
2.73923 1.51777 0.698277
2.8005 1.4565 0.673105
2.78519 1.47181 0.660554
2.8005 1.4565 0.647992
2.75455 1.50245 0.685697
2.76987 1.48713 0.673122
2.76986 1.48714 0.698248
2.76986 1.48714 0.698248
2.75454 1.50246 0.710831
2.75455 1.50245 0.685697
2.76986 1.48714 0.723383
2.75454 1.50246 0.710831
2.76986 1.48714 0.698248
2.78517 1.47183 0.786215
2.76984 1.48716 0.798839
2.76985 1.48715 0.773678
2.76985 1.48715 0.773678
2.78517 1.47183 0.76107
2.78517 1.47183 0.786215
2.76985 1.48715 0.748526
2.78517 1.47183 0.76107
2.76985 1.48715 0.773678
2.73921 1.51779 0.798941
2.73921 1.51779 0.773753
2.75452 1.50248 0.786304
2.75452 1.50248 0.786304
2.75451 1.50249 0.81149
2.73921 1.51779 0.798941
2.76984 1.48716 0.798839
2.75451 1.50249 0.81149
2.75452 1.50248 0.786304
2.75452 1.50248 0.786304
2.76985 1.48715 0.773678
2.76984 1.48716 0.798839
2.7239 1.5331 0.786381
2.73921 1.51779 0.773753
2.73921 1.51779 0.798941
2.7239 1.5331 0.786381
2.70859 1.54841 0.799009
2.70859 1.54841 0.773807
2.76981 1.48719 0.874362
2.76982 1.48718 0.899521
2.75451 1.50249 0.887217
2.75451 1.50249 0.887217
2.76982 1.48718 0.899521
2.75455 1.50245 0.912625
2.7392 1.5178 0.824146
2.75451 1.50249 0.81149
2.75451 1.50249 0.836694
2.75451 1.50249 0.836694
2.7392 1.5178 0.849368
2.7392 1.5178 0.824146
2.67798 1.57902 0.673174
2.66266 1.59434 0.685749
2.66266 1.59434 0.660611
2.70859 1.54841 0.773807
2.70859 1.54841 0.748623
2.7239 1.5331 0.761192
2.7239 1.5331 0.761192
2.7239 1.5331 0.786381
2.70859 1.54841 0.773807
2.73921 1.51779 0.773753
2.7239 1.5331 0.786381
2.7239 1.5331 0.761192
2.73922 1.51778 0.748581
2.73921 1.51779 0.773753
2.7239 1.5331 0.761192
2.57068 1.68632 0.912763
2.57068 1.68632 0.93839
2.55533 1.70167 0.924907
2.55533 1.70167 0.924907
2.57068 1.68632 0.93839
2.55533 1.70167 0.949497
2.55533 1.70167 0.924907
2.55533 1.70167 0.949497
2.53996 1.71704 0.938376
2.53996 1.71704 0.938376
2.53996 1.71704 0.91275
2.55533 1.70167 0.924907
2.52458 1.73242 0.899845
2.53996 1.71704 0.91275
2.52458 1.73242 0.924896
2.50912 1.74788 0.53505
2.50912 1.74788 0.56015
2.49371 1.76329 0.547599
2.41633 1.84067 0.660564
2.40077 1.85623 0.647996
2.41632 1.84068 0.635447
2.41635 1.84065 0.710832
2.40081 1.85619 0.723393
2.40079 1.85621 0.698249
2.33845 1.91855 0.874462
2.32275 1.93425 0.861854
2.33843 1.91857 0.849241
2.33845 1.91855 0.899657
2.32276 1.93424 0.88714
2.33845 1.91855 0.874462
2.40087 1.85613 0.824121
2.40088 1.85612 0.849338
2.38531 1.87169 0.836717
2.30693 1.95007 0.773576
2.32265 1.93435 0.761025
2.32267 1.93433 0.786199
2.30684 1.95016 0.67303
2.29108 1.96592 0.685563
2.29106 1.96594 0.660458
2.32274 1.93426 0.964413
2.33845 1.91855 0.9725
2.30701 1.94999 0.9725
2.33845 1.91855 0.949366
2.33845 1.91855 0.9725
2.32274 1.93426 0.964413
2.35411 1.90289 0.964474
2.33845 1.91855 0.9725
2.33845 1.91855 0.949366
2.30704 1.94996 0.89961
2.30703 1.94997 0.924693
2.29128 1.96572 0.912459
2.55533 1.70167 0.9725
2.52458 1.73242 0.9725
2.53996 1.71704 0.964721
2.53996 1.71704 0.938376
2.55533 1.70167 0.949497
2.53996 1.71704 0.964721
2.53996 1.71704 0.964721
2.55533 1.70167 0.949497
2.55533 1.70167 0.9725
2.52458 1.73242 0.949489
2.52458 1.73242 0.924896
2.53996 1.71704 0.938376
2.53996 1.71704 0.938376
2.53996 1.71704 0.964721
2.52458 1.73242 0.949489
2.52458 1.73242 0.949489
2.53996 1.71704 0.964721
2.52458 1.73242 0.9725
2.41642 1.84058 0.836759
2.40088 1.85612 0.849338
2.40087 1.85613 0.824121
2.47831 1.77869 0.761204
2.49374 1.76326 0.748624
2.49374 1.76326 0.773805
2.49374 1.76326 0.773805
2.47832 1.77868 0.786392
2.47831 1.77869 0.761204
2.47833 1.77867 0.811596
2.47832 1.77868 0.786392
2.49375 1.76325 0.799
2.47833 1.77867 0.811596
2.49375 1.76325 0.799
2.49376 1.76324 0.824208
2.49376 1.76324 0.824208
2.47834 1.77866 0.836818
2.47833 1.77867 0.811596
2.47833 1.77867 0.811596
2.47834 1.77866 0.836818
2.46289 1.79411 0.824187
2.49377 1.76323 0.849427
2.47834 1.77866 0.836818
2.49376 1.76324 0.824208
2.49377 1.76323 0.874644
2.47835 1.77865 0.887342
2.47834 1.77866 0.862061
2.47834 1.77866 0.862061
2.49377 1.76323 0.849427
2.49377 1.76323 0.874644
2.47834 1.77866 0.836818
2.49377 1.76323 0.849427
2.47834 1.77866 0.862061
2.7852 1.4718 0.107375
2.78544 1.47156 0.0811606
2.8005 1.4565 0.096448
2.76997 1.48703 0.0957297
2.78544 1.47156 0.0811606
2.7852 1.4718 0.107375
2.64739 1.60961 0.0954754
2.64738 1.60962 0.0725
2.66272 1.59428 0.0802084
2.70875 1.54825 0.0725
2.6934 1.5636 0.0801683
2.67805 1.57895 0.0725
2.67805 1.57895 0.0725
2.66272 1.59428 0.0802084
[...]
<PointData Scalars="View Factor" >
<DataArray type="Float64" Name="View Factor" NumberOfComponents="1" format="ascii">
0.00668207
0.00668207
0.00668207
0.00655627
0.00655627
0.00655627
0.00659769
0.00659769
0.00659769
0.00658351
0.00658351
0.00658351
0.00664128
0.00664128
0.00664128
0.00688228
0.00688228
0.00688228
0.00672651
0.00672651
0.00672651
0.00674003
0.00674003
0.00674003
0.00679694
0.00679694
0.00679694
0.00682333
0.00682333
0.00682333
0.0069372
0.0069372
0.0069372
0.00665975
0.00665975
0.00665975
0.00661811
0.00661811
0.00661811
0.00689195
0.00689195
0.00689195
0.00708224
0.00708224
0.00708224
0.00653553
0.00653553
0.00653553
0.0066674
0.0066674
0.0066674
0.00668902
0.00668902
0.00668902
0.00438312
0.00438312
0.00438312
0.00617717
0.00617717
0.00617717
0.00615846
0.00615846
0.00615846
0.00560372
0.00560372
0.00560372
0.00190762
0.00190762
0.00190762
0.00357072
0.00357072
0.00357072
0.00673208
0.00673208
0.00673208
0.00675332
0.00675332
0.00675332
0.00687075
0.00687075
0.00687075
0.00696519
0.00696519
0.00696519
0.00722753
0.00722753
0.00722753
0.00711083
0.00711083
0.00711083
0.00717715
0.00717715
0.00717715
0.00703375
0.00703375
0.00703375
0.00701491
0.00701491
0.00701491
0.00628112
0.00628112
0.00628112
0.00680243
0.00680243
0.00680243
0.00694068
0.00694068
0.00694068
0.00682502
0.00682502
0.00682502
0.00558788
0.00558788
0.00558788
0.00439344
0.00439344
0.00439344
0.00579304
0.00579304
0.00579304
0.00642675
0.00642675
0.00642675
0.00640678
0.00640678
0.00640678
0.00621436
0.00621436
0.00621436
0.00630053
0.00630053
0.00630053
0.00648652
0.00648652
0.00648652
0.00646664
0.00646664
0.00646664
0.00597201
0.00597201
0.00597201
0.00460298
0.00460298
0.00460298
0.00375574
0.00375574
0.00375574
0.00373435
0.00373435
0.00373435
0.00355219
0.00355219
0.00355219
0.00335239
0.00335239
0.00335239
0.00354804
0.00354804
0.00354804
0.00444314
0.00444314
0.00444314
0.00517809
0.00517809
0.00517809
0.00537815
0.00537815
0.00537815
0.00479613
0.00479613
0.00479613
0.00487565
0.00487565
0.00487565
0.00503806
0.00503806
0.00503806
0.00547907
0.00547907
0.00547907
0.00506923
0.00506923
0.00506923
0.00519741
0.00519741
0.00519741
0.00527228
0.00527228
0.00527228
0.00511097
0.00511097
0.00511097
0.00509912
0.00509912
0.00509912
0.00548177
0.00548177
0.00548177
0.00539285
0.00539285
0.00539285
0.00549703
0.00549703
0.00549703
0.0054221
0.0054221
0.0054221
0.00550676
0.00550676
0.00550676
0.00569612
0.00569612
0.00569612
0.00526881
0.00526881
0.00526881
0.00534811
0.00534811
0.00534811
0.00569655
0.00569655
0.00569655
0.00557162
0.00557162
0.00557162
0.0055862
0.0055862
0.0055862
0.0056809
0.0056809
0.0056809
0.00611056
0.00611056
0.00611056
0.00609271
0.00609271
0.00609271
0.00599117
0.00599117
0.00599117
0.00585498
0.00585498
0.00585498
0.00595617
0.00595617
0.00595617
0.0060422
0.0060422
0.0060422
0.00602532
0.00602532
0.00602532
0.00576988
0.00576988
0.00576988
0.00559971
0.00559971
0.00559971
0.00652612
0.00652612
0.00652612
0.00654663
0.00654663
0.00654663
0.00607562
0.00607562
0.00607562
0.00609222
0.00609222
0.00609222
0.00478009
0.00478009
0.00478009
0.00549056
0.00549056
0.00549056
0.00558684
0.00558684
0.00558684
0.00567102
0.00567102
0.00567102
0.0056572
0.0056572
0.0056572
0.00488255
0.00488255
0.00488255
0.00488339
0.00488339
0.00488339
0.00478913
0.00478913
0.00478913
0.00469597
0.00469597
0.00469597
0.00451023
0.00451023
0.00451023
0.00323774
0.00323774
0.00323774
0.00290084
0.00290084
0.00290084
0.00303465
0.00303465
0.00303465
0.00332434
0.00332434
0.00332434
0.00338902
0.00338902
0.00338902
0.0033264
0.0033264
0.0033264
0.00309973
0.00309973
0.00309973
0.00286813
0.00286813
0.00286813
0.00360309
0.00360309
0.00360309
0.00359072
0.00359072
0.00359072
0.00360092
0.00360092
0.00360092
0.00343272
0.00343272
0.00343272
0.00481779
0.00481779
0.00481779
0.00479261
0.00479261
0.00479261
0.00488443
0.00488443
0.00488443
0.00460122
0.00460122
0.00460122
0.00469762
0.00469762
0.00469762
0.00469265
0.00469265
0.00469265
0.00334038
0.00334038
0.00334038
0.00368356
0.00368356
0.00368356
0.00367873
0.00367873
0.00367873
0.00375101
0.00375101
0.00375101
0.00382972
0.00382972
0.00382972
0.00382513
0.00382513
0.00382513
0.00374061
0.00374061
0.00374061
0.00390565
0.00390565
0.00390565
0.00397899
0.00397899
0.00397899
0.00398337
0.00398337
0.00398337
0.00390112
0.00390112
0.00390112
0.00373962
0.00373962
0.00373962
0.00368875
0.00368875
0.00368875
0.00303557
0.00303557
0.00303557
0.00321696
0.00321696
0.00321696
0.00306886
0.00306886
0.00306886
0.00192476
0.00192476
0.00192476
0.00191848
0.00191848
0.00191848
0.00192845
0.00192845
0.00192845
0.00191471
0.00191471
0.00191471
0.00189935
0.00189935
0.00189935
0.00189528
0.00189528
0.00189528
0.00189045
0.00189045
0.00189045
0.00215273
0.00215273
0.00215273
0.002169
0.002169
0.002169
0.00357353
0.00357353
0.00357353
0.00346366
0.00346366
0.00346366
0.00349939
0.00349939
0.00349939
0.00283745
0.00283745
0.00283745
0.00286485
0.00286485
0.00286485
0.00320793
0.00320793
0.00320793
0.00431422
0.00431422
0.00431422
0.00498712
0.00498712
0.00498712
0.00461031
0.00461031
0.00461031
0.00462058
0.00462058
0.00462058
0.00452581
0.00452581
0.00452581
0.00453574
0.00453574
0.00453574
0.00447161
0.00447161
0.00447161
0.0043988
0.0043988
0.0043988
0.00438982
0.00438982
0.00438982
0.00445274
0.00445274
0.00445274
0.00254404
0.00254404
0.00254404
0.00253944
0.00253944
0.00253944
0.00248228
0.00248228
0.00248228
0.00431856
0.00431856
0.00431856
0.00446371
0.00446371
0.00446371
0.00461332
0.00461332
0.00461332
0.00446208
0.00446208
0.00446208
0.00491697
0.00491697
0.00491697
0.00429088
0.00429088
0.00429088
0.00442283
0.00442283
0.00442283
0.00434641
0.00434641
0.00434641
0.00427634
0.00427634
0.00427634
0.00428142
0.00428142
0.00428142
0.00472822
0.00472822
0.00472822
0.0050815
0.0050815
0.0050815
0.00509485
0.00509485
0.00509485
0.00502554
0.00502554
0.00502554
0.00494426
0.00494426
0.00494426
0.00493205
0.00493205
0.00493205
0.00500004
0.00500004
0.00500004
0.0037876
0.0037876
0.0037876
0.00378644
0.00378644
0.00378644
0.00412386
0.00412386
0.00412386
0.00419685
0.00419685
0.00419685
0.00420164
0.00420164
0.00420164
0.00413237
0.00413237
0.00413237
0.00371666
0.00371666
0.00371666
0.00364938
0.00364938
0.00364938
0.00365026
0.00365026
0.00365026
0.0037176
0.0037176
0.0037176
0.00405592
0.00405592
0.00405592
0.00405967
0.00405967
0.00405967
0.00554223
0.00554223
0.00554223
0.00546506
0.00546506
0.00546506
0.00537449
0.00537449
0.00537449
0.0055273
0.0055273
0.0055273
0.00543652
0.00543652
0.00543652
0.00536087
0.00536087
0.00536087
0.00514544
0.00514544
0.00514544
0.00529814
0.00529814
0.00529814
0.0052096
0.0052096
0.0052096
0.00513406
0.00513406
0.00513406
0.00473272
0.00473272
0.00473272
0.00479679
0.00479679
0.00479679
0.00472432
0.00472432
0.00472432
0.00531938
0.00531938
0.00531938
0.00515984
0.00515984
0.00515984
0.00523257
0.00523257
0.00523257
0.00517253
0.00517253
0.00517253
0.00525918
0.00525918
0.00525918
0.00533336
0.00533336
0.00533336
0.00541443
0.00541443
0.00541443
0.00533582
0.00533582
0.00533582
0.00524555
0.00524555
0.00524555
0.0054012
0.0054012
0.0054012
0.00523368
0.00523368
0.00523368
0.00531074
0.00531074
0.00531074
0.00516781
0.00516781
0.00516781
0.00507978
0.00507978
0.00507978
0.00500289
0.00500289
0.00500289
0.00517879
0.00517879
0.00517879
0.00552049
0.00552049
0.00552049
0.00544032
0.00544032
0.00544032
0.00561509
0.00561509
0.00561509
0.00562929
0.00562929
0.00562929
0.00528009
0.00528009
0.00528009
0.00563481
0.00563481
0.00563481
0.00571278
0.00571278
0.00571278
0.00580788
0.00580788
0.00580788
0.00565033
0.00565033
0.00565033
0.00603875
0.00603875
0.00603875
0.00587496
0.00587496
0.00587496
0.00605684
0.00605684
0.00605684
0.00597405
0.00597405
0.00597405
0.00592191
0.00592191
0.00592191
0.00582489
0.00582489
0.00582489
0.00574536
0.00574536
0.00574536
0.0057612
0.0057612
0.0057612
0.00585821
0.00585821
0.00585821
0.00593934
0.00593934
0.00593934
0.00574062
0.00574062
0.00574062
0.00590761
0.00590761
0.00590761
0.00583959
0.00583959
0.00583959
0.00592392
0.00592392
0.00592392
0.00572587
0.00572587
0.00572587
0.00580855
0.00580855
0.00580855
0.00588519
0.00588519
0.00588519
0.00578428
0.00578428
0.00578428
0.0056984
0.0056984
0.0056984
0.00639617
0.00639617
0.00639617
0.00621546
0.00621546
0.00621546
0.00628759
0.00628759
0.00628759
0.00619816
0.00619816
0.00619816
0.00641524
0.00641524
0.00641524
0.00632407
0.00632407
0.00632407
0.00660551
0.00660551
0.00660551
0.00658736
0.00658736
0.00658736
0.0065315
0.0065315
0.0065315
0.00650945
0.00650945
0.00650945
0.00639734
0.00639734
0.00639734
0.00634219
0.00634219
0.00634219
0.00637827
0.00637827
0.00637827
0.00645373
0.00645373
0.00645373
0.00647225
0.00647225
0.00647225
0.00616333
0.00616333
0.00616333
0.00633885
0.00633885
0.00633885
0.00635802
0.00635802
0.00635802
0.00626936
0.00626936
0.00626936
0.00623267
0.00623267
0.00623267
0.00614573
0.00614573
0.00614573
0.00416075
0.00416075
0.00416075
0.00408409
0.00408409
0.00408409
0.00438657
0.00438657
0.00438657
0.0042359
0.0042359
0.0042359
0.00486546
0.00486546
0.00486546
0.00510823
0.00510823
0.00510823
0.00498065
0.00498065
0.00498065
0.00498322
0.00498322
0.00498322
0.0032336
0.0032336
0.0032336
0.00330611
0.00330611
0.00330611
0.00365045
0.00365045
0.00365045
0.00371894
0.00371894
0.00371894
0.00286811
0.00286811
0.00286811
0.0030483
0.0030483
0.0030483
0.00292236
0.00292236
0.00292236
0.0027479
0.0027479
0.0027479
0.00276246
0.00276246
0.00276246
0.00274066
0.00274066
0.00274066
0.00328862
0.00328862
0.00328862
0.00341788
0.00341788
0.00341788
0.00341002
0.00341002
0.00341002
0.00343921
0.00343921
0.00343921
0.00333324
0.00333324
0.00333324
0.00330613
0.00330613
0.00330613
0.00335387
0.00335387
0.00335387
0.00331626
0.00331626
0.00331626
0.0031661
0.0031661
0.0031661
0.00317671
0.00317671
0.00317671
0.00314747
0.00314747
0.00314747
0.00313945
0.00313945
0.00313945
0.0031063
0.0031063
0.0031063
0.00305823
0.00305823
0.00305823
0.00330107
0.00330107
0.00330107
0.00328976
0.00328976
0.00328976
0.00306783
0.00306783
0.00306783
0.00304208
0.00304208
0.00304208
0.00299189
0.00299189
0.00299189
0.00284383
0.00284383
0.00284383
0.00363375
0.00363375
0.00363375
0.00367408
0.00367408
0.00367408
0.0033448
0.0033448
0.0033448
0.00337359
0.00337359
0.00337359
0.0045294
0.0045294
0.0045294
0.00459704
0.00459704
0.00459704
0.00339582
0.00339582
0.00339582
0.00338996
0.00338996
0.00338996
0.00369209
0.00369209
0.00369209
0.00394509
0.00394509
0.00394509
0.00366239
0.00366239
0.00366239
0.00366818
0.00366818
0.00366818
0.00389094
0.00389094
0.00389094
0.00371543
0.00371543
0.00371543
0.00366459
0.00366459
0.00366459
0.00363467
0.00363467
0.00363467
0.00343547
0.00343547
0.00343547
0.00343373
0.00343373
0.00343373
0.00336583
0.00336583
0.00336583
0.00190107
0.00190107
0.00190107
0.00191646
0.00191646
0.00191646
0.0018895
0.0018895
0.0018895
0.00189986
0.00189986
0.00189986
0.001914
0.001914
0.001914
0.00189905
0.00189905
0.00189905
0.00191361
0.00191361
0.00191361
0.00193052
0.00193052
0.00193052
0.00193665
0.00193665
0.00193665
0.00195747
0.00195747
0.00195747
0.00193974
0.00193974
0.00193974
0.00190805
0.00190805
0.00190805
0.00190485
0.00190485
0.00190485
0.00190085
0.00190085
0.00190085
0.00189289
0.00189289
0.00189289
0.0020843
0.0020843
0.0020843
0.00254422
0.00254422
0.00254422
0.00212173
0.00212173
0.00212173
0.00245636
0.00245636
0.00245636
0.00241394
0.00241394
0.00241394
0.00243243
0.00243243
0.00243243
0.00240457
0.00240457
0.00240457
0.00242772
0.00242772
0.00242772
0.00225313
0.00225313
0.00225313
0.00235944
0.00235944
0.00235944
0.00265628
0.00265628
0.00265628
0.00252311
0.00252311
0.00252311
0.00254491
0.00254491
0.00254491
0.00213896
0.00213896
0.00213896
0.00213791
0.00213791
0.00213791
0.00214276
0.00214276
0.00214276
0.00214551
0.00214551
0.00214551
0.0021654
0.0021654
0.0021654
0.00221231
0.00221231
0.00221231
0.00217787
0.00217787
0.00217787
0.00214152
0.00214152
0.00214152
0.00215716
0.00215716
0.00215716
0.00253169
0.00253169
0.00253169
0.00255899
0.00255899
0.00255899
0.00261005
0.00261005
0.00261005
0.00261527
0.00261527
0.00261527
0.00259636
0.00259636
0.00259636
0.00256803
0.00256803
0.00256803
0.00289795
0.00289795
0.00289795
0.00277864
0.00277864
0.00277864
0.00250935
0.00250935
0.00250935
0.00248899
0.00248899
0.00248899
0.00355432
0.00355432
0.00355432
0.00354587
0.00354587
0.00354587
0.00350613
0.00350613
0.00350613
0.00347686
0.00347686
0.00347686
0.00356653
0.00356653
0.00356653
0.00353216
0.00353216
0.00353216
0.00358184
0.00358184
0.00358184
0.00355591
0.00355591
0.00355591
0.00352693
0.00352693
0.00352693
0.00278063
0.00278063
0.00278063
0.00283114
0.00283114
0.00283114
0.00280281
0.00280281
0.00280281
0.00288991
0.00288991
0.00288991
0.00294142
0.00294142
0.00294142
0.00291368
0.00291368
0.00291368
0.00288777
0.00288777
0.00288777
0.002886
0.002886
0.002886
0.00293939
0.00293939
0.00293939
0.00291274
0.00291274
0.00291274
0.00293966
0.00293966
0.00293966
0.00318016
0.00318016
0.00318016
0.00312606
0.00312606
0.00312606
0.00308002
0.00308002
0.00308002
0.00305247
0.00305247
0.00305247
0.00320362
0.00320362
0.00320362
0.00354741
0.00354741
0.00354741
0.00356932
0.00356932
0.00356932
0.00354952
0.00354952
0.00354952
0.00345861
0.00345861
0.00345861
0.00348912
0.00348912
0.00348912
0.00351961
0.00351961
0.00351961
0.00351757
0.00351757
0.00351757
0.00348554
0.00348554
0.00348554
0.00345151
0.00345151
0.00345151
0.00338515
0.00338515
0.00338515
0.00333371
0.00333371
0.00333371
0.00328386
0.00328386
0.00328386
0.00328474
0.00328474
0.00328474
0.00313471
0.00313471
0.00313471
0.00318436
0.00318436
0.00318436
0.00323459
0.00323459
0.00323459
0.00304184
0.00304184
0.00304184
0.00369672
0.00369672
0.00369672
0.0036454
0.0036454
0.0036454
0.00349267
0.00349267
0.00349267
0.0035435
0.0035435
0.0035435
0.00469678
0.00469678
0.00469678
0.00470736
0.00470736
0.00470736
0.00478509
0.00478509
0.00478509
0.0048524
0.0048524
0.0048524
0.00480472
0.00480472
0.00480472
0.00467509
0.00467509
0.00467509
0.00455521
0.00455521
0.00455521
0.00442455
0.00442455
0.00442455
0.00441608
0.00441608
0.00441608
0.00448077
0.00448077
0.00448077
0.00313128
0.00313128
0.00313128
0.00313734
0.00313734
0.00313734
0.00286593
0.00286593
0.00286593
0.00280513
0.00280513
0.00280513
0.0027475
0.0027475
0.0027475
0.0026945
0.0026945
0.0026945
0.00280869
0.00280869
0.00280869
0.00269878
0.00269878
0.00269878
0.00275535
0.00275535
0.00275535
0.00285951
0.00285951
0.00285951
0.00274321
0.00274321
0.00274321
0.00273387
0.00273387
0.00273387
0.00214188
0.00214188
0.00214188
0.00263757
0.00263757
0.00263757
0.00219413
0.00219413
0.00219413
0.00338911
0.00338911
0.00338911
0.00314009
0.00314009
0.00314009
0.0030807
0.0030807
0.0030807
0.00309012
0.00309012
0.00309012
0.0031512
0.0031512
0.0031512
0.00314987
0.00314987
0.00314987
0.00258759
0.00258759
0.00258759
0.0029861
0.0029861
0.0029861
0.00288685
0.00288685
0.00288685
0.00283562
0.00283562
0.00283562
0.00278606
0.00278606
0.00278606
0.00273979
0.00273979
0.00273979
0.00286878
0.00286878
0.00286878
0.00298573
0.00298573
0.00298573
0.00287378
0.00287378
0.00287378
0.00437167
0.00437167
0.00437167
0.00430992
0.00430992
0.00430992
0.00345127
0.00345127
0.00345127
0.00357304
0.00357304
0.00357304
0.00351042
0.00351042
0.00351042
0.00345009
0.00345009
0.00345009
0.0038295
0.0038295
0.0038295
0.00377754
0.00377754
0.00377754
0.00411918
0.00411918
0.00411918
0.00447425
0.00447425
0.00447425
0.00454613
0.00454613
0.00454613
0.0046304
0.0046304
0.0046304
0.00450553
0.00450553
0.00450553
0.00449537
0.00449537
0.00449537
0.0045572
0.0045572
0.0045572
0.00471658
0.00471658
0.00471658
0.0047283
0.0047283
0.0047283
0.00466409
0.00466409
0.00466409
0.00458938
0.00458938
0.00458938
0.00457869
0.00457869
0.00457869
0.00464169
0.00464169
0.00464169
0.00529127
0.00529127
0.00529127
0.00521921
0.00521921
0.00521921
0.00513428
0.00513428
0.00513428
0.00527695
0.00527695
0.00527695
0.00512122
0.00512122
0.00512122
0.00519189
0.00519189
0.00519189
0.00452613
0.00452613
0.00452613
0.00445708
0.00445708
0.00445708
0.00453198
0.00453198
0.00453198
0.0044465
0.0044465
0.0044465
0.00484094
0.00484094
0.00484094
0.00468912
0.00468912
0.00468912
0.00477261
0.00477261
0.00477261
0.00484927
0.00484927
0.00484927
0.00460044
0.00460044
0.00460044
0.00468206
0.00468206
0.00468206
0.00475723
0.00475723
0.00475723
0.0047493
0.0047493
0.0047493
0.00463566
0.00463566
0.00463566
0.00449371
0.00449371
0.00449371
0.00464386
0.00464386
0.00464386
0.0045722
0.0045722
0.0045722
0.00478736
0.00478736
0.00478736
0.00470674
0.00470674
0.00470674
0.00426558
0.00426558
0.00426558
0.00434046
0.00434046
0.00434046
0.0043629
0.0043629
0.0043629
0.00444085
0.00444085
0.00444085
0.00442901
0.00442901
0.00442901
0.00435756
0.00435756
0.00435756
0.00435931
0.00435931
0.00435931
0.00436703
0.00436703
0.00436703
0.00446466
0.00446466
0.00446466
0.0046506
0.0046506
0.0046506
0.00464073
0.00464073
0.00464073
0.00449881
0.00449881
0.00449881
0.00456475
0.00456475
0.00456475
0.00437775
0.00437775
0.00437775
0.00437306
0.00437306
0.00437306
0.00429535
0.00429535
0.00429535
0.00422279
0.00422279
0.00422279
0.00422647
0.00422647
0.00422647
0.00430372
0.00430372
0.00430372
0.0043076
0.0043076
0.0043076
0.00423301
0.00423301
0.00423301
0.00421503
0.00421503
0.00421503
0.0042108
0.0042108
0.0042108
0.00413638
0.00413638
0.00413638
0.00406658
0.00406658
0.00406658
0.00385783
0.00385783
0.00385783
0.00392733
0.00392733
0.00392733
0.0039847
0.0039847
0.0039847
0.00384545
0.00384545
0.00384545
0.00385459
0.00385459
0.00385459
0.00399122
0.00399122
0.00399122
0.0039252
0.0039252
0.0039252
0.00399418
0.00399418
0.00399418
0.00364459
0.00364459
0.00364459
0.00319805
0.00319805
0.00319805
0.0031954
0.0031954
0.0031954
0.00358332
0.00358332
0.00358332
0.00358328
0.00358328
0.00358328
0.0048149
0.0048149
0.0048149
0.00482384
0.00482384
0.00482384
0.00498318
0.00498318
0.00498318
0.00490779
0.00490779
0.00490779
0.00495247
0.00495247
0.00495247
0.0048792
0.0048792
0.0048792
0.0050369
0.0050369
0.0050369
0.00488881
0.00488881
0.00488881
0.00504781
0.00504781
0.00504781
0.00497309
0.00497309
0.00497309
0.00530243
0.00530243
0.00530243
0.00545298
0.00545298
0.00545298
0.00537209
0.00537209
0.00537209
0.00554752
0.00554752
0.00554752
0.00538404
0.00538404
0.00538404
0.00556085
0.00556085
0.00556085
0.00547832
0.00547832
0.00547832
0.006444
0.006444
0.006444
0.00643386
0.00643386
0.00643386
0.00626759
0.00626759
0.00626759
0.00625009
0.00625009
0.00625009
0.00370544
0.00370544
0.00370544
0.00432588
0.00432588
0.00432588
0.00432338
0.00432338
0.00432338
0.00454846
0.00454846
0.00454846
0.00470278
0.00470278
0.00470278
0.00461956
0.00461956
0.00461956
0.00454317
0.00454317
0.00454317
0.00472768
0.00472768
0.00472768
0.00494367
0.00494367
0.00494367
0.00510037
0.00510037
0.00510037
0.00493496
0.00493496
0.00493496
0.00501251
0.00501251
0.00501251
0.00504033
0.00504033
0.00504033
0.00512989
0.00512989
0.00512989
0.00521059
0.00521059
0.00521059
0.00520008
0.00520008
0.00520008
0.00511035
0.00511035
0.00511035
0.00503123
0.00503123
0.00503123
0.00496055
0.00496055
0.00496055
0.00496867
0.00496867
0.00496867
0.0048882
0.0048882
0.0048882
0.00487325
0.00487325
0.00487325
0.00540728
0.00540728
0.00540728
0.00531339
0.00531339
0.00531339
0.00498446
0.00498446
0.00498446
0.00481439
0.00481439
0.00481439
0.00489551
0.00489551
0.00489551
0.00482058
0.00482058
0.00482058
0.00499204
0.00499204
0.00499204
0.00490927
0.00490927
0.00490927
0.00406303
0.00406303
0.00406303
0.00415229
0.00415229
0.00415229
0.00414459
0.00414459
0.00414459
0.00405884
0.00405884
0.00405884
0.00441849
0.00441849
0.00441849
0.00432968
0.00432968
0.00432968
0.00423571
0.00423571
0.00423571
0.00423918
0.00423918
0.00423918
0.00296843
0.00296843
0.00296843
0.00301224
0.00301224
0.00301224
0.00295592
0.00295592
0.00295592
0.00297782
0.00297782
0.00297782
0.00314858
0.00314858
0.00314858
0.00401069
0.00401069
0.00401069
0.00400983
0.00400983
0.00400983