<VTKFile type="UnstructuredGrid" version="1.0">
<UnstructuredGrid>
<Piece NumberOfPoints="8859" NumberOfCells="2953">
<Points>
<DataArray type="Float64" NumberOfComponents="3" format="ascii">
2.75455 1.50245 6.13763
2.76986 1.48714 6.14958
2.75465 1.50235 6.16333
2.78515 1.47185 6.08667
2.78516 1.47184 6.06151
2.8005 1.4565 6.07398
2.76981 1.48719 6.09936
2.78515 1.47185 6.08667
2.78514 1.47186 6.11186
2.72412 1.53288 6.18988
2.73952 1.51748 6.1975
2.70875 1.54825 6.1975
2.72412 1.53288 6.18988
2.73943 1.51757 6.17457
2.73952 1.51748 6.1975
2.75488 1.50212 6.18979
2.77036 1.48664 6.1975
2.73952 1.51748 6.1975
2.75488 1.50212 6.18979
2.73943 1.51757 6.17457
2.75465 1.50235 6.16333
2.73952 1.51748 6.1975
2.73943 1.51757 6.17457
2.75488 1.50212 6.18979
2.75465 1.50235 6.16333
2.76986 1.48714 6.14958
2.76997 1.48703 6.17427
2.76997 1.48703 6.17427
2.75488 1.50212 6.18979
2.75465 1.50235 6.16333
2.77036 1.48664 6.1975
2.75488 1.50212 6.18979
2.76997 1.48703 6.17427
2.76986 1.48714 6.14958
2.75455 1.50245 6.13763
2.76982 1.48718 6.12452
2.76981 1.48719 6.09936
2.78514 1.47186 6.11186
2.76982 1.48718 6.12452
2.7852 1.4718 6.16262
2.76997 1.48703 6.17427
2.76986 1.48714 6.14958
2.8005 1.4565 6.14895
2.8005 1.4565 6.17355
2.7852 1.4718 6.16262
2.8005 1.4565 6.04887
2.8005 1.4565 6.07398
2.78516 1.47184 6.06151
2.78515 1.47185 6.08667
2.8005 1.4565 6.07398
2.8005 1.4565 6.09906
2.8005 1.4565 6.09906
2.78514 1.47186 6.11186
2.78515 1.47185 6.08667
2.8005 1.4565 5.52152
2.8005 1.4565 5.54665
2.78518 1.47182 5.53407
2.78517 1.47183 5.98607
2.8005 1.4565 5.99861
2.78517 1.47183 6.01121
2.8005 1.4565 5.97348
2.8005 1.4565 5.99861
2.78517 1.47183 5.98607
2.78519 1.47181 5.86044
2.8005 1.4565 5.87299
2.78519 1.47181 5.88555
2.32274 1.93426 5.30559
2.33845 1.91855 5.2975
2.33845 1.91855 5.32063
2.27541 1.98159 6.1975
2.24359 2.01341 6.1975
2.25954 1.99746 6.18932
2.78515 1.47185 6.13712
2.76982 1.48718 6.12452
2.78514 1.47186 6.11186
2.76986 1.48714 6.14958
2.76982 1.48718 6.12452
2.78515 1.47185 6.13712
2.78515 1.47185 6.13712
2.7852 1.4718 6.16262
2.76986 1.48714 6.14958
2.8005 1.4565 6.14895
2.7852 1.4718 6.16262
2.78515 1.47185 6.13712
2.78544 1.47156 6.18884
2.8005 1.4565 6.17355
2.8005 1.4565 6.1975
2.78544 1.47156 6.18884
2.7852 1.4718 6.16262
2.8005 1.4565 6.17355
2.8005 1.4565 6.1975
2.77036 1.48664 6.1975
2.78544 1.47156 6.18884
2.77036 1.48664 6.1975
2.76997 1.48703 6.17427
2.78544 1.47156 6.18884
2.76997 1.48703 6.17427
2.7852 1.4718 6.16262
2.78544 1.47156 6.18884
2.78517 1.47183 6.01121
2.8005 1.4565 5.99861
2.8005 1.4565 6.02375
2.78514 1.47186 6.11186
2.8005 1.4565 6.09906
2.8005 1.4565 6.12407
2.8005 1.4565 6.14895
2.78515 1.47185 6.13712
2.8005 1.4565 6.12407
2.8005 1.4565 6.12407
2.78515 1.47185 6.13712
2.78514 1.47186 6.11186
2.8005 1.4565 5.84789
2.8005 1.4565 5.87299
2.78519 1.47181 5.86044
2.78518 1.47182 5.53407
2.8005 1.4565 5.54665
2.78518 1.47182 5.5592
2.76985 1.48715 5.97353
2.75454 1.50246 5.96098
2.76986 1.48714 5.94838
2.78516 1.47184 6.03636
2.8005 1.4565 6.04887
2.78516 1.47184 6.06151
2.78516 1.47184 6.03636
2.8005 1.4565 6.02375
2.8005 1.4565 6.04887
2.78516 1.47184 6.03636
2.76984 1.48716 6.02384
2.78517 1.47183 6.01121
2.78517 1.47183 6.01121
2.8005 1.4565 6.02375
2.78516 1.47184 6.03636
2.76982 1.48718 6.07418
2.78515 1.47185 6.08667
2.76981 1.48719 6.09936
2.76982 1.48718 6.07418
2.78516 1.47184 6.06151
2.78515 1.47185 6.08667
2.75451 1.50249 6.03649
2.7392 1.5178 6.04915
2.73921 1.51779 6.02394
2.53996 1.71704 6.16338
2.52458 1.73242 6.1499
2.53996 1.71704 6.13775
2.49374 1.76326 5.9988
2.49375 1.76325 6.024
2.47832 1.77868 6.01139
2.8005 1.4565 5.2975
2.8005 1.4565 5.32145
2.78544 1.47156 5.30616
2.27543 1.98157 6.17433
2.27541 1.98159 6.1975
2.25954 1.99746 6.18932
2.33845 1.91855 6.09946
2.32276 1.93424 6.11214
2.32275 1.93425 6.08685
2.25954 1.99746 6.18932
2.24359 2.01341 6.1975
2.24374 2.01326 6.17423
2.76987 1.48713 5.622
2.75455 1.50245 5.60943
2.76987 1.48713 5.59688
2.8005 1.4565 5.77259
2.78519 1.47181 5.76005
2.8005 1.4565 5.7475
2.78519 1.47181 5.81024
2.8005 1.4565 5.79769
2.8005 1.4565 5.82278
2.76988 1.48712 5.72241
2.75456 1.50244 5.73495
2.75456 1.50244 5.70986
2.76988 1.48712 5.7475
2.75456 1.50244 5.73495
2.76988 1.48712 5.72241
2.78519 1.47181 5.76005
2.76988 1.48712 5.77259
2.76988 1.48712 5.7475
2.75455 1.50245 5.88557
2.76987 1.48713 5.89812
2.75455 1.50245 5.9107
2.72393 1.53307 5.86047
2.72392 1.53308 5.88559
2.70861 1.54839 5.87303
2.75456 1.50244 5.86045
2.73924 1.51776 5.8479
2.75456 1.50244 5.83535
2.75456 1.50244 5.83535
2.76987 1.48713 5.84789
2.75456 1.50244 5.86045
2.73924 1.51776 5.8479
2.73925 1.51775 5.8228
2.75456 1.50244 5.83535
2.75456 1.50244 5.83535
2.73925 1.51775 5.8228
2.75456 1.50244 5.81024
2.8005 1.4565 5.82278
2.8005 1.4565 5.84789
2.78519 1.47181 5.83534
2.78519 1.47181 5.83534
2.78519 1.47181 5.81024
2.8005 1.4565 5.82278
2.78519 1.47181 5.83534
2.8005 1.4565 5.84789
2.78519 1.47181 5.86044
2.78519 1.47181 5.86044
2.76987 1.48713 5.84789
2.78519 1.47181 5.83534
2.75454 1.50246 5.93583
2.73923 1.51777 5.92328
2.75455 1.50245 5.9107
2.75454 1.50246 5.93583
2.76986 1.48714 5.94838
2.75454 1.50246 5.96098
2.7086 1.5484 5.9233
2.72392 1.53308 5.91072
2.72392 1.53308 5.93586
2.72392 1.53308 5.93586
2.72392 1.53308 5.91072
2.73923 1.51777 5.92328
2.8005 1.4565 5.8981
2.78519 1.47181 5.88555
2.8005 1.4565 5.87299
2.75455 1.50245 5.9107
2.76987 1.48713 5.89812
2.76986 1.48714 5.92325
2.76986 1.48714 5.92325
2.75454 1.50246 5.93583
2.75455 1.50245 5.9107
2.76986 1.48714 5.94838
2.75454 1.50246 5.93583
2.76986 1.48714 5.92325
2.78517 1.47183 6.01121
2.76984 1.48716 6.02384
2.76985 1.48715 5.99868
2.76985 1.48715 5.99868
2.78517 1.47183 5.98607
2.78517 1.47183 6.01121
2.76985 1.48715 5.97353
2.78517 1.47183 5.98607
2.76985 1.48715 5.99868
2.73921 1.51779 6.02394
2.73921 1.51779 5.99875
2.75452 1.50248 6.0113
2.75452 1.50248 6.0113
2.75451 1.50249 6.03649
2.73921 1.51779 6.02394
2.76984 1.48716 6.02384
2.75451 1.50249 6.03649
2.75452 1.50248 6.0113
2.75452 1.50248 6.0113
2.76985 1.48715 5.99868
2.76984 1.48716 6.02384
2.7239 1.5331 6.01138
2.73921 1.51779 5.99875
2.73921 1.51779 6.02394
2.7239 1.5331 6.01138
2.70859 1.54841 6.02401
2.70859 1.54841 5.99881
2.76981 1.48719 6.09936
2.76982 1.48718 6.12452
2.75451 1.50249 6.11222
2.75451 1.50249 6.11222
2.76982 1.48718 6.12452
2.75455 1.50245 6.13763
2.7392 1.5178 6.04915
2.75451 1.50249 6.03649
2.75451 1.50249 6.06169
2.75451 1.50249 6.06169
2.7392 1.5178 6.07437
2.7392 1.5178 6.04915
2.67798 1.57902 5.89817
2.66266 1.59434 5.91075
2.66266 1.59434 5.88561
2.70859 1.54841 5.99881
2.70859 1.54841 5.97362
2.7239 1.5331 5.98619
2.7239 1.5331 5.98619
2.7239 1.5331 6.01138
2.70859 1.54841 5.99881
2.73921 1.51779 5.99875
2.7239 1.5331 6.01138
2.7239 1.5331 5.98619
2.73922 1.51778 5.97358
2.73921 1.51779 5.99875
2.7239 1.5331 5.98619
2.57068 1.68632 6.13776
2.57068 1.68632 6.16339
2.55533 1.70167 6.14991
2.55533 1.70167 6.14991
2.57068 1.68632 6.16339
2.55533 1.70167 6.1745
2.55533 1.70167 6.14991
2.55533 1.70167 6.1745
2.53996 1.71704 6.16338
2.53996 1.71704 6.16338
2.53996 1.71704 6.13775
2.55533 1.70167 6.14991
2.52458 1.73242 6.12485
2.53996 1.71704 6.13775
2.52458 1.73242 6.1499
2.50912 1.74788 5.76005
2.50912 1.74788 5.78515
2.49371 1.76329 5.7726
2.41633 1.84067 5.88556
2.40077 1.85623 5.873
2.41632 1.84068 5.86045
2.41635 1.84065 5.93583
2.40081 1.85619 5.94839
2.40079 1.85621 5.92325
2.33845 1.91855 6.09946
2.32275 1.93425 6.08685
2.33843 1.91857 6.07424
2.33845 1.91855 6.12466
2.32276 1.93424 6.11214
2.33845 1.91855 6.09946
2.40087 1.85613 6.04912
2.40088 1.85612 6.07434
2.38531 1.87169 6.06172
2.30693 1.95007 5.99858
2.32265 1.93435 5.98603
2.32267 1.93433 6.0112
2.30684 1.95016 5.89803
2.29108 1.96592 5.91056
2.29106 1.96594 5.88546
2.32274 1.93426 6.18941
2.33845 1.91855 6.1975
2.30701 1.94999 6.1975
2.33845 1.91855 6.17437
2.33845 1.91855 6.1975
2.32274 1.93426 6.18941
2.35411 1.90289 6.18947
2.33845 1.91855 6.1975
2.33845 1.91855 6.17437
2.30704 1.94996 6.12461
2.30703 1.94997 6.14969
2.29128 1.96572 6.13746
2.55533 1.70167 6.1975
2.52458 1.73242 6.1975
2.53996 1.71704 6.18972
2.53996 1.71704 6.16338
2.55533 1.70167 6.1745
2.53996 1.71704 6.18972
2.53996 1.71704 6.18972
2.55533 1.70167 6.1745
2.55533 1.70167 6.1975
2.52458 1.73242 6.17449
2.52458 1.73242 6.1499
2.53996 1.71704 6.16338
2.53996 1.71704 6.16338
2.53996 1.71704 6.18972
2.52458 1.73242 6.17449
2.52458 1.73242 6.17449
2.53996 1.71704 6.18972
2.52458 1.73242 6.1975
2.41642 1.84058 6.06176
2.40088 1.85612 6.07434
2.40087 1.85613 6.04912
2.47831 1.77869 5.9862
2.49374 1.76326 5.97362
2.49374 1.76326 5.9988
2.49374 1.76326 5.9988
2.47832 1.77868 6.01139
2.47831 1.77869 5.9862
2.47833 1.77867 6.0366
2.47832 1.77868 6.01139
2.49375 1.76325 6.024
2.47833 1.77867 6.0366
2.49375 1.76325 6.024
2.49376 1.76324 6.04921
2.49376 1.76324 6.04921
2.47834 1.77866 6.06182
2.47833 1.77867 6.0366
2.47833 1.77867 6.0366
2.47834 1.77866 6.06182
2.46289 1.79411 6.04919
2.49377 1.76323 6.07443
2.47834 1.77866 6.06182
2.49376 1.76324 6.04921
2.49377 1.76323 6.09964
2.47835 1.77865 6.11234
2.47834 1.77866 6.08706
2.47834 1.77866 6.08706
2.49377 1.76323 6.07443
2.49377 1.76323 6.09964
2.47834 1.77866 6.06182
2.49377 1.76323 6.07443
2.47834 1.77866 6.08706
2.7852 1.4718 5.33238
2.78544 1.47156 5.30616
2.8005 1.4565 5.32145
2.76997 1.48703 5.32073
2.78544 1.47156 5.30616
2.7852 1.4718 5.33238
2.64739 1.60961 5.32048
2.64738 1.60962 5.2975
2.66272 1.59428 5.30521
2.70875 1.54825 5.2975
2.6934 1.5636 5.30517
2.67805 1.57895 5.2975
2.67805 1.57895 5.2975
2.66272 1.59428 5.30521
2.64738 1.60962 5.2975
2.19638 2.06062 5.33397
2.1963 2.0607 5.30786
2.2122 2.0448 5.32145
2.2122 2.0448 5.32145
2.22771 2.02929 5.30601
2.22802 2.02898 5.33245
2.18073 2.07627 5.32282
2.1963 2.0607 5.30786
2.19638 2.06062 5.33397
2.18073 2.07627 5.32282
2.18123 2.07577 5.2975
2.1963 2.0607 5.30786
2.27543 1.98157 5.32067
2.27541 1.98159 5.2975
2.29123 1.96577 5.30563
2.30701 1.94999 5.2975
[...]
<PointData Scalars="View Factor" >
<DataArray type="Float64" Name="View Factor" NumberOfComponents="1" format="ascii">
0.000165202
0.000165202
0.000165202
0.000167373
0.000167373
0.000167373
0.00016666
0.00016666
0.00016666
0.00016006
0.00016006
0.00016006
0.000161835
0.000161835
0.000161835
0.000166684
0.000166684
0.000166684
0.000164497
0.000164497
0.000164497
0.000164033
0.000164033
0.000164033
0.000166979
0.000166979
0.000166979
0.000166669
0.000166669
0.000166669
0.000168434
0.000168434
0.000168434
0.000165558
0.000165558
0.000165558
0.000166287
0.000166287
0.000166287
0.000169134
0.000169134
0.000169134
0.00017345
0.00017345
0.00017345
0.000167725
0.000167725
0.000167725
0.000169135
0.000169135
0.000169135
0.000168787
0.000168787
0.000168787
0.000141208
0.000141208
0.000141208
0.000163229
0.000163229
0.000163229
0.000163576
0.000163576
0.000163576
0.000156608
0.000156608
0.000156608
7.28952e-05
7.28952e-05
7.28952e-05
9.82475e-05
9.82475e-05
9.82475e-05
0.000168064
0.000168064
0.000168064
0.000167702
0.000167702
0.000167702
0.000169505
0.000169505
0.000169505
0.000171659
0.000171659
0.000171659
0.000174928
0.000174928
0.000174928
0.000173149
0.000173149
0.000173149
0.000173247
0.000173247
0.000173247
0.000170603
0.000170603
0.000170603
0.000170986
0.000170986
0.000170986
0.000164945
0.000164945
0.000164945
0.000170559
0.000170559
0.000170559
0.000171997
0.000171997
0.000171997
0.000170205
0.000170205
0.000170205
0.000156943
0.000156943
0.000156943
0.000140893
0.000140893
0.000140893
0.000156134
0.000156134
0.000156134
0.000165973
0.000165973
0.000165973
0.000166327
0.000166327
0.000166327
0.000162525
0.000162525
0.000162525
0.0001646
0.0001646
0.0001646
0.000164902
0.000164902
0.000164902
0.000165262
0.000165262
0.000165262
0.000155912
0.000155912
0.000155912
0.000117719
0.000117719
0.000117719
0.00010315
0.00010315
0.00010315
0.000131478
0.000131478
0.000131478
9.77883e-05
9.77883e-05
9.77883e-05
9.39948e-05
9.39948e-05
9.39948e-05
9.82032e-05
9.82032e-05
9.82032e-05
0.000139228
0.000139228
0.000139228
0.00015188
0.00015188
0.00015188
0.000154385
0.000154385
0.000154385
0.000143465
0.000143465
0.000143465
0.000144996
0.000144996
0.000144996
0.000148075
0.000148075
0.000148075
0.000151934
0.000151934
0.000151934
0.000142798
0.000142798
0.000142798
0.000147496
0.000147496
0.000147496
0.000149452
0.000149452
0.000149452
0.000145922
0.000145922
0.000145922
0.00014629
0.00014629
0.00014629
0.000155658
0.000155658
0.000155658
0.000154046
0.000154046
0.000154046
0.00015532
0.00015532
0.00015532
0.000153364
0.000153364
0.000153364
0.000151186
0.000151186
0.000151186
0.000154472
0.000154472
0.000154472
0.000145182
0.000145182
0.000145182
0.000147185
0.000147185
0.000147185
0.000158242
0.000158242
0.000158242
0.000153557
0.000153557
0.000153557
0.000153191
0.000153191
0.000153191
0.000154833
0.000154833
0.000154833
0.000160815
0.000160815
0.000160815
0.000161171
0.000161171
0.000161171
0.000159473
0.000159473
0.000159473
0.000154622
0.000154622
0.000154622
0.000156305
0.000156305
0.000156305
0.000158377
0.000158377
0.000158377
0.00015875
0.00015875
0.00015875
0.000152559
0.000152559
0.000152559
0.000148428
0.000148428
0.000148428
0.000164157
0.000164157
0.000164157
0.000163797
0.000163797
0.000163797
0.000157614
0.000157614
0.000157614
0.000157228
0.000157228
0.000157228
0.000134057
0.000134057
0.000134057
0.000147199
0.000147199
0.000147199
0.000148836
0.000148836
0.000148836
0.00015089
0.00015089
0.00015089
0.000151285
0.000151285
0.000151285
0.00012418
0.00012418
0.00012418
0.000123614
0.000123614
0.000123614
0.00012145
0.00012145
0.00012145
0.000119873
0.000119873
0.000119873
0.000116136
0.000116136
0.000116136
9.82444e-05
9.82444e-05
9.82444e-05
8.61935e-05
8.61935e-05
8.61935e-05
8.80409e-05
8.80409e-05
8.80409e-05
9.35223e-05
9.35223e-05
9.35223e-05
9.43042e-05
9.43042e-05
9.43042e-05
9.18865e-05
9.18865e-05
9.18865e-05
9.1098e-05
9.1098e-05
9.1098e-05
8.8497e-05
8.8497e-05
8.8497e-05
9.71015e-05
9.71015e-05
9.71015e-05
9.66825e-05
9.66825e-05
9.66825e-05
9.652e-05
9.652e-05
9.652e-05
9.56138e-05
9.56138e-05
9.56138e-05
0.000120571
0.000120571
0.000120571
0.000120904
0.000120904
0.000120904
0.000122453
0.000122453
0.000122453
0.000117123
0.000117123
0.000117123
0.000118731
0.000118731
0.000118731
0.000118091
0.000118091
0.000118091
9.17614e-05
9.17614e-05
9.17614e-05
0.000102298
0.000102298
0.000102298
0.000101695
0.000101695
0.000101695
0.000102546
0.000102546
0.000102546
0.000104011
0.000104011
0.000104011
0.000103408
0.000103408
0.000103408
0.000101325
0.000101325
0.000101325
0.00010489
0.00010489
0.00010489
0.000105159
0.000105159
0.000105159
0.00010577
0.00010577
0.00010577
0.00010428
0.00010428
0.00010428
0.000131138
0.000131138
0.000131138
0.000129485
0.000129485
0.000129485
0.000108483
0.000108483
0.000108483
0.000114767
0.000114767
0.000114767
0.000109865
0.000109865
0.000109865
7.52075e-05
7.52075e-05
7.52075e-05
7.48198e-05
7.48198e-05
7.48198e-05
7.54045e-05
7.54045e-05
7.54045e-05
7.52122e-05
7.52122e-05
7.52122e-05
7.36237e-05
7.36237e-05
7.36237e-05
7.28574e-05
7.28574e-05
7.28574e-05
7.32995e-05
7.32995e-05
7.32995e-05
7.94431e-05
7.94431e-05
7.94431e-05
7.96523e-05
7.96523e-05
7.96523e-05
9.70242e-05
9.70242e-05
9.70242e-05
9.61123e-05
9.61123e-05
9.61123e-05
9.64121e-05
9.64121e-05
9.64121e-05
8.84054e-05
8.84054e-05
8.84054e-05
8.86731e-05
8.86731e-05
8.86731e-05
9.29647e-05
9.29647e-05
9.29647e-05
0.000139762
0.000139762
0.000139762
0.000149426
0.000149426
0.000149426
0.000141502
0.000141502
0.000141502
0.000141154
0.000141154
0.000141154
0.000140362
0.000140362
0.000140362
0.000140015
0.000140015
0.000140015
0.000138184
0.000138184
0.000138184
0.000136718
0.000136718
0.000136718
0.000137068
0.000137068
0.000137068
0.000138883
0.000138883
0.000138883
9.21108e-05
9.21108e-05
9.21108e-05
9.16162e-05
9.16162e-05
9.16162e-05
9.02659e-05
9.02659e-05
9.02659e-05
0.000135618
0.000135618
0.000135618
0.000142347
0.000142347
0.000142347
0.000130986
0.000130986
0.000130986
0.000127055
0.000127055
0.000127055
0.000138859
0.000138859
0.000138859
0.000125436
0.000125436
0.000125436
0.000130149
0.000130149
0.000130149
0.000128674
0.000128674
0.000128674
0.00012677
0.00012677
0.00012677
0.000126333
0.000126333
0.000126333
0.000141589
0.000141589
0.000141589
0.000150647
0.000150647
0.000150647
0.000150316
0.000150316
0.000150316
0.000148423
0.000148423
0.000148423
0.000146881
0.000146881
0.000146881
0.000147219
0.000147219
0.000147219
0.000149096
0.000149096
0.000149096
0.00011394
0.00011394
0.00011394
0.000114418
0.000114418
0.000114418
0.000124291
0.000124291
0.000124291
0.000125738
0.000125738
0.000125738
0.0001253
0.0001253
0.0001253
0.000123405
0.000123405
0.000123405
0.000113492
0.000113492
0.000113492
0.000112107
0.000112107
0.000112107
0.000111134
0.000111134
0.000111134
0.000113012
0.000113012
0.000113012
0.000122411
0.000122411
0.000122411
0.000121963
0.000121963
0.000121963
0.000154283
0.000154283
0.000154283
0.000152302
0.000152302
0.000152302
0.00015069
0.00015069
0.00015069
0.000154635
0.000154635
0.000154635
0.000153013
0.000153013
0.000153013
0.000151049
0.000151049
0.000151049
0.000144769
0.000144769
0.000144769
0.000148718
0.000148718
0.000148718
0.000147118
0.000147118
0.000147118
0.000145156
0.000145156
0.000145156
0.000136597
0.000136597
0.000136597
0.000138939
0.000138939
0.000138939
0.00013701
0.00013701
0.00013701
0.000152106
0.000152106
0.000152106
0.000148586
0.000148586
0.000148586
0.000150517
0.000150517
0.000150517
0.00014823
0.00014823
0.00014823
0.000149813
0.000149813
0.000149813
0.000151761
0.000151761
0.000151761
0.000149572
0.000149572
0.000149572
0.000147576
0.000147576
0.000147576
0.00014597
0.00014597
0.00014597
0.000149946
0.000149946
0.000149946
0.000146356
0.000146356
0.000146356
0.000148335
0.000148335
0.000148335
0.000143984
0.000143984
0.000143984
0.000142402
0.000142402
0.000142402
0.000140424
0.000140424
0.000140424
0.000143586
0.000143586
0.000143586
0.00015081
0.00015081
0.00015081
0.000148798
0.000148798
0.000148798
0.000152451
0.000152451
0.000152451
0.00015207
0.00015207
0.00015207
0.000144771
0.000144771
0.000144771
0.000155904
0.000155904
0.000155904
0.000157894
0.000157894
0.000157894
0.000159555
0.000159555
0.000159555
0.000155554
0.000155554
0.000155554
0.000162221
0.000162221
0.000162221
0.000158165
0.000158165
0.000158165
0.000161876
0.000161876
0.000161876
0.000159836
0.000159836
0.000159836
0.000160881
0.000160881
0.000160881
0.00015922
0.00015922
0.00015922
0.000157214
0.000157214
0.000157214
0.000156847
0.000156847
0.000156847
0.00015851
0.00015851
0.00015851
0.000160533
0.000160533
0.000160533
0.000153331
0.000153331
0.000153331
0.000157425
0.000157425
0.000157425
0.000155002
0.000155002
0.000155002
0.000157058
0.000157058
0.000157058
0.000153714
0.000153714
0.000153714
0.000155753
0.000155753
0.000155753
0.000153832
0.000153832
0.000153832
0.000152162
0.000152162
0.000152162
0.000150092
0.000150092
0.000150092
0.000162787
0.000162787
0.000162787
0.000158552
0.000158552
0.000158552
0.000161044
0.000161044
0.000161044
0.000158939
0.000158939
0.000158939
0.000162407
0.000162407
0.000162407
0.000160285
0.000160285
0.000160285
0.000162655
0.000162655
0.000162655
0.000163049
0.000163049
0.000163049
0.000160126
0.000160126
0.000160126
0.000160489
0.000160489
0.000160489
0.000158739
0.000158739
0.000158739
0.000159906
0.000159906
0.000159906
0.000159126
0.000159126
0.000159126
0.00016166
0.00016166
0.00016166
0.000161273
0.000161273
0.000161273
0.000159703
0.000159703
0.000159703
0.00016388
0.00016388
0.00016388
0.000163521
0.000163521
0.000163521
0.000161422
0.000161422
0.000161422
0.000162155
0.000162155
0.000162155
0.000160073
0.000160073
0.000160073
0.000119192
0.000119192
0.000119192
0.000117722
0.000117722
0.000117722
0.000125088
0.000125088
0.000125088
0.000121157
0.000121157
0.000121157
0.000135607
0.000135607
0.000135607
0.000127134
0.000127134
0.000127134
0.000124636
0.000124636
0.000124636
0.000125251
0.000125251
0.000125251
9.76953e-05
9.76953e-05
9.76953e-05
0.000100145
0.000100145
0.000100145
0.000110647
0.000110647
0.000110647
0.000112047
0.000112047
0.000112047
8.59007e-05
8.59007e-05
8.59007e-05
8.92923e-05
8.92923e-05
8.92923e-05
8.661e-05
8.661e-05
8.661e-05
8.54395e-05
8.54395e-05
8.54395e-05
8.60014e-05
8.60014e-05
8.60014e-05
8.55822e-05
8.55822e-05
8.55822e-05
9.32183e-05
9.32183e-05
9.32183e-05
9.47874e-05
9.47874e-05
9.47874e-05
9.49567e-05
9.49567e-05
9.49567e-05
9.54356e-05
9.54356e-05
9.54356e-05
9.33635e-05
9.33635e-05
9.33635e-05
9.29036e-05
9.29036e-05
9.29036e-05
9.30649e-05
9.30649e-05
9.30649e-05
9.27538e-05
9.27538e-05
9.27538e-05
9.07765e-05
9.07765e-05
9.07765e-05
9.06366e-05
9.06366e-05
9.06366e-05
9.1073e-05
9.1073e-05
9.1073e-05
9.1229e-05
9.1229e-05
9.1229e-05
9.09338e-05
9.09338e-05
9.09338e-05
8.91534e-05
8.91534e-05
8.91534e-05
9.21523e-05
9.21523e-05
9.21523e-05
9.22939e-05
9.22939e-05
9.22939e-05
9.08079e-05
9.08079e-05
9.08079e-05
9.03523e-05
9.03523e-05
9.03523e-05
8.94521e-05
8.94521e-05
8.94521e-05
8.80519e-05
8.80519e-05
8.80519e-05
9.66005e-05
9.66005e-05
9.66005e-05
9.61683e-05
9.61683e-05
9.61683e-05
9.41628e-05
9.41628e-05
9.41628e-05
9.46435e-05
9.46435e-05
9.46435e-05
0.000114024
0.000114024
0.000114024
0.000115909
0.000115909
0.000115909
9.72001e-05
9.72001e-05
9.72001e-05
9.66034e-05
9.66034e-05
9.66034e-05
0.000103473
0.000103473
0.000103473
0.000101336
0.000101336
0.000101336
9.98623e-05
9.98623e-05
9.98623e-05
0.000100479
0.000100479
0.000100479
0.000103041
0.000103041
0.000103041
9.87982e-05
9.87982e-05
9.87982e-05
0.000129526
0.000129526
0.000129526
0.00012821
0.00012821
0.00012821
0.000121222
0.000121222
0.000121222
0.000121627
0.000121627
0.000121627
0.00011969
0.00011969
0.00011969
7.4286e-05
7.4286e-05
7.4286e-05
7.46394e-05
7.46394e-05
7.46394e-05
7.37672e-05
7.37672e-05
7.37672e-05
7.41131e-05
7.41131e-05
7.41131e-05
7.4291e-05
7.4291e-05
7.4291e-05
7.3782e-05
7.3782e-05
7.3782e-05
7.4126e-05
7.4126e-05
7.4126e-05
7.4351e-05
7.4351e-05
7.4351e-05
7.52196e-05
7.52196e-05
7.52196e-05
7.58028e-05
7.58028e-05
7.58028e-05
7.54135e-05
7.54135e-05
7.54135e-05
7.48365e-05
7.48365e-05
7.48365e-05
7.46426e-05
7.46426e-05
7.46426e-05
7.48324e-05
7.48324e-05
7.48324e-05
7.42832e-05
7.42832e-05
7.42832e-05
7.67806e-05
7.67806e-05
7.67806e-05
8.47702e-05
8.47702e-05
8.47702e-05
7.72331e-05
7.72331e-05
7.72331e-05
8.46191e-05
8.46191e-05
8.46191e-05
8.39488e-05
8.39488e-05
8.39488e-05
8.41735e-05
8.41735e-05
8.41735e-05
8.35189e-05
8.35189e-05
8.35189e-05
8.39578e-05
8.39578e-05
8.39578e-05
8.13348e-05
8.13348e-05
8.13348e-05
8.26475e-05
8.26475e-05
8.26475e-05
8.76053e-05
8.76053e-05
8.76053e-05
8.47193e-05
8.47193e-05
8.47193e-05
8.49616e-05
8.49616e-05
8.49616e-05
7.84715e-05
7.84715e-05
7.84715e-05
7.82916e-05
7.82916e-05
7.82916e-05
7.88458e-05
7.88458e-05
7.88458e-05
7.90401e-05
7.90401e-05
7.90401e-05
7.94506e-05
7.94506e-05
7.94506e-05
7.91915e-05
7.91915e-05
7.91915e-05
8.00689e-05
8.00689e-05
8.00689e-05
7.9447e-05
7.9447e-05
7.9447e-05
7.96512e-05
7.96512e-05
7.96512e-05
8.16705e-05
8.16705e-05
8.16705e-05
8.19391e-05
8.19391e-05
8.19391e-05
8.40899e-05
8.40899e-05
8.40899e-05
8.24862e-05
8.24862e-05
8.24862e-05
8.20962e-05
8.20962e-05
8.20962e-05
8.18208e-05
8.18208e-05
8.18208e-05
8.87402e-05
8.87402e-05
8.87402e-05
8.61331e-05
8.61331e-05
8.61331e-05
8.30554e-05
8.30554e-05
8.30554e-05
8.26466e-05
8.26466e-05
8.26466e-05
9.63961e-05
9.63961e-05
9.63961e-05
9.65677e-05
9.65677e-05
9.65677e-05
9.62323e-05
9.62323e-05
9.62323e-05
9.5752e-05
9.5752e-05
9.5752e-05
9.7205e-05
9.7205e-05
9.7205e-05
9.69306e-05
9.69306e-05
9.69306e-05
9.7639e-05
9.7639e-05
9.7639e-05
9.75888e-05
9.75888e-05
9.75888e-05
9.71205e-05
9.71205e-05
9.71205e-05
8.9502e-05
8.9502e-05
8.9502e-05
9.02276e-05
9.02276e-05
9.02276e-05
8.97475e-05
8.97475e-05
8.97475e-05
8.9125e-05
8.9125e-05
8.9125e-05
9.00445e-05
9.00445e-05
9.00445e-05
8.97728e-05
8.97728e-05
8.97728e-05
8.93096e-05
8.93096e-05
8.93096e-05
8.96968e-05
8.96968e-05
8.96968e-05
9.04297e-05
9.04297e-05
9.04297e-05
8.9966e-05
8.9966e-05
8.9966e-05
9.06312e-05
9.06312e-05
9.06312e-05
9.24925e-05
9.24925e-05
9.24925e-05
9.15582e-05
9.15582e-05
9.15582e-05
9.1999e-05
9.1999e-05
9.1999e-05
9.15312e-05
9.15312e-05
9.15312e-05
9.3147e-05
9.3147e-05
9.3147e-05
9.84183e-05
9.84183e-05
9.84183e-05
9.88986e-05
9.88986e-05
9.88986e-05
9.88647e-05
9.88647e-05
9.88647e-05
9.63003e-05
9.63003e-05
9.63003e-05
9.67898e-05
9.67898e-05
9.67898e-05
9.75174e-05
9.75174e-05
9.75174e-05
9.77244e-05
9.77244e-05
9.77244e-05
9.69872e-05
9.69872e-05
9.69872e-05
9.66881e-05
9.66881e-05
9.66881e-05
0.000119573
0.000119573
0.000119573
0.000118329
0.000118329
0.000118329
0.000116685
0.000116685
0.000116685
0.000116279
0.000116279
0.000116279
0.000111763
0.000111763
0.000111763
0.000113404
0.000113404
0.000113404
0.000114631
0.000114631
0.000114631
0.000102085
0.000102085
0.000102085
0.000129174
0.000129174
0.000129174
0.000127514
0.000127514
0.000127514
0.000122551
0.000122551
0.000122551
0.000124204
0.000124204
0.000124204
0.000142658
0.000142658
0.000142658
0.000142304
0.000142304
0.000142304
0.000143814
0.000143814
0.000143814
0.000145683
0.000145683
0.000145683
0.00014702
0.00014702
0.00014702
0.000143341
0.000143341
0.000143341
0.000139308
0.000139308
0.000139308
0.000135614
0.000135614
0.000135614
0.000135984
0.000135984
0.000135984
0.000137822
0.000137822
0.000137822
9.82723e-05
9.82723e-05
9.82723e-05
9.9309e-05
9.9309e-05
9.9309e-05
9.54028e-05
9.54028e-05
9.54028e-05
9.31372e-05
9.31372e-05
9.31372e-05
9.13713e-05
9.13713e-05
9.13713e-05
9.01275e-05
9.01275e-05
9.01275e-05
9.36447e-05
9.36447e-05
9.36447e-05
9.0644e-05
9.0644e-05
9.0644e-05
9.23955e-05
9.23955e-05
9.23955e-05
9.43945e-05
9.43945e-05
9.43945e-05
9.08511e-05
9.08511e-05
9.08511e-05
8.97936e-05
8.97936e-05
8.97936e-05
7.5375e-05
7.5375e-05
7.5375e-05
8.83686e-05
8.83686e-05
8.83686e-05
7.70799e-05
7.70799e-05
7.70799e-05
0.000109907
0.000109907
0.000109907
9.98264e-05
9.98264e-05
9.98264e-05
9.85168e-05
9.85168e-05
9.85168e-05
0.000100516
0.000100516
0.000100516
0.000102788
0.000102788
0.000102788
0.000102303
0.000102303
0.000102303
9.28219e-05
9.28219e-05
9.28219e-05
0.000106844
0.000106844
0.000106844
0.000102716
0.000102716
0.000102716
0.000101468
0.000101468
0.000101468
9.98251e-05
9.98251e-05
9.98251e-05
9.86576e-05
9.86576e-05
9.86576e-05
9.58977e-05
9.58977e-05
9.58977e-05
0.000100348
0.000100348
0.000100348
9.68713e-05
9.68713e-05
9.68713e-05
0.00013777
0.00013777
0.00013777
0.000135969
0.000135969
0.000135969
0.000110797
0.000110797
0.000110797
0.000114386
0.000114386
0.000114386
0.000113029
0.000113029
0.000113029
0.000111241
0.000111241
0.000111241
0.000120324
0.000120324
0.000120324
0.000116744
0.000116744
0.000116744
0.000124717
0.000124717
0.000124717
0.00014202
0.00014202
0.00014202
0.000143499
0.000143499
0.000143499
0.000144661
0.000144661
0.000144661
0.000141038
0.000141038
0.000141038
0.000141381
0.000141381
0.000141381
0.000143184
0.000143184
0.000143184
0.000145835
0.000145835
0.000145835
0.00014551
0.00014551
0.00014551
0.000143678
0.000143678
0.000143678
0.000142186
0.000142186
0.000142186
0.000142517
0.000142517
0.000142517
0.000144334
0.000144334
0.000144334
0.000152796
0.000152796
0.000152796
0.000150872
0.000150872
0.000150872
0.000149298
0.000149298
0.000149298
0.000153127
0.000153127
0.000153127
0.000149639
0.000149639
0.000149639
0.000151547
0.000151547
0.000151547
0.00012992
0.00012992
0.00012992
0.000127513
0.000127513
0.000127513
0.000129472
0.000129472
0.000129472
0.000128417
0.000128417
0.000128417
0.00013689
0.00013689
0.00013689
0.000132954
0.000132954
0.000132954
0.00013449
0.00013449
0.00013449
0.000136466
0.000136466
0.000136466
0.000131872
0.000131872
0.000131872
0.000133391
0.000133391
0.000133391
0.000135351
0.000135351
0.000135351
0.000135776
0.000135776
0.000135776
0.000135887
0.000135887
0.000135887
0.000132062
0.000132062
0.000132062
0.000135487
0.000135487
0.000135487
0.000133566
0.000133566
0.000133566
0.000139326
0.000139326
0.000139326
0.000137801
0.000137801
0.000137801
0.000127627
0.000127627
0.000127627
0.000129096
0.000129096
0.000129096
0.000127363
0.000127363
0.000127363
0.000128856
0.000128856
0.000128856
0.000129722
0.000129722
0.000129722
0.000127803
0.000127803
0.000127803
0.000133769
0.000133769
0.000133769
0.000133386
0.000133386
0.000133386
0.000133693
0.000133693
0.000133693
0.00014008
0.00014008
0.00014008
0.000140443
0.000140443
0.000140443
0.000137094
0.000137094
0.000137094
0.000138947
0.000138947
0.000138947
0.000126016
0.000126016
0.000126016
0.000126474
0.000126474
0.000126474
0.000124983
0.000124983
0.000124983
0.00012305
0.00012305
0.00012305
0.00012259
0.00012259
0.00012259
0.000124065
0.000124065
0.000124065
0.000123599
0.000123599
0.000123599
0.000121642
0.000121642
0.000121642
0.000123972
0.000123972
0.000123972
0.000124422
0.000124422
0.000124422
0.000122958
0.000122958
0.000122958
0.000121055
0.000121055
0.000121055
0.000115353
0.000115353
0.000115353
0.000117254
0.000117254
0.000117254
0.000120979
0.000120979
0.000120979
0.000118139
0.000118139
0.000118139
0.000116304
0.000116304
0.000116304
0.000120077
0.000120077
0.000120077
0.000117725
0.000117725
0.000117725
0.000119619
0.000119619
0.000119619
0.000113964
0.000113964
0.000113964
0.000100635
0.000100635
0.000100635
0.000100119
0.000100119
0.000100119
0.000110245
0.000110245
0.000110245
0.000109752
0.000109752
0.000109752
0.000138131
0.000138131
0.000138131
0.000137729
0.000137729
0.000137729
0.000141235
0.000141235
0.000141235
0.000139273
0.000139273
0.000139273
0.000142417
0.000142417
0.000142417
0.000140478
0.000140478
0.000140478
0.000143975
0.000143975
0.000143975
0.000140076
0.000140076
0.000140076
0.000143587
0.000143587
0.000143587
0.000141633
0.000141633
0.000141633
0.000143952
0.000143952
0.000143952
0.000148398
0.000148398
0.000148398
0.000146378
0.000146378
0.000146378
0.000150041
0.000150041
0.000150041
0.00014598
0.00014598
0.00014598
0.00014965
0.00014965
0.00014965