<VTKFile type="UnstructuredGrid" version="1.0">
<UnstructuredGrid>
<Piece NumberOfPoints="8859" NumberOfCells="2953">
<Points>
<DataArray type="Float64" NumberOfComponents="3" format="ascii">
0.5 3.01 11.4
0.512524 3.01 11.4225
0.487476 3.01 11.4225
0.17352 3.01 10.5225
0.160827 3.01 10.5442
0.148445 3.01 10.5225
0.122979 3.01 10.5659
0.110383 3.01 10.5442
0.135644 3.01 10.5442
0.135644 3.01 10.5442
0.110383 3.01 10.5442
0.123433 3.01 10.5225
0.123433 3.01 10.5225
0.148445 3.01 10.5225
0.135644 3.01 10.5442
0.135644 3.01 10.5442
0.148445 3.01 10.5225
0.160827 3.01 10.5442
0.17352 3.01 10.5225
0.198629 3.01 10.5225
0.185985 3.01 10.5442
0.185985 3.01 10.5442
0.160827 3.01 10.5442
0.17352 3.01 10.5225
0.0732297 3.01 10.5657
0.0586606 3.01 10.5438
0.0848754 3.01 10.5441
0.05 3.01 11.3553
0.05 3.01 11.3101
0.058509 3.01 11.3326
0.324276 3.01 10.5225
0.349395 3.01 10.5225
0.336827 3.01 10.5442
0.148138 3.01 10.5659
0.135644 3.01 10.5442
0.160827 3.01 10.5442
0.122979 3.01 10.5659
0.135644 3.01 10.5442
0.148138 3.01 10.5659
0.160827 3.01 10.5442
0.185985 3.01 10.5442
0.173316 3.01 10.5659
0.185806 3.01 10.5875
0.160572 3.01 10.5876
0.173316 3.01 10.5659
0.173316 3.01 10.5659
0.148138 3.01 10.5659
0.160827 3.01 10.5442
0.160572 3.01 10.5876
0.148138 3.01 10.5659
0.173316 3.01 10.5659
0.211137 3.01 10.5442
0.185985 3.01 10.5442
0.198629 3.01 10.5225
0.0979162 3.01 10.5658
0.110383 3.01 10.5442
0.122979 3.01 10.5659
0.122979 3.01 10.5659
0.109875 3.01 10.5875
0.0979162 3.01 10.5658
0.0732297 3.01 10.5657
0.0848754 3.01 10.5441
0.0979162 3.01 10.5658
0.0979162 3.01 10.5658
0.0848754 3.01 10.5441
0.110383 3.01 10.5442
0.0975729 3.01 10.609
0.109875 3.01 10.5875
0.122678 3.01 10.6091
0.0841718 3.01 10.5873
0.0577122 3.01 10.587
0.0732297 3.01 10.5657
0.0729308 3.01 10.6089
0.0577122 3.01 10.587
0.0841718 3.01 10.5873
0.0732297 3.01 10.5657
0.0979162 3.01 10.5658
0.0841718 3.01 10.5873
0.0841718 3.01 10.5873
0.0979162 3.01 10.5658
0.109875 3.01 10.5875
0.0975729 3.01 10.609
0.0729308 3.01 10.6089
0.0841718 3.01 10.5873
0.0841718 3.01 10.5873
0.109875 3.01 10.5875
0.0975729 3.01 10.609
0.073948 3.01 10.5225
0.0586606 3.01 10.5438
0.05 3.01 10.5225
0.073948 3.01 10.5225
0.0848754 3.01 10.5441
0.0586606 3.01 10.5438
0.05 3.01 11.3983
0.05 3.01 11.3553
0.0603641 3.01 11.377
0.0603641 3.01 11.377
0.0753197 3.01 11.399
0.05 3.01 11.3983
0.0709395 3.01 11.4225
0.05 3.01 11.4225
0.05 3.01 11.3983
0.05 3.01 11.3983
0.0753197 3.01 11.399
0.0709395 3.01 11.4225
0.0579641 3.01 11.1096
0.05 3.01 11.1317
0.05 3.01 11.0876
0.0841948 3.01 11.0218
0.097638 3.01 10.9999
0.109814 3.01 11.0218
0.0841948 3.01 11.0218
0.0730539 3.01 11.0437
0.0578646 3.01 11.0218
0.0580261 3.01 11.1538
0.05 3.01 11.1759
0.05 3.01 11.1317
0.942292 3.01 10.7174
0.95 3.01 10.6957
0.95 3.01 10.739
0.95 3.01 10.6523
0.95 3.01 10.6957
0.942332 3.01 10.674
0.73872 3.01 10.9345
0.726137 3.01 10.9128
0.75132 3.01 10.9128
0.751305 3.01 10.9563
0.726124 3.01 10.9563
0.73872 3.01 10.9345
0.713546 3.01 10.9345
0.726137 3.01 10.9128
0.73872 3.01 10.9345
0.73872 3.01 10.9345
0.726124 3.01 10.9563
0.713546 3.01 10.9345
0.814318 3.01 10.9781
0.789096 3.01 10.9781
0.801709 3.01 10.9563
0.7765 3.01 10.9563
0.789115 3.01 10.9345
0.801709 3.01 10.9563
0.801709 3.01 10.9563
0.789096 3.01 10.9781
0.7765 3.01 10.9563
0.7765 3.01 10.9563
0.789096 3.01 10.9781
0.763892 3.01 10.9781
0.763892 3.01 10.9781
0.751305 3.01 10.9563
0.7765 3.01 10.9563
0.95 3.01 11.4225
0.929061 3.01 11.4225
0.95 3.01 11.3983
0.95 3.01 11.2204
0.926844 3.01 11.2204
0.941913 3.01 11.1982
0.941913 3.01 11.1982
0.95 3.01 11.1759
0.95 3.01 11.2204
0.926866 3.01 11.1759
0.95 3.01 11.1759
0.941913 3.01 11.1982
0.941974 3.01 11.1538
0.95 3.01 11.1759
0.926866 3.01 11.1759
0.95 3.01 11.1317
0.95 3.01 11.1759
0.941974 3.01 11.1538
0.941974 3.01 11.1538
0.926895 3.01 11.1317
0.95 3.01 11.1317
0.6127 3.01 11.4225
0.625238 3.01 11.4
0.637734 3.01 11.4225
0.662757 3.01 11.4225
0.637734 3.01 11.4225
0.650275 3.01 11.4
0.650275 3.01 11.4
0.637734 3.01 11.4225
0.625238 3.01 11.4
0.600415 3.01 10.9564
0.587856 3.01 10.9782
0.575304 3.01 10.9564
0.575304 3.01 10.9564
0.587856 3.01 10.9782
0.562749 3.01 10.9782
0.336827 3.01 10.5442
0.349395 3.01 10.5225
0.361946 3.01 10.5442
0.223755 3.01 10.5225
0.211137 3.01 10.5442
0.198629 3.01 10.5225
0.185985 3.01 10.5442
0.211137 3.01 10.5442
0.198492 3.01 10.5659
0.185806 3.01 10.5875
0.173316 3.01 10.5659
0.198492 3.01 10.5659
0.198492 3.01 10.5659
0.173316 3.01 10.5659
0.185985 3.01 10.5442
0.0576202 3.01 10.6305
0.05 3.01 10.6523
0.05 3.01 10.6087
0.05 3.01 10.6087
0.0729308 3.01 10.6089
0.0576202 3.01 10.6305
0.05 3.01 10.6087
0.0577122 3.01 10.587
0.0729308 3.01 10.6089
0.135283 3.01 10.5875
0.109875 3.01 10.5875
0.122979 3.01 10.5659
0.135283 3.01 10.5875
0.122678 3.01 10.6091
0.109875 3.01 10.5875
0.122979 3.01 10.5659
0.148138 3.01 10.5659
0.135283 3.01 10.5875
0.135283 3.01 10.5875
0.148138 3.01 10.5659
0.160572 3.01 10.5876
0.123433 3.01 10.5225
0.110383 3.01 10.5442
0.0985513 3.01 10.5225
0.110383 3.01 10.5442
0.0848754 3.01 10.5441
0.0985513 3.01 10.5225
0.0848754 3.01 10.5441
0.073948 3.01 10.5225
0.0985513 3.01 10.5225
0.0603641 3.01 11.377
0.05 3.01 11.3553
0.0739464 3.01 11.3545
0.0739464 3.01 11.3545
0.05 3.01 11.3553
0.058509 3.01 11.3326
0.058509 3.01 11.3326
0.0849548 3.01 11.3321
0.0739464 3.01 11.3545
0.058509 3.01 11.3326
0.05 3.01 11.3101
0.0732725 3.01 11.3099
0.0732725 3.01 11.3099
0.0849548 3.01 11.3321
0.058509 3.01 11.3326
0.5 3.01 11.4
0.487476 3.01 11.4225
0.47495 3.01 11.4
0.097663 3.01 11.0437
0.0841948 3.01 11.0218
0.109814 3.01 11.0218
0.0730539 3.01 11.0437
0.0841948 3.01 11.0218
0.097663 3.01 11.0437
0.0578646 3.01 11.0218
0.0730539 3.01 11.0437
0.05 3.01 11.0437
0.05 3.01 11.0437
0.05 3.01 10.9999
0.0578646 3.01 11.0218
0.05 3.01 11.2204
0.05 3.01 11.1759
0.0580869 3.01 11.1982
0.05 3.01 11.1759
0.0580261 3.01 11.1538
0.073134 3.01 11.1759
0.073134 3.01 11.1759
0.0580869 3.01 11.1982
0.05 3.01 11.1759
0.942268 3.01 10.7607
0.95 3.01 10.739
0.95 3.01 10.7824
0.942292 3.01 10.7174
0.95 3.01 10.739
0.927025 3.01 10.739
0.927025 3.01 10.739
0.942268 3.01 10.7607
0.915919 3.01 10.7607
0.95 3.01 10.739
0.942268 3.01 10.7607
0.927025 3.01 10.739
0.927013 3.01 10.7824
0.942268 3.01 10.7607
0.95 3.01 10.7824
0.915919 3.01 10.7607
0.942268 3.01 10.7607
0.927013 3.01 10.7824
0.801738 3.01 10.8693
0.814364 3.01 10.8475
0.826957 3.01 10.8692
0.852174 3.01 10.8692
0.826957 3.01 10.8692
0.839609 3.01 10.8475
0.839609 3.01 10.8475
0.826957 3.01 10.8692
0.814364 3.01 10.8475
0.776516 3.01 10.9127
0.75132 3.01 10.9128
0.763923 3.01 10.891
0.776516 3.01 10.9127
0.801725 3.01 10.9127
0.789115 3.01 10.9345
0.738704 3.01 10.9781
0.751305 3.01 10.9563
0.763892 3.01 10.9781
0.726124 3.01 10.9563
0.751305 3.01 10.9563
0.738704 3.01 10.9781
0.915617 3.01 11.1981
0.902228 3.01 11.1759
0.926866 3.01 11.1759
0.926866 3.01 11.1759
0.941913 3.01 11.1982
0.915617 3.01 11.1981
0.915617 3.01 11.1981
0.941913 3.01 11.1982
0.926844 3.01 11.2204
0.915617 3.01 11.1981
0.926844 3.01 11.2204
0.902193 3.01 11.2204
0.926866 3.01 11.1759
0.902228 3.01 11.1759
0.915668 3.01 11.1538
0.902267 3.01 11.1317
0.926895 3.01 11.1317
0.915668 3.01 11.1538
0.915668 3.01 11.1538
0.941974 3.01 11.1538
0.926866 3.01 11.1759
0.926895 3.01 11.1317
0.941974 3.01 11.1538
0.915668 3.01 11.1538
0.902267 3.01 11.1317
0.915668 3.01 11.1538
0.890059 3.01 11.1538
0.890059 3.01 11.1538
0.915668 3.01 11.1538
0.902228 3.01 11.1759
0.826927 3.01 10.9563
0.814318 3.01 10.9781
0.801709 3.01 10.9563
0.864816 3.01 11.0218
0.877308 3.01 10.9999
0.890186 3.01 11.0218
0.877308 3.01 10.9999
0.864816 3.01 11.0218
0.852122 3.01 10.9999
0.890186 3.01 11.0218
0.877308 3.01 10.9999
0.902362 3.01 10.9999
0.902362 3.01 10.9999
0.915805 3.01 11.0218
0.890186 3.01 11.0218
0.902362 3.01 10.9999
0.926964 3.01 10.9999
0.915805 3.01 11.0218
0.915835 3.01 10.9781
0.926964 3.01 10.9999
0.902362 3.01 10.9999
0.942171 3.01 10.9781
0.926964 3.01 10.9999
0.915835 3.01 10.9781
0.915835 3.01 10.9781
0.926978 3.01 10.9563
0.942171 3.01 10.9781
0.942171 3.01 10.9781
0.926978 3.01 10.9563
0.95 3.01 10.9563
0.87737 3.01 10.8258
0.890277 3.01 10.8041
0.902417 3.01 10.8258
0.852144 3.01 10.9563
0.877329 3.01 10.9563
0.864842 3.01 10.9781
0.877308 3.01 10.9999
0.852122 3.01 10.9999
0.864842 3.01 10.9781
0.902396 3.01 10.9127
0.915858 3.01 10.9345
0.890234 3.01 10.9345
0.926997 3.01 10.8692
0.942237 3.01 10.8475
0.95 3.01 10.8692
0.91589 3.01 10.8475
0.942237 3.01 10.8475
0.926997 3.01 10.8692
0.942199 3.01 10.9345
0.95 3.01 10.9127
0.95 3.01 10.9563
0.95 3.01 10.9563
0.926978 3.01 10.9563
0.942199 3.01 10.9345
0.942199 3.01 10.9345
0.926978 3.01 10.9563
0.915858 3.01 10.9345
0.95 3.01 10.8692
0.95 3.01 10.9127
0.942221 3.01 10.891
0.942221 3.01 10.891
0.926997 3.01 10.8692
0.95 3.01 10.8692
0.915876 3.01 10.891
0.926997 3.01 10.8692
0.942221 3.01 10.891
0.926989 3.01 10.9127
0.915858 3.01 10.9345
0.902396 3.01 10.9127
0.902396 3.01 10.9127
0.915876 3.01 10.891
0.926989 3.01 10.9127
0.926989 3.01 10.9127
0.942199 3.01 10.9345
0.915858 3.01 10.9345
0.95 3.01 10.9127
0.942199 3.01 10.9345
0.926989 3.01 10.9127
0.915876 3.01 10.891
0.942221 3.01 10.891
0.926989 3.01 10.9127
0.926989 3.01 10.9127
0.942221 3.01 10.891
0.95 3.01 10.9127
0.91353 3.01 11.3769
0.926054 3.01 11.3545
0.939636 3.01 11.377
0.926728 3.01 11.3099
0.95 3.01 11.3101
0.941491 3.01 11.3326
0.926728 3.01 11.3099
0.941822 3.01 11.2875
0.95 3.01 11.3101
0.95 3.01 11.3553
0.95 3.01 11.3983
0.939636 3.01 11.377
0.95 3.01 11.3553
0.926054 3.01 11.3545
0.941491 3.01 11.3326
0.939636 3.01 11.377
0.926054 3.01 11.3545
0.95 3.01 11.3553
0.941491 3.01 11.3326
0.95 3.01 11.3101
0.95 3.01 11.3553
0.941869 3.01 11.2427
0.926844 3.01 11.2204
0.95 3.01 11.2204
0.762942 3.01 11.3773
0.75028 3.01 11.3999
0.737933 3.01 11.3773
0.71291 3.01 11.3774
0.725533 3.01 11.3549
0.737933 3.01 11.3773
0.71291 3.01 11.3774
0.737933 3.01 11.3773
0.725313 3.01 11.3999
0.725313 3.01 11.3999
0.737933 3.01 11.3773
[...]
<PointData Scalars="View Factor" >
<DataArray type="Float64" Name="View Factor" NumberOfComponents="1" format="ascii">
6.6767e-06
6.6767e-06
6.6767e-06
7.62904e-06
7.62904e-06
7.62904e-06
7.60408e-06
7.60408e-06
7.60408e-06
7.62086e-06
7.62086e-06
7.62086e-06
7.6292e-06
7.6292e-06
7.6292e-06
7.62071e-06
7.62071e-06
7.62071e-06
7.62885e-06
7.62885e-06
7.62885e-06
7.62054e-06
7.62054e-06
7.62054e-06
7.60457e-06
7.60457e-06
7.60457e-06
6.76293e-06
6.76293e-06
6.76293e-06
7.62713e-06
7.62713e-06
7.62713e-06
7.60393e-06
7.60393e-06
7.60393e-06
7.59564e-06
7.59564e-06
7.59564e-06
7.60376e-06
7.60376e-06
7.60376e-06
7.57039e-06
7.57039e-06
7.57039e-06
7.59548e-06
7.59548e-06
7.59548e-06
7.5788e-06
7.5788e-06
7.5788e-06
7.62034e-06
7.62034e-06
7.62034e-06
7.59581e-06
7.59581e-06
7.59581e-06
7.57914e-06
7.57914e-06
7.57914e-06
7.59603e-06
7.59603e-06
7.59603e-06
7.60426e-06
7.60426e-06
7.60426e-06
7.546e-06
7.546e-06
7.546e-06
7.5713e-06
7.5713e-06
7.5713e-06
7.55473e-06
7.55473e-06
7.55473e-06
7.57939e-06
7.57939e-06
7.57939e-06
7.57096e-06
7.57096e-06
7.57096e-06
7.54626e-06
7.54626e-06
7.54626e-06
7.55439e-06
7.55439e-06
7.55439e-06
7.62968e-06
7.62968e-06
7.62968e-06
7.62127e-06
7.62127e-06
7.62127e-06
6.71889e-06
6.71889e-06
6.71889e-06
6.70443e-06
6.70443e-06
6.70443e-06
6.68171e-06
6.68171e-06
6.68171e-06
6.68942e-06
6.68942e-06
6.68942e-06
6.9907e-06
6.9907e-06
6.9907e-06
7.09066e-06
7.09066e-06
7.09066e-06
7.07528e-06
7.07528e-06
7.07528e-06
6.94484e-06
6.94484e-06
6.94484e-06
7.39632e-06
7.39632e-06
7.39632e-06
7.44504e-06
7.44504e-06
7.44504e-06
7.18105e-06
7.18105e-06
7.18105e-06
7.14983e-06
7.14983e-06
7.14983e-06
7.1736e-06
7.1736e-06
7.1736e-06
7.15799e-06
7.15799e-06
7.15799e-06
7.12459e-06
7.12459e-06
7.12459e-06
7.14831e-06
7.14831e-06
7.14831e-06
7.13275e-06
7.13275e-06
7.13275e-06
7.12537e-06
7.12537e-06
7.12537e-06
7.13352e-06
7.13352e-06
7.13352e-06
6.66575e-06
6.66575e-06
6.66575e-06
6.8674e-06
6.8674e-06
6.8674e-06
6.88224e-06
6.88224e-06
6.88224e-06
6.89769e-06
6.89769e-06
6.89769e-06
6.91286e-06
6.91286e-06
6.91286e-06
6.92776e-06
6.92776e-06
6.92776e-06
6.94326e-06
6.94326e-06
6.94326e-06
6.67417e-06
6.67417e-06
6.67417e-06
6.67359e-06
6.67359e-06
6.67359e-06
6.68127e-06
6.68127e-06
6.68127e-06
7.1382e-06
7.1382e-06
7.1382e-06
7.13071e-06
7.13071e-06
7.13071e-06
7.61855e-06
7.61855e-06
7.61855e-06
7.62863e-06
7.62863e-06
7.62863e-06
7.60357e-06
7.60357e-06
7.60357e-06
7.57862e-06
7.57862e-06
7.57862e-06
7.5953e-06
7.5953e-06
7.5953e-06
7.51345e-06
7.51345e-06
7.51345e-06
7.52996e-06
7.52996e-06
7.52996e-06
7.54657e-06
7.54657e-06
7.54657e-06
7.57074e-06
7.57074e-06
7.57074e-06
7.55416e-06
7.55416e-06
7.55416e-06
7.57897e-06
7.57897e-06
7.57897e-06
7.57057e-06
7.57057e-06
7.57057e-06
7.62934e-06
7.62934e-06
7.62934e-06
7.62101e-06
7.62101e-06
7.62101e-06
7.62947e-06
7.62947e-06
7.62947e-06
6.73338e-06
6.73338e-06
6.73338e-06
6.74813e-06
6.74813e-06
6.74813e-06
6.75581e-06
6.75581e-06
6.75581e-06
6.77807e-06
6.77807e-06
6.77807e-06
6.77069e-06
6.77069e-06
6.77069e-06
6.68431e-06
6.68431e-06
6.68431e-06
7.0752e-06
7.0752e-06
7.0752e-06
7.06752e-06
7.06752e-06
7.06752e-06
7.06759e-06
7.06759e-06
7.06759e-06
7.08305e-06
7.08305e-06
7.08305e-06
6.89916e-06
6.89916e-06
6.89916e-06
6.92959e-06
6.92959e-06
6.92959e-06
6.91436e-06
6.91436e-06
6.91436e-06
7.34802e-06
7.34802e-06
7.34802e-06
7.38048e-06
7.38048e-06
7.38048e-06
7.35679e-06
7.35679e-06
7.35679e-06
7.36438e-06
7.36438e-06
7.36438e-06
7.33231e-06
7.33231e-06
7.33231e-06
7.34076e-06
7.34076e-06
7.34076e-06
7.24153e-06
7.24153e-06
7.24153e-06
7.24069e-06
7.24069e-06
7.24069e-06
7.249e-06
7.249e-06
7.249e-06
7.19596e-06
7.19596e-06
7.19596e-06
7.17952e-06
7.17952e-06
7.17952e-06
7.12613e-06
7.12613e-06
7.12613e-06
7.13426e-06
7.13426e-06
7.13426e-06
6.89856e-06
6.89856e-06
6.89856e-06
6.89051e-06
6.89051e-06
6.89051e-06
6.87537e-06
6.87537e-06
6.87537e-06
6.86827e-06
6.86827e-06
6.86827e-06
6.91373e-06
6.91373e-06
6.91373e-06
6.94414e-06
6.94414e-06
6.94414e-06
6.92086e-06
6.92086e-06
6.92086e-06
6.93606e-06
6.93606e-06
6.93606e-06
6.93696e-06
6.93696e-06
6.93696e-06
6.92175e-06
6.92175e-06
6.92175e-06
7.13196e-06
7.13196e-06
7.13196e-06
7.07568e-06
7.07568e-06
7.07568e-06
7.08383e-06
7.08383e-06
7.08383e-06
7.08297e-06
7.08297e-06
7.08297e-06
7.0748e-06
7.0748e-06
7.0748e-06
7.08208e-06
7.08208e-06
7.08208e-06
7.09753e-06
7.09753e-06
7.09753e-06
7.10478e-06
7.10478e-06
7.10478e-06
7.12028e-06
7.12028e-06
7.12028e-06
7.12761e-06
7.12761e-06
7.12761e-06
7.28638e-06
7.28638e-06
7.28638e-06
7.13029e-06
7.13029e-06
7.13029e-06
7.09929e-06
7.09929e-06
7.09929e-06
7.16788e-06
7.16788e-06
7.16788e-06
7.23707e-06
7.23707e-06
7.23707e-06
7.24539e-06
7.24539e-06
7.24539e-06
7.15843e-06
7.15843e-06
7.15843e-06
7.14315e-06
7.14315e-06
7.14315e-06
7.15136e-06
7.15136e-06
7.15136e-06
7.20533e-06
7.20533e-06
7.20533e-06
7.22133e-06
7.22133e-06
7.22133e-06
7.21391e-06
7.21391e-06
7.21391e-06
7.17524e-06
7.17524e-06
7.17524e-06
7.19088e-06
7.19088e-06
7.19088e-06
7.16694e-06
7.16694e-06
7.16694e-06
7.17432e-06
7.17432e-06
7.17432e-06
7.19822e-06
7.19822e-06
7.19822e-06
7.18996e-06
7.18996e-06
7.18996e-06
6.71067e-06
6.71067e-06
6.71067e-06
6.76189e-06
6.76189e-06
6.76189e-06
6.77691e-06
6.77691e-06
6.77691e-06
6.70266e-06
6.70266e-06
6.70266e-06
6.73207e-06
6.73207e-06
6.73207e-06
6.71739e-06
6.71739e-06
6.71739e-06
6.74652e-06
6.74652e-06
6.74652e-06
6.85228e-06
6.85228e-06
6.85228e-06
6.70079e-06
6.70079e-06
6.70079e-06
6.71629e-06
6.71629e-06
6.71629e-06
6.70142e-06
6.70142e-06
6.70142e-06
6.69368e-06
6.69368e-06
6.69368e-06
6.67175e-06
6.67175e-06
6.67175e-06
6.67884e-06
6.67884e-06
6.67884e-06
6.6711e-06
6.6711e-06
6.6711e-06
6.77003e-06
6.77003e-06
6.77003e-06
6.74611e-06
6.74611e-06
6.74611e-06
6.72404e-06
6.72404e-06
6.72404e-06
6.73895e-06
6.73895e-06
6.73895e-06
6.72522e-06
6.72522e-06
6.72522e-06
6.74013e-06
6.74013e-06
6.74013e-06
6.69664e-06
6.69664e-06
6.69664e-06
6.68183e-06
6.68183e-06
6.68183e-06
6.67472e-06
6.67472e-06
6.67472e-06
7.16445e-06
7.16445e-06
7.16445e-06
7.13013e-06
7.13013e-06
7.13013e-06
7.08473e-06
7.08473e-06
7.08473e-06
7.06872e-06
7.06872e-06
7.06872e-06
7.08418e-06
7.08418e-06
7.08418e-06
7.09219e-06
7.09219e-06
7.09219e-06
7.11517e-06
7.11517e-06
7.11517e-06
7.10769e-06
7.10769e-06
7.10769e-06
7.06927e-06
7.06927e-06
7.06927e-06
7.06128e-06
7.06128e-06
7.06128e-06
6.97703e-06
6.97703e-06
6.97703e-06
7.08173e-06
7.08173e-06
7.08173e-06
7.08979e-06
7.08979e-06
7.08979e-06
7.10908e-06
7.10908e-06
7.10908e-06
7.07815e-06
7.07815e-06
7.07815e-06
7.62782e-06
7.62782e-06
7.62782e-06
7.62812e-06
7.62812e-06
7.62812e-06
7.61958e-06
7.61958e-06
7.61958e-06
7.60282e-06
7.60282e-06
7.60282e-06
7.61044e-06
7.61044e-06
7.61044e-06
7.22659e-06
7.22659e-06
7.22659e-06
7.19518e-06
7.19518e-06
7.19518e-06
7.21912e-06
7.21912e-06
7.21912e-06
7.20341e-06
7.20341e-06
7.20341e-06
7.20418e-06
7.20418e-06
7.20418e-06
7.19671e-06
7.19671e-06
7.19671e-06
7.59431e-06
7.59431e-06
7.59431e-06
7.62674e-06
7.62674e-06
7.62674e-06
7.62067e-06
7.62067e-06
7.62067e-06
7.37252e-06
7.37252e-06
7.37252e-06
7.38075e-06
7.38075e-06
7.38075e-06
7.56335e-06
7.56335e-06
7.56335e-06
7.6132e-06
7.6132e-06
7.6132e-06
7.59651e-06
7.59651e-06
7.59651e-06
7.57987e-06
7.57987e-06
7.57987e-06
6.7485e-06
6.7485e-06
6.7485e-06
6.67714e-06
6.67714e-06
6.67714e-06
6.97539e-06
6.97539e-06
6.97539e-06
6.9601e-06
6.9601e-06
6.9601e-06
7.05209e-06
7.05209e-06
7.05209e-06
7.49574e-06
7.49574e-06
7.49574e-06
6.97523e-06
6.97523e-06
6.97523e-06
6.95994e-06
6.95994e-06
6.95994e-06
7.09835e-06
7.09835e-06
7.09835e-06
7.09055e-06
7.09055e-06
7.09055e-06
7.11396e-06
7.11396e-06
7.11396e-06
7.09845e-06
7.09845e-06
7.09845e-06
7.09852e-06
7.09852e-06
7.09852e-06
7.09075e-06
7.09075e-06
7.09075e-06
7.12958e-06
7.12958e-06
7.12958e-06
7.11403e-06
7.11403e-06
7.11403e-06
7.12176e-06
7.12176e-06
7.12176e-06
7.13731e-06
7.13731e-06
7.13731e-06
7.14513e-06
7.14513e-06
7.14513e-06
7.14584e-06
7.14584e-06
7.14584e-06
7.15319e-06
7.15319e-06
7.15319e-06
7.33326e-06
7.33326e-06
7.33326e-06
7.22577e-06
7.22577e-06
7.22577e-06
7.21832e-06
7.21832e-06
7.21832e-06
7.20262e-06
7.20262e-06
7.20262e-06
7.24814e-06
7.24814e-06
7.24814e-06
7.23982e-06
7.23982e-06
7.23982e-06
7.29478e-06
7.29478e-06
7.29478e-06
7.389e-06
7.389e-06
7.389e-06
7.33926e-06
7.33926e-06
7.33926e-06
7.1803e-06
7.1803e-06
7.1803e-06
7.14908e-06
7.14908e-06
7.14908e-06
7.15649e-06
7.15649e-06
7.15649e-06
7.1721e-06
7.1721e-06
7.1721e-06
7.17286e-06
7.17286e-06
7.17286e-06
7.15725e-06
7.15725e-06
7.15725e-06
7.11061e-06
7.11061e-06
7.11061e-06
7.10322e-06
7.10322e-06
7.10322e-06
7.12685e-06
7.12685e-06
7.12685e-06
7.11133e-06
7.11133e-06
7.11133e-06
7.06562e-06
7.06562e-06
7.06562e-06
7.05757e-06
7.05757e-06
7.05757e-06
7.10528e-06
7.10528e-06
7.10528e-06
7.05938e-06
7.05938e-06
7.05938e-06
6.94501e-06
6.94501e-06
6.94501e-06
6.96108e-06
6.96108e-06
6.96108e-06
6.96024e-06
6.96024e-06
6.96024e-06
6.96829e-06
6.96829e-06
6.96829e-06
6.72281e-06
6.72281e-06
6.72281e-06
6.71567e-06
6.71567e-06
6.71567e-06
6.72343e-06
6.72343e-06
6.72343e-06
6.73834e-06
6.73834e-06
6.73834e-06
6.80541e-06
6.80541e-06
6.80541e-06
6.75848e-06
6.75848e-06
6.75848e-06
6.74356e-06
6.74356e-06
6.74356e-06
6.82554e-06
6.82554e-06
6.82554e-06
6.81124e-06
6.81124e-06
6.81124e-06
6.83267e-06
6.83267e-06
6.83267e-06
7.19437e-06
7.19437e-06
7.19437e-06
7.12379e-06
7.12379e-06
7.12379e-06
7.13114e-06
7.13114e-06
7.13114e-06
7.12296e-06
7.12296e-06
7.12296e-06
7.10745e-06
7.10745e-06
7.10745e-06
7.06111e-06
7.06111e-06
7.06111e-06
7.07653e-06
7.07653e-06
7.07653e-06
7.12852e-06
7.12852e-06
7.12852e-06
7.14496e-06
7.14496e-06
7.14496e-06
7.14406e-06
7.14406e-06
7.14406e-06
7.15229e-06
7.15229e-06
7.15229e-06
7.09663e-06
7.09663e-06
7.09663e-06
7.11181e-06
7.11181e-06
7.11181e-06
7.19916e-06
7.19916e-06
7.19916e-06
7.22407e-06
7.22407e-06
7.22407e-06
7.21576e-06
7.21576e-06
7.21576e-06
7.26214e-06
7.26214e-06
7.26214e-06
7.24726e-06
7.24726e-06
7.24726e-06
7.27053e-06
7.27053e-06
7.27053e-06
7.26306e-06
7.26306e-06
7.26306e-06
7.29386e-06
7.29386e-06
7.29386e-06
7.30977e-06
7.30977e-06
7.30977e-06
7.31729e-06
7.31729e-06
7.31729e-06
6.69821e-06
6.69821e-06
6.69821e-06
6.71376e-06
6.71376e-06
6.71376e-06
6.68856e-06
6.68856e-06
6.68856e-06
6.69602e-06
6.69602e-06
6.69602e-06
6.67373e-06
6.67373e-06
6.67373e-06
6.71856e-06
6.71856e-06
6.71856e-06
6.76303e-06
6.76303e-06
6.76303e-06
6.73336e-06
6.73336e-06
6.73336e-06
6.74015e-06
6.74015e-06
6.74015e-06
6.75496e-06
6.75496e-06
6.75496e-06
6.78839e-06
6.78839e-06
6.78839e-06
6.81051e-06
6.81051e-06
6.81051e-06
6.80338e-06
6.80338e-06
6.80338e-06
6.80262e-06
6.80262e-06
6.80262e-06
6.85316e-06
6.85316e-06
6.85316e-06
6.84513e-06
6.84513e-06
6.84513e-06
6.7849e-06
6.7849e-06
6.7849e-06
6.77795e-06
6.77795e-06
6.77795e-06
6.71749e-06
6.71749e-06
6.71749e-06
6.7169e-06
6.7169e-06
6.7169e-06
6.72464e-06
6.72464e-06
6.72464e-06
6.67239e-06
6.67239e-06
6.67239e-06
6.67947e-06
6.67947e-06
6.67947e-06
6.6943e-06
6.6943e-06
6.6943e-06
6.70203e-06
6.70203e-06
6.70203e-06
6.67617e-06
6.67617e-06
6.67617e-06
6.69887e-06
6.69887e-06
6.69887e-06
6.6911e-06
6.6911e-06
6.6911e-06
6.66905e-06
6.66905e-06
6.66905e-06
6.69304e-06
6.69304e-06
6.69304e-06
6.67819e-06
6.67819e-06
6.67819e-06
6.76105e-06
6.76105e-06
6.76105e-06
6.76884e-06
6.76884e-06
6.76884e-06
6.87489e-06
6.87489e-06
6.87489e-06
6.88215e-06
6.88215e-06
6.88215e-06
6.83551e-06
6.83551e-06
6.83551e-06
6.78383e-06
6.78383e-06
6.78383e-06
6.79102e-06
6.79102e-06
6.79102e-06
6.78502e-06
6.78502e-06
6.78502e-06
6.8283e-06
6.8283e-06
6.8283e-06
6.81325e-06
6.81325e-06
6.81325e-06
6.80604e-06
6.80604e-06
6.80604e-06
6.81387e-06
6.81387e-06
6.81387e-06
6.74671e-06
6.74671e-06
6.74671e-06
6.76225e-06
6.76225e-06
6.76225e-06
6.7473e-06
6.7473e-06
6.7473e-06
6.73955e-06
6.73955e-06
6.73955e-06
6.76944e-06
6.76944e-06
6.76944e-06
6.76166e-06
6.76166e-06
6.76166e-06
6.71807e-06
6.71807e-06
6.71807e-06
6.70321e-06
6.70321e-06
6.70321e-06
6.69608e-06
6.69608e-06
6.69608e-06
6.70378e-06
6.70378e-06
6.70378e-06
6.74788e-06
6.74788e-06
6.74788e-06
6.76283e-06
6.76283e-06
6.76283e-06
6.7706e-06
6.7706e-06
6.7706e-06
6.90758e-06
6.90758e-06
6.90758e-06
6.92279e-06
6.92279e-06
6.92279e-06
7.20636e-06
7.20636e-06
7.20636e-06
7.14378e-06
7.14378e-06
7.14378e-06
7.21435e-06
7.21435e-06
7.21435e-06
7.20662e-06
7.20662e-06
7.20662e-06
7.13585e-06
7.13585e-06
7.13585e-06
7.15687e-06
7.15687e-06
7.15687e-06
7.1649e-06
7.1649e-06
7.1649e-06
7.08714e-06
7.08714e-06
7.08714e-06
7.09467e-06
7.09467e-06
7.09467e-06
7.10973e-06
7.10973e-06
7.10973e-06
7.07168e-06
7.07168e-06
7.07168e-06
7.06416e-06
7.06416e-06
7.06416e-06
7.04873e-06
7.04873e-06
7.04873e-06
7.04082e-06
7.04082e-06
7.04082e-06
7.13761e-06
7.13761e-06
7.13761e-06
7.11459e-06
7.11459e-06
7.11459e-06
7.10713e-06
7.10713e-06
7.10713e-06
7.09163e-06
7.09163e-06
7.09163e-06
7.0836e-06
7.0836e-06
7.0836e-06
7.01795e-06
7.01795e-06
7.01795e-06
7.02543e-06
7.02543e-06
7.02543e-06
7.06182e-06
7.06182e-06
7.06182e-06
7.04586e-06
7.04586e-06
7.04586e-06
7.08671e-06
7.08671e-06
7.08671e-06
7.09422e-06
7.09422e-06
7.09422e-06
7.01662e-06
7.01662e-06
7.01662e-06
7.02406e-06
7.02406e-06
7.02406e-06
7.06693e-06
7.06693e-06
7.06693e-06
7.08238e-06
7.08238e-06
7.08238e-06
7.06272e-06
7.06272e-06
7.06272e-06
6.94091e-06
6.94091e-06
6.94091e-06
7.62839e-06
7.62839e-06
7.62839e-06
7.61986e-06
7.61986e-06
7.61986e-06
7.62011e-06
7.62011e-06
7.62011e-06
7.46168e-06
7.46168e-06
7.46168e-06
7.49424e-06
7.49424e-06
7.49424e-06
7.47807e-06
7.47807e-06
7.47807e-06
7.61194e-06
7.61194e-06
7.61194e-06
7.61594e-06
7.61594e-06
7.61594e-06
7.61843e-06
7.61843e-06
7.61843e-06
7.22737e-06
7.22737e-06
7.22737e-06
7.21989e-06
7.21989e-06
7.21989e-06
7.22814e-06
7.22814e-06
7.22814e-06
7.2439e-06
7.2439e-06
7.2439e-06
7.20493e-06
7.20493e-06
7.20493e-06
7.22064e-06
7.22064e-06
7.22064e-06
7.61926e-06
7.61926e-06
7.61926e-06
7.60251e-06
7.60251e-06
7.60251e-06
7.62749e-06
7.62749e-06
7.62749e-06
7.61892e-06
7.61892e-06
7.61892e-06
7.60181e-06
7.60181e-06
7.60181e-06
7.59326e-06
7.59326e-06
7.59326e-06
7.57659e-06
7.57659e-06
7.57659e-06
7.57618e-06
7.57618e-06
7.57618e-06
7.56807e-06
7.56807e-06
7.56807e-06
7.54339e-06
7.54339e-06
7.54339e-06
7.55147e-06
7.55147e-06
7.55147e-06
7.62542e-06
7.62542e-06
7.62542e-06
7.61264e-06
7.61264e-06
7.61264e-06
7.35644e-06
7.35644e-06
7.35644e-06
7.3244e-06
7.3244e-06
7.3244e-06
7.59039e-06
7.59039e-06
7.59039e-06
7.59461e-06
7.59461e-06
7.59461e-06
7.57792e-06
7.57792e-06
7.57792e-06
7.6031e-06
7.6031e-06
7.6031e-06
6.84518e-06
6.84518e-06
6.84518e-06
6.81443e-06
6.81443e-06
6.81443e-06
6.77023e-06
6.77023e-06
6.77023e-06
6.77048e-06
6.77048e-06
6.77048e-06
6.77785e-06
6.77785e-06
6.77785e-06
6.81551e-06
6.81551e-06
6.81551e-06
6.79285e-06
6.79285e-06
6.79285e-06
6.80047e-06
6.80047e-06
6.80047e-06
6.77759e-06
6.77759e-06
6.77759e-06
6.75595e-06
6.75595e-06
6.75595e-06
6.79315e-06
6.79315e-06
6.79315e-06
6.8082e-06
6.8082e-06
6.8082e-06
6.68474e-06
6.68474e-06
6.68474e-06
6.72204e-06
6.72204e-06
6.72204e-06
6.70718e-06
6.70718e-06
6.70718e-06
6.69955e-06
6.69955e-06
6.69955e-06
6.75187e-06
6.75187e-06
6.75187e-06
6.72283e-06
6.72283e-06
6.72283e-06
6.70796e-06
6.70796e-06
6.70796e-06
6.98293e-06
6.98293e-06
6.98293e-06
6.97532e-06
6.97532e-06
6.97532e-06
6.98301e-06
6.98301e-06
6.98301e-06
6.93718e-06
6.93718e-06
6.93718e-06
6.95244e-06
6.95244e-06
6.95244e-06
6.92953e-06
6.92953e-06
6.92953e-06
6.93711e-06
6.93711e-06
6.93711e-06
6.96004e-06
6.96004e-06
6.96004e-06
6.95236e-06
6.95236e-06
6.95236e-06
7.04435e-06
7.04435e-06
7.04435e-06
7.02884e-06
7.02884e-06
7.02884e-06
7.03677e-06
7.03677e-06
7.03677e-06
7.05216e-06
7.05216e-06
7.05216e-06
7.04443e-06
7.04443e-06
7.04443e-06
7.4969e-06
7.4969e-06
7.4969e-06
7.37431e-06
7.37431e-06
7.37431e-06
7.40661e-06
7.40661e-06
7.40661e-06
7.32503e-06
7.32503e-06
7.32503e-06
7.30907e-06
7.30907e-06
7.30907e-06
7.31858e-06
7.31858e-06
7.31858e-06
7.27085e-06
7.27085e-06
7.27085e-06
7.255e-06
7.255e-06
7.255e-06
7.36668e-06
7.36668e-06
7.36668e-06
7.38271e-06
7.38271e-06
7.38271e-06
7.39887e-06
7.39887e-06
7.39887e-06
7.38278e-06
7.38278e-06
7.38278e-06
7.37469e-06
7.37469e-06
7.37469e-06
7.38246e-06
7.38246e-06
7.38246e-06
7.39861e-06
7.39861e-06
7.39861e-06
7.42314e-06
7.42314e-06
7.42314e-06
7.40692e-06
7.40692e-06
7.40692e-06
7.39876e-06
7.39876e-06
7.39876e-06
7.40678e-06
7.40678e-06
7.40678e-06
7.47934e-06
7.47934e-06
7.47934e-06
6.92944e-06
6.92944e-06
6.92944e-06
6.91421e-06
6.91421e-06
6.91421e-06
7.06742e-06
7.06742e-06
7.06742e-06
7.07508e-06
7.07508e-06
7.07508e-06
7.052e-06
7.052e-06
7.052e-06
7.04423e-06
7.04423e-06
7.04423e-06
7.09822e-06
7.09822e-06
7.09822e-06
7.22345e-06
7.22345e-06
7.22345e-06
7.23128e-06
7.23128e-06
7.23128e-06
7.2392e-06
7.2392e-06
7.2392e-06
7.23912e-06
7.23912e-06
7.23912e-06
7.23119e-06
7.23119e-06
7.23119e-06
7.14506e-06
7.14506e-06
7.14506e-06
7.16066e-06
7.16066e-06
7.16066e-06
7.21519e-06
7.21519e-06
7.21519e-06
7.11386e-06
7.11386e-06
7.11386e-06
7.14496e-06
7.14496e-06
7.14496e-06
7.12168e-06
7.12168e-06
7.12168e-06
7.13723e-06
7.13723e-06
7.13723e-06
7.3637e-06
7.3637e-06
7.3637e-06
7.34765e-06
7.34765e-06
7.34765e-06
7.26481e-06
7.26481e-06
7.26481e-06
7.31822e-06
7.31822e-06
7.31822e-06
7.3107e-06
7.3107e-06
7.3107e-06
7.27143e-06
7.27143e-06
7.27143e-06
7.28729e-06
7.28729e-06
7.28729e-06
7.26395e-06
7.26395e-06
7.26395e-06
7.2723e-06
7.2723e-06
7.2723e-06
7.27315e-06
7.27315e-06
7.27315e-06
7.28901e-06
7.28901e-06
7.28901e-06
7.36534e-06
7.36534e-06
7.36534e-06
7.38144e-06
7.38144e-06
7.38144e-06
7.10249e-06
7.10249e-06
7.10249e-06
7.10986e-06
7.10986e-06
7.10986e-06
7.10173e-06
7.10173e-06
7.10173e-06
7.08626e-06
7.08626e-06
7.08626e-06
7.07891e-06
7.07891e-06
7.07891e-06
7.08701e-06
7.08701e-06
7.08701e-06
7.10393e-06
7.10393e-06
7.10393e-06
7.08845e-06
7.08845e-06
7.08845e-06
7.08913e-06
7.08913e-06
7.08913e-06
7.08106e-06
7.08106e-06
7.08106e-06
7.13498e-06
7.13498e-06
7.13498e-06
7.1587e-06
7.1587e-06
7.1587e-06
7.15055e-06
7.15055e-06
7.15055e-06
7.06629e-06
7.06629e-06
7.06629e-06
7.05824e-06
7.05824e-06
7.05824e-06
7.0589e-06
7.0589e-06
7.0589e-06
6.96414e-06
6.96414e-06
6.96414e-06
6.94888e-06
6.94888e-06
6.94888e-06
7.03035e-06
7.03035e-06
7.03035e-06
7.05125e-06
7.05125e-06
7.05125e-06
7.06026e-06
7.06026e-06
7.06026e-06
7.05214e-06
7.05214e-06
7.05214e-06
7.05299e-06
7.05299e-06
7.05299e-06
7.03761e-06
7.03761e-06
7.03761e-06
6.9827e-06
6.9827e-06
6.9827e-06
6.95937e-06
6.95937e-06
6.95937e-06
6.96743e-06
6.96743e-06
6.96743e-06
6.9146e-06
6.9146e-06
6.9146e-06
6.87626e-06
6.87626e-06
6.87626e-06
6.89141e-06
6.89141e-06
6.89141e-06
6.89942e-06
6.89942e-06
6.89942e-06
6.89226e-06
6.89226e-06
6.89226e-06
6.84774e-06
6.84774e-06
6.84774e-06
6.73709e-06
6.73709e-06
6.73709e-06
6.72154e-06
6.72154e-06
6.72154e-06
6.73644e-06
6.73644e-06
6.73644e-06
6.74423e-06
6.74423e-06
6.74423e-06
6.74487e-06
6.74487e-06
6.74487e-06
6.74549e-06
6.74549e-06
6.74549e-06
6.73772e-06
6.73772e-06
6.73772e-06
6.75981e-06
6.75981e-06
6.75981e-06
6.73577e-06
6.73577e-06
6.73577e-06
6.71309e-06
6.71309e-06
6.71309e-06
6.72088e-06
6.72088e-06
6.72088e-06
6.74286e-06
6.74286e-06
6.74286e-06
6.78126e-06
6.78126e-06
6.78126e-06
6.7663e-06
6.7663e-06
6.7663e-06
6.75916e-06
6.75916e-06
6.75916e-06
6.76696e-06
6.76696e-06
6.76696e-06
6.84604e-06
6.84604e-06
6.84604e-06
6.83097e-06
6.83097e-06
6.83097e-06
6.82475e-06
6.82475e-06
6.82475e-06
6.80973e-06
6.80973e-06
6.80973e-06
6.82389e-06
6.82389e-06
6.82389e-06
6.83185e-06
6.83185e-06
6.83185e-06
7.17872e-06
7.17872e-06
7.17872e-06
7.14751e-06
7.14751e-06
7.14751e-06
7.15571e-06
7.15571e-06
7.15571e-06
7.17131e-06
7.17131e-06
7.17131e-06
7.14669e-06
7.14669e-06
7.14669e-06
7.17789e-06
7.17789e-06
7.17789e-06
7.15489e-06
7.15489e-06
7.15489e-06
7.17049e-06
7.17049e-06
7.17049e-06
7.15406e-06
7.15406e-06
7.15406e-06
7.16965e-06
7.16965e-06
7.16965e-06
7.21749e-06
7.21749e-06
7.21749e-06
7.20179e-06
7.20179e-06
7.20179e-06
7.19354e-06