<VTKFile type="UnstructuredGrid" version="1.0">
<UnstructuredGrid>
<Piece NumberOfPoints="8859" NumberOfCells="2953">
<Points>
<DataArray type="Float64" NumberOfComponents="3" format="ascii">
0.5 3.01 4.085
0.512524 3.01 4.1075
0.487476 3.01 4.1075
0.17352 3.01 3.2075
0.160827 3.01 3.22922
0.148445 3.01 3.2075
0.122979 3.01 3.25089
0.110383 3.01 3.22921
0.135644 3.01 3.22922
0.135644 3.01 3.22922
0.110383 3.01 3.22921
0.123433 3.01 3.2075
0.123433 3.01 3.2075
0.148445 3.01 3.2075
0.135644 3.01 3.22922
0.135644 3.01 3.22922
0.148445 3.01 3.2075
0.160827 3.01 3.22922
0.17352 3.01 3.2075
0.198629 3.01 3.2075
0.185985 3.01 3.2292
0.185985 3.01 3.2292
0.160827 3.01 3.22922
0.17352 3.01 3.2075
0.0732297 3.01 3.25067
0.0586606 3.01 3.22881
0.0848754 3.01 3.22914
0.05 3.01 4.04027
0.05 3.01 3.9951
0.058509 3.01 4.01756
0.324276 3.01 3.2075
0.349395 3.01 3.2075
0.336827 3.01 3.22916
0.148138 3.01 3.2509
0.135644 3.01 3.22922
0.160827 3.01 3.22922
0.122979 3.01 3.25089
0.135644 3.01 3.22922
0.148138 3.01 3.2509
0.160827 3.01 3.22922
0.185985 3.01 3.2292
0.173316 3.01 3.25089
0.185806 3.01 3.27255
0.160572 3.01 3.27255
0.173316 3.01 3.25089
0.173316 3.01 3.25089
0.148138 3.01 3.2509
0.160827 3.01 3.22922
0.160572 3.01 3.27255
0.148138 3.01 3.2509
0.173316 3.01 3.25089
0.211137 3.01 3.22919
0.185985 3.01 3.2292
0.198629 3.01 3.2075
0.0979162 3.01 3.25084
0.110383 3.01 3.22921
0.122979 3.01 3.25089
0.122979 3.01 3.25089
0.109875 3.01 3.27249
0.0979162 3.01 3.25084
0.0732297 3.01 3.25067
0.0848754 3.01 3.22914
0.0979162 3.01 3.25084
0.0979162 3.01 3.25084
0.0848754 3.01 3.22914
0.110383 3.01 3.22921
0.0975729 3.01 3.29404
0.109875 3.01 3.27249
0.122678 3.01 3.29414
0.0841718 3.01 3.27235
0.0577122 3.01 3.27202
0.0732297 3.01 3.25067
0.0729308 3.01 3.29388
0.0577122 3.01 3.27202
0.0841718 3.01 3.27235
0.0732297 3.01 3.25067
0.0979162 3.01 3.25084
0.0841718 3.01 3.27235
0.0841718 3.01 3.27235
0.0979162 3.01 3.25084
0.109875 3.01 3.27249
0.0975729 3.01 3.29404
0.0729308 3.01 3.29388
0.0841718 3.01 3.27235
0.0841718 3.01 3.27235
0.109875 3.01 3.27249
0.0975729 3.01 3.29404
0.073948 3.01 3.2075
0.0586606 3.01 3.22881
0.05 3.01 3.2075
0.073948 3.01 3.2075
0.0848754 3.01 3.22914
0.0586606 3.01 3.22881
0.05 3.01 4.08329
0.05 3.01 4.04027
0.0603641 3.01 4.06197
0.0603641 3.01 4.06197
0.0753197 3.01 4.08399
0.05 3.01 4.08329
0.0709395 3.01 4.1075
0.05 3.01 4.1075
0.05 3.01 4.08329
0.05 3.01 4.08329
0.0753197 3.01 4.08399
0.0709395 3.01 4.1075
0.0579641 3.01 3.79463
0.05 3.01 3.81669
0.05 3.01 3.77261
0.0841948 3.01 3.7068
0.097638 3.01 3.68493
0.109814 3.01 3.7068
0.0841948 3.01 3.7068
0.0730539 3.01 3.7287
0.0578646 3.01 3.7068
0.0580261 3.01 3.8388
0.05 3.01 3.86095
0.05 3.01 3.81669
0.942292 3.01 3.40236
0.95 3.01 3.38067
0.95 3.01 3.42404
0.95 3.01 3.33726
0.95 3.01 3.38067
0.942332 3.01 3.35897
0.73872 3.01 3.61953
0.726137 3.01 3.59776
0.75132 3.01 3.59775
0.751305 3.01 3.64132
0.726124 3.01 3.64133
0.73872 3.01 3.61953
0.713546 3.01 3.61954
0.726137 3.01 3.59776
0.73872 3.01 3.61953
0.73872 3.01 3.61953
0.726124 3.01 3.64133
0.713546 3.01 3.61954
0.814318 3.01 3.66311
0.789096 3.01 3.66312
0.801709 3.01 3.6413
0.7765 3.01 3.64131
0.789115 3.01 3.61951
0.801709 3.01 3.6413
0.801709 3.01 3.6413
0.789096 3.01 3.66312
0.7765 3.01 3.64131
0.7765 3.01 3.64131
0.789096 3.01 3.66312
0.763892 3.01 3.66314
0.763892 3.01 3.66314
0.751305 3.01 3.64132
0.7765 3.01 3.64131
0.95 3.01 4.1075
0.929061 3.01 4.1075
0.95 3.01 4.08329
0.95 3.01 3.9054
0.926844 3.01 3.9054
0.941913 3.01 3.88315
0.941913 3.01 3.88315
0.95 3.01 3.86095
0.95 3.01 3.9054
0.926866 3.01 3.86094
0.95 3.01 3.86095
0.941913 3.01 3.88315
0.941974 3.01 3.8388
0.95 3.01 3.86095
0.926866 3.01 3.86094
0.95 3.01 3.81669
0.95 3.01 3.86095
0.941974 3.01 3.8388
0.941974 3.01 3.8388
0.926895 3.01 3.81669
0.95 3.01 3.81669
0.6127 3.01 4.1075
0.625238 3.01 4.08498
0.637734 3.01 4.1075
0.662757 3.01 4.1075
0.637734 3.01 4.1075
0.650275 3.01 4.08497
0.650275 3.01 4.08497
0.637734 3.01 4.1075
0.625238 3.01 4.08498
0.600415 3.01 3.64137
0.587856 3.01 3.6632
0.575304 3.01 3.64137
0.575304 3.01 3.64137
0.587856 3.01 3.6632
0.562749 3.01 3.6632
0.336827 3.01 3.22916
0.349395 3.01 3.2075
0.361946 3.01 3.22916
0.223755 3.01 3.2075
0.211137 3.01 3.22919
0.198629 3.01 3.2075
0.185985 3.01 3.2292
0.211137 3.01 3.22919
0.198492 3.01 3.25088
0.185806 3.01 3.27255
0.173316 3.01 3.25089
0.198492 3.01 3.25088
0.198492 3.01 3.25088
0.173316 3.01 3.25089
0.185985 3.01 3.2292
0.0576202 3.01 3.31553
0.05 3.01 3.33726
0.05 3.01 3.29374
0.05 3.01 3.29374
0.0729308 3.01 3.29388
0.0576202 3.01 3.31553
0.05 3.01 3.29374
0.0577122 3.01 3.27202
0.0729308 3.01 3.29388
0.135283 3.01 3.27254
0.109875 3.01 3.27249
0.122979 3.01 3.25089
0.135283 3.01 3.27254
0.122678 3.01 3.29414
0.109875 3.01 3.27249
0.122979 3.01 3.25089
0.148138 3.01 3.2509
0.135283 3.01 3.27254
0.135283 3.01 3.27254
0.148138 3.01 3.2509
0.160572 3.01 3.27255
0.123433 3.01 3.2075
0.110383 3.01 3.22921
0.0985513 3.01 3.2075
0.110383 3.01 3.22921
0.0848754 3.01 3.22914
0.0985513 3.01 3.2075
0.0848754 3.01 3.22914
0.073948 3.01 3.2075
0.0985513 3.01 3.2075
0.0603641 3.01 4.06197
0.05 3.01 4.04027
0.0739464 3.01 4.03949
0.0739464 3.01 4.03949
0.05 3.01 4.04027
0.058509 3.01 4.01756
0.058509 3.01 4.01756
0.0849548 3.01 4.01711
0.0739464 3.01 4.03949
0.058509 3.01 4.01756
0.05 3.01 3.9951
0.0732725 3.01 3.99488
0.0732725 3.01 3.99488
0.0849548 3.01 4.01711
0.058509 3.01 4.01756
0.5 3.01 4.085
0.487476 3.01 4.1075
0.47495 3.01 4.085
0.097663 3.01 3.7287
0.0841948 3.01 3.7068
0.109814 3.01 3.7068
0.0730539 3.01 3.7287
0.0841948 3.01 3.7068
0.097663 3.01 3.7287
0.0578646 3.01 3.7068
0.0730539 3.01 3.7287
0.05 3.01 3.7287
0.05 3.01 3.7287
0.05 3.01 3.68492
0.0578646 3.01 3.7068
0.05 3.01 3.9054
0.05 3.01 3.86095
0.0580869 3.01 3.88315
0.05 3.01 3.86095
0.0580261 3.01 3.8388
0.073134 3.01 3.86094
0.073134 3.01 3.86094
0.0580869 3.01 3.88315
0.05 3.01 3.86095
0.942268 3.01 3.44573
0.95 3.01 3.42404
0.95 3.01 3.46741
0.942292 3.01 3.40236
0.95 3.01 3.42404
0.927025 3.01 3.42404
0.927025 3.01 3.42404
0.942268 3.01 3.44573
0.915919 3.01 3.44572
0.95 3.01 3.42404
0.942268 3.01 3.44573
0.927025 3.01 3.42404
0.927013 3.01 3.46741
0.942268 3.01 3.44573
0.95 3.01 3.46741
0.915919 3.01 3.44572
0.942268 3.01 3.44573
0.927013 3.01 3.46741
0.801738 3.01 3.55425
0.814364 3.01 3.53253
0.826957 3.01 3.55425
0.852174 3.01 3.55424
0.826957 3.01 3.55425
0.839609 3.01 3.53252
0.839609 3.01 3.53252
0.826957 3.01 3.55425
0.814364 3.01 3.53253
0.776516 3.01 3.59775
0.75132 3.01 3.59775
0.763923 3.01 3.576
0.776516 3.01 3.59775
0.801725 3.01 3.59774
0.789115 3.01 3.61951
0.738704 3.01 3.66315
0.751305 3.01 3.64132
0.763892 3.01 3.66314
0.726124 3.01 3.64133
0.751305 3.01 3.64132
0.738704 3.01 3.66315
0.915617 3.01 3.88314
0.902228 3.01 3.86094
0.926866 3.01 3.86094
0.926866 3.01 3.86094
0.941913 3.01 3.88315
0.915617 3.01 3.88314
0.915617 3.01 3.88314
0.941913 3.01 3.88315
0.926844 3.01 3.9054
0.915617 3.01 3.88314
0.926844 3.01 3.9054
0.902193 3.01 3.90538
0.926866 3.01 3.86094
0.902228 3.01 3.86094
0.915668 3.01 3.83879
0.902267 3.01 3.81668
0.926895 3.01 3.81669
0.915668 3.01 3.83879
0.915668 3.01 3.83879
0.941974 3.01 3.8388
0.926866 3.01 3.86094
0.926895 3.01 3.81669
0.941974 3.01 3.8388
0.915668 3.01 3.83879
0.902267 3.01 3.81668
0.915668 3.01 3.83879
0.890059 3.01 3.83879
0.890059 3.01 3.83879
0.915668 3.01 3.83879
0.902228 3.01 3.86094
0.826927 3.01 3.64129
0.814318 3.01 3.66311
0.801709 3.01 3.6413
0.864816 3.01 3.7068
0.877308 3.01 3.68493
0.890186 3.01 3.7068
0.877308 3.01 3.68493
0.864816 3.01 3.7068
0.852122 3.01 3.68494
0.890186 3.01 3.7068
0.877308 3.01 3.68493
0.902362 3.01 3.68493
0.902362 3.01 3.68493
0.915805 3.01 3.7068
0.890186 3.01 3.7068
0.902362 3.01 3.68493
0.926964 3.01 3.68492
0.915805 3.01 3.7068
0.915835 3.01 3.66309
0.926964 3.01 3.68492
0.902362 3.01 3.68493
0.942171 3.01 3.66309
0.926964 3.01 3.68492
0.915835 3.01 3.66309
0.915835 3.01 3.66309
0.926978 3.01 3.64127
0.942171 3.01 3.66309
0.942171 3.01 3.66309
0.926978 3.01 3.64127
0.95 3.01 3.64127
0.87737 3.01 3.51081
0.890277 3.01 3.48911
0.902417 3.01 3.5108
0.852144 3.01 3.64128
0.877329 3.01 3.64128
0.864842 3.01 3.66309
0.877308 3.01 3.68493
0.852122 3.01 3.68494
0.864842 3.01 3.66309
0.902396 3.01 3.59772
0.915858 3.01 3.61948
0.890234 3.01 3.61949
0.926997 3.01 3.55423
0.942237 3.01 3.53251
0.95 3.01 3.55423
0.91589 3.01 3.53251
0.942237 3.01 3.53251
0.926997 3.01 3.55423
0.942199 3.01 3.61948
0.95 3.01 3.59771
0.95 3.01 3.64127
0.95 3.01 3.64127
0.926978 3.01 3.64127
0.942199 3.01 3.61948
0.942199 3.01 3.61948
0.926978 3.01 3.64127
0.915858 3.01 3.61948
0.95 3.01 3.55423
0.95 3.01 3.59771
0.942221 3.01 3.57597
0.942221 3.01 3.57597
0.926997 3.01 3.55423
0.95 3.01 3.55423
0.915876 3.01 3.57597
0.926997 3.01 3.55423
0.942221 3.01 3.57597
0.926989 3.01 3.59771
0.915858 3.01 3.61948
0.902396 3.01 3.59772
0.902396 3.01 3.59772
0.915876 3.01 3.57597
0.926989 3.01 3.59771
0.926989 3.01 3.59771
0.942199 3.01 3.61948
0.915858 3.01 3.61948
0.95 3.01 3.59771
0.942199 3.01 3.61948
0.926989 3.01 3.59771
0.915876 3.01 3.57597
0.942221 3.01 3.57597
0.926989 3.01 3.59771
0.926989 3.01 3.59771
0.942221 3.01 3.57597
0.95 3.01 3.59771
0.91353 3.01 4.06185
0.926054 3.01 4.03949
0.939636 3.01 4.06197
0.926728 3.01 3.99488
0.95 3.01 3.9951
0.941491 3.01 4.01756
0.926728 3.01 3.99488
0.941822 3.01 3.97254
0.95 3.01 3.9951
0.95 3.01 4.04027
0.95 3.01 4.08329
0.939636 3.01 4.06197
0.95 3.01 4.04027
0.926054 3.01 4.03949
0.941491 3.01 4.01756
0.939636 3.01 4.06197
0.926054 3.01 4.03949
0.95 3.01 4.04027
0.941491 3.01 4.01756
0.95 3.01 3.9951
0.95 3.01 4.04027
0.941869 3.01 3.92772
0.926844 3.01 3.9054
0.95 3.01 3.9054
0.762942 3.01 4.06228
0.75028 3.01 4.08489
0.737933 3.01 4.06234
0.71291 3.01 4.06239
0.725533 3.01 4.03985
0.737933 3.01 4.06234
0.71291 3.01 4.06239
0.737933 3.01 4.06234
0.725313 3.01 4.08492
0.725313 3.01 4.08492
0.737933 3.01 4.06234
0.75028 3.01 4.08489
0.737693 3.01 4.1075
0.712746 3.01 4.1075
[...]
<PointData Scalars="View Factor" >
<DataArray type="Float64" Name="View Factor" NumberOfComponents="1" format="ascii">
0.000208821
0.000208821
0.000208821
0.000288626
0.000288626
0.000288626
0.000286331
0.000286331
0.000286331
0.000287893
0.000287893
0.000287893
0.000288663
0.000288663
0.000288663
0.00028786
0.00028786
0.00028786
0.000288584
0.000288584
0.000288584
0.000287821
0.000287821
0.000287821
0.000286404
0.000286404
0.000286404
0.00021569
0.00021569
0.00021569
0.000288199
0.000288199
0.000288199
0.000286297
0.000286297
0.000286297
0.000285538
0.000285538
0.000285538
0.000286259
0.000286259
0.000286259
0.000283171
0.000283171
0.000283171
0.000285503
0.000285503
0.000285503
0.000283959
0.000283959
0.000283959
0.000287776
0.000287776
0.000287776
0.000285571
0.000285571
0.000285571
0.000284029
0.000284029
0.000284029
0.000285605
0.000285605
0.000285605
0.000286363
0.000286363
0.000286363
0.000280979
0.000280979
0.000280979
0.000283324
0.000283324
0.000283324
0.000281799
0.000281799
0.000281799
0.000284065
0.000284065
0.000284065
0.000283281
0.000283281
0.000283281
0.000281016
0.000281016
0.000281016
0.000281756
0.000281756
0.000281756
0.00028875
0.00028875
0.00028875
0.000287959
0.000287959
0.000287959
0.000212381
0.000212381
0.000212381
0.000211301
0.000211301
0.000211301
0.000209615
0.000209615
0.000209615
0.000210185
0.000210185
0.000210185
0.000233402
0.000233402
0.000233402
0.000241484
0.000241484
0.000241484
0.000240235
0.000240235
0.000240235
0.000229754
0.000229754
0.000229754
0.000265283
0.000265283
0.000265283
0.000269557
0.000269557
0.000269557
0.000247773
0.000247773
0.000247773
0.000245184
0.000245184
0.000245184
0.000247194
0.000247194
0.000247194
0.0002459
0.0002459
0.0002459
0.000242896
0.000242896
0.000242896
0.000244889
0.000244889
0.000244889
0.000243609
0.000243609
0.000243609
0.000243046
0.000243046
0.000243046
0.000243758
0.000243758
0.000243758
0.00020693
0.00020693
0.00020693
0.000222017
0.000222017
0.000222017
0.00022313
0.00022313
0.00022313
0.000224348
0.000224348
0.000224348
0.000225522
0.000225522
0.000225522
0.000226651
0.000226651
0.000226651
0.000227888
0.000227888
0.000227888
0.000208393
0.000208393
0.000208393
0.000208297
0.000208297
0.000208297
0.000208889
0.000208889
0.000208889
0.000244665
0.000244665
0.000244665
0.000244079
0.000244079
0.000244079
0.000287375
0.000287375
0.000287375
0.000288536
0.000288536
0.000288536
0.000286215
0.000286215
0.000286215
0.000283918
0.000283918
0.000283918
0.000285462
0.000285462
0.000285462
0.000278033
0.000278033
0.000278033
0.000279535
0.000279535
0.000279535
0.000281055
0.000281055
0.000281055
0.000283245
0.000283245
0.000283245
0.00028172
0.00028172
0.00028172
0.000283995
0.000283995
0.000283995
0.00028321
0.00028321
0.00028321
0.000288693
0.000288693
0.000288693
0.000287923
0.000287923
0.000287923
0.00028872
0.00028872
0.00028872
0.000213464
0.000213464
0.000213464
0.000214572
0.000214572
0.000214572
0.000215148
0.000215148
0.000215148
0.000216835
0.000216835
0.000216835
0.000216273
0.000216273
0.000216273
0.000209404
0.000209404
0.000209404
0.000240219
0.000240219
0.000240219
0.000239597
0.000239597
0.000239597
0.00023961
0.00023961
0.00023961
0.000240875
0.000240875
0.000240875
0.000226161
0.000226161
0.000226161
0.000228548
0.000228548
0.000228548
0.000227351
0.000227351
0.000227351
0.000261094
0.000261094
0.000261094
0.000263939
0.000263939
0.000263939
0.000261938
0.000261938
0.000261938
0.000262543
0.000262543
0.000262543
0.000259777
0.000259777
0.000259777
0.000260555
0.000260555
0.000260555
0.00025257
0.00025257
0.00025257
0.000252403
0.000252403
0.000252403
0.000253153
0.000253153
0.000253153
0.00024893
0.00024893
0.00024893
0.000247473
0.000247473
0.000247473
0.000243192
0.000243192
0.000243192
0.000243901
0.000243901
0.000243901
0.000224503
0.000224503
0.000224503
0.000223835
0.000223835
0.000223835
0.00022267
0.00022267
0.00022267
0.000222171
0.000222171
0.000222171
0.000225679
0.000225679
0.000225679
0.000228047
0.000228047
0.000228047
0.000226184
0.000226184
0.000226184
0.000227368
0.000227368
0.000227368
0.00022753
0.00022753
0.00022753
0.000226345
0.000226345
0.000226345
0.000243456
0.000243456
0.000243456
0.000238642
0.000238642
0.000238642
0.000239348
0.000239348
0.000239348
0.000239184
0.000239184
0.000239184
0.000238475
0.000238475
0.000238475
0.000239016
0.000239016
0.000239016
0.000240268
0.000240268
0.000240268
0.000240805
0.000240805
0.000240805
0.000242067
0.000242067
0.000242067
0.000242621
0.000242621
0.000242621
0.000256068
0.000256068
0.000256068
0.000243134
0.000243134
0.000243134
0.000240603
0.000240603
0.000240603
0.000246079
0.000246079
0.000246079
0.000251688
0.000251688
0.000251688
0.000252436
0.000252436
0.000252436
0.000245117
0.000245117
0.000245117
0.000243893
0.000243893
0.000243893
0.000244614
0.000244614
0.000244614
0.000249001
0.000249001
0.000249001
0.000250369
0.000250369
0.000250369
0.000249797
0.000249797
0.000249797
0.000246638
0.000246638
0.000246638
0.000247935
0.000247935
0.000247935
0.000245898
0.000245898
0.000245898
0.00024646
0.00024646
0.00024646
0.00024849
0.00024849
0.00024849
0.000247756
0.000247756
0.000247756
0.000210277
0.000210277
0.000210277
0.000214035
0.000214035
0.000214035
0.000215159
0.000215159
0.000215159
0.000209622
0.000209622
0.000209622
0.000211817
0.000211817
0.000211817
0.000210733
0.000210733
0.000210733
0.000212864
0.000212864
0.000212864
0.00022086
0.00022086
0.00022086
0.000210059
0.000210059
0.000210059
0.00021127
0.00021127
0.00021127
0.000210169
0.000210169
0.000210169
0.000209566
0.000209566
0.000209566
0.000207986
0.000207986
0.000207986
0.000208475
0.000208475
0.000208475
0.000207875
0.000207875
0.000207875
0.000215439
0.000215439
0.000215439
0.000213489
0.000213489
0.000213489
0.000211877
0.000211877
0.000211877
0.000212987
0.000212987
0.000212987
0.000212086
0.000212086
0.000212086
0.000213197
0.000213197
0.000213197
0.000210077
0.000210077
0.000210077
0.000208984
0.000208984
0.000208984
0.000208486
0.000208486
0.000208486
0.000247159
0.000247159
0.000247159
0.000243966
0.000243966
0.000243966
0.00024037
0.00024037
0.00024037
0.000239007
0.000239007
0.000239007
0.000240264
0.000240264
0.000240264
0.000240949
0.000240949
0.000240949
0.0002428
0.0002428
0.0002428
0.000242218
0.000242218
0.000242218
0.000239112
0.000239112
0.000239112
0.000238434
0.000238434
0.000238434
0.000231703
0.000231703
0.000231703
0.000239797
0.000239797
0.000239797
0.000240489
0.000240489
0.000240489
0.000241627
0.000241627
0.000241627
0.000239111
0.000239111
0.000239111
0.000288352
0.000288352
0.000288352
0.00028842
0.00028842
0.00028842
0.000287604
0.000287604
0.000287604
0.000286046
0.000286046
0.000286046
0.000285585
0.000285585
0.000285585
0.000251406
0.000251406
0.000251406
0.000248776
0.000248776
0.000248776
0.000250824
0.000250824
0.000250824
0.000249508
0.000249508
0.000249508
0.00024966
0.00024966
0.00024966
0.000249078
0.000249078
0.000249078
0.000285237
0.000285237
0.000285237
0.000288114
0.000288114
0.000288114
0.000286768
0.000286768
0.000286768
0.000265178
0.000265178
0.000265178
0.000265921
0.000265921
0.000265921
0.000282598
0.000282598
0.000282598
0.000287214
0.000287214
0.000287214
0.00028566
0.00028566
0.00028566
0.000284119
0.000284119
0.000284119
0.000214594
0.000214594
0.000214594
0.000208895
0.000208895
0.000208895
0.000232177
0.000232177
0.000232177
0.000230961
0.000230961
0.000230961
0.000238341
0.000238341
0.000238341
0.000276315
0.000276315
0.000276315
0.000232148
0.000232148
0.000232148
0.000230932
0.000230932
0.000230932
0.00024211
0.00024211
0.00024211
0.000241463
0.000241463
0.000241463
0.000243405
0.000243405
0.000243405
0.000242128
0.000242128
0.000242128
0.000242142
0.000242142
0.000242142
0.000241501
0.000241501
0.000241501
0.000244705
0.000244705
0.000244705
0.000243418
0.000243418
0.000243418
0.000244054
0.000244054
0.000244054
0.000245341
0.000245341
0.000245341
0.000245994
0.000245994
0.000245994
0.000244411
0.000244411
0.000244411
0.000244967
0.000244967
0.000244967
0.000259969
0.000259969
0.000259969
0.000251245
0.000251245
0.000251245
0.000250666
0.000250666
0.000250666
0.000249351
0.000249351
0.000249351
0.000252982
0.000252982
0.000252982
0.000252231
0.000252231
0.000252231
0.000256835
0.000256835
0.000256835
0.000264733
0.000264733
0.000264733
0.000261195
0.000261195
0.000261195
0.000247625
0.000247625
0.000247625
0.000245039
0.000245039
0.000245039
0.000245608
0.000245608
0.000245608
0.000246901
0.000246901
0.000246901
0.00024705
0.00024705
0.00024705
0.000245756
0.000245756
0.000245756
0.00024192
0.00024192
0.00024192
0.000241358
0.000241358
0.000241358
0.000243333
0.000243333
0.000243333
0.00024206
0.00024206
0.00024206
0.000238417
0.000238417
0.000238417
0.000237728
0.000237728
0.000237728
0.000241754
0.000241754
0.000241754
0.000237232
0.000237232
0.000237232
0.000228204
0.000228204
0.000228204
0.000229552
0.000229552
0.000229552
0.000229398
0.000229398
0.000229398
0.000230075
0.000230075
0.000230075
0.000211656
0.000211656
0.000211656
0.00021116
0.00021116
0.00021116
0.000211768
0.000211768
0.000211768
0.000212877
0.000212877
0.000212877
0.000217885
0.000217885
0.000217885
0.000214137
0.000214137
0.000214137
0.000213023
0.000213023
0.000213023
0.000219155
0.000219155
0.000219155
0.000218147
0.000218147
0.000218147
0.000219658
0.000219658
0.000219658
0.000248617
0.000248617
0.000248617
0.00024274
0.00024274
0.00024274
0.000243297
0.000243297
0.000243297
0.00024258
0.00024258
0.00024258
0.000241314
0.000241314
0.000241314
0.000237558
0.000237558
0.000237558
0.000238803
0.000238803
0.000238803
0.000242794
0.000242794
0.000242794
0.000244241
0.000244241
0.000244241
0.000244068
0.000244068
0.000244068
0.000244793
0.000244793
0.000244793
0.000240097
0.000240097
0.000240097
0.0002413
0.0002413
0.0002413
0.000248673
0.000248673
0.000248673
0.000250907
0.000250907
0.000250907
0.000250161
0.000250161
0.000250161
0.000253958
0.000253958
0.000253958
0.000252806
0.000252806
0.000252806
0.000254721
0.000254721
0.000254721
0.000254141
0.000254141
0.000254141
0.000256649
0.000256649
0.000256649
0.000258008
0.000258008
0.000258008
0.000258598
0.000258598
0.000258598
0.000209593
0.000209593
0.000209593
0.000210812
0.000210812
0.000210812
0.000208613
0.000208613
0.000208613
0.0002092
0.0002092
0.0002092
0.00020754
0.00020754
0.00020754
0.0002109
0.0002109
0.0002109
0.000214203
0.000214203
0.000214203
0.000211994
0.000211994
0.000211994
0.000212455
0.000212455
0.000212455
0.000213557
0.000213557
0.000213557
0.000216382
0.000216382
0.000216382
0.000218015
0.000218015
0.000218015
0.000217513
0.000217513
0.000217513
0.000217379
0.000217379
0.000217379
0.000221013
0.000221013
0.000221013
0.000220355
0.000220355
0.000220355
0.000215797
0.000215797
0.000215797
0.000215319
0.000215319
0.000215319
0.000211482
0.000211482
0.000211482
0.000211377
0.000211377
0.000211377
0.000211983
0.000211983
0.000211983
0.000208093
0.000208093
0.000208093
0.000208583
0.000208583
0.000208583
0.000209675
0.000209675
0.000209675
0.000210276
0.000210276
0.000210276
0.000208012
0.000208012
0.000208012
0.000209714
0.000209714
0.000209714
0.000209106
0.000209106
0.000209106
0.000207526
0.000207526
0.000207526
0.000209455
0.000209455
0.000209455
0.000208363
0.000208363
0.000208363
0.000214608
0.000214608
0.000214608
0.000215225
0.000215225
0.000215225
0.00022337
0.00022337
0.00022337
0.000223898
0.000223898
0.000223898
0.000220176
0.000220176
0.000220176
0.000216354
0.000216354
0.000216354
0.000216864
0.000216864
0.000216864
0.000216569
0.000216569
0.000216569
0.00021966
0.00021966
0.00021966
0.000218514
0.000218514
0.000218514
0.000218001
0.000218001
0.000218001
0.000218629
0.000218629
0.000218629
0.000213598
0.000213598
0.000213598
0.000214824
0.000214824
0.000214824
0.000213704
0.000213704
0.000213704
0.000213094
0.000213094
0.000213094
0.000215334
0.000215334
0.000215334
0.000214718
0.000214718
0.000214718
0.000211583
0.000211583
0.000211583
0.000210481
0.000210481
0.000210481
0.000209981
0.000209981
0.000209981
0.000210578
0.000210578
0.000210578
0.000213806
0.000213806
0.000213806
0.000214927
0.000214927
0.000214927
0.000215541
0.000215541
0.000215541
0.000226154
0.000226154
0.000226154
0.000227342
0.000227342
0.000227342
0.000250973
0.000250973
0.000250973
0.000245738
0.000245738
0.000245738
0.000251662
0.000251662
0.000251662
0.000251024
0.000251024
0.000251024
0.000245066
0.000245066
0.000245066
0.000246553
0.000246553
0.000246553
0.000247245
0.000247245
0.000247245
0.000240829
0.000240829
0.000240829
0.000241422
0.000241422
0.000241422
0.000242608
0.000242608
0.000242608
0.000239567
0.000239567
0.000239567
0.000238978
0.000238978
0.000238978
0.000237726
0.000237726
0.000237726
0.000237064
0.000237064
0.000237064
0.00024455
0.00024455
0.00024455
0.000242688
0.000242688
0.000242688
0.000242109
0.000242109
0.000242109
0.000240841
0.000240841
0.000240841
0.000240155
0.000240155
0.000240155
0.000235243
0.000235243
0.000235243
0.000235823
0.000235823
0.000235823
0.000238536
0.000238536
0.000238536
0.000237186
0.000237186
0.000237186
0.000240746
0.000240746
0.000240746
0.000241336
0.000241336
0.000241336
0.000234997
0.000234997
0.000234997
0.000235569
0.000235569
0.000235569
0.000238666
0.000238666
0.000238666
0.000239921
0.000239921
0.000239921
0.000237863
0.000237863
0.000237863
0.000228256
0.000228256
0.000228256
0.000288481
0.000288481
0.000288481
0.000287667
0.000287667
0.000287667
0.000287725
0.000287725
0.000287725
0.000271066
0.000271066
0.000271066
0.000273925
0.000273925
0.000273925
0.000272522
0.000272522
0.000272522
0.000285913
0.000285913
0.000285913
0.000285724
0.000285724
0.000285724
0.000286273
0.000286273
0.000286273
0.000251562
0.000251562
0.000251562
0.000250977
0.000250977
0.000250977
0.000251713
0.000251713
0.000251713
0.000253043
0.000253043
0.000253043
0.000249807
0.000249807
0.000249807
0.000251125
0.000251125
0.000251125
0.000287534
0.000287534
0.000287534
0.000285977
0.000285977
0.000285977
0.000288279
0.000288279
0.000288279
0.000287458
0.000287458
0.000287458
0.00028582
0.00028582
0.00028582
0.000285003
0.000285003
0.000285003
0.000283464
0.000283464
0.000283464
0.000283374
0.000283374
0.000283374
0.000282654
0.000282654
0.000282654
0.000280416
0.000280416
0.000280416
0.000281131
0.000281131
0.000281131
0.00028782
0.00028782
0.00028782
0.000286068
0.000286068
0.000286068
0.00026377
0.00026377
0.00026377
0.00026098
0.00026098
0.00026098
0.000284371
0.000284371
0.000284371
0.000285303
0.000285303
0.000285303
0.00028376
0.00028376
0.00028376
0.000286108
0.000286108
0.000286108
0.00022188
0.00022188
0.00022188
0.000219473
0.000219473
0.000219473
0.000216176
0.000216176
0.000216176
0.000216211
0.000216211
0.000216211
0.000216762
0.000216762
0.000216762
0.000219638
0.000219638
0.000219638
0.000217901
0.000217901
0.000217901
0.00021849
0.00021849
0.00021849
0.000216724
0.000216724
0.000216724
0.000215151
0.000215151
0.000215151
0.000217981
0.000217981
0.000217981
0.000219131
0.000219131
0.000219131
0.000209477
0.000209477
0.000209477
0.000212265
0.000212265
0.000212265
0.000211159
0.000211159
0.000211159
0.000210573
0.000210573
0.000210573
0.000214498
0.000214498
0.000214498
0.000212399
0.000212399
0.000212399
0.000211291
0.000211291
0.000211291
0.000232767
0.000232767
0.000232767
0.000232165
0.000232165
0.000232165
0.000232783
0.000232783
0.000232783
0.000229144
0.000229144
0.000229144
0.000230351
0.000230351
0.000230351
0.000228536
0.000228536
0.000228536
0.000229129
0.000229129
0.000229129
0.000230949
0.000230949
0.000230949
0.000230336
0.000230336
0.000230336
0.000237708
0.000237708
0.000237708
0.000236442
0.000236442
0.000236442
0.000237108
0.000237108
0.000237108
0.000238355
0.000238355
0.000238355
0.000237724
0.000237724
0.000237724
0.000276529
0.000276529
0.000276529
0.000265543
0.000265543
0.000265543
0.000268394
0.000268394
0.000268394
0.000261108
0.000261108
0.000261108
0.000259726
0.000259726
0.000259726
0.000260724
0.000260724
0.000260724
0.000256608
0.000256608
0.000256608
0.00025525
0.00025525
0.00025525
0.00026492
0.00026492
0.00026492
0.000266319
0.000266319
0.000266319
0.000267745
0.000267745
0.000267745
0.000266334
0.000266334
0.000266334
0.000265618
0.000265618
0.000265618
0.000266269
0.000266269
0.000266269
0.000267694
0.000267694
0.000267694
0.000269892
0.000269892
0.000269892
0.000268452
0.000268452
0.000268452
0.000267723
0.000267723
0.000267723
0.000268426
0.000268426
0.000268426
0.000274834
0.000274834
0.000274834
0.000228519
0.000228519
0.000228519
0.000227323
0.000227323
0.000227323
0.000239578
0.000239578
0.000239578
0.000240197
0.000240197
0.000240197
0.000238323
0.000238323
0.000238323
0.000237687
0.000237687
0.000237687
0.000242086
0.000242086
0.000242086
0.000252568
0.000252568
0.000252568
0.000253227
0.000253227
0.000253227
0.000253903
0.000253903
0.000253903
0.000253889
0.000253889
0.000253889
0.00025321
0.00025321
0.00025321
0.00024598
0.00024598
0.00024598
0.000247278
0.000247278
0.000247278
0.000251825
0.000251825
0.000251825
0.000243386
0.000243386
0.000243386
0.00024596
0.00024596
0.00024596
0.000244037
0.000244037
0.000244037
0.000245324
0.000245324
0.000245324
0.00026336
0.00026336
0.00026336
0.000261966
0.000261966
0.000261966
0.00025449
0.00025449
0.00025449
0.000258787
0.000258787
0.000258787
0.000258195
0.000258195
0.000258195
0.000254901
0.000254901
0.000254901
0.000256249
0.000256249
0.000256249
0.000254318
0.000254318
0.000254318
0.000255077
0.000255077
0.000255077
0.000255247
0.000255247
0.000255247
0.000256597
0.000256597
0.000256597
0.000262738
0.000262738
0.000262738
0.000264136
0.000264136
0.000264136
0.000241216
0.000241216
0.000241216
0.000241776
0.000241776
0.000241776
0.00024107
0.00024107
0.00024107
0.000239811
0.000239811
0.000239811
0.000239257
0.000239257
0.000239257
0.000239956
0.000239956
0.000239956
0.000241494
0.000241494
0.000241494
0.000240232
0.000240232
0.000240232
0.000240363
0.000240363
0.000240363
0.000239669
0.000239669
0.000239669
0.000244041
0.000244041
0.000244041
0.000246038
0.000246038
0.000246038
0.000245325
0.000245325
0.000245325
0.000238544
0.000238544
0.000238544
0.000237857
0.000237857
0.000237857
0.000237981
0.000237981
0.000237981
0.00023012
0.00023012
0.00023012
0.00022892
0.00022892
0.00022892
0.000235088
0.000235088
0.000235088
0.000236532
0.000236532
0.000236532
0.000237398
0.000237398
0.000237398
0.000236698
0.000236698
0.000236698
0.000236859
0.000236859
0.000236859
0.000235625
0.000235625
0.000235625
0.00023112
0.00023112
0.00023112
0.00022924
0.00022924
0.00022924
0.000229917
0.000229917
0.000229917
0.000225833
0.000225833
0.000225833
0.000222827
0.000222827
0.000222827
0.000223994
0.000223994
0.000223994
0.000224657
0.000224657
0.000224657
0.000224146
0.000224146
0.000224146
0.000220807
0.000220807
0.000220807
0.000212649
0.000212649
0.000212649
0.000211423
0.000211423
0.000211423
0.00021253
0.00021253
0.00021253
0.000213145
0.000213145
0.000213145
0.000213263
0.000213263
0.000213263
0.000213378
0.000213378
0.000213378
0.000212764
0.000212764
0.000212764
0.00021438
0.00021438
0.00021438
0.000212407
0.000212407
0.000212407
0.00021069
0.00021069
0.00021069
0.000211302
0.000211302
0.000211302
0.000212896
0.000212896
0.000212896
0.000215882
0.000215882
0.000215882
0.000214759
0.000214759
0.000214759
0.000214261
0.000214261
0.000214261
0.000214881
0.000214881
0.000214881
0.000220512
0.000220512
0.000220512
0.000219363
0.000219363
0.000219363
0.000219015
0.000219015
0.000219015
0.000217876
0.000217876
0.000217876
0.000218869
0.000218869
0.000218869
0.000219514
0.000219514
0.000219514
0.000247315
0.000247315
0.000247315
0.000244735
0.000244735
0.000244735
0.000245455
0.000245455
0.000245455
0.000246746
0.000246746
0.000246746
0.000244575
0.000244575
0.000244575
0.000247153
0.000247153
0.000247153
0.000245297
0.000245297
0.000245297
0.000246587
0.000246587
0.000246587
0.000245135
0.000245135
0.000245135
0.000246423
0.000246423
0.000246423
0.000250503
0.000250503
0.000250503
0.00024919
0.00024919
0.00024919
0.000248454
0.000248454
0.000248454
0.000251079
0.000251079