<VTKFile type="UnstructuredGrid" version="1.0">
<UnstructuredGrid>
<Piece NumberOfPoints="8859" NumberOfCells="2953">
<Points>
<DataArray type="Float64" NumberOfComponents="3" format="ascii">
0.5 3.01 14.535
0.512524 3.01 14.5575
0.487476 3.01 14.5575
0.17352 3.01 13.6575
0.160827 3.01 13.6792
0.148445 3.01 13.6575
0.122979 3.01 13.7009
0.110383 3.01 13.6792
0.135644 3.01 13.6792
0.135644 3.01 13.6792
0.110383 3.01 13.6792
0.123433 3.01 13.6575
0.123433 3.01 13.6575
0.148445 3.01 13.6575
0.135644 3.01 13.6792
0.135644 3.01 13.6792
0.148445 3.01 13.6575
0.160827 3.01 13.6792
0.17352 3.01 13.6575
0.198629 3.01 13.6575
0.185985 3.01 13.6792
0.185985 3.01 13.6792
0.160827 3.01 13.6792
0.17352 3.01 13.6575
0.0732297 3.01 13.7007
0.0586606 3.01 13.6788
0.0848754 3.01 13.6791
0.05 3.01 14.4903
0.05 3.01 14.4451
0.058509 3.01 14.4676
0.324276 3.01 13.6575
0.349395 3.01 13.6575
0.336827 3.01 13.6792
0.148138 3.01 13.7009
0.135644 3.01 13.6792
0.160827 3.01 13.6792
0.122979 3.01 13.7009
0.135644 3.01 13.6792
0.148138 3.01 13.7009
0.160827 3.01 13.6792
0.185985 3.01 13.6792
0.173316 3.01 13.7009
0.185806 3.01 13.7225
0.160572 3.01 13.7226
0.173316 3.01 13.7009
0.173316 3.01 13.7009
0.148138 3.01 13.7009
0.160827 3.01 13.6792
0.160572 3.01 13.7226
0.148138 3.01 13.7009
0.173316 3.01 13.7009
0.211137 3.01 13.6792
0.185985 3.01 13.6792
0.198629 3.01 13.6575
0.0979162 3.01 13.7008
0.110383 3.01 13.6792
0.122979 3.01 13.7009
0.122979 3.01 13.7009
0.109875 3.01 13.7225
0.0979162 3.01 13.7008
0.0732297 3.01 13.7007
0.0848754 3.01 13.6791
0.0979162 3.01 13.7008
0.0979162 3.01 13.7008
0.0848754 3.01 13.6791
0.110383 3.01 13.6792
0.0975729 3.01 13.744
0.109875 3.01 13.7225
0.122678 3.01 13.7441
0.0841718 3.01 13.7223
0.0577122 3.01 13.722
0.0732297 3.01 13.7007
0.0729308 3.01 13.7439
0.0577122 3.01 13.722
0.0841718 3.01 13.7223
0.0732297 3.01 13.7007
0.0979162 3.01 13.7008
0.0841718 3.01 13.7223
0.0841718 3.01 13.7223
0.0979162 3.01 13.7008
0.109875 3.01 13.7225
0.0975729 3.01 13.744
0.0729308 3.01 13.7439
0.0841718 3.01 13.7223
0.0841718 3.01 13.7223
0.109875 3.01 13.7225
0.0975729 3.01 13.744
0.073948 3.01 13.6575
0.0586606 3.01 13.6788
0.05 3.01 13.6575
0.073948 3.01 13.6575
0.0848754 3.01 13.6791
0.0586606 3.01 13.6788
0.05 3.01 14.5333
0.05 3.01 14.4903
0.0603641 3.01 14.512
0.0603641 3.01 14.512
0.0753197 3.01 14.534
0.05 3.01 14.5333
0.0709395 3.01 14.5575
0.05 3.01 14.5575
0.05 3.01 14.5333
0.05 3.01 14.5333
0.0753197 3.01 14.534
0.0709395 3.01 14.5575
0.0579641 3.01 14.2446
0.05 3.01 14.2667
0.05 3.01 14.2226
0.0841948 3.01 14.1568
0.097638 3.01 14.1349
0.109814 3.01 14.1568
0.0841948 3.01 14.1568
0.0730539 3.01 14.1787
0.0578646 3.01 14.1568
0.0580261 3.01 14.2888
0.05 3.01 14.3109
0.05 3.01 14.2667
0.942292 3.01 13.8524
0.95 3.01 13.8307
0.95 3.01 13.874
0.95 3.01 13.7873
0.95 3.01 13.8307
0.942332 3.01 13.809
0.73872 3.01 14.0695
0.726137 3.01 14.0478
0.75132 3.01 14.0478
0.751305 3.01 14.0913
0.726124 3.01 14.0913
0.73872 3.01 14.0695
0.713546 3.01 14.0695
0.726137 3.01 14.0478
0.73872 3.01 14.0695
0.73872 3.01 14.0695
0.726124 3.01 14.0913
0.713546 3.01 14.0695
0.814318 3.01 14.1131
0.789096 3.01 14.1131
0.801709 3.01 14.0913
0.7765 3.01 14.0913
0.789115 3.01 14.0695
0.801709 3.01 14.0913
0.801709 3.01 14.0913
0.789096 3.01 14.1131
0.7765 3.01 14.0913
0.7765 3.01 14.0913
0.789096 3.01 14.1131
0.763892 3.01 14.1131
0.763892 3.01 14.1131
0.751305 3.01 14.0913
0.7765 3.01 14.0913
0.95 3.01 14.5575
0.929061 3.01 14.5575
0.95 3.01 14.5333
0.95 3.01 14.3554
0.926844 3.01 14.3554
0.941913 3.01 14.3332
0.941913 3.01 14.3332
0.95 3.01 14.3109
0.95 3.01 14.3554
0.926866 3.01 14.3109
0.95 3.01 14.3109
0.941913 3.01 14.3332
0.941974 3.01 14.2888
0.95 3.01 14.3109
0.926866 3.01 14.3109
0.95 3.01 14.2667
0.95 3.01 14.3109
0.941974 3.01 14.2888
0.941974 3.01 14.2888
0.926895 3.01 14.2667
0.95 3.01 14.2667
0.6127 3.01 14.5575
0.625238 3.01 14.535
0.637734 3.01 14.5575
0.662757 3.01 14.5575
0.637734 3.01 14.5575
0.650275 3.01 14.535
0.650275 3.01 14.535
0.637734 3.01 14.5575
0.625238 3.01 14.535
0.600415 3.01 14.0914
0.587856 3.01 14.1132
0.575304 3.01 14.0914
0.575304 3.01 14.0914
0.587856 3.01 14.1132
0.562749 3.01 14.1132
0.336827 3.01 13.6792
0.349395 3.01 13.6575
0.361946 3.01 13.6792
0.223755 3.01 13.6575
0.211137 3.01 13.6792
0.198629 3.01 13.6575
0.185985 3.01 13.6792
0.211137 3.01 13.6792
0.198492 3.01 13.7009
0.185806 3.01 13.7225
0.173316 3.01 13.7009
0.198492 3.01 13.7009
0.198492 3.01 13.7009
0.173316 3.01 13.7009
0.185985 3.01 13.6792
0.0576202 3.01 13.7655
0.05 3.01 13.7873
0.05 3.01 13.7437
0.05 3.01 13.7437
0.0729308 3.01 13.7439
0.0576202 3.01 13.7655
0.05 3.01 13.7437
0.0577122 3.01 13.722
0.0729308 3.01 13.7439
0.135283 3.01 13.7225
0.109875 3.01 13.7225
0.122979 3.01 13.7009
0.135283 3.01 13.7225
0.122678 3.01 13.7441
0.109875 3.01 13.7225
0.122979 3.01 13.7009
0.148138 3.01 13.7009
0.135283 3.01 13.7225
0.135283 3.01 13.7225
0.148138 3.01 13.7009
0.160572 3.01 13.7226
0.123433 3.01 13.6575
0.110383 3.01 13.6792
0.0985513 3.01 13.6575
0.110383 3.01 13.6792
0.0848754 3.01 13.6791
0.0985513 3.01 13.6575
0.0848754 3.01 13.6791
0.073948 3.01 13.6575
0.0985513 3.01 13.6575
0.0603641 3.01 14.512
0.05 3.01 14.4903
0.0739464 3.01 14.4895
0.0739464 3.01 14.4895
0.05 3.01 14.4903
0.058509 3.01 14.4676
0.058509 3.01 14.4676
0.0849548 3.01 14.4671
0.0739464 3.01 14.4895
0.058509 3.01 14.4676
0.05 3.01 14.4451
0.0732725 3.01 14.4449
0.0732725 3.01 14.4449
0.0849548 3.01 14.4671
0.058509 3.01 14.4676
0.5 3.01 14.535
0.487476 3.01 14.5575
0.47495 3.01 14.535
0.097663 3.01 14.1787
0.0841948 3.01 14.1568
0.109814 3.01 14.1568
0.0730539 3.01 14.1787
0.0841948 3.01 14.1568
0.097663 3.01 14.1787
0.0578646 3.01 14.1568
0.0730539 3.01 14.1787
0.05 3.01 14.1787
0.05 3.01 14.1787
0.05 3.01 14.1349
0.0578646 3.01 14.1568
0.05 3.01 14.3554
0.05 3.01 14.3109
0.0580869 3.01 14.3332
0.05 3.01 14.3109
0.0580261 3.01 14.2888
0.073134 3.01 14.3109
0.073134 3.01 14.3109
0.0580869 3.01 14.3332
0.05 3.01 14.3109
0.942268 3.01 13.8957
0.95 3.01 13.874
0.95 3.01 13.9174
0.942292 3.01 13.8524
0.95 3.01 13.874
0.927025 3.01 13.874
0.927025 3.01 13.874
0.942268 3.01 13.8957
0.915919 3.01 13.8957
0.95 3.01 13.874
0.942268 3.01 13.8957
0.927025 3.01 13.874
0.927013 3.01 13.9174
0.942268 3.01 13.8957
0.95 3.01 13.9174
0.915919 3.01 13.8957
0.942268 3.01 13.8957
0.927013 3.01 13.9174
0.801738 3.01 14.0043
0.814364 3.01 13.9825
0.826957 3.01 14.0042
0.852174 3.01 14.0042
0.826957 3.01 14.0042
0.839609 3.01 13.9825
0.839609 3.01 13.9825
0.826957 3.01 14.0042
0.814364 3.01 13.9825
0.776516 3.01 14.0477
0.75132 3.01 14.0478
0.763923 3.01 14.026
0.776516 3.01 14.0477
0.801725 3.01 14.0477
0.789115 3.01 14.0695
0.738704 3.01 14.1131
0.751305 3.01 14.0913
0.763892 3.01 14.1131
0.726124 3.01 14.0913
0.751305 3.01 14.0913
0.738704 3.01 14.1131
0.915617 3.01 14.3331
0.902228 3.01 14.3109
0.926866 3.01 14.3109
0.926866 3.01 14.3109
0.941913 3.01 14.3332
0.915617 3.01 14.3331
0.915617 3.01 14.3331
0.941913 3.01 14.3332
0.926844 3.01 14.3554
0.915617 3.01 14.3331
0.926844 3.01 14.3554
0.902193 3.01 14.3554
0.926866 3.01 14.3109
0.902228 3.01 14.3109
0.915668 3.01 14.2888
0.902267 3.01 14.2667
0.926895 3.01 14.2667
0.915668 3.01 14.2888
0.915668 3.01 14.2888
0.941974 3.01 14.2888
0.926866 3.01 14.3109
0.926895 3.01 14.2667
0.941974 3.01 14.2888
0.915668 3.01 14.2888
0.902267 3.01 14.2667
0.915668 3.01 14.2888
0.890059 3.01 14.2888
0.890059 3.01 14.2888
0.915668 3.01 14.2888
0.902228 3.01 14.3109
0.826927 3.01 14.0913
0.814318 3.01 14.1131
0.801709 3.01 14.0913
0.864816 3.01 14.1568
0.877308 3.01 14.1349
0.890186 3.01 14.1568
0.877308 3.01 14.1349
0.864816 3.01 14.1568
0.852122 3.01 14.1349
0.890186 3.01 14.1568
0.877308 3.01 14.1349
0.902362 3.01 14.1349
0.902362 3.01 14.1349
0.915805 3.01 14.1568
0.890186 3.01 14.1568
0.902362 3.01 14.1349
0.926964 3.01 14.1349
0.915805 3.01 14.1568
0.915835 3.01 14.1131
0.926964 3.01 14.1349
0.902362 3.01 14.1349
0.942171 3.01 14.1131
0.926964 3.01 14.1349
0.915835 3.01 14.1131
0.915835 3.01 14.1131
0.926978 3.01 14.0913
0.942171 3.01 14.1131
0.942171 3.01 14.1131
0.926978 3.01 14.0913
0.95 3.01 14.0913
0.87737 3.01 13.9608
0.890277 3.01 13.9391
0.902417 3.01 13.9608
0.852144 3.01 14.0913
0.877329 3.01 14.0913
0.864842 3.01 14.1131
0.877308 3.01 14.1349
0.852122 3.01 14.1349
0.864842 3.01 14.1131
0.902396 3.01 14.0477
0.915858 3.01 14.0695
0.890234 3.01 14.0695
0.926997 3.01 14.0042
0.942237 3.01 13.9825
0.95 3.01 14.0042
0.91589 3.01 13.9825
0.942237 3.01 13.9825
0.926997 3.01 14.0042
0.942199 3.01 14.0695
0.95 3.01 14.0477
0.95 3.01 14.0913
0.95 3.01 14.0913
0.926978 3.01 14.0913
0.942199 3.01 14.0695
0.942199 3.01 14.0695
0.926978 3.01 14.0913
0.915858 3.01 14.0695
0.95 3.01 14.0042
0.95 3.01 14.0477
0.942221 3.01 14.026
0.942221 3.01 14.026
0.926997 3.01 14.0042
0.95 3.01 14.0042
0.915876 3.01 14.026
0.926997 3.01 14.0042
0.942221 3.01 14.026
0.926989 3.01 14.0477
0.915858 3.01 14.0695
0.902396 3.01 14.0477
0.902396 3.01 14.0477
0.915876 3.01 14.026
0.926989 3.01 14.0477
0.926989 3.01 14.0477
0.942199 3.01 14.0695
0.915858 3.01 14.0695
0.95 3.01 14.0477
0.942199 3.01 14.0695
0.926989 3.01 14.0477
0.915876 3.01 14.026
0.942221 3.01 14.026
0.926989 3.01 14.0477
0.926989 3.01 14.0477
0.942221 3.01 14.026
0.95 3.01 14.0477
0.91353 3.01 14.5119
0.926054 3.01 14.4895
0.939636 3.01 14.512
0.926728 3.01 14.4449
0.95 3.01 14.4451
0.941491 3.01 14.4676
0.926728 3.01 14.4449
0.941822 3.01 14.4225
0.95 3.01 14.4451
0.95 3.01 14.4903
0.95 3.01 14.5333
0.939636 3.01 14.512
0.95 3.01 14.4903
0.926054 3.01 14.4895
0.941491 3.01 14.4676
0.939636 3.01 14.512
0.926054 3.01 14.4895
0.95 3.01 14.4903
0.941491 3.01 14.4676
0.95 3.01 14.4451
0.95 3.01 14.4903
0.941869 3.01 14.3777
0.926844 3.01 14.3554
0.95 3.01 14.3554
0.762942 3.01 14.5123
0.75028 3.01 14.5349
0.737933 3.01 14.5123
0.71291 3.01 14.5124
0.725533 3.01 14.4899
0.737933 3.01 14.5123
0.71291 3.01 14.5124
0.737933 3.01 14.5123
0.725313 3.01 14.5349
0.725313 3.01 14.5349
[...]
<PointData Scalars="View Factor" >
<DataArray type="Float64" Name="View Factor" NumberOfComponents="1" format="ascii">
0.0318476
0.0318476
0.0318476
0.0972731
0.0972731
0.0972731
0.0946146
0.0946146
0.0946146
0.0964456
0.0964456
0.0964456
0.0973447
0.0973447
0.0973447
0.0963802
0.0963802
0.0963802
0.0971893
0.0971893
0.0971893
0.0963036
0.0963036
0.0963036
0.0947375
0.0947375
0.0947375
0.0358385
0.0358385
0.0358385
0.0964251
0.0964251
0.0964251
0.09455
0.09455
0.09455
0.0936832
0.0936832
0.0936832
0.094475
0.094475
0.094475
0.0909339
0.0909339
0.0909339
0.093614
0.093614
0.093614
0.091843
0.091843
0.091843
0.0962148
0.0962148
0.0962148
0.0937438
0.0937438
0.0937438
0.0919732
0.0919732
0.0919732
0.0938016
0.0938016
0.0938016
0.0946727
0.0946727
0.0946727
0.0885439
0.0885439
0.0885439
0.0911977
0.0911977
0.0911977
0.0894821
0.0894821
0.0894821
0.0920328
0.0920328
0.0920328
0.0911332
0.0911332
0.0911332
0.0886029
0.0886029
0.0886029
0.0894188
0.0894188
0.0894188
0.097505
0.097505
0.097505
0.0965614
0.0965614
0.0965614
0.0340662
0.0340662
0.0340662
0.0335017
0.0335017
0.0335017
0.0326394
0.0326394
0.0326394
0.0329274
0.0329274
0.0329274
0.046625
0.046625
0.046625
0.052321
0.052321
0.052321
0.051414
0.051414
0.051414
0.0442149
0.0442149
0.0442149
0.0692093
0.0692093
0.0692093
0.0732144
0.0732144
0.0732144
0.0556345
0.0556345
0.0556345
0.0536592
0.0536592
0.0536592
0.0552422
0.0552422
0.0552422
0.0542524
0.0542524
0.0542524
0.0516887
0.0516887
0.0516887
0.0532173
0.0532173
0.0532173
0.052268
0.052268
0.052268
0.0519103
0.0519103
0.0519103
0.0524882
0.0524882
0.0524882
0.0299023
0.0299023
0.0299023
0.0376602
0.0376602
0.0376602
0.0382593
0.0382593
0.0382593
0.0389908
0.0389908
0.0389908
0.0396752
0.0396752
0.0396752
0.0403096
0.0403096
0.0403096
0.0410845
0.0410845
0.0410845
0.0314105
0.0314105
0.0314105
0.0313118
0.0313118
0.0313118
0.031628
0.031628
0.031628
0.0538268
0.0538268
0.0538268
0.0534252
0.0534252
0.0534252
0.0954216
0.0954216
0.0954216
0.0970932
0.0970932
0.0970932
0.0943883
0.0943883
0.0943883
0.091764
0.091764
0.091764
0.0935339
0.0935339
0.0935339
0.0853555
0.0853555
0.0853555
0.0869839
0.0869839
0.0869839
0.0886589
0.0886589
0.0886589
0.0910726
0.0910726
0.0910726
0.0893578
0.0893578
0.0893578
0.0919119
0.0919119
0.0919119
0.0910075
0.0910075
0.0910075
0.0974047
0.0974047
0.0974047
0.0965025
0.0965025
0.0965025
0.0974553
0.0974553
0.0974553
0.0346367
0.0346367
0.0346367
0.0352303
0.0352303
0.0352303
0.0355392
0.0355392
0.0355392
0.036467
0.036467
0.036467
0.0361538
0.0361538
0.0361538
0.0321575
0.0321575
0.0321575
0.0513918
0.0513918
0.0513918
0.0509455
0.0509455
0.0509455
0.0509637
0.0509637
0.0509637
0.0518884
0.0518884
0.0518884
0.0419399
0.0419399
0.0419399
0.0434389
0.0434389
0.0434389
0.0426808
0.0426808
0.0426808
0.0654524
0.0654524
0.0654524
0.0680432
0.0680432
0.0680432
0.0663323
0.0663323
0.0663323
0.0667889
0.0667889
0.0667889
0.0643583
0.0643583
0.0643583
0.0651138
0.0651138
0.0651138
0.0590752
0.0590752
0.0590752
0.0588049
0.0588049
0.0588049
0.0594818
0.0594818
0.0594818
0.056422
0.056422
0.056422
0.0551746
0.0551746
0.0551746
0.0521247
0.0521247
0.0521247
0.0527011
0.0527011
0.0527011
0.0391814
0.0391814
0.0391814
0.0387415
0.0387415
0.0387415
0.0380745
0.0380745
0.0380745
0.0378436
0.0378436
0.0378436
0.0398698
0.0398698
0.0398698
0.041287
0.041287
0.041287
0.0401141
0.0401141
0.0401141
0.0408206
0.0408206
0.0408206
0.0410252
0.0410252
0.0410252
0.0403147
0.0403147
0.0403147
0.0520405
0.0520405
0.0520405
0.0483193
0.0483193
0.0483193
0.048869
0.048869
0.048869
0.0486345
0.0486345
0.0486345
0.0480825
0.0480825
0.0480825
0.0483943
0.0483943
0.0483943
0.0492649
0.0492649
0.0492649
0.049573
0.049573
0.049573
0.0504675
0.0504675
0.0504675
0.0508017
0.0508017
0.0508017
0.0615264
0.0615264
0.0615264
0.0515636
0.0515636
0.0515636
0.0497492
0.0497492
0.0497492
0.0535385
0.0535385
0.0535385
0.0576486
0.0576486
0.0576486
0.0583157
0.0583157
0.0583157
0.052574
0.052574
0.052574
0.051721
0.051721
0.051721
0.0523112
0.0523112
0.0523112
0.0555008
0.0555008
0.0555008
0.0566093
0.0566093
0.0566093
0.0562315
0.0562315
0.0562315
0.0538905
0.0538905
0.0538905
0.0548732
0.0548732
0.0548732
0.0532615
0.0532615
0.0532615
0.0536167
0.0536167
0.0536167
0.0552211
0.0552211
0.0552211
0.0545939
0.0545939
0.0545939
0.0315502
0.0315502
0.0315502
0.0333812
0.0333812
0.0333812
0.0339578
0.0339578
0.0339578
0.0311675
0.0311675
0.0311675
0.0322658
0.0322658
0.0322658
0.0317336
0.0317336
0.0317336
0.0327613
0.0327613
0.0327613
0.0370138
0.0370138
0.0370138
0.0319464
0.0319464
0.0319464
0.032613
0.032613
0.032613
0.0320629
0.0320629
0.0320629
0.0317345
0.0317345
0.0317345
0.0309941
0.0309941
0.0309941
0.031201
0.031201
0.031201
0.0308812
0.0308812
0.0308812
0.0349257
0.0349257
0.0349257
0.0337456
0.0337456
0.0337456
0.0329507
0.0329507
0.0329507
0.0335181
0.0335181
0.0335181
0.0331761
0.0331761
0.0331761
0.0337479
0.0337479
0.0337479
0.0322684
0.0322684
0.0322684
0.0317257
0.0317257
0.0317257
0.0315054
0.0315054
0.0315054
0.0561349
0.0561349
0.0561349
0.0532607
0.0532607
0.0532607
0.0507704
0.0507704
0.0507704
0.0497241
0.0497241
0.0497241
0.0506219
0.0506219
0.0506219
0.0511534
0.0511534
0.0511534
0.0524721
0.0524721
0.0524721
0.0520799
0.0520799
0.0520799
0.0498697
0.0498697
0.0498697
0.0493546
0.0493546
0.0493546
0.0448219
0.0448219
0.0448219
0.0499618
0.0499618
0.0499618
0.0505001
0.0505001
0.0505001
0.0507699
0.0507699
0.0507699
0.0489865
0.0489865
0.0489865
0.0967299
0.0967299
0.0967299
0.0968635
0.0968635
0.0968635
0.0958743
0.0958743
0.0958743
0.0940552
0.0940552
0.0940552
0.091788
0.091788
0.091788
0.0582641
0.0582641
0.0582641
0.0561834
0.0561834
0.0561834
0.0578599
0.0578599
0.0578599
0.0568171
0.0568171
0.0568171
0.0570541
0.0570541
0.0570541
0.0566527
0.0566527
0.0566527
0.0930941
0.0930941
0.0930941
0.0962539
0.0962539
0.0962539
0.09352
0.09352
0.09352
0.0719846
0.0719846
0.0719846
0.0727175
0.0727175
0.0727175
0.0903868
0.0903868
0.0903868
0.0956933
0.0956933
0.0956933
0.0938787
0.0938787
0.0938787
0.0921078
0.0921078
0.0921078
0.0352357
0.0352357
0.0352357
0.0319237
0.0319237
0.0319237
0.0458027
0.0458027
0.0458027
0.0449996
0.0449996
0.0449996
0.0500431
0.0500431
0.0500431
0.0833707
0.0833707
0.0833707
0.0457643
0.0457643
0.0457643
0.0449619
0.0449619
0.0449619
0.0527784
0.0527784
0.0527784
0.0522915
0.0522915
0.0522915
0.0537619
0.0537619
0.0537619
0.0528045
0.0528045
0.0528045
0.0528234
0.0528234
0.0528234
0.0523437
0.0523437
0.0523437
0.0547627
0.0547627
0.0547627
0.0537813
0.0537813
0.0537813
0.0542591
0.0542591
0.0542591
0.0552459
0.0552459
0.0552459
0.0557551
0.0557551
0.0557551
0.0524985
0.0524985
0.0524985
0.0528447
0.0528447
0.0528447
0.0646937
0.0646937
0.0646937
0.0580075
0.0580075
0.0580075
0.0576099
0.0576099
0.0576099
0.0565721
0.0565721
0.0565721
0.0592044
0.0592044
0.0592044
0.0585262
0.0585262
0.0585262
0.0622482
0.0622482
0.0622482
0.0688477
0.0688477
0.0688477
0.0668219
0.0668219
0.0668219
0.0554084
0.0554084
0.0554084
0.053442
0.053442
0.053442
0.0538136
0.0538136
0.0538136
0.0547945
0.0547945
0.0547945
0.0550222
0.0550222
0.0550222
0.0540368
0.0540368
0.0540368
0.0511972
0.0511972
0.0511972
0.0508417
0.0508417
0.0508417
0.0523319
0.0523319
0.0523319
0.0514002
0.0514002
0.0514002
0.0488988
0.0488988
0.0488988
0.0483741
0.0483741
0.0483741
0.0514136
0.0514136
0.0514136
0.0472352
0.0472352
0.0472352
0.0414873
0.0414873
0.0414873
0.0424202
0.0424202
0.0424202
0.0422208
0.0422208
0.0422208
0.0426936
0.0426936
0.0426936
0.0327111
0.0327111
0.0327111
0.0324944
0.0324944
0.0324944
0.0328326
0.0328326
0.0328326
0.0333977
0.0333977
0.0333977
0.0360122
0.0360122
0.0360122
0.0337999
0.0337999
0.0337999
0.0332286
0.0332286
0.0332286
0.0364338
0.0364338
0.0364338
0.0359646
0.0359646
0.0359646
0.0366683
0.0366683
0.0366683
0.0559369
0.0559369
0.0559369
0.0514598
0.0514598
0.0514598
0.0518056
0.0518056
0.0518056
0.0512236
0.0512236
0.0512236
0.0503141
0.0503141
0.0503141
0.0476921
0.0476921
0.0476921
0.0485487
0.0485487
0.0485487
0.0510593
0.0510593
0.0510593
0.0522443
0.0522443
0.0522443
0.051984
0.051984
0.051984
0.0525827
0.0525827
0.0525827
0.0490174
0.0490174
0.0490174
0.0498203
0.0498203
0.0498203
0.0555096
0.0555096
0.0555096
0.0574694
0.0574694
0.0574694
0.05681
0.05681
0.05681
0.0597033
0.0597033
0.0597033
0.058918
0.058918
0.058918
0.0604079
0.0604079
0.0604079
0.0600051
0.0600051
0.0600051
0.0619341
0.0619341
0.0619341
0.0630848
0.0630848
0.0630848
0.0635095
0.0635095
0.0635095
0.031448
0.031448
0.031448
0.032118
0.032118
0.032118
0.0307111
0.0307111
0.0307111
0.0310301
0.0310301
0.0310301
0.0302137
0.0302137
0.0302137
0.0318964
0.0318964
0.0318964
0.0335518
0.0335518
0.0335518
0.0324366
0.0324366
0.0324366
0.0326226
0.0326226
0.0326226
0.0331777
0.0331777
0.0331777
0.0349761
0.0349761
0.0349761
0.0358118
0.0358118
0.0358118
0.0355816
0.0355816
0.0355816
0.0354276
0.0354276
0.0354276
0.0371937
0.0371937
0.0371937
0.0367783
0.0367783
0.0367783
0.0343301
0.0343301
0.0343301
0.0341276
0.0341276
0.0341276
0.0328399
0.0328399
0.0328399
0.0327283
0.0327283
0.0327283
0.0330652
0.0330652
0.0330652
0.0311035
0.0311035
0.0311035
0.031313
0.031313
0.031313
0.0318483
0.0318483
0.0318483
0.0321761
0.0321761
0.0321761
0.0307219
0.0307219
0.0307219
0.0315776
0.0315776
0.0315776
0.0312476
0.0312476
0.0312476
0.030524
0.030524
0.030524
0.0316174
0.0316174
0.0316174
0.0310857
0.0310857
0.0310857
0.0343285
0.0343285
0.0343285
0.0346865
0.0346865
0.0346865
0.039293
0.039293
0.039293
0.0395669
0.0395669
0.0395669
0.0372787
0.0372787
0.0372787
0.0352879
0.0352879
0.0352879
0.0355288
0.0355288
0.0355288
0.035532
0.035532
0.035532
0.0370274
0.0370274
0.0370274
0.0363927
0.0363927
0.0363927
0.0361466
0.0361466
0.0361466
0.0365264
0.0365264
0.0365264
0.0338654
0.0338654
0.0338654
0.0345692
0.0345692
0.0345692
0.0339815
0.0339815
0.0339815
0.0336349
0.0336349
0.0336349
0.0348081
0.0348081
0.0348081
0.0344508
0.0344508
0.0344508
0.0329479
0.0329479
0.0329479
0.0323917
0.0323917
0.0323917
0.0321689
0.0321689
0.0321689
0.032494
0.032494
0.032494
0.0340937
0.0340937
0.0340937
0.0346837
0.0346837
0.0346837
0.0350393
0.0350393
0.0350393
0.0412254
0.0412254
0.0412254
0.0419556
0.0419556
0.0419556
0.0595554
0.0595554
0.0595554
0.055389
0.055389
0.055389
0.0601397
0.0601397
0.0601397
0.0596316
0.0596316
0.0596316
0.0548535
0.0548535
0.0548535
0.0556931
0.0556931
0.0556931
0.056262
0.056262
0.056262
0.0514144
0.0514144
0.0514144
0.0518201
0.0518201
0.0518201
0.0526372
0.0526372
0.0526372
0.0505014
0.0505014
0.0505014
0.0501054
0.0501054
0.0501054
0.049218
0.049218
0.049218
0.0487285
0.0487285
0.0487285
0.0536571
0.0536571
0.0536571
0.0523108
0.0523108
0.0523108
0.0519236
0.0519236
0.0519236
0.0510001
0.0510001
0.0510001
0.0504668
0.0504668
0.0504668
0.0474947
0.0474947
0.0474947
0.0478678
0.0478678
0.0478678
0.0494957
0.0494957
0.0494957
0.0484816
0.0484816
0.0484816
0.0512987
0.0512987
0.0512987
0.0517001
0.0517001
0.0517001
0.0471671
0.0471671
0.0471671
0.0475282
0.0475282
0.0475282
0.0492484
0.0492484
0.0492484
0.0501368
0.0501368
0.0501368
0.0481211
0.0481211
0.0481211
0.0419517
0.0419517
0.0419517
0.0969845
0.0969845
0.0969845
0.0960002
0.0960002
0.0960002
0.0961137
0.0961137
0.0961137
0.074732
0.074732
0.074732
0.077489
0.077489
0.077489
0.0761585
0.0761585
0.0761585
0.0924655
0.0924655
0.0924655
0.091344
0.091344
0.091344
0.0924944
0.0924944
0.0924944
0.0585124
0.0585124
0.0585124
0.0581016
0.0581016
0.0581016
0.0587524
0.0587524
0.0587524
0.059835
0.059835
0.059835
0.057283
0.057283
0.057283
0.0583351
0.0583351
0.0583351
0.0957359
0.0957359
0.0957359
0.0939195
0.0939195
0.0939195
0.0965838
0.0965838
0.0965838
0.095585
0.095585
0.095585
0.0936112
0.0936112
0.0936112
0.0926361
0.0926361
0.0926361
0.090883
0.090883
0.090883
0.0907091
0.0907091
0.0907091
0.0899353
0.0899353
0.0899353
0.0874844
0.0874844
0.0874844
0.0882377
0.0882377
0.0882377
0.0956641
0.0956641
0.0956641
0.092784
0.092784
0.092784
0.0706582
0.0706582
0.0706582
0.0680863
0.0680863
0.0680863
0.091388
0.091388
0.091388
0.0932223
0.0932223
0.0932223
0.0914581
0.0914581
0.0914581
0.0941784
0.0941784
0.0941784
0.0392618
0.0392618
0.0392618
0.0378204
0.0378204
0.0378204
0.03604
0.03604
0.03604
0.0360762
0.0360762
0.0360762
0.0363714
0.0363714
0.0363714
0.0379987
0.0379987
0.0379987
0.0370059
0.0370059
0.0370059
0.0373455
0.0373455
0.0373455
0.0363326
0.0363326
0.0363326
0.0355331
0.0355331
0.0355331
0.0371064
0.0371064
0.0371064
0.0377588
0.0377588
0.0377588
0.0322324
0.0322324
0.0322324
0.0336724
0.0336724
0.0336724
0.0331024
0.0331024
0.0331024
0.0327849
0.0327849
0.0327849
0.034847
0.034847
0.034847
0.0338137
0.0338137
0.0338137
0.0332408
0.0332408
0.0332408
0.0461836
0.0461836
0.0461836
0.0457866
0.0457866
0.0457866
0.0462033
0.0462033
0.0462033
0.043817
0.043817
0.043817
0.0445971
0.0445971
0.0445971
0.0434238
0.0434238
0.0434238
0.0437985
0.0437985
0.0437985
0.0449838
0.0449838
0.0449838
0.0445783
0.0445783
0.0445783
0.0495874
0.0495874
0.0495874
0.048684
0.048684
0.048684
0.0491795
0.0491795
0.0491795
0.050061
0.050061
0.050061
0.0496088
0.0496088
0.0496088
0.0837408
0.0837408
0.0837408
0.0725993
0.0725993
0.0725993
0.0753595
0.0753595
0.0753595
0.0682959
0.0682959
0.0682959
0.0670455
0.0670455
0.0670455
0.068167
0.068167
0.068167
0.0645022
0.0645022
0.0645022
0.0633247
0.0633247
0.0633247
0.0720665
0.0720665
0.0720665
0.0733892
0.0733892
0.0733892
0.0747721
0.0747721
0.0747721
0.0734153
0.0734153
0.0734153
0.0727236
0.0727236
0.0727236
0.0733057
0.0733057
0.0733057
0.0746864
0.0746864
0.0746864
0.0768836
0.0768836
0.0768836
0.0754571
0.0754571
0.0754571
0.0747345
0.0747345
0.0747345
0.0754133
0.0754133
0.0754133
0.0818118
0.0818118
0.0818118
0.0434028
0.0434028
0.0434028
0.0426456
0.0426456
0.0426456
0.0509204
0.0509204
0.0509204
0.0513628
0.0513628
0.0513628
0.0500185
0.0500185
0.0500185
0.0495595
0.0495595
0.0495595
0.0527452
0.0527452
0.0527452
0.0610562
0.0610562
0.0610562
0.0616015
0.0616015
0.0616015
0.0621763
0.0621763
0.0621763
0.0621539
0.0621539
0.0621539
0.0615747
0.0615747
0.0615747
0.055735
0.055735
0.055735
0.0567516
0.0567516
0.0567516
0.0603855
0.0603855
0.0603855
0.0537353
0.0537353
0.0537353
0.0557074
0.0557074
0.0557074
0.0542356
0.0542356
0.0542356
0.0552219
0.0552219
0.0552219
0.0688473
0.0688473
0.0688473
0.0675799
0.0675799
0.0675799
0.0605803
0.0605803
0.0605803
0.0638345
0.0638345
0.0638345
0.0634053
0.0634053
0.0634053
0.0607065
0.0607065
0.0607065
0.061831
0.061831
0.061831
0.0602973
0.0602973
0.0602973
0.0609965
0.0609965
0.0609965
0.0612777
0.0612777
0.0612777
0.0624137
0.0624137
0.0624137
0.0671382
0.0671382
0.0671382
0.0683996
0.0683996
0.0683996
0.0506372
0.0506372
0.0506372
0.0509871
0.0509871
0.0509871
0.0504257
0.0504257
0.0504257
0.0495319
0.0495319
0.0495319
0.049195
0.049195
0.049195
0.0497391
0.0497391
0.0497391
0.0510392
0.0510392
0.0510392
0.0501331
0.0501331
0.0501331
0.05032
0.05032
0.05032
0.0497801
0.0497801
0.0497801
0.0529067
0.0529067
0.0529067
0.0544606
0.0544606
0.0544606
0.053869
0.053869
0.053869
0.0490768
0.0490768
0.0490768
0.0485536
0.0485536
0.0485536
0.0487266
0.0487266
0.0487266
0.0431594
0.0431594
0.0431594
0.042407
0.042407
0.042407
0.046029
0.046029
0.046029
0.0467044
0.0467044
0.0467044
0.0474674
0.0474674
0.0474674
0.0469351
0.0469351
0.0469351
0.0471602
0.0471602
0.0471602
0.0463309
0.0463309
0.0463309
0.043241
0.043241
0.043241
0.0420163
0.0420163
0.0420163
0.042488
0.042488
0.042488
0.0400624
0.0400624
0.0400624
0.0382637
0.0382637
0.0382637
0.0389343
0.0389343
0.0389343
0.0393703
0.0393703
0.0393703
0.0391205
0.0391205
0.0391205
0.0373071
0.0373071
0.0373071
0.033146
0.033146
0.033146
0.0324576
0.0324576
0.0324576
0.0330145
0.0330145
0.0330145
0.0333639
0.0333639
0.0333639
0.033495
0.033495
0.033495
0.0336221
0.0336221
0.0336221
0.0332737
0.0332737
0.0332737
0.0340725
0.0340725
0.0340725
0.0328787
0.0328787
0.0328787
0.031985
0.031985
0.031985
0.0323251
0.0323251
0.0323251
0.0330885
0.0330885
0.0330885
0.0347501
0.0347501
0.0347501
0.0341604
0.0341604
0.0341604
0.0339385
0.0339385
0.0339385
0.0342982
0.0342982
0.0342982
0.0369607
0.0369607
0.0369607
0.0363279
0.0363279
0.0363279
0.0362719
0.0362719
0.0362719
0.0356533
0.0356533
0.0356533
0.0361039
0.0361039
0.0361039
0.0365013
0.0365013
0.0365013
0.0549329
0.0549329
0.0549329
0.0529851
0.0529851
0.0529851
0.0535828
0.0535828
0.0535828
0.0545591
0.0545591
0.0545591
0.0527455
0.0527455
0.0527455
0.0546834
0.0546834
0.0546834
0.0533445
0.0533445
0.0533445
0.0543159
0.0543159
0.0543159
0.0530985
0.0530985
0.0530985
0.0540649
0.0540649
0.0540649
0.0573517
0.0573517
0.0573517
0.056319
0.056319
0.056319
0.0556824
0.0556824
0.0556824
0.0577426
0.0577426
0.0577426
0.0570851
0.0570851
0.0570851
0.0560577
0.0560577
0.0560577
0.0490968
0.0490968
0.0490968
0.0502072
0.0502072
0.0502072
0.0493178
0.0493178
0.0493178
0.0487711
0.0487711
0.0487711
0.0505456
0.0505456
0.0505456
0.0499817
0.0499817
0.0499817
0.04951
0.04951
0.04951
0.0500752
0.0500752
0.0500752
0.0498285
0.0498285
0.0498285
0.0507281
0.0507281
0.0507281
0.0509798
0.0509798
0.0509798
0.0513145
0.0513145
0.0513145
0.0478371
0.0478371
0.0478371
0.0481518
0.0481518
0.0481518
0.0472275
0.0472275
0.0472275
0.0464714
0.0464714
0.0464714
0.0469948
0.0469948
0.0469948
0.0544263
0.0544263
0.0544263
0.05542
0.05542
0.05542
0.0541616
0.0541616
0.0541616
0.0538059
0.0538059
0.0538059
0.0551499
0.0551499
0.0551499
0.0557881
0.0557881
0.0557881
0.0579455
0.0579455
0.0579455
0.0586222
0.0586222
0.0586222
0.0569003
0.0569003
0.0569003
0.0565259
0.0565259
0.0565259
0.0571883
0.0571883
0.0571883
0.0582394
0.0582394
0.0582394
0.0631809
0.0631809
0.0631809
0.0627525
0.0627525
0.0627525
0.0586134
0.0586134
0.0586134
0.0619257
0.0619257
0.0619257
0.0300224
0.0300224
0.0300224
0.0321879
0.0321879
0.0321879
0.0327377
0.0327377
0.0327377
0.0333484
0.0333484
0.0333484
0.0327887
0.0327887
0.0327887
0.0335062
0.0335062
0.0335062
0.0337146
0.0337146
0.0337146
0.0329423
0.0329423
0.0329423
0.0325908
0.0325908
0.0325908
0.034604
0.034604
0.034604
0.0338694
0.0338694
0.0338694
0.0344522
0.0344522
0.0344522
0.0348254
0.0348254
0.0348254
0.0336562
0.0336562
0.0336562
0.0340177
0.0340177
0.0340177
0.0345036
0.0345036
0.0345036
0.0350992
0.0350992
0.0350992
0.0342938
0.0342938
0.0342938
0.0346683
0.0346683
0.0346683
0.0354883
0.0354883
0.0354883
0.0352671
0.0352671
0.0352671
0.0361483
0.0361483
0.0361483
0.0349242
0.0349242
0.0349242
0.0359308
0.0359308
0.0359308
0.0353176
0.0353176
0.0353176
0.0314216
0.0314216
0.0314216
0.0315266
0.0315266
0.0315266
0.0312094
0.0312094
0.0312094
0.0320656
0.0320656
0.0320656
0.0322857
0.0322857
0.0322857
0.0319588
0.0319588
0.0319588
0.0307651
0.0307651
0.0307651
0.0318267
0.0318267
0.0318267
0.0323724
0.0323724
0.0323724
0.032247
0.032247
0.032247
0.0325861
0.0325861
0.0325861
0.0308459
0.0308459
0.0308459
0.0314971
0.0314971
0.0314971
0.030646
0.030646
0.030646
0.0309673
0.0309673
0.0309673
0.0313738
0.0313738
0.0313738
0.0317037
0.0317037
0.0317037
0.0351598
0.0351598
0.0351598
0.0350276
0.0350276
0.0350276
0.0353972
0.0353972
0.0353972
0.0344316
0.0344316
0.0344316
0.034561
0.034561
0.034561
0.0342024
0.0342024
0.0342024
0.0391525
0.0391525
0.0391525
0.0374189
0.0374189
0.0374189
0.0371639
0.0371639
0.0371639
0.0380739
0.0380739
0.0380739
0.0384767
0.0384767
0.0384767
0.0402357
0.0402357
0.0402357
0.0409454
0.0409454
0.0409454
0.0412227
0.0412227
0.0412227
0.0365899
0.0365899
0.0365899
0.036829
0.036829
0.036829
0.0368863
0.0368863
0.0368863
0.0362547
0.0362547
0.0362547
0.0379347
0.0379347
0.0379347
0.0375468
0.0375468
0.0375468
0.0367808
0.0367808
0.0367808
0.035412
0.035412
0.035412
0.0357796
0.0357796
0.0357796
0.0356562
0.0356562
0.0356562
0.0364027
0.0364027
0.0364027
0.0362768
0.0362768
0.0362768
0.0366557
0.0366557
0.0366557
0.0370178
0.0370178
0.0370178
0.0377796
0.0377796
0.0377796
0.0376655
0.0376655
0.0376655
0.0380523
0.0380523
0.0380523
0.0357597
0.0357597
0.0357597
0.0366416
0.0366416
0.0366416
0.0369015
0.0369015
0.0369015
0.0365243
0.0365243
0.0365243
0.0358987