<VTKFile type="UnstructuredGrid" version="1.0">
<UnstructuredGrid>
<Piece NumberOfPoints="11046" NumberOfCells="3682">
<Points>
<DataArray type="Float64" NumberOfComponents="3" format="ascii">
1.77647 2.48053 11.5752
1.76268 2.49432 11.5675
1.79026 2.46674 11.5675
1.46971 2.78729 11.5839
1.457 2.8 11.5675
1.47379 2.78321 11.5675
1.46971 2.78729 11.5839
1.457 2.8 11.5914
1.457 2.8 11.5675
1.79026 2.46674 12.4675
1.76268 2.49432 12.4675
1.77647 2.48053 12.4598
1.95562 2.30138 12.4465
1.95562 2.30138 12.4675
1.94184 2.31516 12.4598
1.7213 2.5357 12.3449
1.73509 2.52191 12.3335
1.7351 2.5219 12.3562
1.94184 2.31516 11.5752
1.95562 2.30138 11.5675
1.95562 2.30138 11.5885
1.76268 2.49432 11.6108
1.77647 2.48053 11.5988
1.77647 2.48053 11.6218
1.77647 2.48053 11.6218
1.77647 2.48053 11.5988
1.79025 2.46675 11.6108
1.79025 2.46675 11.995
1.80403 2.45297 12.0062
1.79025 2.46675 12.0175
1.457 2.8 12.04
1.457 2.8 12.0175
1.471 2.786 12.0288
2.0934 2.1636 12.2429
2.07961 2.17739 12.2542
2.07961 2.17739 12.2316
1.95561 2.30139 12.243
1.96939 2.28761 12.2317
1.96938 2.28762 12.2543
1.96938 2.28762 12.2543
1.96939 2.28761 12.2317
1.98316 2.27384 12.243
1.94184 2.31516 12.4598
1.95562 2.30138 12.4675
1.92806 2.32894 12.4675
1.84538 2.41162 12.4242
1.85916 2.39784 12.4362
1.84538 2.41162 12.4465
1.87294 2.38406 12.4242
1.85916 2.39784 12.4362
1.85916 2.39784 12.4132
1.85916 2.39784 12.4132
1.85916 2.39784 12.4362
1.84538 2.41162 12.4242
1.79025 2.46675 12.1076
1.77646 2.48054 12.1189
1.77646 2.48054 12.0963
1.79025 2.46675 12.0175
1.80403 2.45297 12.0062
1.80403 2.45297 12.0288
1.77646 2.48054 12.1865
1.79025 2.46675 12.1978
1.77646 2.48054 12.2091
1.77647 2.48053 12.4598
1.76268 2.49432 12.4675
1.76268 2.49432 12.4464
2.07959 2.17741 11.6903
2.0934 2.1636 11.7017
2.0796 2.1774 11.713
1.92805 2.32895 11.995
1.94183 2.31517 11.9837
1.94183 2.31517 12.0062
1.74889 2.50811 11.5752
1.7351 2.5219 11.5675
1.76268 2.49432 11.5675
1.76268 2.49432 11.6108
1.74889 2.50811 11.5988
1.76268 2.49432 11.5886
1.76268 2.49432 11.5886
1.77647 2.48053 11.5988
1.76268 2.49432 11.6108
1.76268 2.49432 11.5886
1.74889 2.50811 11.5752
1.76268 2.49432 11.5675
1.74889 2.50811 11.5988
1.74889 2.50811 11.5752
1.76268 2.49432 11.5886
1.76268 2.49432 11.5886
1.76268 2.49432 11.5675
1.77647 2.48053 11.5752
1.77647 2.48053 11.5752
1.77647 2.48053 11.5988
1.76268 2.49432 11.5886
1.79025 2.46675 11.6108
1.77647 2.48053 11.5988
1.79025 2.46675 11.5886
1.79025 2.46675 11.5886
1.80404 2.45296 11.5988
1.79025 2.46675 11.6108
1.77647 2.48053 11.5752
1.79026 2.46674 11.5675
1.79025 2.46675 11.5886
1.79025 2.46675 11.5886
1.77647 2.48053 11.5988
1.77647 2.48053 11.5752
1.77647 2.48053 11.6447
1.77647 2.48053 11.6218
1.79025 2.46675 11.6334
1.79025 2.46675 11.6334
1.77647 2.48053 11.6218
1.79025 2.46675 11.6108
1.81782 2.43918 11.8372
1.81782 2.43918 11.8146
1.8316 2.4254 11.8259
1.80403 2.45297 11.8259
1.81782 2.43918 11.8146
1.81782 2.43918 11.8372
1.92806 2.32894 11.5675
1.95562 2.30138 11.5675
1.94184 2.31516 11.5752
1.79026 2.46674 11.5675
1.81782 2.43918 11.5675
1.80404 2.45296 11.5752
1.80404 2.45296 11.5752
1.79025 2.46675 11.5886
1.79026 2.46674 11.5675
1.80404 2.45296 11.5988
1.79025 2.46675 11.5886
1.80404 2.45296 11.5752
1.80403 2.45297 11.9837
1.79025 2.46675 11.995
1.79025 2.46675 11.9725
1.80403 2.45297 12.0062
1.79025 2.46675 11.995
1.80403 2.45297 11.9837
1.80403 2.45297 11.9837
1.81782 2.43918 11.995
1.80403 2.45297 12.0062
2.07962 2.17738 11.9612
2.0934 2.1636 11.9499
2.0934 2.1636 11.9725
2.0934 2.1636 11.8372
2.07961 2.17739 11.826
2.0934 2.1636 11.8147
2.0934 2.1636 12.1301
2.0934 2.1636 12.1526
2.07962 2.17738 12.1414
2.07962 2.17738 12.1639
2.06584 2.19116 12.1752
2.06584 2.19116 12.1527
2.07962 2.17738 12.1639
2.0934 2.1636 12.1526
2.0934 2.1636 12.1752
2.06584 2.19116 12.1527
2.07962 2.17738 12.1414
2.07962 2.17738 12.1639
2.07962 2.17738 12.1639
2.07962 2.17738 12.1414
2.0934 2.1636 12.1526
2.07962 2.17738 12.1865
2.0934 2.1636 12.1752
2.0934 2.1636 12.1978
2.07962 2.17738 12.1865
2.07962 2.17738 12.1639
2.0934 2.1636 12.1752
2.06584 2.19116 12.1752
2.07962 2.17738 12.1639
2.07962 2.17738 12.1865
2.0934 2.1636 12.2429
2.07961 2.17739 12.2316
2.0934 2.1636 12.2203
2.05205 2.20495 12.2542
2.03827 2.21873 12.2429
2.05205 2.20495 12.2316
2.05205 2.20495 12.209
2.05205 2.20495 12.2316
2.03827 2.21873 12.2203
2.03827 2.21873 12.2203
2.03827 2.21873 12.2429
2.02449 2.23251 12.2316
2.03827 2.21873 12.2203
2.05205 2.20495 12.2316
2.03827 2.21873 12.2429
2.0934 2.1636 12.0625
2.07962 2.17738 12.0513
2.0934 2.1636 12.04
2.07962 2.17738 12.1188
2.0934 2.1636 12.1076
2.0934 2.1636 12.1301
2.0934 2.1636 12.1301
2.07962 2.17738 12.1414
2.07962 2.17738 12.1188
2.07962 2.17738 12.1188
2.07962 2.17738 12.0963
2.0934 2.1636 12.1076
2.06584 2.19116 12.1076
2.07962 2.17738 12.0963
2.07962 2.17738 12.1188
1.98316 2.27384 12.3562
1.96939 2.28761 12.3676
1.96939 2.28761 12.3449
1.9694 2.2876 12.4132
1.95562 2.30138 12.4242
1.95562 2.30138 12.4016
1.94184 2.31516 12.4362
1.95562 2.30138 12.4465
1.94184 2.31516 12.4598
1.94184 2.31516 12.4362
1.95562 2.30138 12.4242
1.95562 2.30138 12.4465
1.98319 2.27381 12.4465
1.98319 2.27381 12.4242
1.99698 2.26002 12.4362
1.98316 2.27384 12.243
1.96939 2.28761 12.2317
1.98316 2.27384 12.2204
1.96939 2.28761 12.2317
1.96939 2.28761 12.2091
1.98316 2.27384 12.2204
1.98316 2.27384 12.1978
1.99694 2.26006 12.2091
1.98316 2.27384 12.2204
1.98316 2.27384 12.2204
1.96939 2.28761 12.2091
1.98316 2.27384 12.1978
1.98316 2.27384 12.2656
1.96938 2.28762 12.2543
1.98316 2.27384 12.243
1.98316 2.27384 12.2656
1.99694 2.26006 12.2769
1.98316 2.27384 12.2882
2.0934 2.1636 12.2655
2.07961 2.17739 12.2542
2.0934 2.1636 12.2429
1.79025 2.46675 12.4465
1.79026 2.46674 12.4675
1.77647 2.48053 12.4598
1.81782 2.43918 12.4465
1.81782 2.43918 12.4675
1.80404 2.45296 12.4598
1.80404 2.45296 12.4598
1.80404 2.45296 12.4362
1.81782 2.43918 12.4465
1.80404 2.45296 12.4598
1.81782 2.43918 12.4675
1.79026 2.46674 12.4675
1.79026 2.46674 12.4675
1.79025 2.46675 12.4465
1.80404 2.45296 12.4598
1.80404 2.45296 12.4598
1.79025 2.46675 12.4465
1.80404 2.45296 12.4362
1.80404 2.45296 12.4362
1.79025 2.46675 12.4465
1.79025 2.46675 12.4242
1.85916 2.39784 12.4598
1.87294 2.38406 12.4675
1.84538 2.41162 12.4675
1.84538 2.41162 12.4675
1.84538 2.41162 12.4465
1.85916 2.39784 12.4598
1.85916 2.39784 12.4598
1.84538 2.41162 12.4465
1.85916 2.39784 12.4362
1.8316 2.4254 12.4598
1.81782 2.43918 12.4675
1.81782 2.43918 12.4465
1.84538 2.41162 12.4675
1.81782 2.43918 12.4675
1.8316 2.4254 12.4598
1.8316 2.4254 12.4598
1.84538 2.41162 12.4465
1.84538 2.41162 12.4675
1.84538 2.41162 12.4242
1.84538 2.41162 12.4465
1.8316 2.4254 12.4362
1.8316 2.4254 12.4362
1.8316 2.4254 12.4132
1.84538 2.41162 12.4242
1.8316 2.4254 12.4362
1.8316 2.4254 12.4598
1.81782 2.43918 12.4465
1.84538 2.41162 12.4465
1.8316 2.4254 12.4598
1.8316 2.4254 12.4362
1.84538 2.41162 12.4016
1.85916 2.39784 12.4132
1.84538 2.41162 12.4242
1.84538 2.41162 12.4016
1.8316 2.4254 12.4132
1.8316 2.4254 12.3903
1.84538 2.41162 12.4242
1.8316 2.4254 12.4132
1.84538 2.41162 12.4016
1.76267 2.49433 12.1301
1.77646 2.48054 12.1189
1.77646 2.48054 12.1414
1.77646 2.48054 12.1414
1.76267 2.49433 12.1527
1.76267 2.49433 12.1301
1.79025 2.46675 12.1752
1.79025 2.46675 12.1978
1.77646 2.48054 12.1865
1.76267 2.49433 12.0625
1.77646 2.48054 12.0513
1.77646 2.48054 12.0738
1.77646 2.48054 12.0738
1.77646 2.48054 12.0513
1.79025 2.46675 12.0625
1.76267 2.49433 12.1076
1.77646 2.48054 12.1189
1.76267 2.49433 12.1301
1.76267 2.49433 12.1076
1.77646 2.48054 12.0963
1.77646 2.48054 12.1189
1.80403 2.45297 12.0062
1.81782 2.43918 11.995
1.81782 2.43918 12.0175
1.81782 2.43918 12.0175
1.80403 2.45297 12.0288
1.80403 2.45297 12.0062
1.79025 2.46675 12.0625
1.77646 2.48054 12.0513
1.79025 2.46675 12.04
1.79025 2.46675 12.0175
1.80403 2.45297 12.0288
1.79025 2.46675 12.04
1.79025 2.46675 12.243
1.79025 2.46675 12.2656
1.77646 2.48054 12.2543
1.72129 2.53571 12.3222
1.73509 2.52191 12.3335
1.7213 2.5357 12.3449
1.63839 2.61861 12.4598
1.65223 2.60477 12.4675
1.62454 2.63246 12.4675
1.70749 2.54951 12.3335
1.72129 2.53571 12.3222
1.7213 2.5357 12.3449
1.70749 2.54951 12.3108
1.72129 2.53571 12.3222
1.70749 2.54951 12.3335
1.74889 2.50811 12.3903
1.76268 2.49432 12.4016
1.74889 2.50811 12.4132
1.74889 2.50811 12.4132
1.76268 2.49432 12.4016
1.76268 2.49432 12.4242
1.7213 2.5357 12.4132
1.7213 2.5357 12.3903
1.7351 2.5219 12.4016
1.7351 2.5219 12.4016
1.7351 2.5219 12.4242
1.7213 2.5357 12.4132
1.7351 2.5219 12.4016
1.7351 2.5219 12.3789
1.74889 2.50811 12.3903
1.7213 2.5357 12.3903
1.7351 2.5219 12.3789
1.7351 2.5219 12.4016
1.74889 2.50811 12.3903
1.74889 2.50811 12.4132
1.7351 2.5219 12.4016
1.7351 2.5219 12.4016
1.74889 2.50811 12.4132
1.7351 2.5219 12.4242
1.76268 2.49432 12.4675
1.7351 2.5219 12.4675
1.74889 2.50811 12.4598
1.74889 2.50811 12.4598
1.76268 2.49432 12.4464
1.76268 2.49432 12.4675
1.7213 2.5357 12.4132
1.7351 2.5219 12.4242
1.7213 2.5357 12.4362
1.457 2.8 12.4675
1.46971 2.78729 12.4511
1.47379 2.78321 12.4675
1.47379 2.78321 12.4675
1.46971 2.78729 12.4511
1.48501 2.77199 12.4453
1.48501 2.77199 12.4453
1.48882 2.76818 12.4675
1.47379 2.78321 12.4675
2.07978 2.17722 11.5757
2.06614 2.19086 11.5675
2.0934 2.1636 11.5675
2.06582 2.19118 11.611
2.07962 2.17738 11.5993
2.07959 2.17741 11.6222
2.0934 2.1636 11.6791
2.0934 2.1636 11.7017
2.07959 2.17741 11.6903
2.07959 2.17741 11.6222
2.07962 2.17738 11.5993
2.0934 2.1636 11.6114
2.0934 2.1636 11.6114
2.0934 2.1636 11.6339
2.07959 2.17741 11.6222
2.07959 2.17741 11.6222
2.0934 2.1636 11.6339
2.07958 2.17742 11.645
2.0934 2.1636 11.7921
2.07961 2.17739 11.7808
2.0934 2.1636 11.7695
2.07961 2.17739 11.7582
2.0934 2.1636 11.7469
2.0934 2.1636 11.7695
2.0934 2.1636 11.7695
2.07961 2.17739 11.7808
2.07961 2.17739 11.7582
2.0934 2.1636 11.7243
2.0796 2.1774 11.713
2.0934 2.1636 11.7017
1.95562 2.30138 11.5675
1.98319 2.27381 11.5675
1.9694 2.2876 11.5752
1.9694 2.2876 11.5752
[...]
<PointData Scalars="View Factor" >
<DataArray type="Float64" Name="View Factor" NumberOfComponents="1" format="ascii">
0.72398
0.72398
0.72398
0.720309
0.720309
0.720309
0.719784
0.719784
0.719784
0.723525
0.723525
0.723525
0.668181
0.668181
0.668181
0.727799
0.727799
0.727799
0.6685
0.6685
0.6685
0.724512
0.724512
0.724512
0.723386
0.723386
0.723386
0.721287
0.721287
0.721287
0.719518
0.719518
0.719518
0.663522
0.663522
0.663522
0.66273
0.66273
0.66273
0.66292
0.66292
0.66292
0.673562
0.673562
0.673562
0.709955
0.709955
0.709955
0.706154
0.706154
0.706154
0.708744
0.708744
0.708744
0.723158
0.723158
0.723158
0.720572
0.720572
0.720572
0.72311
0.72311
0.72311
0.724588
0.724588
0.724588
0.6637
0.6637
0.6637
0.676308
0.676308
0.676308
0.726834
0.726834
0.726834
0.725982
0.725982
0.725982
0.725033
0.725033
0.725033
0.725992
0.725992
0.725992
0.72642
0.72642
0.72642
0.725042
0.725042
0.725042
0.72452
0.72452
0.72452
0.722781
0.722781
0.722781
0.721464
0.721464
0.721464
0.722789
0.722789
0.722789
0.723395
0.723395
0.723395
0.723376
0.723376
0.723376
0.722772
0.722772
0.722772
0.716557
0.716557
0.716557
0.718313
0.718313
0.718313
0.673893
0.673893
0.673893
0.720018
0.720018
0.720018
0.721473
0.721473
0.721473
0.720758
0.720758
0.720758
0.721298
0.721298
0.721298
0.720584
0.720584
0.720584
0.719058
0.719058
0.719058
0.663575
0.663575
0.663575
0.663617
0.663617
0.663617
0.663514
0.663514
0.663514
0.663657
0.663657
0.663657
0.663506
0.663506
0.663506
0.663631
0.663631
0.663631
0.663555
0.663555
0.663555
0.663497
0.663497
0.663497
0.663547
0.663547
0.663547
0.663623
0.663623
0.663623
0.663481
0.663481
0.663481
0.663691
0.663691
0.663691
0.6637
0.6637
0.6637
0.663662
0.663662
0.663662
0.663691
0.663691
0.663691
0.663545
0.663545
0.663545
0.663522
0.663522
0.663522
0.663563
0.663563
0.663563
0.663571
0.663571
0.663571
0.663647
0.663647
0.663647
0.662875
0.662875
0.662875
0.662558
0.662558
0.662558
0.670926
0.670926
0.670926
0.66819
0.66819
0.66819
0.663091
0.663091
0.663091
0.663013
0.663013
0.663013
0.662929
0.662929
0.662929
0.663183
0.663183
0.663183
0.663022
0.663022
0.663022
0.663004
0.663004
0.663004
0.663157
0.663157
0.663157
0.663472
0.663472
0.663472
0.722349
0.722349
0.722349
0.717992
0.717992
0.717992
0.718817
0.718817
0.718817
0.719585
0.719585
0.719585
0.721039
0.721039
0.721039
0.720338
0.720338
0.720338
0.721052
0.721052
0.721052
0.707454
0.707454
0.707454
0.709942
0.709942
0.709942
0.708731
0.708731
0.708731
0.71624
0.71624
0.71624
0.714318
0.714318
0.714318
0.712227
0.712227
0.712227
0.712239
0.712239
0.712239
0.713316
0.713316
0.713316
0.715308
0.715308
0.715308
0.713303
0.713303
0.713303
0.709967
0.709967
0.709967
0.713329
0.713329
0.713329
0.712251
0.712251
0.712251
0.724268
0.724268
0.724268
0.724777
0.724777
0.724777
0.722508
0.722508
0.722508
0.724303
0.724303
0.724303
0.723182
0.723182
0.723182
0.724789
0.724789
0.724789
0.72428
0.72428
0.72428
0.718234
0.718234
0.718234
0.719048
0.719048
0.719048
0.722578
0.722578
0.722578
0.721276
0.721276
0.721276
0.722471
0.722471
0.722471
0.728089
0.728089
0.728089
0.72966
0.72966
0.72966
0.728584
0.728584
0.728584
0.728807
0.728807
0.728807
0.725997
0.725997
0.725997
0.725559
0.725559
0.725559
0.728043
0.728043
0.728043
0.727754
0.727754
0.727754
0.727138
0.727138
0.727138
0.72777
0.72777
0.72777
0.726778
0.726778
0.726778
0.727123
0.727123
0.727123
0.726359
0.726359
0.726359
0.725531
0.725531
0.725531
0.728028
0.728028
0.728028
0.719622
0.719622
0.719622
0.720484
0.720484
0.720484
0.721045
0.721045
0.721045
0.663775
0.663775
0.663775
0.663802
0.663802
0.663802
0.663657
0.663657
0.663657
0.663725
0.663725
0.663725
0.663676
0.663676
0.663676
0.663719
0.663719
0.663719
0.663631
0.663631
0.663631
0.663638
0.663638
0.663638
0.66368
0.66368
0.66368
0.663651
0.663651
0.663651
0.663052
0.663052
0.663052
0.662851
0.662851
0.662851
0.676395
0.676395
0.676395
0.683502
0.683502
0.683502
0.67885
0.67885
0.67885
0.6712
0.6712
0.6712
0.691809
0.691809
0.691809
0.695519
0.695519
0.695519
0.671241
0.671241
0.671241
0.668493
0.668493
0.668493
0.671235
0.671235
0.671235
0.668408
0.668408
0.668408
0.662755
0.662755
0.662755
0.678762
0.678762
0.678762
0.72641
0.72641
0.72641
0.702127
0.702127
0.702127
0.710336
0.710336
0.710336
0.70063
0.70063
0.70063
0.691776
0.691776
0.691776
0.695486
0.695486
0.695486
0.705023
0.705023
0.705023
0.702091
0.702091
0.702091
0.721371
0.721371
0.721371
0.722687
0.722687
0.722687
0.715611
0.715611
0.715611
0.716546
0.716546
0.716546
0.71359
0.71359
0.71359
0.715601
0.715601
0.715601
0.712512
0.712512
0.712512
0.713582
0.713582
0.713582
0.695502
0.695502
0.695502
0.707847
0.707847
0.707847
0.700638
0.700638
0.700638
0.702191
0.702191
0.702191
0.705124
0.705124
0.705124
0.697335
0.697335
0.697335
0.720749
0.720749
0.720749
0.719221
0.719221
0.719221
0.718396
0.718396
0.718396
0.721455
0.721455
0.721455
0.722612
0.722612
0.722612
0.727412
0.727412
0.727412
0.710214
0.710214
0.710214
0.712504
0.712504
0.712504
0.710195
0.710195
0.710195
0.708972
0.708972
0.708972
0.706369
0.706369
0.706369
0.719089
0.719089
0.719089
0.718275
0.718275
0.718275
0.72584
0.72584
0.72584
0.724892
0.724892
0.724892
0.724371
0.724371
0.724371
0.713542
0.713542
0.713542
0.708963
0.708963
0.708963
0.712474
0.712474
0.712474
0.710186
0.710186
0.710186
0.710177
0.710177
0.710177
0.712464
0.712464
0.712464
0.720595
0.720595
0.720595
0.663758
0.663758
0.663758
0.663273
0.663273
0.663273
0.66348
0.66348
0.66348
0.663349
0.663349
0.663349
0.663751
0.663751
0.663751
0.663732
0.663732
0.663732
0.663786
0.663786
0.663786
0.663779
0.663779
0.663779
0.663788
0.663788
0.663788
0.66378
0.66378
0.66378
0.663772
0.663772
0.663772
0.66356
0.66356
0.66356
0.663582
0.663582
0.663582
0.6637
0.6637
0.6637
0.663624
0.663624
0.663624
0.663617
0.663617
0.663617
0.663568
0.663568
0.663568
0.663609
0.663609
0.663609
0.663686
0.663686
0.663686
0.663736
0.663736
0.663736
0.66366
0.66366
0.66366
0.663597
0.663597
0.663597
0.663646
0.663646
0.663646
0.730343
0.730343
0.730343
0.721152
0.721152
0.721152
0.719962
0.719962
0.719962
0.6637
0.6637
0.6637
0.663649
0.663649
0.663649
0.663692
0.663692
0.663692
0.663682
0.663682
0.663682
0.663513
0.663513
0.663513
0.663464
0.663464
0.663464
0.663692
0.663692
0.663692
0.663683
0.663683
0.663683
0.663598
0.663598
0.663598
0.663683
0.663683
0.663683
0.663632
0.663632
0.663632
0.663675
0.663675
0.663675
0.718179
0.718179
0.718179
0.720528
0.720528
0.720528
0.719003
0.719003
0.719003
0.722556
0.722556
0.722556
0.721241
0.721241
0.721241
0.723171
0.723171
0.723171
0.722569
0.722569
0.722569
0.718223
0.718223
0.718223
0.710167
0.710167
0.710167
0.708953
0.708953
0.708953
0.706321
0.706321
0.706321
0.704947
0.704947
0.704947
0.671081
0.671081
0.671081
0.663724
0.663724
0.663724
0.663661
0.663661
0.663661
0.66279
0.66279
0.66279
0.662988
0.662988
0.662988
0.663039
0.663039
0.663039
0.662659
0.662659
0.662659
0.683369
0.683369
0.683369
0.685572
0.685572
0.685572
0.663031
0.663031
0.663031
0.662938
0.662938
0.662938
0.662947
0.662947
0.662947
0.662757
0.662757
0.662757
0.663217
0.663217
0.663217
0.6632
0.6632
0.6632
0.663192
0.663192
0.663192
0.663261
0.663261
0.663261
0.663269
0.663269
0.663269
0.6634
0.6634
0.6634
0.663534
0.663534
0.663534
0.66366
0.66366
0.66366
0.663597
0.663597
0.663597
0.6637
0.6637
0.6637
0.663709
0.663709
0.663709
0.663717
0.663717
0.663717
0.663265
0.663265
0.663265
0.663334
0.663334
0.663334
0.663465
0.663465
0.663465
0.663342
0.663342
0.663342
0.663541
0.663541
0.663541
0.66328
0.66328
0.66328
0.663697
0.663697
0.663697
0.663663
0.663663
0.663663
0.663587
0.663587
0.663587
0.663681
0.663681
0.663681
0.663689
0.663689
0.663689
0.663655
0.663655
0.663655
0.662967
0.662967
0.662967
0.668201
0.668201
0.668201
0.670937
0.670937
0.670937
0.662665
0.662665
0.662665
0.66292
0.66292
0.66292
0.662538
0.662538
0.662538
0.662735
0.662735
0.662735
0.662958
0.662958
0.662958
0.662865
0.662865
0.662865
0.663169
0.663169
0.663169
0.704831
0.704831
0.704831
0.662739
0.662739
0.662739
0.67103
0.67103
0.67103
0.668285
0.668285
0.668285
0.662633
0.662633
0.662633
0.663235
0.663235
0.663235
0.663166
0.663166
0.663166
0.71237
0.71237
0.71237
0.72408
0.72408
0.72408
0.722962
0.722962
0.722962
0.722363
0.722363
0.722363
0.724602
0.724602
0.724602
0.700297
0.700297
0.700297
0.697
0.697
0.697
0.708756
0.708756
0.708756
0.701844
0.701844
0.701844
0.704771
0.704771
0.704771
0.704759
0.704759
0.704759
0.706142
0.706142
0.706142
0.69866
0.69866
0.69866
0.701833
0.701833
0.701833
0.700285
0.700285
0.700285
0.695247
0.695247
0.695247
0.691542
0.691542
0.691542
0.695235
0.695235
0.695235
0.696988
0.696988
0.696988
0.687528
0.687528
0.687528
0.691531
0.691531
0.691531
0.689574
0.689574
0.689574
0.67857
0.67857
0.67857
0.676118
0.676118
0.676118
0.683218
0.683218
0.683218
0.68542
0.68542
0.68542
0.722521
0.722521
0.722521
0.723135
0.723135
0.723135
0.724255
0.724255
0.724255
0.723121
0.723121
0.723121
0.721196
0.721196
0.721196
0.718156
0.718156
0.718156
0.721208
0.721208
0.721208
0.718969
0.718969
0.718969
0.720494
0.720494
0.720494
0.724802
0.724802
0.724802
0.724812
0.724812
0.724812
0.724291
0.724291
0.724291
0.716477
0.716477
0.716477
0.712454
0.712454
0.712454
0.715542
0.715542
0.715542
0.713532
0.713532
0.713532
0.723085
0.723085
0.723085
0.715335
0.715335
0.715335
0.713341
0.713341
0.713341
0.708768
0.708768
0.708768
0.712264
0.712264
0.712264
0.709979
0.709979
0.709979
0.71536
0.71536
0.71536
0.724645
0.724645
0.724645
0.724124
0.724124
0.724124
0.725574
0.725574
0.725574
0.724631
0.724631
0.724631
0.725602
0.725602
0.725602
0.727167
0.727167
0.727167
0.726821
0.726821
0.726821
0.72604
0.72604
0.72604
0.716305
0.716305
0.716305
0.724138
0.724138
0.724138
0.724659
0.724659
0.724659
0.724151
0.724151
0.724151
0.723033
0.723033
0.723033
0.718945
0.718945
0.718945
0.720482
0.720482
0.720482
0.722433
0.722433
0.722433
0.720445
0.720445
0.720445
0.721159
0.721159
0.721159
0.720457
0.720457
0.720457
0.728059
0.728059
0.728059
0.728074
0.728074
0.728074
0.727785
0.727785
0.727785
0.728539
0.728539
0.728539
0.726762
0.726762
0.726762
0.725967
0.725967
0.725967
0.725544
0.725544
0.725544
0.725981
0.725981
0.725981
0.728259
0.728259
0.728259
0.727915
0.727915
0.727915
0.727467
0.727467
0.727467
0.726426
0.726426
0.726426
0.725857
0.725857
0.725857
0.726971
0.726971
0.726971
0.724568
0.724568
0.724568
0.724941
0.724941
0.724941
0.72524
0.72524
0.72524
0.721798
0.721798
0.721798
0.722552
0.722552
0.722552
0.720423
0.720423
0.720423
0.7209
0.7209
0.7209
0.663835
0.663835
0.663835
0.66384
0.66384
0.66384
0.663807
0.663807
0.663807
0.66367
0.66367
0.66367
0.663682
0.663682
0.663682
0.663688
0.663688
0.663688
0.66373
0.66373
0.66373
0.663829
0.663829
0.663829
0.663795
0.663795
0.663795
0.663823
0.663823
0.663823
0.663831
0.663831
0.663831
0.663673
0.663673
0.663673
0.663624
0.663624
0.663624
0.663666
0.663666
0.663666
0.663693
0.663693
0.663693
0.663687
0.663687
0.663687
0.663644
0.663644
0.663644
0.66295
0.66295
0.66295
0.662943
0.662943
0.662943
0.662845
0.662845
0.662845
0.663533
0.663533
0.663533
0.663651
0.663651
0.663651
0.663591
0.663591
0.663591
0.685706
0.685706
0.685706
0.702118
0.702118
0.702118
0.700567
0.700567
0.700567
0.697265
0.697265
0.697265
0.69551
0.69551
0.69551
0.697256
0.697256
0.697256
0.700558
0.700558
0.700558
0.695526
0.695526
0.695526
0.702135
0.702135
0.702135
0.697273
0.697273
0.697273
0.700575
0.700575
0.700575
0.691825
0.691825
0.691825
0.689865
0.689865
0.689865
0.691817
0.691817
0.691817
0.683495
0.683495
0.683495
0.685698
0.685698
0.685698
0.689857
0.689857
0.689857
0.689849
0.689849
0.689849
0.685691
0.685691
0.685691
0.702151
0.702151
0.702151
0.705099
0.705099
0.705099
0.705092
0.705092
0.705092
0.706475
0.706475
0.706475
0.668453
0.668453
0.668453
0.663113
0.663113
0.663113
0.671224
0.671224
0.671224
0.66293
0.66293
0.66293
0.662937
0.662937
0.662937
0.662839
0.662839
0.662839
0.662832
0.662832
0.662832
0.668483
0.668483
0.668483
0.668487
0.668487
0.668487
0.671229
0.671229
0.671229
0.678903
0.678903
0.678903
0.67644
0.67644
0.67644
0.683438
0.683438
0.683438
0.685634
0.685634
0.685634
0.689808
0.689808
0.689808
0.685642
0.685642
0.685642
0.671146
0.671146
0.671146
0.6684
0.6684
0.6684
0.683413
0.683413
0.683413
0.676283
0.676283
0.676283
0.663111
0.663111
0.663111
0.689791
0.689791
0.689791
0.69175
0.69175
0.69175
0.676317
0.676317
0.676317
0.678771
0.678771
0.678771
0.678778
0.678778
0.678778
0.68343
0.68343
0.68343
0.725972
0.725972
0.725972
0.724502
0.724502
0.724502
0.725024
0.725024
0.725024
0.725015
0.725015
0.725015
0.727567
0.727567
0.727567
0.727207
0.727207
0.727207
0.718343
0.718343
0.718343
0.710251
0.710251
0.710251
0.705058
0.705058
0.705058
0.705049
0.705049
0.705049
0.706433
0.706433
0.706433
0.709027
0.709027
0.709027
0.706424
0.706424
0.706424
0.722745
0.722745
0.722745
0.723358
0.723358
0.723358
0.724493
0.724493
0.724493
0.714731
0.714731
0.714731
0.712627
0.712627
0.712627
0.702182
0.702182
0.702182
0.710319
0.710319
0.710319
0.710295
0.710295
0.710295
0.710286
0.710286
0.710286
0.709071
0.709071
0.709071
0.691785
0.691785
0.691785
0.689817
0.689817
0.689817
0.685658
0.685658
0.685658
0.671154
0.671154
0.671154
0.676349
0.676349
0.676349
0.726309
0.726309
0.726309
0.722696
0.722696
0.722696
0.723301
0.723301
0.723301
0.716575
0.716575
0.716575
0.71255
0.71255
0.71255
0.718324
0.718324
0.718324
0.72138
0.72138
0.72138
0.719138
0.719138
0.719138
0.720666
0.720666
0.720666
0.712541
0.712541
0.712541
0.713618
0.713618
0.713618
0.71563
0.71563
0.71563
0.716566
0.716566
0.716566
0.715621
0.715621
0.715621
0.71361
0.71361
0.71361
0.718304
0.718304
0.718304
0.719128
0.719128
0.719128
0.720656
0.720656
0.720656
0.697248
0.697248
0.697248
0.695494
0.695494
0.695494
0.70054
0.70054
0.70054
0.697239
0.697239
0.697239
0.70901
0.70901
0.70901
0.710224
0.710224
0.710224
0.706407
0.706407
0.706407
0.709
0.709
0.709
0.699032
0.699032
0.699032
0.709112
0.709112
0.709112
0.706508
0.706508
0.706508
0.709104
0.709104
0.709104
0.710328
0.710328
0.710328
0.702198
0.702198
0.702198
0.700645
0.700645
0.700645
0.702206
0.702206
0.702206
0.705131
0.705131
0.705131
0.705139
0.705139
0.705139
0.706515
0.706515
0.706515
0.724826
0.724826
0.724826
0.725771
0.725771
0.725771
0.726208
0.726208
0.726208
0.728047
0.728047
0.728047
0.716537
0.716537
0.716537
0.715592
0.715592
0.715592
0.716527
0.716527
0.716527
0.704995
0.704995
0.704995
0.706379
0.706379
0.706379
0.702074
0.702074
0.702074
0.705004
0.705004
0.705004
0.704986
0.704986
0.704986
0.70636
0.70636
0.70636
0.718265
0.718265
0.718265
0.719079
0.719079
0.719079
0.716517
0.716517
0.716517
0.712495
0.712495
0.712495
0.713572
0.713572
0.713572
0.715582
0.715582
0.715582
0.7191
0.7191
0.7191
0.720625
0.720625
0.720625
0.721339
0.721339
0.721339
0.718285
0.718285
0.718285
0.727063
0.727063
0.727063
0.726277
0.726277
0.726277
0.723248
0.723248
0.723248
0.720615
0.720615
0.720615
0.721329
0.721329
0.721329
0.722646
0.722646
0.722646
0.715553
0.715553
0.715553
0.716498
0.716498
0.716498
0.718253
0.718253
0.718253
0.719067
0.719067
0.719067
0.716488
0.716488
0.716488
0.718244
0.718244
0.718244
0.723227
0.723227
0.723227
0.720604
0.720604
0.720604
0.721318
0.721318
0.721318
0.722634
0.722634
0.722634
0.723238
0.723238
0.723238
0.721309
0.721309
0.721309
0.722625
0.722625
0.722625
0.726321
0.726321
0.726321
0.725882
0.725882
0.725882
0.724934
0.724934
0.724934
0.724423
0.724423
0.724423
0.718333
0.718333
0.718333
0.719158
0.719158
0.719158
0.720685
0.720685
0.720685
0.72139
0.72139
0.72139
0.720676
0.720676
0.720676
0.719148
0.719148
0.719148
0.663676
0.663676
0.663676
0.663739
0.663739
0.663739
0.663766
0.663766
0.663766
0.663639
0.663639
0.663639
0.663683
0.663683
0.663683
0.663747
0.663747
0.663747
0.663734
0.663734
0.663734
0.663693
0.663693
0.663693
0.663779
0.663779
0.663779
0.663763
0.663763
0.663763
0.66372
0.66372
0.66372
0.663727
0.663727
0.663727
0.66377
0.66377
0.66377
0.663611
0.663611
0.663611
0.663653
0.663653
0.663653
0.663604
0.663604
0.663604
0.663808
0.663808
0.663808
0.663722
0.663722
0.663722
0.663729
0.663729
0.663729
0.663756
0.663756
0.663756
0.663799
0.663799
0.663799
0.663816
0.663816
0.663816
0.663763
0.663763
0.663763
0.663806
0.663806
0.663806
0.722333
0.722333
0.722333
0.725876
0.725876
0.725876
0.725562
0.725562
0.725562
0.730072
0.730072
0.730072
0.729923
0.729923
0.729923
0.730102
0.730102
0.730102
0.730161
0.730161
0.730161
0.730114
0.730114
0.730114
0.73006
0.73006
0.73006
0.729535
0.729535
0.729535
0.730046
0.730046
0.730046
0.729899
0.729899
0.729899
0.729793
0.729793
0.729793
0.729595
0.729595
0.729595
0.729444
0.729444
0.729444
0.729072
0.729072
0.729072
0.719806
0.719806
0.719806
0.719824
0.719824
0.719824
0.720223
0.720223
0.720223
0.720258
0.720258
0.720258
0.721118
0.721118
0.721118
0.721072
0.721072
0.721072
0.721531
0.721531
0.721531
0.729854
0.729854
0.729854
0.730168
0.730168
0.730168
0.663589
0.663589
0.663589
0.663623
0.663623
0.663623
0.663666
0.663666
0.663666
0.663657
0.663657
0.663657
0.66364
0.66364
0.66364
0.663489
0.663489
0.663489
0.66353
0.66353
0.66353
0.663606
0.663606
0.663606
0.663539
0.663539
0.663539
0.663615
0.663615
0.663615
0.7155
0.7155
0.7155
0.716446
0.716446
0.716446
0.718191
0.718191
0.718191
0.716434
0.716434
0.716434
0.718992
0.718992
0.718992
0.718168
0.718168
0.718168
0.71898
0.71898
0.71898
0.720504
0.720504
0.720504
0.723147
0.723147
0.723147
0.722545
0.722545
0.722545
0.72123
0.72123
0.72123
0.720516
0.720516
0.720516
0.722533
0.722533
0.722533
0.721218
0.721218
0.721218
0.716466
0.716466
0.716466
0.713522
0.713522
0.713522
0.715532
0.715532
0.715532
0.712444
0.712444
0.712444
0.718212
0.718212
0.718212
0.721265
0.721265
0.721265
0.720562
0.720562
0.720562
0.719037
0.719037
0.719037
0.716456
0.716456
0.716456
0.715521
0.715521
0.715521
0.713511
0.713511
0.713511
0.715512
0.715512
0.715512
0.713492
0.713492
0.713492
0.708913
0.708913
0.708913
0.706331
0.706331
0.706331
0.704957
0.704957
0.704957
0.668335
0.668335
0.668335
0.662684
0.662684
0.662684
0.668319
0.668319
0.668319
0.662668
0.662668
0.662668
0.662765
0.662765
0.662765
0.662955
0.662955
0.662955
0.663047
0.663047
0.663047
0.702027
0.702027
0.702027
0.695423
0.695423
0.695423
0.697177
0.697177
0.697177
0.700477
0.700477
0.700477
0.691715
0.691715
0.691715
0.676274
0.676274
0.676274
0.678728
0.678728
0.678728
0.683378
0.683378
0.683378
0.678736
0.678736
0.678736
0.663518
0.663518
0.663518
0.663616
0.663616
0.663616
0.663653
0.663653
0.663653
0.663609
0.663609
0.663609
0.663771
0.663771
0.663771
0.663743
0.663743
0.663743
0.663772
0.663772
0.663772
0.663717
0.663717
0.663717
0.663764
0.663764
0.663764
0.663736
0.663736
0.663736
0.663511
0.663511
0.663511
0.663457
0.663457
0.663457
0.66298
0.66298
0.66298
0.663064
0.663064
0.663064
0.663234
0.663234
0.663234
0.663072
0.663072
0.663072
0.663278
0.663278
0.663278
0.663209
0.663209
0.663209
0.663286
0.663286
0.663286
0.663417
0.663417
0.663417
0.66356
0.66356
0.66356
0.663462
0.663462
0.663462
0.663409
0.663409
0.663409
0.663605
0.663605
0.663605
0.663568
0.663568
0.663568
0.66347
0.66347
0.66347
0.663436
0.663436
0.663436
0.663175
0.663175
0.663175
0.663252
0.663252
0.663252
0.663383
0.663383
0.663383
0.663244
0.663244
0.663244
0.663375
0.663375
0.663375
0.663643
0.663643
0.663643
0.663579
0.663579
0.663579
0.663717
0.663717
0.663717
0.663733
0.663733
0.663733
0.663639
0.663639
0.663639
0.663725
0.663725
0.663725
0.663673
0.663673
0.663673
0.663716
0.663716
0.663716
0.663665
0.663665
0.663665
0.663708
0.663708
0.663708
0.663668
0.663668
0.663668
0.663473
0.663473
0.663473
0.663624
0.663624
0.663624
0.663526
0.663526
0.663526
0.663631
0.663631
0.663631
0.663533
0.663533
0.663533
0.663646
0.663646
0.663646
0.663488
0.663488
0.663488
0.663357
0.663357
0.663357
0.663548
0.663548
0.663548
0.663495
0.663495
0.663495
0.663119
0.663119
0.663119
0.663027
0.663027
0.663027
0.662838
0.662838
0.662838
0.66274
0.66274
0.66274
0.662747
0.662747
0.662747
0.662845
0.662845
0.662845
0.663035
0.663035
0.663035
0.662853
0.662853
0.662853
0.663602
0.663602