<VTKFile type="UnstructuredGrid" version="1.0">
<UnstructuredGrid>
<Piece NumberOfPoints="11046" NumberOfCells="3682">
<Points>
<DataArray type="Float64" NumberOfComponents="3" format="ascii">
3.01 0.0582363 17.8568
3.01 0.0717021 17.8375
3.01 0.05 17.8375
3.01 0.95 18.2662
3.01 0.942301 18.2857
3.01 0.95 18.3052
3.01 0.0962623 18.7375
3.01 0.107711 18.7173
3.01 0.086422 18.7172
3.01 0.466226 18.4811
3.01 0.443707 18.4811
3.01 0.454968 18.5007
3.01 0.353567 18.4028
3.01 0.376113 18.4028
3.01 0.364839 18.3833
3.01 0.376113 18.4028
3.01 0.353567 18.4028
3.01 0.364843 18.4224
3.01 0.353567 18.4028
3.01 0.342292 18.4224
3.01 0.364843 18.4224
3.01 0.37611 18.3638
3.01 0.387379 18.3442
3.01 0.364837 18.3442
3.01 0.376113 18.4028
3.01 0.387381 18.3833
3.01 0.364839 18.3833
3.01 0.364839 18.3833
3.01 0.387381 18.3833
3.01 0.37611 18.3638
3.01 0.066417 18.7195
3.01 0.05 18.7137
3.01 0.05 18.7375
3.01 0.0582363 17.8568
3.01 0.0817675 17.857
3.01 0.0717021 17.8375
3.01 0.0817675 17.857
3.01 0.0582363 17.8568
3.01 0.0711754 17.8764
3.01 0.11641 17.8375
3.01 0.127475 17.857
3.01 0.138968 17.8375
3.01 0.127475 17.857
3.01 0.11641 17.8375
3.01 0.104722 17.857
3.01 0.0711754 17.8764
3.01 0.0934889 17.8765
3.01 0.0817675 17.857
3.01 0.0934889 17.8765
3.01 0.104722 17.857
3.01 0.0817675 17.857
3.01 0.116091 17.8765
3.01 0.127475 17.857
3.01 0.104722 17.857
3.01 0.116091 17.8765
3.01 0.104722 17.857
3.01 0.0934889 17.8765
3.01 0.116091 17.8765
3.01 0.104394 17.896
3.01 0.127244 17.896
3.01 0.104394 17.896
3.01 0.116091 17.8765
3.01 0.0934889 17.8765
3.01 0.941764 17.8568
3.01 0.95 17.8375
3.01 0.928298 17.8375
3.01 0.387379 18.3442
3.01 0.376108 18.3247
3.01 0.364837 18.3442
3.01 0.161282 18.2662
3.01 0.149908 18.2467
3.01 0.138583 18.2662
3.01 0.0933091 18.3442
3.01 0.104333 18.3247
3.01 0.0813038 18.3247
3.01 0.104333 18.3247
3.01 0.0933065 18.3052
3.01 0.0813038 18.3247
3.01 0.331016 18.4419
3.01 0.308447 18.4419
3.01 0.319739 18.4615
3.01 0.308447 18.4419
3.01 0.331016 18.4419
3.01 0.319729 18.4224
3.01 0.331016 18.4419
3.01 0.342292 18.4224
3.01 0.319729 18.4224
3.01 0.138613 18.4614
3.01 0.149933 18.4419
3.01 0.12718 18.4419
3.01 0.138613 18.4614
3.01 0.161316 18.4614
3.01 0.149933 18.4419
3.01 0.161316 18.4614
3.01 0.172648 18.4419
3.01 0.149933 18.4419
3.01 0.206681 18.4614
3.01 0.217999 18.4419
3.01 0.195336 18.4419
3.01 0.263262 18.4419
3.01 0.274572 18.4615
3.01 0.285863 18.4419
3.01 0.274559 18.4223
3.01 0.263262 18.4419
3.01 0.285863 18.4419
3.01 0.240697 17.857
3.01 0.252012 17.8375
3.01 0.229409 17.8375
3.01 0.138758 17.8765
3.01 0.127475 17.857
3.01 0.116091 17.8765
3.01 0.127244 17.896
3.01 0.138758 17.8765
3.01 0.116091 17.8765
3.01 0.229332 17.9155
3.01 0.218031 17.896
3.01 0.206685 17.9155
3.01 0.184016 17.9155
3.01 0.172705 17.896
3.01 0.161325 17.9155
3.01 0.184093 17.8765
3.01 0.161431 17.8765
3.01 0.172705 17.896
3.01 0.218082 17.857
3.01 0.240697 17.857
3.01 0.229409 17.8375
3.01 0.218082 17.857
3.01 0.229409 17.8375
3.01 0.206798 17.8375
3.01 0.138617 17.9155
3.01 0.149916 17.935
3.01 0.161325 17.9155
3.01 0.376107 18.2467
3.01 0.364834 18.2272
3.01 0.353559 18.2467
3.01 0.942264 18.481
3.01 0.95 18.5006
3.01 0.95 18.4614
3.01 0.466226 18.4811
3.01 0.454966 18.4615
3.01 0.443707 18.4811
3.01 0.466223 18.4028
3.01 0.488741 18.4028
3.01 0.477482 18.3833
3.01 0.466223 18.4028
3.01 0.443703 18.4028
3.01 0.454964 18.4224
3.01 0.511259 18.4028
3.01 0.533777 18.4028
3.01 0.522518 18.3833
3.01 0.533777 18.4028
3.01 0.511259 18.4028
3.01 0.522517 18.4224
3.01 0.488741 18.4028
3.01 0.5 18.3833
3.01 0.477482 18.3833
3.01 0.511259 18.4028
3.01 0.5 18.3833
3.01 0.488741 18.4028
3.01 0.5 18.3833
3.01 0.511259 18.4028
3.01 0.522518 18.3833
3.01 0.387388 18.4615
3.01 0.40992 18.4615
3.01 0.398653 18.4419
3.01 0.376117 18.4419
3.01 0.387388 18.4615
3.01 0.398653 18.4419
3.01 0.443703 18.4028
3.01 0.432443 18.4224
3.01 0.454964 18.4224
3.01 0.432443 18.4224
3.01 0.443705 18.4419
3.01 0.454964 18.4224
3.01 0.274559 18.4223
3.01 0.285853 18.4028
3.01 0.26325 18.4028
3.01 0.387384 18.4224
3.01 0.376117 18.4419
3.01 0.398653 18.4419
3.01 0.376117 18.4419
3.01 0.387384 18.4224
3.01 0.364843 18.4224
3.01 0.387384 18.4224
3.01 0.376113 18.4028
3.01 0.364843 18.4224
3.01 0.342292 18.4224
3.01 0.331009 18.4028
3.01 0.319729 18.4224
3.01 0.331009 18.4028
3.01 0.342292 18.4224
3.01 0.353567 18.4028
3.01 0.545011 18.7375
3.01 0.533759 18.7177
3.01 0.522505 18.7375
3.01 0.533762 18.6781
3.01 0.55627 18.6781
3.01 0.545018 18.6583
3.01 0.55627 18.6781
3.01 0.567528 18.6583
3.01 0.545018 18.6583
3.01 0.567528 18.6583
3.01 0.59004 18.6583
3.01 0.578788 18.6386
3.01 0.466232 18.5991
3.01 0.477488 18.5794
3.01 0.454974 18.5794
3.01 0.567516 18.7375
3.01 0.590022 18.7375
3.01 0.578772 18.7177
3.01 0.601316 18.5991
3.01 0.590051 18.6188
3.01 0.61257 18.6188
3.01 0.62384 18.5991
3.01 0.601316 18.5991
3.01 0.61257 18.6188
3.01 0.680198 18.5793
3.01 0.702757 18.5793
3.01 0.691494 18.5596
3.01 0.086422 18.7172
3.01 0.073896 18.7375
3.01 0.0962623 18.7375
3.01 0.073896 18.7375
3.01 0.086422 18.7172
3.01 0.066417 18.7195
3.01 0.05 18.7375
3.01 0.073896 18.7375
3.01 0.066417 18.7195
3.01 0.0721919 18.6979
3.01 0.05 18.7137
3.01 0.066417 18.7195
3.01 0.086422 18.7172
3.01 0.0721919 18.6979
3.01 0.066417 18.7195
3.01 0.118481 18.7375
3.01 0.107711 18.7173
3.01 0.0962623 18.7375
3.01 0.5 18.7375
3.01 0.488747 18.7177
3.01 0.477495 18.7375
3.01 0.432484 18.7375
3.01 0.421228 18.7177
3.01 0.409978 18.7375
3.01 0.443725 18.6386
3.01 0.432465 18.6188
3.01 0.421212 18.6386
3.01 0.319802 18.5793
3.01 0.342348 18.5793
3.01 0.331063 18.5596
3.01 0.353629 18.599
3.01 0.364886 18.5793
3.01 0.342348 18.5793
3.01 0.10433 18.2857
3.01 0.0813011 18.2857
3.01 0.0933065 18.3052
3.01 0.0939466 17.8375
3.01 0.104722 17.857
3.01 0.11641 17.8375
3.01 0.0939466 17.8375
3.01 0.0717021 17.8375
3.01 0.0817675 17.857
3.01 0.104722 17.857
3.01 0.0939466 17.8375
3.01 0.0817675 17.857
3.01 0.0933065 18.3052
3.01 0.0710513 18.3052
3.01 0.0813038 18.3247
3.01 0.0710513 18.3052
3.01 0.0933065 18.3052
3.01 0.0813011 18.2857
3.01 0.115908 18.3832
3.01 0.104337 18.3637
3.01 0.0933131 18.3832
3.01 0.104337 18.3637
3.01 0.115908 18.3832
3.01 0.127165 18.3637
3.01 0.104343 18.4028
3.01 0.115908 18.3832
3.01 0.0933131 18.3832
3.01 0.104343 18.4028
3.01 0.0933188 18.4223
3.01 0.115915 18.4223
3.01 0.942303 18.2467
3.01 0.95 18.2662
3.01 0.95 18.2272
3.01 0.92895 18.2272
3.01 0.942303 18.2467
3.01 0.95 18.2272
3.01 0.9187 18.2467
3.01 0.895671 18.2467
3.01 0.906695 18.2662
3.01 0.92895 18.2272
3.01 0.9187 18.2467
3.01 0.942303 18.2467
3.01 0.942316 18.0129
3.01 0.95 17.9934
3.01 0.928965 17.9934
3.01 0.95 18.0713
3.01 0.95 18.0323
3.01 0.942309 18.0518
3.01 0.942316 18.0129
3.01 0.95 18.0323
3.01 0.95 17.9934
3.01 0.95 17.8761
3.01 0.95 17.8375
3.01 0.941764 17.8568
3.01 0.95 17.8761
3.01 0.942358 17.8957
3.01 0.95 17.9153
3.01 0.612617 17.9154
3.01 0.623887 17.9349
3.01 0.635157 17.9154
3.01 0.895671 18.2467
3.01 0.906696 18.2272
3.01 0.884102 18.2272
3.01 0.906696 18.2272
3.01 0.895671 18.2467
3.01 0.9187 18.2467
3.01 0.92895 18.2272
3.01 0.906696 18.2272
3.01 0.9187 18.2467
3.01 0.353563 18.3638
3.01 0.364839 18.3833
3.01 0.37611 18.3638
3.01 0.364837 18.3442
3.01 0.353563 18.3638
3.01 0.37611 18.3638
3.01 0.297145 18.3833
3.01 0.308439 18.4028
3.01 0.319723 18.3833
3.01 0.308439 18.4028
3.01 0.297145 18.3833
3.01 0.285853 18.4028
3.01 0.308439 18.4028
3.01 0.319729 18.4224
3.01 0.331009 18.4028
3.01 0.319723 18.3833
3.01 0.308439 18.4028
3.01 0.331009 18.4028
3.01 0.17262 18.2467
3.01 0.149908 18.2467
3.01 0.161282 18.2662
3.01 0.138583 18.2662
3.01 0.149909 18.2857
3.01 0.161282 18.2662
3.01 0.149909 18.2857
3.01 0.138583 18.2662
3.01 0.127158 18.2857
3.01 0.149909 18.2857
3.01 0.161284 18.3052
3.01 0.172622 18.2857
3.01 0.161282 18.2662
3.01 0.149909 18.2857
3.01 0.172622 18.2857
3.01 0.240621 18.3637
3.01 0.229301 18.3442
3.01 0.217979 18.3637
3.01 0.229301 18.3442
3.01 0.206649 18.3442
3.01 0.217979 18.3637
3.01 0.195316 18.3637
3.01 0.217979 18.3637
3.01 0.206649 18.3442
3.01 0.115908 18.3832
3.01 0.138594 18.3832
3.01 0.127165 18.3637
3.01 0.0933091 18.3442
3.01 0.115904 18.3442
3.01 0.104333 18.3247
3.01 0.115904 18.3442
3.01 0.127161 18.3247
3.01 0.104333 18.3247
3.01 0.115904 18.3442
3.01 0.0933091 18.3442
3.01 0.104337 18.3637
3.01 0.127165 18.3637
3.01 0.115904 18.3442
3.01 0.104337 18.3637
3.01 0.115901 18.3052
3.01 0.0933065 18.3052
3.01 0.104333 18.3247
3.01 0.127161 18.3247
3.01 0.115901 18.3052
3.01 0.104333 18.3247
3.01 0.115901 18.3052
3.01 0.10433 18.2857
3.01 0.0933065 18.3052
3.01 0.10433 18.2857
3.01 0.115901 18.3052
3.01 0.127158 18.2857
3.01 0.183972 18.2662
3.01 0.195307 18.2467
3.01 0.17262 18.2467
3.01 0.161282 18.2662
3.01 0.183972 18.2662
3.01 0.17262 18.2467
3.01 0.183972 18.2662
3.01 0.161282 18.2662
3.01 0.172622 18.2857
3.01 0.263244 18.3637
3.01 0.251933 18.3442
3.01 0.240621 18.3637
3.01 0.229301 18.3442
3.01 0.251933 18.3442
3.01 0.240617 18.3247
3.01 0.251933 18.3442
3.01 0.229301 18.3442
3.01 0.240621 18.3637
3.01 0.274543 18.3052
3.01 0.285842 18.2857
3.01 0.263237 18.2857
3.01 0.285842 18.2857
3.01 0.274541 18.2662
3.01 0.263237 18.2857
3.01 0.319739 18.4615
3.01 0.3423 18.4615
3.01 0.331016 18.4419
3.01 0.297163 18.4615
3.01 0.274572 18.4615
3.01 0.285878 18.4811
3.01 0.308447 18.4419
3.01 0.297163 18.4615
3.01 0.319739 18.4615
3.01 0.297163 18.4615
3.01 0.308447 18.4419
3.01 0.285863 18.4419
3.01 0.274572 18.4615
3.01 0.297163 18.4615
3.01 0.285863 18.4419
3.01 0.183992 18.4223
3.01 0.172648 18.4419
3.01 0.195336 18.4419
3.01 0.183992 18.4223
3.01 0.195323 18.4028
3.01 0.172636 18.4028
3.01 0.184008 18.4614
3.01 0.172648 18.4419
3.01 0.161316 18.4614
3.01 0.172648 18.4419
3.01 0.184008 18.4614
3.01 0.195336 18.4419
3.01 0.184008 18.4614
3.01 0.195356 18.481
3.01 0.206681 18.4614
3.01 0.195336 18.4419
3.01 0.184008 18.4614
3.01 0.206681 18.4614
3.01 0.308434 18.3637
3.01 0.297145 18.3833
3.01 0.319723 18.3833
3.01 0.297145 18.3833
[...]
<PointData Scalars="View Factor" >
<DataArray type="Float64" Name="View Factor" NumberOfComponents="1" format="ascii">
0.74827
0.74827
0.74827
0.588015
0.588015
0.588015
0.472111
0.472111
0.472111
0.562372
0.562372
0.562372
0.599819
0.599819
0.599819
0.595172
0.595172
0.595172
0.59323
0.59323
0.59323
0.615143
0.615143
0.615143
0.601694
0.601694
0.601694
0.606241
0.606241
0.606241
0.472535
0.472535
0.472535
0.747089
0.747089
0.747089
0.744865
0.744865
0.744865
0.7475
0.7475
0.7475
0.746565
0.746565
0.746565
0.743613
0.743613
0.743613
0.744621
0.744621
0.744621
0.744334
0.744334
0.744334
0.743352
0.743352
0.743352
0.739743
0.739743
0.739743
0.741057
0.741057
0.741057
0.684301
0.684301
0.684301
0.619496
0.619496
0.619496
0.650553
0.650553
0.650553
0.628421
0.628421
0.628421
0.63272
0.63272
0.63272
0.582362
0.582362
0.582362
0.587209
0.587209
0.587209
0.589248
0.589248
0.589248
0.586328
0.586328
0.586328
0.583715
0.583715
0.583715
0.586008
0.586008
0.586008
0.585219
0.585219
0.585219
0.583659
0.583659
0.583659
0.588514
0.588514
0.588514
0.744992
0.744992
0.744992
0.743038
0.743038
0.743038
0.740743
0.740743
0.740743
0.734167
0.734167
0.734167
0.735213
0.735213
0.735213
0.739938
0.739938
0.739938
0.74422
0.74422
0.74422
0.745621
0.745621
0.745621
0.733209
0.733209
0.733209
0.650538
0.650538
0.650538
0.524942
0.524942
0.524942
0.567362
0.567362
0.567362
0.594913
0.594913
0.594913
0.591397
0.591397
0.591397
0.592509
0.592509
0.592509
0.587915
0.587915
0.587915
0.596616
0.596616
0.596616
0.593744
0.593744
0.593744
0.59541
0.59541
0.59541
0.577141
0.577141
0.577141
0.580017
0.580017
0.580017
0.589586
0.589586
0.589586
0.584868
0.584868
0.584868
0.598037
0.598037
0.598037
0.584846
0.584846
0.584846
0.587668
0.587668
0.587668
0.592406
0.592406
0.592406
0.593998
0.593998
0.593998
0.595971
0.595971
0.595971
0.457807
0.457807
0.457807
0.482965
0.482965
0.482965
0.485217
0.485217
0.485217
0.489635
0.489635
0.489635
0.522667
0.522667
0.522667
0.455623
0.455623
0.455623
0.504911
0.504911
0.504911
0.506958
0.506958
0.506958
0.51507
0.51507
0.51507
0.469199
0.469199
0.469199
0.471928
0.471928
0.471928
0.468975
0.468975
0.468975
0.478363
0.478363
0.478363
0.477793
0.477793
0.477793
0.469011
0.469011
0.469011
0.459776
0.459776
0.459776
0.462346
0.462346
0.462346
0.504783
0.504783
0.504783
0.533041
0.533041
0.533041
0.526906
0.526906
0.526906
0.641124
0.641124
0.641124
0.747813
0.747813
0.747813
0.748067
0.748067
0.748067
0.746851
0.746851
0.746851
0.634942
0.634942
0.634942
0.639145
0.639145
0.639145
0.61275
0.61275
0.61275
0.6149
0.6149
0.6149
0.60816
0.60816
0.60816
0.598786
0.598786
0.598786
0.598988
0.598988
0.598988
0.60353
0.60353
0.60353
0.602765
0.602765
0.602765
0.603233
0.603233
0.603233
0.657452
0.657452
0.657452
0.645919
0.645919
0.645919
0.65382
0.65382
0.65382
0.681151
0.681151
0.681151
0.674921
0.674921
0.674921
0.709798
0.709798
0.709798
0.609674
0.609674
0.609674
0.606366
0.606366
0.606366
0.606642
0.606642
0.606642
0.60892
0.60892
0.60892
0.613374
0.613374
0.613374
0.604031
0.604031
0.604031
0.602065
0.602065
0.602065
0.596714
0.596714
0.596714
0.601372
0.601372
0.601372
0.652347
0.652347
0.652347
0.64655
0.64655
0.64655
0.644692
0.644692
0.644692
0.640246
0.640246
0.640246
0.644345
0.644345
0.644345
0.617459
0.617459
0.617459
0.619928
0.619928
0.619928
0.61795
0.61795
0.61795
0.612495
0.612495
0.612495
0.626134
0.626134
0.626134
0.628185
0.628185
0.628185
0.621738
0.621738
0.621738
0.619393
0.619393
0.619393
0.634732
0.634732
0.634732
0.632483
0.632483
0.632483
0.638933
0.638933
0.638933
0.640884
0.640884
0.640884
0.651941
0.651941
0.651941
0.650175
0.650175
0.650175
0.646175
0.646175
0.646175
0.616916
0.616916
0.616916
0.623791
0.623791
0.623791
0.619409
0.619409
0.619409
0.63771
0.63771
0.63771
0.641793
0.641793
0.641793
0.57956
0.57956
0.57956
0.575958
0.575958
0.575958
0.580258
0.580258
0.580258
0.583037
0.583037
0.583037
0.580904
0.580904
0.580904
0.590507
0.590507
0.590507
0.600055
0.600055
0.600055
0.583372
0.583372
0.583372
0.585639
0.585639
0.585639
0.57802
0.57802
0.57802
0.582979
0.582979
0.582979
0.608595
0.608595
0.608595
0.611197
0.611197
0.611197
0.615666
0.615666
0.615666
0.617528
0.617528
0.617528
0.589956
0.589956
0.589956
0.587888
0.587888
0.587888
0.594711
0.594711
0.594711
0.597402
0.597402
0.597402
0.590611
0.590611
0.590611
0.59537
0.59537
0.59537
0.60329
0.60329
0.60329
0.612438
0.612438
0.612438
0.589089
0.589089
0.589089
0.59862
0.59862
0.59862
0.595977
0.595977
0.595977
0.591213
0.591213
0.591213
0.744297
0.744297
0.744297
0.743559
0.743559
0.743559
0.747125
0.747125
0.747125
0.742666
0.742666
0.742666
0.746221
0.746221
0.746221
0.743991
0.743991
0.743991
0.740371
0.740371
0.740371
0.738998
0.738998
0.738998
0.736635
0.736635
0.736635
0.735643
0.735643
0.735643
0.737036
0.737036
0.737036
0.7394
0.7394
0.7394
0.741341
0.741341
0.741341
0.739862
0.739862
0.739862
0.746687
0.746687
0.746687
0.742232
0.742232
0.742232
0.743587
0.743587
0.743587
0.745816
0.745816
0.745816
0.739443
0.739443
0.739443
0.73801
0.73801
0.73801
0.735649
0.735649
0.735649
0.734721
0.734721
0.734721
0.736173
0.736173
0.736173
0.738535
0.738535
0.738535
0.746186
0.746186
0.746186
0.741735
0.741735
0.741735
0.742592
0.742592
0.742592
0.744816
0.744816
0.744816
0.745348
0.745348
0.745348
0.743121
0.743121
0.743121
0.741999
0.741999
0.741999
0.740551
0.740551
0.740551
0.738885
0.738885
0.738885
0.741175
0.741175
0.741175
0.713796
0.713796
0.713796
0.710985
0.710985
0.710985
0.708503
0.708503
0.708503
0.710295
0.710295
0.710295
0.706331
0.706331
0.706331
0.709223
0.709223
0.709223
0.731737
0.731737
0.731737
0.732289
0.732289
0.732289
0.730787
0.730787
0.730787
0.728282
0.728282
0.728282
0.648611
0.648611
0.648611
0.658086
0.658086
0.658086
0.649606
0.649606
0.649606
0.651024
0.651024
0.651024
0.65479
0.65479
0.65479
0.657144
0.657144
0.657144
0.65199
0.65199
0.65199
0.655761
0.655761
0.655761
0.654514
0.654514
0.654514
0.652215
0.652215
0.652215
0.680978
0.680978
0.680978
0.66848
0.66848
0.66848
0.730204
0.730204
0.730204
0.742707
0.742707
0.742707
0.735978
0.735978
0.735978
0.738177
0.738177
0.738177
0.741179
0.741179
0.741179
0.74181
0.74181
0.74181
0.740249
0.740249
0.740249
0.437359
0.437359
0.437359
0.441108
0.441108
0.441108
0.446673
0.446673
0.446673
0.441065
0.441065
0.441065
0.439246
0.439246
0.439246
0.442964
0.442964
0.442964
0.455913
0.455913
0.455913
0.448543
0.448543
0.448543
0.45039
0.45039
0.45039
0.444754
0.444754
0.444754
0.486815
0.486815
0.486815
0.491879
0.491879
0.491879
0.495599
0.495599
0.495599
0.500593
0.500593
0.500593
0.570341
0.570341
0.570341
0.575245
0.575245
0.575245
0.637819
0.637819
0.637819
0.645742
0.645742
0.645742
0.63376
0.63376
0.63376
0.584959
0.584959
0.584959
0.580276
0.580276
0.580276
0.577265
0.577265
0.577265
0.590301
0.590301
0.590301
0.588526
0.588526
0.588526
0.577161
0.577161
0.577161
0.580889
0.580889
0.580889
0.581969
0.581969
0.581969
0.583816
0.583816
0.583816
0.569313
0.569313
0.569313
0.574208
0.574208
0.574208
0.57609
0.57609
0.57609
0.560353
0.560353
0.560353
0.55132
0.55132
0.55132
0.556519
0.556519
0.556519
0.563835
0.563835
0.563835
0.558725
0.558725
0.558725
0.565979
0.565979
0.565979
0.582987
0.582987
0.582987
0.579123
0.579123
0.579123
0.576222
0.576222
0.576222
0.578172
0.578172
0.578172
0.592431
0.592431
0.592431
0.586793
0.586793
0.586793
0.583946
0.583946
0.583946
0.58586
0.58586
0.58586
0.590586
0.590586
0.590586
0.635543
0.635543
0.635543
0.629868
0.629868
0.629868
0.456743
0.456743
0.456743
0.460159
0.460159
0.460159
0.459061
0.459061
0.459061
0.519464
0.519464
0.519464
0.524831
0.524831
0.524831
0.476046
0.476046
0.476046
0.478379
0.478379
0.478379
0.481822
0.481822
0.481822
0.484039
0.484039
0.484039
0.503559
0.503559
0.503559
0.502142
0.502142
0.502142
0.505567
0.505567
0.505567
0.491799
0.491799
0.491799
0.499442
0.499442
0.499442
0.497334
0.497334
0.497334
0.550096
0.550096
0.550096
0.537133
0.537133
0.537133
0.542211
0.542211
0.542211
0.518503
0.518503
0.518503
0.512354
0.512354
0.512354
0.494247
0.494247
0.494247
0.503045
0.503045
0.503045
0.499348
0.499348
0.499348
0.506406
0.506406
0.506406
0.504638
0.504638
0.504638
0.508138
0.508138
0.508138
0.477224
0.477224
0.477224
0.449142
0.449142
0.449142
0.543956
0.543956
0.543956
0.568286
0.568286
0.568286
0.493521
0.493521
0.493521
0.482376
0.482376
0.482376
0.487801
0.487801
0.487801
0.478078
0.478078
0.478078
0.48103
0.48103
0.48103
0.467929
0.467929
0.467929
0.471894
0.471894
0.471894
0.468798
0.468798
0.468798
0.488629
0.488629
0.488629
0.465681
0.465681
0.465681
0.477343
0.477343
0.477343
0.458818
0.458818
0.458818
0.462191
0.462191
0.462191
0.461202
0.461202
0.461202
0.46795
0.46795
0.46795
0.470326
0.470326
0.470326
0.466951
0.466951
0.466951
0.471433
0.471433
0.471433
0.463105
0.463105
0.463105
0.465637
0.465637
0.465637
0.464483
0.464483
0.464483
0.507127
0.507127
0.507127
0.501538
0.501538
0.501538
0.498348
0.498348
0.498348
0.48047
0.48047
0.48047
0.474704
0.474704
0.474704
0.484434
0.484434
0.484434
0.489445
0.489445
0.489445
0.481206
0.481206
0.481206
0.483718
0.483718
0.483718
0.490169
0.490169
0.490169
0.492666
0.492666
0.492666
0.533694
0.533694
0.533694
0.536076
0.536076
0.536076
0.523806
0.523806
0.523806
0.548334
0.548334
0.548334
0.535396
0.535396
0.535396
0.53234
0.53234
0.53234
0.540757
0.540757
0.540757
0.543055
0.543055
0.543055
0.553059
0.553059
0.553059
0.540094
0.540094
0.540094
0.578752
0.578752
0.578752
0.5764
0.5764
0.5764
0.537481
0.537481
0.537481
0.532028
0.532028
0.532028
0.54028
0.54028
0.54028
0.537634
0.537634
0.537634
0.529356
0.529356
0.529356
0.532163
0.532163
0.532163
0.643481
0.643481
0.643481
0.639303
0.639303
0.639303
0.641312
0.641312
0.641312
0.63087
0.63087
0.63087
0.6351
0.6351
0.6351
0.632906
0.632906
0.632906
0.617673
0.617673
0.617673
0.613107
0.613107
0.613107
0.603894
0.603894
0.603894
0.608514
0.608514
0.608514
0.609418
0.609418
0.609418
0.607012
0.607012
0.607012
0.599458
0.599458
0.599458
0.595774
0.595774
0.595774
0.596384
0.596384
0.596384
0.599651
0.599651
0.599651
0.59272
0.59272
0.59272
0.592304
0.592304
0.592304
0.609354
0.609354
0.609354
0.662784
0.662784
0.662784
0.659939
0.659939
0.659939
0.66127
0.66127
0.66127
0.667376
0.667376
0.667376
0.657797
0.657797
0.657797
0.680276
0.680276
0.680276
0.678173
0.678173
0.678173
0.68722
0.68722
0.68722
0.725134
0.725134
0.725134
0.726985
0.726985
0.726985
0.725011
0.725011
0.725011
0.710356
0.710356
0.710356
0.717599
0.717599
0.717599
0.715233
0.715233
0.715233
0.714268
0.714268
0.714268
0.712144
0.712144
0.712144
0.716759
0.716759
0.716759
0.723117
0.723117
0.723117
0.69625
0.69625
0.69625
0.705701
0.705701
0.705701
0.693972
0.693972
0.693972
0.693876
0.693876
0.693876
0.676155
0.676155
0.676155
0.678745
0.678745
0.678745
0.691549
0.691549
0.691549
0.689023
0.689023
0.689023
0.680893
0.680893
0.680893
0.678202
0.678202
0.678202
0.736251
0.736251
0.736251
0.734516
0.734516
0.734516
0.738696
0.738696
0.738696
0.719597
0.719597
0.719597
0.715112
0.715112
0.715112
0.714081
0.714081
0.714081
0.713269
0.713269
0.713269
0.678599
0.678599
0.678599
0.705578
0.705578
0.705578
0.707622
0.707622
0.707622
0.707799
0.707799
0.707799
0.620079
0.620079
0.620079
0.629693
0.629693
0.629693
0.626715
0.626715
0.626715
0.623116
0.623116
0.623116
0.622479
0.622479
0.622479
0.607083
0.607083
0.607083
0.602529
0.602529
0.602529
0.600623
0.600623
0.600623
0.603308
0.603308
0.603308
0.63798
0.63798
0.63798
0.640591
0.640591
0.640591
0.634469
0.634469
0.634469
0.638668
0.638668
0.638668
0.638351
0.638351
0.638351
0.678336
0.678336
0.678336
0.674813
0.674813
0.674813
0.599149
0.599149
0.599149
0.589612
0.589612
0.589612
0.596531
0.596531
0.596531
0.591764
0.591764
0.591764
0.599628
0.599628
0.599628
0.597485
0.597485
0.597485
0.592712
0.592712
0.592712
0.590084
0.590084
0.590084
0.592263
0.592263
0.592263
0.597033
0.597033
0.597033
0.604305
0.604305
0.604305
0.613466
0.613466
0.613466
0.612979
0.612979
0.612979
0.610963
0.610963
0.610963
0.606384
0.606384
0.606384
0.603823
0.603823
0.603823
0.605875
0.605875
0.605875
0.610451
0.610451
0.610451
0.604735
0.604735
0.604735
0.606841
0.606841
0.606841
0.611423
0.611423
0.611423
0.613902
0.613902
0.613902
0.607247
0.607247
0.607247
0.611832
0.611832
0.611832
0.590879
0.590879
0.590879
0.59311
0.59311
0.59311
0.597886
0.597886
0.597886
0.625874
0.625874
0.625874
0.621479
0.621479
0.621479
0.654286
0.654286
0.654286
0.649765
0.649765
0.649765
0.652964
0.652964
0.652964
0.635959
0.635959
0.635959
0.638327
0.638327
0.638327
0.637078
0.637078
0.637078
0.638888
0.638888
0.638888
0.636546
0.636546
0.636546
0.632359
0.632359
0.632359
0.639395
0.639395
0.639395
0.637556
0.637556
0.637556
0.643943
0.643943
0.643943
0.639847
0.639847
0.639847
0.656503
0.656503
0.656503
0.654861
0.654861
0.654861
0.618837
0.618837
0.618837
0.616318
0.616318
0.616318
0.61821
0.61821
0.61821
0.648335
0.648335
0.648335
0.639587
0.639587
0.639587
0.647531
0.647531
0.647531
0.642003
0.642003
0.642003
0.645978
0.645978
0.645978
0.646667
0.646667
0.646667
0.645146
0.645146
0.645146
0.641177
0.641177
0.641177
0.638733
0.638733
0.638733
0.64029
0.64029
0.64029
0.644254
0.644254
0.644254
0.634669
0.634669
0.634669
0.632168
0.632168
0.632168
0.628009
0.628009
0.628009
0.635316
0.635316
0.635316
0.581635
0.581635
0.581635
0.585689
0.585689
0.585689
0.588486
0.588486
0.588486
0.586476
0.586476
0.586476
0.573878
0.573878
0.573878
0.570998
0.570998
0.570998
0.573078
0.573078
0.573078
0.578003
0.578003
0.578003
0.580854
0.580854
0.580854
0.578809
0.578809
0.578809
0.578411
0.578411
0.578411
0.576084
0.576084
0.576084
0.571033
0.571033
0.571033
0.56831
0.56831
0.56831
0.575719
0.575719
0.575719
0.57067
0.57067
0.57067
0.602704
0.602704
0.602704
0.611844
0.611844
0.611844
0.604699
0.604699
0.604699
0.609267
0.609267
0.609267
0.609886
0.609886
0.609886
0.605314
0.605314
0.605314
0.609736
0.609736
0.609736
0.607867
0.607867
0.607867
0.610494
0.610494
0.610494
0.614958
0.614958
0.614958
0.731122
0.731122
0.731122
0.737577
0.737577
0.737577
0.73605
0.73605
0.73605
0.733697
0.733697
0.733697
0.732868
0.732868
0.732868
0.69541
0.69541
0.69541
0.705615
0.705615
0.705615
0.699671
0.699671
0.699671
0.704515
0.704515
0.704515
0.701541
0.701541
0.701541
0.706872
0.706872
0.706872
0.704835
0.704835
0.704835
0.703769
0.703769
0.703769
0.700799
0.700799
0.700799
0.684286
0.684286
0.684286
0.670661
0.670661
0.670661
0.674161
0.674161
0.674161
0.727278
0.727278
0.727278
0.664032
0.664032
0.664032
0.661765
0.661765
0.661765
0.653734
0.653734
0.653734
0.651407
0.651407
0.651407
0.652893
0.652893
0.652893
0.656669
0.656669
0.656669
0.658301
0.658301
0.658301
0.684295
0.684295
0.684295
0.669829
0.669829
0.669829
0.66762
0.66762
0.66762
0.678883
0.678883
0.678883
0.675477
0.675477
0.675477
0.673325
0.673325
0.673325
0.680133
0.680133
0.680133
0.678009
0.678009
0.678009
0.674607
0.674607
0.674607
0.732916
0.732916
0.732916
0.732121
0.732121
0.732121
0.727702
0.727702
0.727702
0.722547
0.722547
0.722547
0.72673
0.72673
0.72673
0.724151
0.724151
0.724151
0.719257
0.719257
0.719257
0.743535
0.743535
0.743535
0.742833
0.742833
0.742833
0.740617
0.740617
0.740617
0.74204
0.74204
0.74204
0.740843
0.740843
0.740843
0.739806
0.739806
0.739806
0.739249
0.739249
0.739249
0.731152
0.731152
0.731152
0.738043
0.738043
0.738043
0.733495
0.733495
0.733495
0.448479
0.448479
0.448479
0.459605
0.459605
0.459605
0.466942
0.466942
0.466942
0.461443
0.461443
0.461443
0.457775
0.457775
0.457775
0.452234
0.452234
0.452234
0.450345
0.450345
0.450345
0.459569
0.459569
0.459569
0.454012
0.454012
0.454012
0.465207
0.465207
0.465207
0.48088
0.48088
0.48088
0.506748
0.506748
0.506748
0.501843
0.501843
0.501843
0.510744
0.510744
0.510744
0.496055
0.496055
0.496055
0.500683
0.500683
0.500683
0.508091
0.508091
0.508091
0.578539
0.578539
0.578539
0.573758
0.573758
0.573758
0.56943
0.56943
0.56943
0.572493
0.572493
0.572493
0.570723
0.570723
0.570723
0.597058
0.597058
0.597058
0.599847
0.599847
0.599847
0.604381
0.604381
0.604381
0.60612
0.60612
0.60612
0.62347
0.62347
0.62347
0.622384
0.622384
0.622384
0.625029
0.625029
0.625029
0.636842
0.636842
0.636842
0.644753
0.644753
0.644753
0.6433
0.6433
0.6433
0.639342
0.639342
0.639342
0.631755
0.631755
0.631755
0.629168
0.629168
0.629168
0.630656
0.630656
0.630656
0.631231
0.631231
0.631231
0.63279
0.63279
0.63279
0.626085
0.626085
0.626085
0.630232
0.630232
0.630232
0.623908
0.623908
0.623908
0.621234
0.621234
0.621234
0.622719
0.622719
0.622719
0.62804
0.62804
0.62804
0.626844
0.626844
0.626844
0.62949
0.62949
0.62949
0.633521
0.633521
0.633521
0.583824
0.583824
0.583824
0.580777
0.580777
0.580777
0.588387
0.588387
0.588387
0.589892
0.589892
0.589892
0.597323
0.597323
0.597323
0.594354
0.594354
0.594354
0.598051
0.598051
0.598051
0.596797
0.596797
0.596797
0.594137
0.594137
0.594137
0.59863
0.59863
0.59863
0.599913
0.599913
0.599913
0.601505
0.601505
0.601505
0.608726
0.608726
0.608726
0.605907
0.605907
0.605907
0.586622
0.586622
0.586622
0.591206
0.591206
0.591206
0.566307
0.566307
0.566307
0.560218
0.560218
0.560218
0.549053
0.549053
0.549053
0.544432
0.544432
0.544432
0.543768
0.543768
0.543768
0.541443
0.541443
0.541443
0.552662
0.552662
0.552662
0.549721
0.549721
0.549721
0.552016
0.552016
0.552016
0.563359
0.563359
0.563359
0.571311
0.571311
0.571311
0.568357
0.568357
0.568357
0.555766
0.555766
0.555766
0.550573
0.550573
0.550573
0.537506
0.537506
0.537506
0.591525
0.591525
0.591525
0.593404
0.593404
0.593404
0.594317
0.594317
0.594317
0.598958
0.598958
0.598958
0.6008
0.6008
0.6008
0.598038
0.598038
0.598038
0.593117
0.593117
0.593117
0.596205
0.596205
0.596205
0.595
0.595
0.595
0.569543
0.569543
0.569543
0.578962
0.578962
0.578962
0.582242
0.582242
0.582242
0.585258
0.585258
0.585258
0.583636
0.583636
0.583636
0.576125
0.576125
0.576125
0.550613
0.550613
0.550613
0.548943
0.548943
0.548943
0.56016
0.56016
0.56016
0.610725
0.610725
0.610725
0.606707
0.606707
0.606707
0.59427
0.59427
0.59427
0.598479
0.598479
0.598479
0.607425
0.607425
0.607425
0.624341
0.624341
0.624341
0.621482
0.621482
0.621482
0.616462
0.616462
0.616462
0.608643
0.608643
0.608643
0.615594
0.615594
0.615594
0.611678
0.611678
0.611678
0.620277
0.620277
0.620277
0.623238
0.623238
0.623238
0.626965
0.626965
0.626965
0.621059
0.621059
0.621059
0.632014
0.632014
0.632014
0.625469
0.625469
0.625469
0.629083
0.629083
0.629083
0.624773
0.624773
0.624773
0.631346
0.631346
0.631346
0.627719
0.627719
0.627719
0.629059
0.629059
0.629059
0.61372
0.61372
0.61372
0.612713
0.612713
0.612713
0.615668
0.615668
0.615668
0.477304
0.477304
0.477304
0.475004
0.475004
0.475004
0.469295
0.469295
0.469295
0.465897
0.465897
0.465897
0.490825
0.490825
0.490825
0.494192
0.494192
0.494192
0.493025
0.493025
0.493025
0.49975
0.49975
0.49975
0.526903
0.526903
0.526903
0.530945
0.530945
0.530945
0.515716
0.515716
0.515716
0.491956
0.491956
0.491956
0.486338
0.486338
0.486338
0.484052
0.484052
0.484052
0.496701
0.496701
0.496701
0.52452
0.52452
0.52452
0.529026
0.529026
0.529026
0.532172
0.532172
0.532172
0.529933
0.529933
0.529933
0.513552
0.513552
0.513552
0.508002
0.508002
0.508002
0.520432
0.520432
0.520432
0.52362
0.52362
0.52362
0.521354
0.521354
0.521354
0.515874
0.515874
0.515874
0.512669
0.512669
0.512669
0.51496
0.51496
0.51496
0.555271
0.555271
0.555271
0.552216
0.552216
0.552216
0.553203
0.553203
0.553203
0.551186
0.551186
0.551186
0.554267
0.554267
0.554267
0.558268
0.558268
0.558268
0.559341
0.559341
0.559341
0.561325
0.561325
0.561325
0.54495
0.54495
0.54495
0.528075
0.528075
0.528075
0.534494
0.534494
0.534494
0.537669
0.537669
0.537669
0.546031
0.546031
0.546031
0.542902
0.542902
0.542902
0.530238
0.530238
0.530238
0.528063
0.528063
0.528063
0.531233
0.531233
0.531233
0.535555
0.535555
0.535555
0.561801
0.561801
0.561801
0.566637
0.566637
0.566637
0.530147
0.530147
0.530147
0.535314
0.535314
0.535314
0.545483
0.545483
0.545483
0.513396
0.513396
0.513396
0.516857
0.516857
0.516857
0.527067
0.527067
0.527067
0.526813
0.526813
0.526813
0.50411
0.50411
0.50411
0.474042
0.474042