<VTKFile type="UnstructuredGrid" version="1.0">
<UnstructuredGrid>
<Piece NumberOfPoints="11046" NumberOfCells="3682">
<Points>
<DataArray type="Float64" NumberOfComponents="3" format="ascii">
2.48358 1.77342 12.6202
2.46979 1.78721 12.6125
2.49736 1.75964 12.6125
2.17682 2.08018 12.6289
2.16411 2.09289 12.6125
2.1809 2.0761 12.6125
2.17682 2.08018 12.6289
2.16411 2.09289 12.6364
2.16411 2.09289 12.6125
2.49736 1.75964 13.5125
2.46979 1.78721 13.5125
2.48358 1.77342 13.5048
2.66273 1.59427 13.4915
2.66273 1.59427 13.5125
2.64895 1.60805 13.5048
2.4284 1.8286 13.3899
2.4422 1.8148 13.3785
2.4422 1.8148 13.4012
2.64895 1.60805 12.6202
2.66273 1.59427 12.6125
2.66273 1.59427 12.6335
2.46979 1.78721 12.6558
2.48358 1.77342 12.6438
2.48358 1.77342 12.6668
2.48358 1.77342 12.6668
2.48358 1.77342 12.6438
2.49736 1.75964 12.6558
2.49735 1.75965 13.04
2.51114 1.74586 13.0512
2.49735 1.75965 13.0625
2.16411 2.09289 13.085
2.16411 2.09289 13.0625
2.17811 2.07889 13.0738
2.8005 1.4565 13.2879
2.78672 1.47028 13.2992
2.78672 1.47028 13.2766
2.66271 1.59429 13.288
2.67649 1.58051 13.2767
2.67649 1.58051 13.2993
2.67649 1.58051 13.2993
2.67649 1.58051 13.2767
2.69027 1.56673 13.288
2.64895 1.60805 13.5048
2.66273 1.59427 13.5125
2.63517 1.62183 13.5125
2.55249 1.70451 13.4692
2.56627 1.69073 13.4812
2.55249 1.70451 13.4915
2.58005 1.67695 13.4692
2.56627 1.69073 13.4812
2.56627 1.69073 13.4582
2.56627 1.69073 13.4582
2.56627 1.69073 13.4812
2.55249 1.70451 13.4692
2.49735 1.75965 13.1526
2.48357 1.77343 13.1639
2.48357 1.77343 13.1413
2.49735 1.75965 13.0625
2.51114 1.74586 13.0512
2.51114 1.74586 13.0738
2.48357 1.77343 13.2315
2.49736 1.75964 13.2428
2.48357 1.77343 13.2541
2.48358 1.77342 13.5048
2.46979 1.78721 13.5125
2.46979 1.78721 13.4914
2.7867 1.4703 12.7353
2.8005 1.4565 12.7467
2.78671 1.47029 12.758
2.63516 1.62184 13.04
2.64894 1.60806 13.0287
2.64894 1.60806 13.0512
2.456 1.801 12.6202
2.44221 1.81479 12.6125
2.46979 1.78721 12.6125
2.46979 1.78721 12.6558
2.456 1.801 12.6438
2.46979 1.78721 12.6336
2.46979 1.78721 12.6336
2.48358 1.77342 12.6438
2.46979 1.78721 12.6558
2.46979 1.78721 12.6336
2.456 1.801 12.6202
2.46979 1.78721 12.6125
2.456 1.801 12.6438
2.456 1.801 12.6202
2.46979 1.78721 12.6336
2.46979 1.78721 12.6336
2.46979 1.78721 12.6125
2.48358 1.77342 12.6202
2.48358 1.77342 12.6202
2.48358 1.77342 12.6438
2.46979 1.78721 12.6336
2.49736 1.75964 12.6558
2.48358 1.77342 12.6438
2.49736 1.75964 12.6335
2.49736 1.75964 12.6335
2.51114 1.74586 12.6438
2.49736 1.75964 12.6558
2.48358 1.77342 12.6202
2.49736 1.75964 12.6125
2.49736 1.75964 12.6335
2.49736 1.75964 12.6335
2.48358 1.77342 12.6438
2.48358 1.77342 12.6202
2.48358 1.77342 12.6897
2.48358 1.77342 12.6668
2.49736 1.75964 12.6784
2.49736 1.75964 12.6784
2.48358 1.77342 12.6668
2.49736 1.75964 12.6558
2.52492 1.73208 12.8822
2.52492 1.73208 12.8596
2.53871 1.71829 12.8709
2.51114 1.74586 12.8709
2.52492 1.73208 12.8596
2.52492 1.73208 12.8822
2.63517 1.62183 12.6125
2.66273 1.59427 12.6125
2.64895 1.60805 12.6202
2.49736 1.75964 12.6125
2.52493 1.73207 12.6125
2.51114 1.74586 12.6202
2.51114 1.74586 12.6202
2.49736 1.75964 12.6335
2.49736 1.75964 12.6125
2.51114 1.74586 12.6438
2.49736 1.75964 12.6335
2.51114 1.74586 12.6202
2.51114 1.74586 13.0287
2.49735 1.75965 13.04
2.49735 1.75965 13.0175
2.51114 1.74586 13.0512
2.49735 1.75965 13.04
2.51114 1.74586 13.0287
2.51114 1.74586 13.0287
2.52492 1.73208 13.04
2.51114 1.74586 13.0512
2.78672 1.47028 13.0062
2.8005 1.4565 12.9949
2.8005 1.4565 13.0175
2.8005 1.4565 12.8822
2.78672 1.47028 12.871
2.8005 1.4565 12.8597
2.8005 1.4565 13.1751
2.8005 1.4565 13.1976
2.78672 1.47028 13.1864
2.78672 1.47028 13.2089
2.77294 1.48406 13.2202
2.77294 1.48406 13.1977
2.78672 1.47028 13.2089
2.8005 1.4565 13.1976
2.8005 1.4565 13.2202
2.77294 1.48406 13.1977
2.78672 1.47028 13.1864
2.78672 1.47028 13.2089
2.78672 1.47028 13.2089
2.78672 1.47028 13.1864
2.8005 1.4565 13.1976
2.78672 1.47028 13.2315
2.8005 1.4565 13.2202
2.8005 1.4565 13.2428
2.78672 1.47028 13.2315
2.78672 1.47028 13.2089
2.8005 1.4565 13.2202
2.77294 1.48406 13.2202
2.78672 1.47028 13.2089
2.78672 1.47028 13.2315
2.8005 1.4565 13.2879
2.78672 1.47028 13.2766
2.8005 1.4565 13.2653
2.75915 1.49785 13.2992
2.74538 1.51162 13.2879
2.75916 1.49784 13.2766
2.75916 1.49784 13.254
2.75916 1.49784 13.2766
2.74538 1.51162 13.2653
2.74538 1.51162 13.2653
2.74538 1.51162 13.2879
2.7316 1.5254 13.2766
2.74538 1.51162 13.2653
2.75916 1.49784 13.2766
2.74538 1.51162 13.2879
2.8005 1.4565 13.1075
2.78672 1.47028 13.0963
2.8005 1.4565 13.085
2.78672 1.47028 13.1638
2.8005 1.4565 13.1526
2.8005 1.4565 13.1751
2.8005 1.4565 13.1751
2.78672 1.47028 13.1864
2.78672 1.47028 13.1638
2.78672 1.47028 13.1638
2.78672 1.47028 13.1413
2.8005 1.4565 13.1526
2.77294 1.48406 13.1526
2.78672 1.47028 13.1413
2.78672 1.47028 13.1638
2.69027 1.56673 13.4012
2.6765 1.5805 13.4126
2.67649 1.58051 13.3899
2.67651 1.58049 13.4582
2.66273 1.59427 13.4692
2.66273 1.59427 13.4466
2.64895 1.60805 13.4812
2.66273 1.59427 13.4915
2.64895 1.60805 13.5048
2.64895 1.60805 13.4812
2.66273 1.59427 13.4692
2.66273 1.59427 13.4915
2.6903 1.5667 13.4915
2.6903 1.5667 13.4692
2.70409 1.55291 13.4812
2.69027 1.56673 13.288
2.67649 1.58051 13.2767
2.69027 1.56673 13.2654
2.67649 1.58051 13.2767
2.67649 1.58051 13.2541
2.69027 1.56673 13.2654
2.69027 1.56673 13.2428
2.70405 1.55295 13.2541
2.69027 1.56673 13.2654
2.69027 1.56673 13.2654
2.67649 1.58051 13.2541
2.69027 1.56673 13.2428
2.69027 1.56673 13.3106
2.67649 1.58051 13.2993
2.69027 1.56673 13.288
2.69027 1.56673 13.3106
2.70404 1.55296 13.3219
2.69027 1.56673 13.3332
2.8005 1.4565 13.3105
2.78672 1.47028 13.2992
2.8005 1.4565 13.2879
2.49736 1.75964 13.4915
2.49736 1.75964 13.5125
2.48358 1.77342 13.5048
2.52493 1.73207 13.4915
2.52493 1.73207 13.5125
2.51114 1.74586 13.5048
2.51114 1.74586 13.5048
2.51114 1.74586 13.4812
2.52493 1.73207 13.4915
2.51114 1.74586 13.5048
2.52493 1.73207 13.5125
2.49736 1.75964 13.5125
2.49736 1.75964 13.5125
2.49736 1.75964 13.4915
2.51114 1.74586 13.5048
2.51114 1.74586 13.5048
2.49736 1.75964 13.4915
2.51114 1.74586 13.4812
2.51114 1.74586 13.4812
2.49736 1.75964 13.4915
2.49736 1.75964 13.4692
2.56627 1.69073 13.5048
2.58005 1.67695 13.5125
2.55249 1.70451 13.5125
2.55249 1.70451 13.5125
2.55249 1.70451 13.4915
2.56627 1.69073 13.5048
2.56627 1.69073 13.5048
2.55249 1.70451 13.4915
2.56627 1.69073 13.4812
2.53871 1.71829 13.5048
2.52493 1.73207 13.5125
2.52493 1.73207 13.4915
2.55249 1.70451 13.5125
2.52493 1.73207 13.5125
2.53871 1.71829 13.5048
2.53871 1.71829 13.5048
2.55249 1.70451 13.4915
2.55249 1.70451 13.5125
2.55249 1.70451 13.4692
2.55249 1.70451 13.4915
2.53871 1.71829 13.4812
2.53871 1.71829 13.4812
2.53871 1.71829 13.4582
2.55249 1.70451 13.4692
2.53871 1.71829 13.4812
2.53871 1.71829 13.5048
2.52493 1.73207 13.4915
2.55249 1.70451 13.4915
2.53871 1.71829 13.5048
2.53871 1.71829 13.4812
2.55249 1.70451 13.4466
2.56627 1.69073 13.4582
2.55249 1.70451 13.4692
2.55249 1.70451 13.4466
2.53871 1.71829 13.4582
2.53871 1.71829 13.4353
2.55249 1.70451 13.4692
2.53871 1.71829 13.4582
2.55249 1.70451 13.4466
2.46978 1.78722 13.1751
2.48357 1.77343 13.1639
2.48357 1.77343 13.1864
2.48357 1.77343 13.1864
2.46978 1.78722 13.1977
2.46978 1.78722 13.1751
2.49736 1.75964 13.2202
2.49736 1.75964 13.2428
2.48357 1.77343 13.2315
2.46978 1.78722 13.1075
2.48357 1.77343 13.0963
2.48357 1.77343 13.1188
2.48357 1.77343 13.1188
2.48357 1.77343 13.0963
2.49735 1.75965 13.1075
2.46978 1.78722 13.1526
2.48357 1.77343 13.1639
2.46978 1.78722 13.1751
2.46978 1.78722 13.1526
2.48357 1.77343 13.1413
2.48357 1.77343 13.1639
2.51114 1.74586 13.0512
2.52492 1.73208 13.04
2.52492 1.73208 13.0625
2.52492 1.73208 13.0625
2.51114 1.74586 13.0738
2.51114 1.74586 13.0512
2.49735 1.75965 13.1075
2.48357 1.77343 13.0963
2.49735 1.75965 13.085
2.49735 1.75965 13.0625
2.51114 1.74586 13.0738
2.49735 1.75965 13.085
2.49736 1.75964 13.288
2.49736 1.75964 13.3106
2.48357 1.77343 13.2993
2.4284 1.8286 13.3672
2.4422 1.8148 13.3785
2.4284 1.8286 13.3899
2.3455 1.9115 13.5048
2.35934 1.89766 13.5125
2.33165 1.92535 13.5125
2.4146 1.8424 13.3785
2.4284 1.8286 13.3672
2.4284 1.8286 13.3899
2.4146 1.8424 13.3558
2.4284 1.8286 13.3672
2.4146 1.8424 13.3785
2.456 1.801 13.4353
2.46979 1.78721 13.4466
2.456 1.801 13.4582
2.456 1.801 13.4582
2.46979 1.78721 13.4466
2.46979 1.78721 13.4692
2.42841 1.82859 13.4582
2.42841 1.82859 13.4353
2.44221 1.81479 13.4466
2.44221 1.81479 13.4466
2.44221 1.81479 13.4692
2.42841 1.82859 13.4582
2.44221 1.81479 13.4466
2.4422 1.8148 13.4239
2.456 1.801 13.4353
2.42841 1.82859 13.4353
2.4422 1.8148 13.4239
2.44221 1.81479 13.4466
2.456 1.801 13.4353
2.456 1.801 13.4582
2.44221 1.81479 13.4466
2.44221 1.81479 13.4466
2.456 1.801 13.4582
2.44221 1.81479 13.4692
2.46979 1.78721 13.5125
2.44221 1.81479 13.5125
2.456 1.801 13.5048
2.456 1.801 13.5048
2.46979 1.78721 13.4914
2.46979 1.78721 13.5125
2.42841 1.82859 13.4582
2.44221 1.81479 13.4692
2.42841 1.82859 13.4812
2.16411 2.09289 13.5125
2.17682 2.08018 13.4961
2.1809 2.0761 13.5125
2.1809 2.0761 13.5125
2.17682 2.08018 13.4961
2.19211 2.06489 13.4903
2.19211 2.06489 13.4903
2.19593 2.06107 13.5125
2.1809 2.0761 13.5125
2.78688 1.47012 12.6207
2.77324 1.48376 12.6125
2.8005 1.4565 12.6125
2.77293 1.48407 12.656
2.78673 1.47027 12.6443
2.78669 1.47031 12.6672
2.8005 1.4565 12.7241
2.8005 1.4565 12.7467
2.7867 1.4703 12.7353
2.78669 1.47031 12.6672
2.78673 1.47027 12.6443
2.8005 1.4565 12.6564
2.8005 1.4565 12.6564
2.8005 1.4565 12.6789
2.78669 1.47031 12.6672
2.78669 1.47031 12.6672
2.8005 1.4565 12.6789
2.78669 1.47031 12.69
2.8005 1.4565 12.8371
2.78672 1.47028 12.8258
2.8005 1.4565 12.8145
2.78672 1.47028 12.8032
2.8005 1.4565 12.7919
2.8005 1.4565 12.8145
2.8005 1.4565 12.8145
2.78672 1.47028 12.8258
2.78672 1.47028 12.8032
2.8005 1.4565 12.7693
2.78671 1.47029 12.758
2.8005 1.4565 12.7467
2.66273 1.59427 12.6125
2.69029 1.56671 12.6125
2.67651 1.58049 12.6202
[...]
<PointData Scalars="View Factor" >
<DataArray type="Float64" Name="View Factor" NumberOfComponents="1" format="ascii">
0.690155
0.690155
0.690155
0.662148
0.662148
0.662148
0.662207
0.662207
0.662207
0.689554
0.689554
0.689554
0.721736
0.721736
0.721736
0.667804
0.667804
0.667804
0.722543
0.722543
0.722543
0.688305
0.688305
0.688305
0.691891
0.691891
0.691891
0.696516
0.696516
0.696516
0.661971
0.661971
0.661971
0.720473
0.720473
0.720473
0.722497
0.722497
0.722497
0.722744
0.722744
0.722744
0.72127
0.72127
0.72127
0.710445
0.710445
0.710445
0.712959
0.712959
0.712959
0.711332
0.711332
0.711332
0.691585
0.691585
0.691585
0.698
0.698
0.698
0.69152
0.69152
0.69152
0.685841
0.685841
0.685841
0.721052
0.721052
0.721052
0.721481
0.721481
0.721481
0.678033
0.678033
0.678033
0.682376
0.682376
0.682376
0.686409
0.686409
0.686409
0.682388
0.682388
0.682388
0.680245
0.680245
0.680245
0.686421
0.686421
0.686421
0.688317
0.688317
0.688317
0.693586
0.693586
0.693586
0.696764
0.696764
0.696764
0.693597
0.693597
0.693597
0.691903
0.691903
0.691903
0.691879
0.691879
0.691879
0.693573
0.693573
0.693573
0.704723
0.704723
0.704723
0.70225
0.70225
0.70225
0.722079
0.722079
0.722079
0.699709
0.699709
0.699709
0.696777
0.696777
0.696777
0.698266
0.698266
0.698266
0.696531
0.696531
0.696531
0.698016
0.698016
0.698016
0.700822
0.700822
0.700822
0.720536
0.720536
0.720536
0.720675
0.720675
0.720675
0.720334
0.720334
0.720334
0.721289
0.721289
0.721289
0.720307
0.720307
0.720307
0.721074
0.721074
0.721074
0.720583
0.720583
0.720583
0.720281
0.720281
0.720281
0.720557
0.720557
0.720557
0.721047
0.721047
0.721047
0.720224
0.720224
0.720224
0.722151
0.722151
0.722151
0.722177
0.722177
0.722177
0.722578
0.722578
0.722578
0.722317
0.722317
0.722317
0.720438
0.720438
0.720438
0.720362
0.720362
0.720362
0.72061
0.72061
0.72061
0.720636
0.720636
0.720636
0.721125
0.721125
0.721125
0.722617
0.722617
0.722617
0.722156
0.722156
0.722156
0.721532
0.721532
0.721532
0.721763
0.721763
0.721763
0.722737
0.722737
0.722737
0.722847
0.722847
0.722847
0.722767
0.722767
0.722767
0.722999
0.722999
0.722999
0.722871
0.722871
0.722871
0.722823
0.722823
0.722823
0.722923
0.722923
0.722923
0.720196
0.720196
0.720196
0.692995
0.692995
0.692995
0.701764
0.701764
0.701764
0.70046
0.70046
0.70046
0.699075
0.699075
0.699075
0.696164
0.696164
0.696164
0.697662
0.697662
0.697662
0.696183
0.696183
0.696183
0.712124
0.712124
0.712124
0.710424
0.710424
0.710424
0.711309
0.711309
0.711309
0.704226
0.704226
0.704226
0.706474
0.706474
0.706474
0.708542
0.708542
0.708542
0.708566
0.708566
0.708566
0.707568
0.707568
0.707568
0.705389
0.705389
0.705389
0.707546
0.707546
0.707546
0.710467
0.710467
0.710467
0.70759
0.70759
0.70759
0.708587
0.708587
0.708587
0.687988
0.687988
0.687988
0.686081
0.686081
0.686081
0.693214
0.693214
0.693214
0.688035
0.688035
0.688035
0.691616
0.691616
0.691616
0.686097
0.686097
0.686097
0.688004
0.688004
0.688004
0.70213
0.70213
0.70213
0.700806
0.700806
0.700806
0.69331
0.69331
0.69331
0.6965
0.6965
0.6965
0.693163
0.693163
0.693163
0.665136
0.665136
0.665136
0.660958
0.660958
0.660958
0.659478
0.659478
0.659478
0.65911
0.65911
0.65911
0.679732
0.679732
0.679732
0.681855
0.681855
0.681855
0.665089
0.665089
0.665089
0.667756
0.667756
0.667756
0.672832
0.672832
0.672832
0.667772
0.667772
0.667772
0.675215
0.675215
0.675215
0.672816
0.672816
0.672816
0.677467
0.677467
0.677467
0.681819
0.681819
0.681819
0.665073
0.665073
0.665073
0.661625
0.661625
0.661625
0.661542
0.661542
0.661542
0.661489
0.661489
0.661489
0.721404
0.721404
0.721404
0.721615
0.721615
0.721615
0.720801
0.720801
0.720801
0.721131
0.721131
0.721131
0.720861
0.720861
0.720861
0.721112
0.721112
0.721112
0.720717
0.720717
0.720717
0.72074
0.72074
0.72074
0.720989
0.720989
0.720989
0.720782
0.720782
0.720782
0.72322
0.72322
0.72322
0.722921
0.722921
0.722921
0.721682
0.721682
0.721682
0.720717
0.720717
0.720717
0.72138
0.72138
0.72138
0.722196
0.722196
0.722196
0.719033
0.719033
0.719033
0.71803
0.71803
0.71803
0.722313
0.722313
0.722313
0.722528
0.722528
0.722528
0.722297
0.722297
0.722297
0.722301
0.722301
0.722301
0.722676
0.722676
0.722676
0.721179
0.721179
0.721179
0.680233
0.680233
0.680233
0.71564
0.71564
0.71564
0.711105
0.711105
0.711105
0.716404
0.716404
0.716404
0.718964
0.718964
0.718964
0.717962
0.717962
0.717962
0.714171
0.714171
0.714171
0.715575
0.715575
0.715575
0.696634
0.696634
0.696634
0.693456
0.693456
0.693456
0.705872
0.705872
0.705872
0.704707
0.704707
0.704707
0.708024
0.708024
0.708024
0.705857
0.705857
0.705857
0.709027
0.709027
0.709027
0.708008
0.708008
0.708008
0.717998
0.717998
0.717998
0.712828
0.712828
0.712828
0.716418
0.716418
0.716418
0.715761
0.715761
0.715761
0.714355
0.714355
0.714355
0.717614
0.717614
0.717614
0.698253
0.698253
0.698253
0.701062
0.701062
0.701062
0.702374
0.702374
0.702374
0.696753
0.696753
0.696753
0.693356
0.693356
0.693356
0.67314
0.67314
0.67314
0.7109
0.7109
0.7109
0.709012
0.709012
0.709012
0.710866
0.710866
0.710866
0.711737
0.711737
0.711737
0.713354
0.713354
0.713354
0.700867
0.700867
0.700867
0.702192
0.702192
0.702192
0.682197
0.682197
0.682197
0.686228
0.686228
0.686228
0.688122
0.688122
0.688122
0.707944
0.707944
0.707944
0.71172
0.71172
0.71172
0.708964
0.708964
0.708964
0.71085
0.71085
0.71085
0.710833
0.710833
0.710833
0.708947
0.708947
0.708947
0.698032
0.698032
0.698032
0.722869
0.722869
0.722869
0.723245
0.723245
0.723245
0.723316
0.723316
0.723316
0.723293
0.723293
0.723293
0.722845
0.722845
0.722845
0.722966
0.722966
0.722966
0.722609
0.722609
0.722609
0.722588
0.722588
0.722588
0.722447
0.722447
0.722447
0.722425
0.722425
0.722425
0.722083
0.722083
0.722083
0.720489
0.720489
0.720489
0.720559
0.720559
0.720559
0.721298
0.721298
0.721298
0.720808
0.720808
0.720808
0.720785
0.720785
0.720785
0.720512
0.720512
0.720512
0.720762
0.720762
0.720762
0.721248
0.721248
0.721248
0.721408
0.721408
0.721408
0.720924
0.720924
0.720924
0.720606
0.720606
0.720606
0.720878
0.720878
0.720878
0.660911
0.660911
0.660911
0.662055
0.662055
0.662055
0.661926
0.661926
0.661926
0.72186
0.72186
0.72186
0.721261
0.721261
0.721261
0.721681
0.721681
0.721681
0.72229
0.72229
0.72229
0.720445
0.720445
0.720445
0.720168
0.720168
0.720168
0.721833
0.721833
0.721833
0.721656
0.721656
0.721656
0.720965
0.720965
0.720965
0.721806
0.721806
0.721806
0.721207
0.721207
0.721207
0.721628
0.721628
0.721628
0.702048
0.702048
0.702048
0.697937
0.697937
0.697937
0.70074
0.70074
0.70074
0.693279
0.693279
0.693279
0.696453
0.696453
0.696453
0.691601
0.691601
0.691601
0.693294
0.693294
0.693294
0.702114
0.702114
0.702114
0.710816
0.710816
0.710816
0.711703
0.711703
0.711703
0.713266
0.713266
0.713266
0.714032
0.714032
0.714032
0.721911
0.721911
0.721911
0.722942
0.722942
0.722942
0.723116
0.723116
0.723116
0.722658
0.722658
0.722658
0.722926
0.722926
0.722926
0.722918
0.722918
0.722918
0.722427
0.722427
0.722427
0.720419
0.720419
0.720419
0.72006
0.72006
0.72006
0.722895
0.722895
0.722895
0.72279
0.72279
0.72279
0.722814
0.722814
0.722814
0.722569
0.722569
0.722569
0.723093
0.723093
0.723093
0.723047
0.723047
0.723047
0.723024
0.723024
0.723024
0.723048
0.723048
0.723048
0.723071
0.723071
0.723071
0.723089
0.723089
0.723089
0.72293
0.72293
0.72293
0.722754
0.722754
0.722754
0.722928
0.722928
0.722928
0.721707
0.721707
0.721707
0.721885
0.721885
0.721885
0.722229
0.722229
0.722229
0.723225
0.723225
0.723225
0.723252
0.723252
0.723252
0.723273
0.723273
0.723273
0.723272
0.723272
0.723272
0.723312
0.723312
0.723312
0.723266
0.723266
0.723266
0.721415
0.721415
0.721415
0.721175
0.721175
0.721175
0.720687
0.720687
0.720687
0.721367
0.721367
0.721367
0.72139
0.72139
0.72139
0.721152
0.721152
0.721152
0.722721
0.722721
0.722721
0.721788
0.721788
0.721788
0.721558
0.721558
0.721558
0.722322
0.722322
0.722322
0.722586
0.722586
0.722586
0.722103
0.722103
0.722103
0.722377
0.722377
0.722377
0.722695
0.722695
0.722695
0.722589
0.722589
0.722589
0.722785
0.722785
0.722785
0.713813
0.713813
0.713813
0.722523
0.722523
0.722523
0.721778
0.721778
0.721778
0.721987
0.721987
0.721987
0.722357
0.722357
0.722357
0.722972
0.722972
0.722972
0.722949
0.722949
0.722949
0.708789
0.708789
0.708789
0.687747
0.687747
0.687747
0.691322
0.691322
0.691322
0.693015
0.693015
0.693015
0.68586
0.68586
0.68586
0.715753
0.715753
0.715753
0.716938
0.716938
0.716938
0.711354
0.711354
0.711354
0.715098
0.715098
0.715098
0.713701
0.713701
0.713701
0.713678
0.713678
0.713678
0.712935
0.712935
0.712935
0.71632
0.71632
0.71632
0.715074
0.715074
0.715074
0.71573
0.71573
0.71573
0.717469
0.717469
0.717469
0.718464
0.718464
0.718464
0.717446
0.717446
0.717446
0.716913
0.716913
0.716913
0.719304
0.719304
0.719304
0.718439
0.718439
0.718439
0.718902
0.718902
0.718902
0.720726
0.720726
0.720726
0.721027
0.721027
0.721027
0.720073
0.720073
0.720073
0.719717
0.719717
0.719717
0.693231
0.693231
0.693231
0.691553
0.691553
0.691553
0.687973
0.687973
0.687973
0.691537
0.691537
0.691537
0.696386
0.696386
0.696386
0.702013
0.702013
0.702013
0.696403
0.696403
0.696403
0.700689
0.700689
0.700689
0.697886
0.697886
0.697886
0.686112
0.686112
0.686112
0.686128
0.686128
0.686128
0.68802
0.68802
0.68802
0.704599
0.704599
0.704599
0.708931
0.708931
0.708931
0.705764
0.705764
0.705764
0.707928
0.707928
0.707928
0.691486
0.691486
0.691486
0.705431
0.705431
0.705431
0.707611
0.707611
0.707611
0.711376
0.711376
0.711376
0.708609
0.708609
0.708609
0.710489
0.710489
0.710489
0.705473
0.705473
0.705473
0.685915
0.685915
0.685915
0.687803
0.687803
0.687803
0.681873
0.681873
0.681873
0.685897
0.685897
0.685897
0.681908
0.681908
0.681908
0.672865
0.672865
0.672865
0.675265
0.675265
0.675265
0.679783
0.679783
0.679783
0.704329
0.704329
0.704329
0.687821
0.687821
0.687821
0.685933
0.685933
0.685933
0.68784
0.68784
0.68784
0.691416
0.691416
0.691416
0.700653
0.700653
0.700653
0.697869
0.697869
0.697869
0.693109
0.693109
0.693109
0.697816
0.697816
0.697816
0.696335
0.696335
0.696335
0.697834
0.697834
0.697834
0.665105
0.665105
0.665105
0.66512
0.66512
0.66512
0.667788
0.667788
0.667788
0.659433
0.659433
0.659433
0.675197
0.675197
0.675197
0.679696
0.679696
0.679696
0.681837
0.681837
0.681837
0.679714
0.679714
0.679714
0.662267
0.662267
0.662267
0.661454
0.661454
0.661454
0.66147
0.66147
0.66147
0.661446
0.661446
0.661446
0.661432
0.661432
0.661432
0.661466
0.661466
0.661466
0.661387
0.661387
0.661387
0.661409
0.661409
0.661409
0.66141
0.66141
0.66141
0.66144
0.66144
0.66144
0.6614
0.6614
0.6614
0.661558
0.661558
0.661558
0.661523
0.661523
0.661523
0.721847
0.721847
0.721847
0.721858
0.721858
0.721858
0.721629
0.721629
0.721629
0.720842
0.720842
0.720842
0.72088
0.72088
0.72088
0.720897
0.720897
0.720897
0.721147
0.721147
0.721147
0.721831
0.721831
0.721831
0.721597
0.721597
0.721597
0.72224
0.72224
0.72224
0.722578
0.722578
0.722578
0.720967
0.720967
0.720967
0.720696
0.720696
0.720696
0.720946
0.720946
0.720946
0.721031
0.721031
0.721031
0.72101
0.72101
0.72101
0.72076
0.72076
0.72076
0.723072
0.723072
0.723072
0.723055
0.723055
0.723055
0.722907
0.722907
0.722907
0.723628
0.723628
0.723628
0.723616
0.723616
0.723616
0.723621
0.723621
0.723621
0.720354
0.720354
0.720354
0.715625
0.715625
0.715625
0.716281
0.716281
0.716281
0.717474
0.717474
0.717474
0.718013
0.718013
0.718013
0.717457
0.717457
0.717457
0.716264
0.716264
0.716264
0.718047
0.718047
0.718047
0.715656
0.715656
0.715656
0.717491
0.717491
0.717491
0.716296
0.716296
0.716296
0.719065
0.719065
0.719065
0.719529
0.719529
0.719529
0.719048
0.719048
0.719048
0.7207
0.7207
0.7207
0.720338
0.720338
0.720338
0.719512
0.719512
0.719512
0.719496
0.719496
0.719496
0.72032
0.72032
0.72032
0.715687
0.715687
0.715687
0.714311
0.714311
0.714311
0.714296
0.714296
0.714296
0.713544
0.713544
0.713544
0.722409
0.722409
0.722409
0.723256
0.723256
0.723256
0.722264
0.722264
0.722264
0.723022
0.723022
0.723022
0.723039
0.723039
0.723039
0.722889
0.722889
0.722889
0.722874
0.722874
0.722874
0.722495
0.722495
0.722495
0.72251
0.72251
0.72251
0.72228
0.72228
0.72228
0.72151
0.72151
0.72151
0.721797
0.721797
0.721797
0.720575
0.720575
0.720575
0.720197
0.720197
0.720197
0.71941
0.71941
0.71941
0.720214
0.720214
0.720214
0.72207
0.72207
0.72207
0.722281
0.722281
0.722281
0.720519
0.720519
0.720519
0.721422
0.721422
0.721422
0.723114
0.723114
0.723114
0.719373
0.719373
0.719373
0.718909
0.718909
0.718909
0.721501
0.721501
0.721501
0.721199
0.721199
0.721199
0.721218
0.721218
0.721218
0.720558
0.720558
0.720558
0.682364
0.682364
0.682364
0.688293
0.688293
0.688293
0.686398
0.686398
0.686398
0.686386
0.686386
0.686386
0.673327
0.673327
0.673327
0.675717
0.675717
0.675717
0.702294
0.702294
0.702294
0.710961
0.710961
0.710961
0.714236
0.714236
0.714236
0.71422
0.71422
0.71422
0.713469
0.713469
0.713469
0.711833
0.711833
0.711833
0.713453
0.713453
0.713453
0.693536
0.693536
0.693536
0.691854
0.691854
0.691854
0.688281
0.688281
0.688281
0.707143
0.707143
0.707143
0.709212
0.709212
0.709212
0.715748
0.715748
0.715748
0.711077
0.711077
0.711077
0.711035
0.711035
0.711035
0.711021
0.711021
0.711021
0.711908
0.711908
0.711908
0.71898
0.71898
0.71898
0.719427
0.719427
0.719427
0.72025
0.72025
0.72025
0.722089
0.722089
0.722089
0.721577
0.721577
0.721577
0.680107
0.680107
0.680107
0.693469
0.693469
0.693469
0.691775
0.691775
0.691775
0.704751
0.704751
0.704751
0.709088
0.709088
0.709088
0.702265
0.702265
0.702265
0.696647
0.696647
0.696647
0.70094
0.70094
0.70094
0.698134
0.698134
0.698134
0.709073
0.709073
0.709073
0.708068
0.708068
0.708068
0.705902
0.705902
0.705902
0.704737
0.704737
0.704737
0.705887
0.705887
0.705887
0.708054
0.708054
0.708054
0.702237
0.702237
0.702237
0.700926
0.700926
0.700926
0.69812
0.69812
0.69812
0.717442
0.717442
0.717442
0.717981
0.717981
0.717981
0.716231
0.716231
0.716231
0.717424
0.717424
0.717424
0.711802
0.711802
0.711802
0.710915
0.710915
0.710915
0.71342
0.71342
0.71342
0.711787
0.711787
0.711787
0.717058
0.717058
0.717058
0.711979
0.711979
0.711979
0.713602
0.713602
0.713602
0.711965
0.711965
0.711965
0.711091
0.711091
0.711091
0.715776
0.715776
0.715776
0.716433
0.716433
0.716433
0.71579
0.71579
0.71579
0.714369
0.714369
0.714369
0.714382
0.714382
0.714382
0.713616
0.713616
0.713616
0.686142
0.686142
0.686142
0.682112
0.682112
0.682112
0.679984
0.679984
0.679984
0.668071
0.668071
0.668071
0.704693
0.704693
0.704693
0.705843
0.705843
0.705843
0.704678
0.704678
0.704678
0.71412
0.71412
0.71412
0.713371
0.713371
0.713371
0.715542
0.715542
0.715542
0.714137
0.714137
0.714137
0.714104
0.714104
0.714104
0.713338
0.713338
0.713338
0.702177
0.702177
0.702177
0.700852
0.700852
0.700852
0.704662
0.704662
0.704662
0.708996
0.708996
0.708996
0.707993
0.707993
0.707993
0.705827
0.705827
0.705827
0.700883
0.700883
0.700883
0.698076
0.698076
0.698076
0.69659
0.69659
0.69659
0.702207
0.702207
0.702207
0.675542
0.675542
0.675542
0.680068
0.680068
0.680068
0.691705
0.691705
0.691705
0.698062
0.698062
0.698062
0.696576
0.696576
0.696576
0.6934
0.6934
0.6934
0.705779
0.705779
0.705779
0.704631
0.704631
0.704631
0.702162
0.702162
0.702162
0.700838
0.700838
0.700838
0.704615
0.704615
0.704615
0.702146
0.702146
0.702146
0.691676
0.691676
0.691676
0.698046
0.698046
0.698046
0.696561
0.696561
0.696561
0.693385
0.693385
0.693385
0.691691
0.691691
0.691691
0.696546
0.696546
0.696546
0.69337
0.69337
0.69337
0.68012
0.68012
0.68012
0.68225
0.68225
0.68225
0.686283
0.686283
0.686283
0.688191
0.688191
0.688191
0.702279
0.702279
0.702279
0.700969
0.700969
0.700969
0.698162
0.698162
0.698162
0.696661
0.696661
0.696661
0.698148
0.698148
0.698148
0.700955
0.700955
0.700955
0.723159
0.723159
0.723159
0.722987
0.722987
0.722987
0.72289
0.72289
0.72289
0.723233
0.723233
0.723233
0.72318
0.72318
0.72318
0.72301
0.72301
0.72301
0.721536
0.721536
0.721536
0.721272
0.721272
0.721272
0.722108
0.722108
0.722108
0.721904
0.721904
0.721904
0.721487
0.721487
0.721487
0.721511
0.721511
0.721511
0.721929
0.721929
0.721929
0.720652
0.720652
0.720652
0.720901
0.720901
0.720901
0.720629
0.720629
0.720629
0.722195
0.722195
0.722195
0.721366
0.721366
0.721366
0.721388
0.721388
0.721388
0.721603
0.721603
0.721603
0.722017
0.722017
0.722017
0.722217
0.722217
0.722217
0.721623
0.721623
0.721623
0.722039
0.722039
0.722039
0.66195
0.66195
0.66195
0.661913
0.661913
0.661913
0.661899
0.661899
0.661899
0.660496
0.660496
0.660496
0.660239
0.660239
0.660239
0.660598
0.660598
0.660598
0.660834
0.660834
0.660834
0.66061
0.66061
0.66061
0.660484
0.660484
0.660484
0.659785
0.659785
0.659785
0.660471
0.660471
0.660471
0.660215
0.660215
0.660215
0.660072
0.660072
0.660072
0.659846
0.659846
0.659846
0.659701
0.659701
0.659701
0.659385
0.659385
0.659385
0.66218
0.66218
0.66218
0.66219
0.66219
0.66219
0.662147
0.662147
0.662147
0.662132
0.662132
0.662132
0.66204
0.66204
0.66204
0.662056
0.662056
0.662056
0.662009
0.662009
0.662009
0.660134
0.660134
0.660134
0.660943
0.660943
0.660943
0.720936
0.720936
0.720936
0.721179
0.721179
0.721179
0.7216
0.7216
0.7216
0.721723
0.721723
0.721723
0.721233
0.721233
0.721233
0.720253
0.720253
0.720253
0.720502
0.720502
0.720502
0.720992
0.720992
0.720992
0.72053
0.72053
0.72053
0.721018
0.721018
0.721018
0.705698
0.705698
0.705698
0.70455
0.70455
0.70455
0.702065
0.702065
0.702065
0.704534
0.704534
0.704534
0.700724
0.700724
0.700724
0.702031
0.702031
0.702031
0.700706
0.700706
0.700706
0.697903
0.697903
0.697903
0.691569
0.691569
0.691569
0.693263
0.693263
0.693263
0.696437
0.696437
0.696437
0.69792
0.69792
0.69792
0.693247
0.693247
0.693247
0.69642
0.69642
0.69642
0.704583
0.704583
0.704583
0.707911
0.707911
0.707911
0.705748
0.705748
0.705748
0.708914
0.708914
0.708914
0.702098
0.702098
0.702098
0.696485
0.696485
0.696485
0.697985
0.697985
0.697985
0.70079
0.70079
0.70079
0.704566
0.704566
0.704566
0.705731
0.705731
0.705731
0.707895
0.707895
0.707895
0.705714
0.705714
0.705714
0.70786
0.70786
0.70786
0.711633
0.711633
0.711633
0.713284
0.713284
0.713284
0.71405
0.71405
0.71405
0.72212
0.72212
0.72212
0.722493
0.722493
0.722493
0.722077
0.722077
0.722077
0.722449
0.722449
0.722449
0.722591
0.722591
0.722591
0.722837
0.722837
0.722837
0.722942
0.722942
0.722942
0.715453
0.715453
0.715453
0.717835
0.717835
0.717835
0.717298
0.717298
0.717298
0.716109
0.716109
0.716109
0.718835
0.718835
0.718835
0.7214
0.7214
0.7214
0.721099
0.721099
0.721099
0.720438
0.720438
0.720438
0.721119
0.721119
0.721119
0.723248
0.723248
0.723248
0.723168
0.723168
0.723168
0.723094
0.723094
0.723094
0.723146
0.723146
0.723146
0.722564
0.722564
0.722564
0.722823
0.722823
0.722823
0.722401
0.722401
0.722401
0.72292
0.72292
0.72292
0.72254
0.72254
0.72254
0.7228
0.7228
0.7228
0.723226
0.723226
0.723226
0.723252
0.723252
0.723252
0.722904
0.722904
0.722904
0.722986
0.722986
0.722986
0.723138
0.723138
0.723138
0.723008
0.723008
0.723008
0.723095
0.723095
0.723095
0.72307
0.72307
0.72307
0.723119
0.723119
0.723119
0.723137
0.723137
0.723137
0.723005
0.723005
0.723005
0.723085
0.723085
0.723085
0.723114
0.723114
0.723114
0.722952
0.722952
0.722952
0.723029
0.723029
0.723029
0.72311
0.72311
0.72311
0.723012
0.723012
0.723012
0.722973
0.722973
0.722973
0.723022
0.723022
0.723022
0.723041
0.723041
0.723041
0.722996
0.722996
0.722996
0.723016
0.723016
0.723016
0.722702
0.722702
0.722702
0.722878
0.722878
0.722878
0.721911
0.721911
0.721911
0.72228
0.72228
0.72228
0.721098
0.721098
0.721098
0.721938
0.721938
0.721938
0.721338
0.721338
0.721338
0.72176
0.72176
0.72176
0.721314
0.721314
0.721314
0.721733
0.721733
0.721733
0.723137
0.723137
0.723137
0.723295
0.723295
0.723295
0.723191
0.723191
0.723191
0.723269
0.723269
0.723269
0.723211
0.723211
0.723211
0.723291
0.723291
0.723291
0.723254
0.723254
0.723254
0.723337
0.723337
0.723337
0.723315
0.723315
0.723315
0.723333
0.723333
0.723333
0.723356
0.723356
0.723356
0.723134
0.723134
0.723134
0.723031
0.723031
0.723031
0.722783
0.722783
0.722783
0.722637
0.722637
0.722637
0.722657
0.722657
0.722657
0.722802
0.722802
0.722802
0.72305
0.72305
0.72305
0.722822
0.722822
0.722822
0.720738
0.720738
0.720738