<VTKFile type="UnstructuredGrid" version="1.0">
<UnstructuredGrid>
<Piece NumberOfPoints="11046" NumberOfCells="3682">
<Points>
<DataArray type="Float64" NumberOfComponents="3" format="ascii">
0.0582363 3.01 11.5868
0.05 3.01 11.5675
0.0717021 3.01 11.5675
0.95 3.01 11.9962
0.95 3.01 12.0352
0.942301 3.01 12.0157
0.0962623 3.01 12.4675
0.086422 3.01 12.4472
0.107711 3.01 12.4473
0.466226 3.01 12.2111
0.454968 3.01 12.2307
0.443707 3.01 12.2111
0.353567 3.01 12.1328
0.364839 3.01 12.1133
0.376113 3.01 12.1328
0.376113 3.01 12.1328
0.364843 3.01 12.1524
0.353567 3.01 12.1328
0.353567 3.01 12.1328
0.364843 3.01 12.1524
0.342292 3.01 12.1524
0.37611 3.01 12.0938
0.364837 3.01 12.0742
0.387379 3.01 12.0742
0.376113 3.01 12.1328
0.364839 3.01 12.1133
0.387381 3.01 12.1133
0.364839 3.01 12.1133
0.37611 3.01 12.0938
0.387381 3.01 12.1133
0.066417 3.01 12.4495
0.05 3.01 12.4675
0.05 3.01 12.4437
0.0582363 3.01 11.5868
0.0717021 3.01 11.5675
0.0817675 3.01 11.587
0.0817675 3.01 11.587
0.0711754 3.01 11.6064
0.0582363 3.01 11.5868
0.11641 3.01 11.5675
0.138968 3.01 11.5675
0.127475 3.01 11.587
0.127475 3.01 11.587
0.104722 3.01 11.587
0.11641 3.01 11.5675
0.0711754 3.01 11.6064
0.0817675 3.01 11.587
0.0934889 3.01 11.6065
0.0934889 3.01 11.6065
0.0817675 3.01 11.587
0.104722 3.01 11.587
0.116091 3.01 11.6065
0.104722 3.01 11.587
0.127475 3.01 11.587
0.116091 3.01 11.6065
0.0934889 3.01 11.6065
0.104722 3.01 11.587
0.116091 3.01 11.6065
0.127244 3.01 11.626
0.104394 3.01 11.626
0.104394 3.01 11.626
0.0934889 3.01 11.6065
0.116091 3.01 11.6065
0.941764 3.01 11.5868
0.928298 3.01 11.5675
0.95 3.01 11.5675
0.387379 3.01 12.0742
0.364837 3.01 12.0742
0.376108 3.01 12.0547
0.161282 3.01 11.9962
0.138583 3.01 11.9962
0.149908 3.01 11.9767
0.0933091 3.01 12.0742
0.0813038 3.01 12.0547
0.104333 3.01 12.0547
0.104333 3.01 12.0547
0.0813038 3.01 12.0547
0.0933065 3.01 12.0352
0.331016 3.01 12.1719
0.319739 3.01 12.1915
0.308447 3.01 12.1719
0.308447 3.01 12.1719
0.319729 3.01 12.1524
0.331016 3.01 12.1719
0.331016 3.01 12.1719
0.319729 3.01 12.1524
0.342292 3.01 12.1524
0.138613 3.01 12.1914
0.12718 3.01 12.1719
0.149933 3.01 12.1719
0.138613 3.01 12.1914
0.149933 3.01 12.1719
0.161316 3.01 12.1914
0.161316 3.01 12.1914
0.149933 3.01 12.1719
0.172648 3.01 12.1719
0.206681 3.01 12.1914
0.195336 3.01 12.1719
0.217999 3.01 12.1719
0.263262 3.01 12.1719
0.285863 3.01 12.1719
0.274572 3.01 12.1915
0.274559 3.01 12.1523
0.285863 3.01 12.1719
0.263262 3.01 12.1719
0.240697 3.01 11.587
0.229409 3.01 11.5675
0.252012 3.01 11.5675
0.138758 3.01 11.6065
0.116091 3.01 11.6065
0.127475 3.01 11.587
0.127244 3.01 11.626
0.116091 3.01 11.6065
0.138758 3.01 11.6065
0.229332 3.01 11.6455
0.206685 3.01 11.6455
0.218031 3.01 11.626
0.184016 3.01 11.6455
0.161325 3.01 11.6455
0.172705 3.01 11.626
0.184093 3.01 11.6065
0.172705 3.01 11.626
0.161431 3.01 11.6065
0.218082 3.01 11.587
0.229409 3.01 11.5675
0.240697 3.01 11.587
0.218082 3.01 11.587
0.206798 3.01 11.5675
0.229409 3.01 11.5675
0.138617 3.01 11.6455
0.161325 3.01 11.6455
0.149916 3.01 11.665
0.376107 3.01 11.9767
0.353559 3.01 11.9767
0.364834 3.01 11.9572
0.942264 3.01 12.211
0.95 3.01 12.1914
0.95 3.01 12.2306
0.466226 3.01 12.2111
0.443707 3.01 12.2111
0.454966 3.01 12.1915
0.466223 3.01 12.1328
0.477482 3.01 12.1133
0.488741 3.01 12.1328
0.466223 3.01 12.1328
0.454964 3.01 12.1524
0.443703 3.01 12.1328
0.511259 3.01 12.1328
0.522518 3.01 12.1133
0.533777 3.01 12.1328
0.533777 3.01 12.1328
0.522517 3.01 12.1524
0.511259 3.01 12.1328
0.488741 3.01 12.1328
0.477482 3.01 12.1133
0.5 3.01 12.1133
0.511259 3.01 12.1328
0.488741 3.01 12.1328
0.5 3.01 12.1133
0.5 3.01 12.1133
0.522518 3.01 12.1133
0.511259 3.01 12.1328
0.387388 3.01 12.1915
0.398653 3.01 12.1719
0.40992 3.01 12.1915
0.376117 3.01 12.1719
0.398653 3.01 12.1719
0.387388 3.01 12.1915
0.443703 3.01 12.1328
0.454964 3.01 12.1524
0.432443 3.01 12.1524
0.432443 3.01 12.1524
0.454964 3.01 12.1524
0.443705 3.01 12.1719
0.274559 3.01 12.1523
0.26325 3.01 12.1328
0.285853 3.01 12.1328
0.387384 3.01 12.1524
0.398653 3.01 12.1719
0.376117 3.01 12.1719
0.376117 3.01 12.1719
0.364843 3.01 12.1524
0.387384 3.01 12.1524
0.387384 3.01 12.1524
0.364843 3.01 12.1524
0.376113 3.01 12.1328
0.342292 3.01 12.1524
0.319729 3.01 12.1524
0.331009 3.01 12.1328
0.331009 3.01 12.1328
0.353567 3.01 12.1328
0.342292 3.01 12.1524
0.545011 3.01 12.4675
0.522505 3.01 12.4675
0.533759 3.01 12.4477
0.533762 3.01 12.4081
0.545018 3.01 12.3883
0.55627 3.01 12.4081
0.55627 3.01 12.4081
0.545018 3.01 12.3883
0.567528 3.01 12.3883
0.567528 3.01 12.3883
0.578788 3.01 12.3686
0.59004 3.01 12.3883
0.466232 3.01 12.3291
0.454974 3.01 12.3094
0.477488 3.01 12.3094
0.567516 3.01 12.4675
0.578772 3.01 12.4477
0.590022 3.01 12.4675
0.601316 3.01 12.3291
0.61257 3.01 12.3488
0.590051 3.01 12.3488
0.62384 3.01 12.3291
0.61257 3.01 12.3488
0.601316 3.01 12.3291
0.680198 3.01 12.3093
0.691494 3.01 12.2896
0.702757 3.01 12.3093
0.086422 3.01 12.4472
0.0962623 3.01 12.4675
0.073896 3.01 12.4675
0.073896 3.01 12.4675
0.066417 3.01 12.4495
0.086422 3.01 12.4472
0.05 3.01 12.4675
0.066417 3.01 12.4495
0.073896 3.01 12.4675
0.0721919 3.01 12.4279
0.066417 3.01 12.4495
0.05 3.01 12.4437
0.086422 3.01 12.4472
0.066417 3.01 12.4495
0.0721919 3.01 12.4279
0.118481 3.01 12.4675
0.0962623 3.01 12.4675
0.107711 3.01 12.4473
0.5 3.01 12.4675
0.477495 3.01 12.4675
0.488747 3.01 12.4477
0.432484 3.01 12.4675
0.409978 3.01 12.4675
0.421228 3.01 12.4477
0.443725 3.01 12.3686
0.421212 3.01 12.3686
0.432465 3.01 12.3488
0.319802 3.01 12.3093
0.331063 3.01 12.2896
0.342348 3.01 12.3093
0.353629 3.01 12.329
0.342348 3.01 12.3093
0.364886 3.01 12.3093
0.10433 3.01 12.0157
0.0933065 3.01 12.0352
0.0813011 3.01 12.0157
0.0939466 3.01 11.5675
0.11641 3.01 11.5675
0.104722 3.01 11.587
0.0939466 3.01 11.5675
0.0817675 3.01 11.587
0.0717021 3.01 11.5675
0.104722 3.01 11.587
0.0817675 3.01 11.587
0.0939466 3.01 11.5675
0.0933065 3.01 12.0352
0.0813038 3.01 12.0547
0.0710513 3.01 12.0352
0.0710513 3.01 12.0352
0.0813011 3.01 12.0157
0.0933065 3.01 12.0352
0.115908 3.01 12.1132
0.0933131 3.01 12.1132
0.104337 3.01 12.0937
0.104337 3.01 12.0937
0.127165 3.01 12.0937
0.115908 3.01 12.1132
0.104343 3.01 12.1328
0.0933131 3.01 12.1132
0.115908 3.01 12.1132
0.104343 3.01 12.1328
0.115915 3.01 12.1523
0.0933188 3.01 12.1523
0.942303 3.01 11.9767
0.95 3.01 11.9572
0.95 3.01 11.9962
0.92895 3.01 11.9572
0.95 3.01 11.9572
0.942303 3.01 11.9767
0.9187 3.01 11.9767
0.906695 3.01 11.9962
0.895671 3.01 11.9767
0.92895 3.01 11.9572
0.942303 3.01 11.9767
0.9187 3.01 11.9767
0.942316 3.01 11.7429
0.928965 3.01 11.7234
0.95 3.01 11.7234
0.95 3.01 11.8013
0.942309 3.01 11.7818
0.95 3.01 11.7623
0.942316 3.01 11.7429
0.95 3.01 11.7234
0.95 3.01 11.7623
0.95 3.01 11.6061
0.941764 3.01 11.5868
0.95 3.01 11.5675
0.95 3.01 11.6061
0.95 3.01 11.6453
0.942358 3.01 11.6257
0.612617 3.01 11.6454
0.635157 3.01 11.6454
0.623887 3.01 11.6649
0.895671 3.01 11.9767
0.884102 3.01 11.9572
0.906696 3.01 11.9572
0.906696 3.01 11.9572
0.9187 3.01 11.9767
0.895671 3.01 11.9767
0.92895 3.01 11.9572
0.9187 3.01 11.9767
0.906696 3.01 11.9572
0.353563 3.01 12.0938
0.37611 3.01 12.0938
0.364839 3.01 12.1133
0.364837 3.01 12.0742
0.37611 3.01 12.0938
0.353563 3.01 12.0938
0.297145 3.01 12.1133
0.319723 3.01 12.1133
0.308439 3.01 12.1328
0.308439 3.01 12.1328
0.285853 3.01 12.1328
0.297145 3.01 12.1133
0.308439 3.01 12.1328
0.331009 3.01 12.1328
0.319729 3.01 12.1524
0.319723 3.01 12.1133
0.331009 3.01 12.1328
0.308439 3.01 12.1328
0.17262 3.01 11.9767
0.161282 3.01 11.9962
0.149908 3.01 11.9767
0.138583 3.01 11.9962
0.161282 3.01 11.9962
0.149909 3.01 12.0157
0.149909 3.01 12.0157
0.127158 3.01 12.0157
0.138583 3.01 11.9962
0.149909 3.01 12.0157
0.172622 3.01 12.0157
0.161284 3.01 12.0352
0.161282 3.01 11.9962
0.172622 3.01 12.0157
0.149909 3.01 12.0157
0.240621 3.01 12.0937
0.217979 3.01 12.0937
0.229301 3.01 12.0742
0.229301 3.01 12.0742
0.217979 3.01 12.0937
0.206649 3.01 12.0742
0.195316 3.01 12.0937
0.206649 3.01 12.0742
0.217979 3.01 12.0937
0.115908 3.01 12.1132
0.127165 3.01 12.0937
0.138594 3.01 12.1132
0.0933091 3.01 12.0742
0.104333 3.01 12.0547
0.115904 3.01 12.0742
0.115904 3.01 12.0742
0.104333 3.01 12.0547
0.127161 3.01 12.0547
0.115904 3.01 12.0742
0.104337 3.01 12.0937
0.0933091 3.01 12.0742
0.127165 3.01 12.0937
0.104337 3.01 12.0937
0.115904 3.01 12.0742
0.115901 3.01 12.0352
0.104333 3.01 12.0547
0.0933065 3.01 12.0352
0.127161 3.01 12.0547
0.104333 3.01 12.0547
0.115901 3.01 12.0352
0.115901 3.01 12.0352
0.0933065 3.01 12.0352
0.10433 3.01 12.0157
0.10433 3.01 12.0157
0.127158 3.01 12.0157
0.115901 3.01 12.0352
0.183972 3.01 11.9962
0.17262 3.01 11.9767
0.195307 3.01 11.9767
0.161282 3.01 11.9962
0.17262 3.01 11.9767
0.183972 3.01 11.9962
0.183972 3.01 11.9962
0.172622 3.01 12.0157
0.161282 3.01 11.9962
0.263244 3.01 12.0937
0.240621 3.01 12.0937
0.251933 3.01 12.0742
0.229301 3.01 12.0742
0.240617 3.01 12.0547
0.251933 3.01 12.0742
0.251933 3.01 12.0742
0.240621 3.01 12.0937
0.229301 3.01 12.0742
0.274543 3.01 12.0352
0.263237 3.01 12.0157
0.285842 3.01 12.0157
0.285842 3.01 12.0157
0.263237 3.01 12.0157
0.274541 3.01 11.9962
0.319739 3.01 12.1915
0.331016 3.01 12.1719
0.3423 3.01 12.1915
0.297163 3.01 12.1915
0.285878 3.01 12.2111
0.274572 3.01 12.1915
0.308447 3.01 12.1719
0.319739 3.01 12.1915
0.297163 3.01 12.1915
0.297163 3.01 12.1915
0.285863 3.01 12.1719
0.308447 3.01 12.1719
0.274572 3.01 12.1915
0.285863 3.01 12.1719
0.297163 3.01 12.1915
0.183992 3.01 12.1523
0.195336 3.01 12.1719
0.172648 3.01 12.1719
0.183992 3.01 12.1523
0.172636 3.01 12.1328
0.195323 3.01 12.1328
0.184008 3.01 12.1914
0.161316 3.01 12.1914
0.172648 3.01 12.1719
0.172648 3.01 12.1719
0.195336 3.01 12.1719
0.184008 3.01 12.1914
0.184008 3.01 12.1914
0.206681 3.01 12.1914
0.195356 3.01 12.211
0.195336 3.01 12.1719
0.206681 3.01 12.1914
0.184008 3.01 12.1914
0.308434 3.01 12.0937
0.319723 3.01 12.1133
0.297145 3.01 12.1133
0.297145 3.01 12.1133
[...]
<PointData Scalars="View Factor" >
<DataArray type="Float64" Name="View Factor" NumberOfComponents="1" format="ascii">
0.855839
0.855839
0.855839
0.788121
0.788121
0.788121
0.854818
0.854818
0.854818
0.841678
0.841678
0.841678
0.846843
0.846843
0.846843
0.846833
0.846833
0.846833
0.847378
0.847378
0.847378
0.846308
0.846308
0.846308
0.846278
0.846278
0.846278
0.846288
0.846288
0.846288
0.855229
0.855229
0.855229
0.855745
0.855745
0.855745
0.855739
0.855739
0.855739
0.85501
0.85501
0.85501
0.855188
0.855188
0.855188
0.855618
0.855618
0.855618
0.855494
0.855494
0.855494
0.855182
0.855182
0.855182
0.855342
0.855342
0.855342
0.85517
0.85517
0.85517
0.855336
0.855336
0.855336
0.789594
0.789594
0.789594
0.846318
0.846318
0.846318
0.854339
0.854339
0.854339
0.855192
0.855192
0.855192
0.855202
0.855202
0.855202
0.848894
0.848894
0.848894
0.848904
0.848904
0.848904
0.848414
0.848414
0.848414
0.854412
0.854412
0.854412
0.854192
0.854192
0.854192
0.853965
0.853965
0.853965
0.852865
0.852865
0.852865
0.850695
0.850695
0.850695
0.850705
0.850705
0.850705
0.852263
0.852263
0.852263
0.854998
0.854998
0.854998
0.854991
0.854991
0.854991
0.852915
0.852915
0.852915
0.854084
0.854084
0.854084
0.854098
0.854098
0.854098
0.852612
0.852612
0.852612
0.85295
0.85295
0.85295
0.854558
0.854558
0.854558
0.846958
0.846958
0.846958
0.787978
0.787978
0.787978
0.841688
0.841688
0.841688
0.840279
0.840279
0.840279
0.84174
0.84174
0.84174
0.837092
0.837092
0.837092
0.837082
0.837082
0.837082
0.839519
0.839519
0.839519
0.838727
0.838727
0.838727
0.837925
0.837925
0.837925
0.845032
0.845032
0.845032
0.845644
0.845644
0.845644
0.84244
0.84244
0.84244
0.842429
0.842429
0.842429
0.850726
0.850726
0.850726
0.845654
0.845654
0.845654
0.846248
0.846248
0.846248
0.846258
0.846258
0.846258
0.848424
0.848424
0.848424
0.847916
0.847916
0.847916
0.835963
0.835963
0.835963
0.835146
0.835146
0.835146
0.83426
0.83426
0.83426
0.832421
0.832421
0.832421
0.840871
0.840871
0.840871
0.832351
0.832351
0.832351
0.830514
0.830514
0.830514
0.829515
0.829515
0.829515
0.821842
0.821842
0.821842
0.854946
0.854946
0.854946
0.855057
0.855057
0.855057
0.85516
0.85516
0.85516
0.855185
0.855185
0.855185
0.855074
0.855074
0.855074
0.85467
0.85467
0.85467
0.839232
0.839232
0.839232
0.84352
0.84352
0.84352
0.842945
0.842945
0.842945
0.848294
0.848294
0.848294
0.847237
0.847237
0.847237
0.855221
0.855221
0.855221
0.855353
0.855353
0.855353
0.85563
0.85563
0.85563
0.855499
0.855499
0.855499
0.855333
0.855333
0.855333
0.855343
0.855343
0.855343
0.855009
0.855009
0.855009
0.854852
0.854852
0.854852
0.854999
0.854999
0.854999
0.854979
0.854979
0.854979
0.788148
0.788148
0.788148
0.789291
0.789291
0.789291
0.794506
0.794506
0.794506
0.790949
0.790949
0.790949
0.789439
0.789439
0.789439
0.788274
0.788274
0.788274
0.788298
0.788298
0.788298
0.788418
0.788418
0.788418
0.788364
0.788364
0.788364
0.828968
0.828968
0.828968
0.796261
0.796261
0.796261
0.794514
0.794514
0.794514
0.792813
0.792813
0.792813
0.846863
0.846863
0.846863
0.846873
0.846873
0.846873
0.849417
0.849417
0.849417
0.849871
0.849871
0.849871
0.848925
0.848925
0.848925
0.848935
0.848935
0.848935
0.854112
0.854112
0.854112
0.85433
0.85433
0.85433
0.85454
0.85454
0.85454
0.854084
0.854084
0.854084
0.854093
0.854093
0.854093
0.852283
0.852283
0.852283
0.852623
0.852623
0.852623
0.852936
0.852936
0.852936
0.854665
0.854665
0.854665
0.855039
0.855039
0.855039
0.854881
0.854881
0.854881
0.855029
0.855029
0.855029
0.854862
0.854862
0.854862
0.855058
0.855058
0.855058
0.854891
0.854891
0.854891
0.855068
0.855068
0.855068
0.85491
0.85491
0.85491
0.853596
0.853596
0.853596
0.853858
0.853858
0.853858
0.853849
0.853849
0.853849
0.851559
0.851559
0.851559
0.851944
0.851944
0.851944
0.851935
0.851935
0.851935
0.850814
0.850814
0.850814
0.850823
0.850823
0.850823
0.848393
0.848393
0.848393
0.850256
0.850256
0.850256
0.849366
0.849366
0.849366
0.84983
0.84983
0.84983
0.850266
0.850266
0.850266
0.85346
0.85346
0.85346
0.85348
0.85348
0.85348
0.85371
0.85371
0.85371
0.853449
0.853449
0.853449
0.85315
0.85315
0.85315
0.853161
0.853161
0.853161
0.849427
0.849427
0.849427
0.849891
0.849891
0.849891
0.849901
0.849901
0.849901
0.849447
0.849447
0.849447
0.849387
0.849387
0.849387
0.849841
0.849841
0.849841
0.849397
0.849397
0.849397
0.849861
0.849861
0.849861
0.850287
0.850287
0.850287
0.850297
0.850297
0.850297
0.85153
0.85153
0.85153
0.85155
0.85155
0.85155
0.851499
0.851499
0.851499
0.851519
0.851519
0.851519
0.851126
0.851126
0.851126
0.851116
0.851116
0.851116
0.851505
0.851505
0.851505
0.851889
0.851889
0.851889
0.854598
0.854598
0.854598
0.854585
0.854585
0.854585
0.854809
0.854809
0.854809
0.854803
0.854803
0.854803
0.854579
0.854579
0.854579
0.854343
0.854343
0.854343
0.854337
0.854337
0.854337
0.854565
0.854565
0.854565
0.854784
0.854784
0.854784
0.854791
0.854791
0.854791
0.851882
0.851882
0.851882
0.851491
0.851491
0.851491
0.854117
0.854117
0.854117
0.854104
0.854104
0.854104
0.854357
0.854357
0.854357
0.854363
0.854363
0.854363
0.853548
0.853548
0.853548
0.853244
0.853244
0.853244
0.853237
0.853237
0.853237
0.853534
0.853534
0.853534
0.853821
0.853821
0.853821
0.853828
0.853828
0.853828
0.853569
0.853569
0.853569
0.853555
0.853555
0.853555
0.853258
0.853258
0.853258
0.853265
0.853265
0.853265
0.853848
0.853848
0.853848
0.853842
0.853842
0.853842
0.852605
0.852605
0.852605
0.852249
0.852249
0.852249
0.85293
0.85293
0.85293
0.852937
0.852937
0.852937
0.851799
0.851799
0.851799
0.851791
0.851791
0.851791
0.85057
0.85057
0.85057
0.850997
0.850997
0.850997
0.851391
0.851391
0.851391
0.851399
0.851399
0.851399
0.852908
0.852908
0.852908
0.853527
0.853527
0.853527
0.853222
0.853222
0.853222
0.853215
0.853215
0.853215
0.844565
0.844565
0.844565
0.846976
0.846976
0.846976
0.8458
0.8458
0.8458
0.845197
0.845197
0.845197
0.845206
0.845206
0.845206
0.845818
0.845818
0.845818
0.846393
0.846393
0.846393
0.846402
0.846402
0.846402
0.849532
0.849532
0.849532
0.84905
0.84905
0.84905
0.849121
0.849121
0.849121
0.848595
0.848595
0.848595
0.852569
0.852569
0.852569
0.849776
0.849776
0.849776
0.846038
0.846038
0.846038
0.846045
0.846045
0.846045
0.849295
0.849295
0.849295
0.848803
0.848803
0.848803
0.848286
0.848286
0.848286
0.802678
0.802678
0.802678
0.804209
0.804209
0.804209
0.804204
0.804204
0.804204
0.808635
0.808635
0.808635
0.805709
0.805709
0.805709
0.807187
0.807187
0.807187
0.805697
0.805697
0.805697
0.807187
0.807187
0.807187
0.805705
0.805705
0.805705
0.810063
0.810063
0.810063
0.789027
0.789027
0.789027
0.789039
0.789039
0.789039
0.79071
0.79071
0.79071
0.790721
0.790721
0.790721
0.842398
0.842398
0.842398
0.842409
0.842409
0.842409
0.845772
0.845772
0.845772
0.84579
0.84579
0.84579
0.845763
0.845763
0.845763
0.836228
0.836228
0.836228
0.836218
0.836218
0.836218
0.835342
0.835342
0.835342
0.840269
0.840269
0.840269
0.84101
0.84101
0.84101
0.841709
0.841709
0.841709
0.840249
0.840249
0.840249
0.841719
0.841719
0.841719
0.841
0.841
0.841
0.840969
0.840969
0.840969
0.840979
0.840979
0.840979
0.840239
0.840239
0.840239
0.842377
0.842377
0.842377
0.84782
0.84782
0.84782
0.847831
0.847831
0.847831
0.847316
0.847316
0.847316
0.847305
0.847305
0.847305
0.84677
0.84677
0.84677
0.843109
0.843109
0.843109
0.84441
0.84441
0.84441
0.843759
0.843759
0.843759
0.843099
0.843099
0.843099
0.84313
0.84313
0.84313
0.845052
0.845052
0.845052
0.844421
0.844421
0.844421
0.84378
0.84378
0.84378
0.84379
0.84379
0.84379
0.815849
0.815849
0.815849
0.819663
0.819663
0.819663
0.834201
0.834201
0.834201
0.835099
0.835099
0.835099
0.833293
0.833293
0.833293
0.836091
0.836091
0.836091
0.836102
0.836102
0.836102
0.837676
0.837676
0.837676
0.836854
0.836854
0.836854
0.83334
0.83334
0.83334
0.832409
0.832409
0.832409
0.828482
0.828482
0.828482
0.826356
0.826356
0.826356
0.827436
0.827436
0.827436
0.831468
0.831468
0.831468
0.830503
0.830503
0.830503
0.831479
0.831479
0.831479
0.838635
0.838635
0.838635
0.827499
0.827499
0.827499
0.827509
0.827509
0.827509
0.82302
0.82302
0.82302
0.829526
0.829526
0.829526
0.799356
0.799356
0.799356
0.800986
0.800986
0.800986
0.79936
0.79936
0.79936
0.816882
0.816882
0.816882
0.818154
0.818154
0.818154
0.819409
0.819409
0.819409
0.821774
0.821774
0.821774
0.821723
0.821723
0.821723
0.826438
0.826438
0.826438
0.814365
0.814365
0.814365
0.855284
0.855284
0.855284
0.855236
0.855236
0.855236
0.855217
0.855217
0.855217
0.854835
0.854835
0.854835
0.854981
0.854981
0.854981
0.852895
0.852895
0.852895
0.854512
0.854512
0.854512
0.854327
0.854327
0.854327
0.853228
0.853228
0.853228
0.849118
0.849118
0.849118
0.849144
0.849144
0.849144
0.83764
0.83764
0.83764
0.838452
0.838452
0.838452
0.836818
0.836818
0.836818
0.838464
0.838464
0.838464
0.837664
0.837664
0.837664
0.83683
0.83683
0.83683
0.844184
0.844184
0.844184
0.844791
0.844791
0.844791
0.844171
0.844171
0.844171
0.847104
0.847104
0.847104
0.842266
0.842266
0.842266
0.846634
0.846634
0.846634
0.846059
0.846059
0.846059
0.844828
0.844828
0.844828
0.844816
0.844816
0.844816
0.846597
0.846597
0.846597
0.845453
0.845453
0.845453
0.846022
0.846022
0.846022
0.845441
0.845441
0.845441
0.84661
0.84661
0.84661
0.846047
0.846047
0.846047
0.849267
0.849267
0.849267
0.848795
0.848795
0.848795
0.846681
0.846681
0.846681
0.847283
0.847283
0.847283
0.847787
0.847787
0.847787
0.847249
0.847249
0.847249
0.847798
0.847798
0.847798
0.847272
0.847272
0.847272
0.854127
0.854127
0.854127
0.854694
0.854694
0.854694
0.854181
0.854181
0.854181
0.854391
0.854391
0.854391
0.854851
0.854851
0.854851
0.854839
0.854839
0.854839
0.855006
0.855006
0.855006
0.855127
0.855127
0.855127
0.854983
0.854983
0.854983
0.855116
0.855116
0.855116
0.85561
0.85561
0.85561
0.855549
0.855549
0.855549
0.855465
0.855465
0.855465
0.855581
0.855581
0.855581
0.855539
0.855539
0.855539
0.855446
0.855446
0.855446
0.855552
0.855552
0.855552
0.855491
0.855491
0.855491
0.855522
0.855522
0.855522
0.855481
0.855481
0.855481
0.788174
0.788174
0.788174
0.789299
0.789299
0.789299
0.792795
0.792795
0.792795
0.792786
0.792786
0.792786
0.789273
0.789273
0.789273
0.79094
0.79094
0.79094
0.789264
0.789264
0.789264
0.790923
0.790923
0.790923
0.79793
0.79793
0.79793
0.791111
0.791111
0.791111
0.789446
0.789446
0.789446
0.78832
0.78832
0.78832
0.799744
0.799744
0.799744
0.791097
0.791097
0.791097
0.789551
0.789551
0.789551
0.789512
0.789512
0.789512
0.796525
0.796525
0.796525
0.831047
0.831047
0.831047
0.832989
0.832989
0.832989
0.832026
0.832026
0.832026
0.834781
0.834781
0.834781
0.834804
0.834804
0.834804
0.834796
0.834796
0.834796
0.830008
0.830008
0.830008
0.828976
0.828976
0.828976
0.822337
0.822337
0.822337
0.830038
0.830038
0.830038
0.822266
0.822266
0.822266
0.824614
0.824614
0.824614
0.81984
0.81984
0.81984
0.821062
0.821062
0.821062
0.814629
0.814629
0.814629
0.815966
0.815966
0.815966
0.818583
0.818583
0.818583
0.818575
0.818575
0.818575
0.806081
0.806081
0.806081
0.804543
0.804543
0.804543
0.842818
0.842818
0.842818
0.842109
0.842109
0.842109
0.845441
0.845441
0.845441
0.835701
0.835701
0.835701
0.847127
0.847127
0.847127
0.845969
0.845969
0.845969
0.846554
0.846554
0.846554
0.817268
0.817268
0.817268
0.825735
0.825735
0.825735
0.827912
0.827912
0.827912
0.826839
0.826839
0.826839
0.810325
0.810325
0.810325
0.813147
0.813147
0.813147
0.811755
0.811755
0.811755
0.811746
0.811746
0.811746
0.81313
0.81313
0.81313
0.847409
0.847409
0.847409
0.847399
0.847399
0.847399
0.847926
0.847926
0.847926
0.848445
0.848445
0.848445
0.85383
0.85383
0.85383
0.854531
0.854531
0.854531
0.854714
0.854714
0.854714
0.854723
0.854723
0.854723
0.854311
0.854311
0.854311
0.854175
0.854175
0.854175
0.854166
0.854166
0.854166
0.852243
0.852243
0.852243
0.852222
0.852222
0.852222
0.851885
0.851885
0.851885
0.851874
0.851874
0.851874
0.852896
0.852896
0.852896
0.853192
0.853192
0.853192
0.853181
0.853181
0.853181
0.852876
0.852876
0.852876
0.852563
0.852563
0.852563
0.852573
0.852573
0.852573
0.852906
0.852906
0.852906
0.852926
0.852926
0.852926
0.852273
0.852273
0.852273
0.852603
0.852603
0.852603
0.852593
0.852593
0.852593
0.852253
0.852253
0.852253
0.851905
0.851905
0.851905
0.851915
0.851915
0.851915
0.85349
0.85349
0.85349
0.853212
0.853212
0.853212
0.853222
0.853222
0.853222
0.85351
0.85351
0.85351
0.853762
0.853762
0.853762
0.853772
0.853772
0.853772
0.853975
0.853975
0.853975
0.853731
0.853731
0.853731
0.853741
0.853741
0.853741
0.854695
0.854695
0.854695
0.854685
0.854685
0.854685
0.851645
0.851645
0.851645
0.850842
0.850842
0.850842
0.849987
0.849987
0.849987
0.851215
0.851215
0.851215
0.851608
0.851608
0.851608
0.852661
0.852661
0.852661
0.852331
0.852331
0.852331
0.851973
0.851973
0.851973
0.851964
0.851964
0.851964
0.852984
0.852984
0.852984
0.85328
0.85328
0.85328
0.853578
0.853578
0.853578
0.853568
0.853568
0.853568
0.85202
0.85202
0.85202
0.852368
0.852368
0.852368
0.851176
0.851176
0.851176
0.850766
0.850766
0.850766
0.850347
0.850347
0.850347
0.849041
0.849041
0.849041
0.848013
0.848013
0.848013
0.848031
0.848031
0.848031
0.848531
0.848531
0.848531
0.848541
0.848541
0.848541
0.846948
0.846948
0.846948
0.847495
0.847495
0.847495
0.847485
0.847485
0.847485
0.84693
0.84693
0.84693
0.846365
0.846365
0.846365
0.846374
0.846374
0.846374
0.84692
0.84692
0.84692
0.846346
0.846346
0.846346
0.846337
0.846337
0.846337
0.850386
0.850386
0.850386
0.847885
0.847885
0.847885
0.846812
0.846812
0.846812
0.847368
0.847368
0.847368
0.847895
0.847895
0.847895
0.847337
0.847337
0.847337
0.846781
0.846781
0.846781
0.846217
0.846217
0.846217
0.846227
0.846227
0.846227
0.846802
0.846802
0.846802
0.847347
0.847347
0.847347
0.8537
0.8537
0.8537
0.853944
0.853944
0.853944
0.853933
0.853933
0.853933
0.853678
0.853678
0.853678
0.853428
0.853428
0.853428
0.853418
0.853418
0.853418
0.850736
0.850736
0.850736
0.850756
0.850756
0.850756
0.850318
0.850318
0.850318
0.850328
0.850328
0.850328
0.851157
0.851157
0.851157
0.851147
0.851147
0.851147
0.847946
0.847946
0.847946
0.848455
0.848455
0.848455
0.848955
0.848955
0.848955
0.848965
0.848965
0.848965
0.85222
0.85222
0.85222
0.851483
0.851483
0.851483
0.851074
0.851074
0.851074
0.851067
0.851067
0.851067
0.851469
0.851469
0.851469
0.854665
0.854665
0.854665
0.850562
0.850562
0.850562
0.850545
0.850545
0.850545
0.850981
0.850981
0.850981
0.850973
0.850973
0.850973
0.848696
0.848696
0.848696
0.849661
0.849661
0.849661
0.850116
0.850116
0.850116
0.850108
0.850108
0.850108
0.853093
0.853093
0.853093
0.849095
0.849095
0.849095
0.849104
0.849104
0.849104
0.853512
0.853512
0.853512
0.84754
0.84754
0.84754
0.846985
0.846985
0.846985
0.848559
0.848559
0.848559
0.848041
0.848041
0.848041
0.847513
0.847513
0.847513
0.847522
0.847522
0.847522
0.849541
0.849541
0.849541
0.84913
0.84913
0.84913
0.848085
0.848085
0.848085
0.847549
0.847549
0.847549
0.848621
0.848621
0.848621
0.848612
0.848612
0.848612
0.848094
0.848094
0.848094
0.848112
0.848112
0.848112
0.847575
0.847575
0.847575
0.847566
0.847566
0.847566
0.850202
0.850202
0.850202
0.85064
0.85064
0.85064
0.852561
0.852561
0.852561
0.852546
0.852546
0.852546
0.852893
0.852893
0.852893
0.852885
0.852885
0.852885
0.851815
0.851815
0.851815
0.850676
0.850676
0.850676
0.851096
0.851096
0.851096
0.851089
0.851089
0.851089
0.850232
0.850232
0.850232
0.847758
0.847758
0.847758
0.846637
0.846637
0.846637
0.847203
0.847203
0.847203
0.848257
0.848257
0.848257
0.848279
0.848279
0.848279
0.848264
0.848264
0.848264
0.802663
0.802663
0.802663
0.807179
0.807179
0.807179
0.81007
0.81007
0.81007
0.810069
0.810069
0.810069
0.808639
0.808639
0.808639
0.80864
0.80864
0.80864
0.810067
0.810067
0.810067
0.811472
0.811472
0.811472
0.811469
0.811469
0.811469
0.787857
0.787857
0.787857
0.787882
0.787882
0.787882
0.789072
0.789072
0.789072
0.789062
0.789062
0.789062
0.787948
0.787948
0.787948
0.787916
0.787916
0.787916
0.797699
0.797699
0.797699
0.800992
0.800992
0.800992
0.837062
0.837062
0.837062
0.837052
0.837052
0.837052
0.834434
0.834434
0.834434
0.835331
0.835331
0.835331
0.836197
0.836197
0.836197
0.84314
0.84314
0.84314
0.84381
0.84381
0.84381
0.84382
0.84382
0.84382
0.843159
0.843159
0.843159
0.843198
0.843198
0.843198
0.841808
0.841808
0.841808
0.842518
0.842518
0.842518
0.844538
0.844538
0.844538
0.844556
0.844556
0.844556
0.845178
0.845178
0.845178
0.845169
0.845169
0.845169
0.843217
0.843217
0.843217
0.842527
0.842527
0.842527
0.841827
0.841827
0.841827
0.84515
0.84515
0.84515
0.844528
0.844528
0.844528
0.843868
0.843868
0.843868
0.843878
0.843878
0.843878
0.841088
0.841088
0.841088
0.840338
0.840338
0.840338
0.839577
0.839577
0.839577
0.841097
0.841097
0.841097
0.839586
0.839586
0.839586
0.840357
0.840357
0.840357
0.840366
0.840366
0.840366
0.831658
0.831658
0.831658
0.83067
0.83067
0.83067
0.831667
0.831667
0.831667
0.83069
0.83069
0.83069
0.831687
0.831687
0.831687
0.8307
0.8307
0.8307
0.824331
0.824331
0.824331
0.825451
0.825451
0.825451
0.836248
0.836248
0.836248
0.836257
0.836257
0.836257
0.837935
0.837935
0.837935
0.837112
0.837112
0.837112
0.837955
0.837955
0.837955
0.837122
0.837122
0.837122
0.835362
0.835362
0.835362
0.835372
0.835372
0.835372
0.840218
0.840218
0.840218
0.838656
0.838656
0.838656
0.848328
0.848328
0.848328
0.84929
0.84929
0.84929
0.848317
0.848317
0.848317
0.848807
0.848807
0.848807
0.849766
0.849766
0.849766
0.849301
0.849301
0.849301
0.848829
0.848829
0.848829
0.843068
0.843068
0.843068
0.843749
0.843749
0.843749
0.843078
0.843078
0.843078
0.846749
0.846749
0.846749
0.846738
0.846738
0.846738
0.843014
0.843014
0.843014
0.845062
0.845062
0.845062
0.844441
0.844441
0.844441
0.845675
0.845675
0.845675
0.845685
0.845685
0.845685
0.845083
0.845083
0.845083
0.844451
0.844451
0.844451
0.820802
0.820802
0.820802
0.822007
0.822007
0.822007
0.823177
0.823177
0.823177
0.821949
0.821949
0.821949
0.834454
0.834454
0.834454
0.832612
0.832612
0.832612
0.833554
0.833554
0.833554
0.834464
0.834464
0.834464
0.83066
0.83066
0.83066
0.825353
0.825353
0.825353
0.826448
0.826448
0.826448
0.82193
0.82193
0.82193
0.819618
0.819618
0.819618
0.819609
0.819609
0.819609
0.819581
0.819581
0.819581
0.81959
0.81959
0.81959
0.836277
0.836277
0.836277
0.826613
0.826613
0.826613
0.825508
0.825508
0.825508
0.817105
0.817105
0.817105
0.817087
0.817087
0.817087
0.81838
0.81838
0.81838
0.81837
0.81837
0.81837
0.817114
0.817114
0.817114
0.818398
0.818398
0.818398
0.818407
0.818407
0.818407
0.815813
0.815813
0.815813
0.81584
0.81584
0.81584
0.814494
0.814494
0.814494
0.814503
0.814503
0.814503
0.815822
0.815822
0.815822
0.817141
0.817141
0.817141
0.817132
0.817132
0.817132
0.820885
0.820885
0.820885
0.820849
0.820849
0.820849
0.822044
0.822044
0.822044
0.823224
0.823224
0.823224
0.835134
0.835134
0.835134
0.835999
0.835999
0.835999
0.835987
0.835987
0.835987
0.835111
0.835111
0.835111
0.834271
0.834271
0.834271
0.835169
0.835169
0.835169
0.833363
0.833363
0.833363
0.835181
0.835181
0.835181
0.835236
0.835236
0.835236
0.83344
0.83344
0.83344
0.830536
0.830536
0.830536
0.836034
0.836034
0.836034
0.836023
0.836023
0.836023
0.836866
0.836866
0.836866
0.826345
0.826345
0.826345
0.843651
0.843651
0.843651
0.842312
0.842312
0.842312
0.843002
0.843002
0.843002
0.843662
0.843662
0.843662
0.843628
0.843628
0.843628
0.843616
0.843616
0.843616
0.84159
0.84159
0.84159
0.842301
0.842301
0.842301
0.84298
0.84298
0.84298
0.842968
0.842968
0.842968
0.842278
0.842278
0.842278
0.841579
0.841579
0.841579
0.842367
0.842367
0.842367
0.841657
0.841657
0.841657
0.839426
0.839426
0.839426
0.840187
0.840187
0.840187
0.840937
0.840937
0.840937
0.839437
0.839437
0.839437
0.840948
0.840948
0.840948
0.840208
0.840208
0.840208
0.838624
0.838624
0.838624
0.836956
0.836956
0.836956
0.838602
0.838602
0.838602
0.839394
0.839394
0.839394
0.840176
0.840176
0.840176
0.839405
0.839405
0.839405
0.840143
0.840143
0.840143
0.840882
0.840882
0.840882
0.841613
0.841613
0.841613
0.840154
0.840154
0.840154
0.83063
0.83063
0.83063
0.83064
0.83064
0.83064
0.828535
0.828535
0.828535
0.828545
0.828545
0.828545
0.828566
0.828566
0.828566
0.819418
0.819418
0.819418
0.820647
0.820647
0.820647
0.816917
0.816917
0.816917
0.827478
0.827478
0.827478
0.825262
0.825262
0.825262
0.816835
0.816835