<VTKFile type="UnstructuredGrid" version="1.0">
<UnstructuredGrid>
<Piece NumberOfPoints="11046" NumberOfCells="3682">
<Points>
<DataArray type="Float64" NumberOfComponents="3" format="ascii">
0.0582363 3.01 13.6768
0.05 3.01 13.6575
0.0717021 3.01 13.6575
0.95 3.01 14.0862
0.95 3.01 14.1252
0.942301 3.01 14.1057
0.0962623 3.01 14.5575
0.086422 3.01 14.5372
0.107711 3.01 14.5373
0.466226 3.01 14.3011
0.454968 3.01 14.3207
0.443707 3.01 14.3011
0.353567 3.01 14.2228
0.364839 3.01 14.2033
0.376113 3.01 14.2228
0.376113 3.01 14.2228
0.364843 3.01 14.2424
0.353567 3.01 14.2228
0.353567 3.01 14.2228
0.364843 3.01 14.2424
0.342292 3.01 14.2424
0.37611 3.01 14.1838
0.364837 3.01 14.1642
0.387379 3.01 14.1642
0.376113 3.01 14.2228
0.364839 3.01 14.2033
0.387381 3.01 14.2033
0.364839 3.01 14.2033
0.37611 3.01 14.1838
0.387381 3.01 14.2033
0.066417 3.01 14.5395
0.05 3.01 14.5575
0.05 3.01 14.5337
0.0582363 3.01 13.6768
0.0717021 3.01 13.6575
0.0817675 3.01 13.677
0.0817675 3.01 13.677
0.0711754 3.01 13.6964
0.0582363 3.01 13.6768
0.11641 3.01 13.6575
0.138968 3.01 13.6575
0.127475 3.01 13.677
0.127475 3.01 13.677
0.104722 3.01 13.677
0.11641 3.01 13.6575
0.0711754 3.01 13.6964
0.0817675 3.01 13.677
0.0934889 3.01 13.6965
0.0934889 3.01 13.6965
0.0817675 3.01 13.677
0.104722 3.01 13.677
0.116091 3.01 13.6965
0.104722 3.01 13.677
0.127475 3.01 13.677
0.116091 3.01 13.6965
0.0934889 3.01 13.6965
0.104722 3.01 13.677
0.116091 3.01 13.6965
0.127244 3.01 13.716
0.104394 3.01 13.716
0.104394 3.01 13.716
0.0934889 3.01 13.6965
0.116091 3.01 13.6965
0.941764 3.01 13.6768
0.928298 3.01 13.6575
0.95 3.01 13.6575
0.387379 3.01 14.1642
0.364837 3.01 14.1642
0.376108 3.01 14.1447
0.161282 3.01 14.0862
0.138583 3.01 14.0862
0.149908 3.01 14.0667
0.0933091 3.01 14.1642
0.0813038 3.01 14.1447
0.104333 3.01 14.1447
0.104333 3.01 14.1447
0.0813038 3.01 14.1447
0.0933065 3.01 14.1252
0.331016 3.01 14.2619
0.319739 3.01 14.2815
0.308447 3.01 14.2619
0.308447 3.01 14.2619
0.319729 3.01 14.2424
0.331016 3.01 14.2619
0.331016 3.01 14.2619
0.319729 3.01 14.2424
0.342292 3.01 14.2424
0.138613 3.01 14.2814
0.12718 3.01 14.2619
0.149933 3.01 14.2619
0.138613 3.01 14.2814
0.149933 3.01 14.2619
0.161316 3.01 14.2814
0.161316 3.01 14.2814
0.149933 3.01 14.2619
0.172648 3.01 14.2619
0.206681 3.01 14.2814
0.195336 3.01 14.2619
0.217999 3.01 14.2619
0.263262 3.01 14.2619
0.285863 3.01 14.2619
0.274572 3.01 14.2815
0.274559 3.01 14.2423
0.285863 3.01 14.2619
0.263262 3.01 14.2619
0.240697 3.01 13.677
0.229409 3.01 13.6575
0.252012 3.01 13.6575
0.138758 3.01 13.6965
0.116091 3.01 13.6965
0.127475 3.01 13.677
0.127244 3.01 13.716
0.116091 3.01 13.6965
0.138758 3.01 13.6965
0.229332 3.01 13.7355
0.206685 3.01 13.7355
0.218031 3.01 13.716
0.184016 3.01 13.7355
0.161325 3.01 13.7355
0.172705 3.01 13.716
0.184093 3.01 13.6965
0.172705 3.01 13.716
0.161431 3.01 13.6965
0.218082 3.01 13.677
0.229409 3.01 13.6575
0.240697 3.01 13.677
0.218082 3.01 13.677
0.206798 3.01 13.6575
0.229409 3.01 13.6575
0.138617 3.01 13.7355
0.161325 3.01 13.7355
0.149916 3.01 13.755
0.376107 3.01 14.0667
0.353559 3.01 14.0667
0.364834 3.01 14.0472
0.942264 3.01 14.301
0.95 3.01 14.2814
0.95 3.01 14.3206
0.466226 3.01 14.3011
0.443707 3.01 14.3011
0.454966 3.01 14.2815
0.466223 3.01 14.2228
0.477482 3.01 14.2033
0.488741 3.01 14.2228
0.466223 3.01 14.2228
0.454964 3.01 14.2424
0.443703 3.01 14.2228
0.511259 3.01 14.2228
0.522518 3.01 14.2033
0.533777 3.01 14.2228
0.533777 3.01 14.2228
0.522517 3.01 14.2424
0.511259 3.01 14.2228
0.488741 3.01 14.2228
0.477482 3.01 14.2033
0.5 3.01 14.2033
0.511259 3.01 14.2228
0.488741 3.01 14.2228
0.5 3.01 14.2033
0.5 3.01 14.2033
0.522518 3.01 14.2033
0.511259 3.01 14.2228
0.387388 3.01 14.2815
0.398653 3.01 14.2619
0.40992 3.01 14.2815
0.376117 3.01 14.2619
0.398653 3.01 14.2619
0.387388 3.01 14.2815
0.443703 3.01 14.2228
0.454964 3.01 14.2424
0.432443 3.01 14.2424
0.432443 3.01 14.2424
0.454964 3.01 14.2424
0.443705 3.01 14.2619
0.274559 3.01 14.2423
0.26325 3.01 14.2228
0.285853 3.01 14.2228
0.387384 3.01 14.2424
0.398653 3.01 14.2619
0.376117 3.01 14.2619
0.376117 3.01 14.2619
0.364843 3.01 14.2424
0.387384 3.01 14.2424
0.387384 3.01 14.2424
0.364843 3.01 14.2424
0.376113 3.01 14.2228
0.342292 3.01 14.2424
0.319729 3.01 14.2424
0.331009 3.01 14.2228
0.331009 3.01 14.2228
0.353567 3.01 14.2228
0.342292 3.01 14.2424
0.545011 3.01 14.5575
0.522505 3.01 14.5575
0.533759 3.01 14.5377
0.533762 3.01 14.4981
0.545018 3.01 14.4783
0.55627 3.01 14.4981
0.55627 3.01 14.4981
0.545018 3.01 14.4783
0.567528 3.01 14.4783
0.567528 3.01 14.4783
0.578788 3.01 14.4586
0.59004 3.01 14.4783
0.466232 3.01 14.4191
0.454974 3.01 14.3994
0.477488 3.01 14.3994
0.567516 3.01 14.5575
0.578772 3.01 14.5377
0.590022 3.01 14.5575
0.601316 3.01 14.4191
0.61257 3.01 14.4388
0.590051 3.01 14.4388
0.62384 3.01 14.4191
0.61257 3.01 14.4388
0.601316 3.01 14.4191
0.680198 3.01 14.3993
0.691494 3.01 14.3796
0.702757 3.01 14.3993
0.086422 3.01 14.5372
0.0962623 3.01 14.5575
0.073896 3.01 14.5575
0.073896 3.01 14.5575
0.066417 3.01 14.5395
0.086422 3.01 14.5372
0.05 3.01 14.5575
0.066417 3.01 14.5395
0.073896 3.01 14.5575
0.0721919 3.01 14.5179
0.066417 3.01 14.5395
0.05 3.01 14.5337
0.086422 3.01 14.5372
0.066417 3.01 14.5395
0.0721919 3.01 14.5179
0.118481 3.01 14.5575
0.0962623 3.01 14.5575
0.107711 3.01 14.5373
0.5 3.01 14.5575
0.477495 3.01 14.5575
0.488747 3.01 14.5377
0.432484 3.01 14.5575
0.409978 3.01 14.5575
0.421228 3.01 14.5377
0.443725 3.01 14.4586
0.421212 3.01 14.4586
0.432465 3.01 14.4388
0.319802 3.01 14.3993
0.331063 3.01 14.3796
0.342348 3.01 14.3993
0.353629 3.01 14.419
0.342348 3.01 14.3993
0.364886 3.01 14.3993
0.10433 3.01 14.1057
0.0933065 3.01 14.1252
0.0813011 3.01 14.1057
0.0939466 3.01 13.6575
0.11641 3.01 13.6575
0.104722 3.01 13.677
0.0939466 3.01 13.6575
0.0817675 3.01 13.677
0.0717021 3.01 13.6575
0.104722 3.01 13.677
0.0817675 3.01 13.677
0.0939466 3.01 13.6575
0.0933065 3.01 14.1252
0.0813038 3.01 14.1447
0.0710513 3.01 14.1252
0.0710513 3.01 14.1252
0.0813011 3.01 14.1057
0.0933065 3.01 14.1252
0.115908 3.01 14.2032
0.0933131 3.01 14.2032
0.104337 3.01 14.1837
0.104337 3.01 14.1837
0.127165 3.01 14.1837
0.115908 3.01 14.2032
0.104343 3.01 14.2228
0.0933131 3.01 14.2032
0.115908 3.01 14.2032
0.104343 3.01 14.2228
0.115915 3.01 14.2423
0.0933188 3.01 14.2423
0.942303 3.01 14.0667
0.95 3.01 14.0472
0.95 3.01 14.0862
0.92895 3.01 14.0472
0.95 3.01 14.0472
0.942303 3.01 14.0667
0.9187 3.01 14.0667
0.906695 3.01 14.0862
0.895671 3.01 14.0667
0.92895 3.01 14.0472
0.942303 3.01 14.0667
0.9187 3.01 14.0667
0.942316 3.01 13.8329
0.928965 3.01 13.8134
0.95 3.01 13.8134
0.95 3.01 13.8913
0.942309 3.01 13.8718
0.95 3.01 13.8523
0.942316 3.01 13.8329
0.95 3.01 13.8134
0.95 3.01 13.8523
0.95 3.01 13.6961
0.941764 3.01 13.6768
0.95 3.01 13.6575
0.95 3.01 13.6961
0.95 3.01 13.7353
0.942358 3.01 13.7157
0.612617 3.01 13.7354
0.635157 3.01 13.7354
0.623887 3.01 13.7549
0.895671 3.01 14.0667
0.884102 3.01 14.0472
0.906696 3.01 14.0472
0.906696 3.01 14.0472
0.9187 3.01 14.0667
0.895671 3.01 14.0667
0.92895 3.01 14.0472
0.9187 3.01 14.0667
0.906696 3.01 14.0472
0.353563 3.01 14.1838
0.37611 3.01 14.1838
0.364839 3.01 14.2033
0.364837 3.01 14.1642
0.37611 3.01 14.1838
0.353563 3.01 14.1838
0.297145 3.01 14.2033
0.319723 3.01 14.2033
0.308439 3.01 14.2228
0.308439 3.01 14.2228
0.285853 3.01 14.2228
0.297145 3.01 14.2033
0.308439 3.01 14.2228
0.331009 3.01 14.2228
0.319729 3.01 14.2424
0.319723 3.01 14.2033
0.331009 3.01 14.2228
0.308439 3.01 14.2228
0.17262 3.01 14.0667
0.161282 3.01 14.0862
0.149908 3.01 14.0667
0.138583 3.01 14.0862
0.161282 3.01 14.0862
0.149909 3.01 14.1057
0.149909 3.01 14.1057
0.127158 3.01 14.1057
0.138583 3.01 14.0862
0.149909 3.01 14.1057
0.172622 3.01 14.1057
0.161284 3.01 14.1252
0.161282 3.01 14.0862
0.172622 3.01 14.1057
0.149909 3.01 14.1057
0.240621 3.01 14.1837
0.217979 3.01 14.1837
0.229301 3.01 14.1642
0.229301 3.01 14.1642
0.217979 3.01 14.1837
0.206649 3.01 14.1642
0.195316 3.01 14.1837
0.206649 3.01 14.1642
0.217979 3.01 14.1837
0.115908 3.01 14.2032
0.127165 3.01 14.1837
0.138594 3.01 14.2032
0.0933091 3.01 14.1642
0.104333 3.01 14.1447
0.115904 3.01 14.1642
0.115904 3.01 14.1642
0.104333 3.01 14.1447
0.127161 3.01 14.1447
0.115904 3.01 14.1642
0.104337 3.01 14.1837
0.0933091 3.01 14.1642
0.127165 3.01 14.1837
0.104337 3.01 14.1837
0.115904 3.01 14.1642
0.115901 3.01 14.1252
0.104333 3.01 14.1447
0.0933065 3.01 14.1252
0.127161 3.01 14.1447
0.104333 3.01 14.1447
0.115901 3.01 14.1252
0.115901 3.01 14.1252
0.0933065 3.01 14.1252
0.10433 3.01 14.1057
0.10433 3.01 14.1057
0.127158 3.01 14.1057
0.115901 3.01 14.1252
0.183972 3.01 14.0862
0.17262 3.01 14.0667
0.195307 3.01 14.0667
0.161282 3.01 14.0862
0.17262 3.01 14.0667
0.183972 3.01 14.0862
0.183972 3.01 14.0862
0.172622 3.01 14.1057
0.161282 3.01 14.0862
0.263244 3.01 14.1837
0.240621 3.01 14.1837
0.251933 3.01 14.1642
0.229301 3.01 14.1642
0.240617 3.01 14.1447
0.251933 3.01 14.1642
0.251933 3.01 14.1642
0.240621 3.01 14.1837
0.229301 3.01 14.1642
0.274543 3.01 14.1252
0.263237 3.01 14.1057
0.285842 3.01 14.1057
0.285842 3.01 14.1057
0.263237 3.01 14.1057
0.274541 3.01 14.0862
0.319739 3.01 14.2815
0.331016 3.01 14.2619
0.3423 3.01 14.2815
0.297163 3.01 14.2815
0.285878 3.01 14.3011
0.274572 3.01 14.2815
0.308447 3.01 14.2619
0.319739 3.01 14.2815
0.297163 3.01 14.2815
0.297163 3.01 14.2815
0.285863 3.01 14.2619
0.308447 3.01 14.2619
0.274572 3.01 14.2815
0.285863 3.01 14.2619
0.297163 3.01 14.2815
0.183992 3.01 14.2423
0.195336 3.01 14.2619
0.172648 3.01 14.2619
0.183992 3.01 14.2423
0.172636 3.01 14.2228
0.195323 3.01 14.2228
0.184008 3.01 14.2814
0.161316 3.01 14.2814
0.172648 3.01 14.2619
0.172648 3.01 14.2619
0.195336 3.01 14.2619
0.184008 3.01 14.2814
0.184008 3.01 14.2814
0.206681 3.01 14.2814
0.195356 3.01 14.301
0.195336 3.01 14.2619
0.206681 3.01 14.2814
0.184008 3.01 14.2814
0.308434 3.01 14.1837
0.319723 3.01 14.2033
0.297145 3.01 14.2033
0.297145 3.01 14.2033
[...]
<PointData Scalars="View Factor" >
<DataArray type="Float64" Name="View Factor" NumberOfComponents="1" format="ascii">
0.853505
0.853505
0.853505
0.785141
0.785141
0.785141
0.850592
0.850592
0.850592
0.838141
0.838141
0.838141
0.843509
0.843509
0.843509
0.843469
0.843469
0.843469
0.843998
0.843998
0.843998
0.843078
0.843078
0.843078
0.842961
0.842961
0.842961
0.843
0.843
0.843
0.851002
0.851002
0.851002
0.853402
0.853402
0.853402
0.853377
0.853377
0.853377
0.852677
0.852677
0.852677
0.852846
0.852846
0.852846
0.853247
0.853247
0.853247
0.853132
0.853132
0.853132
0.852821
0.852821
0.852821
0.852971
0.852971
0.852971
0.852769
0.852769
0.852769
0.852945
0.852945
0.852945
0.787348
0.787348
0.787348
0.843116
0.843116
0.843116
0.851284
0.851284
0.851284
0.851984
0.851984
0.851984
0.852022
0.852022
0.852022
0.845433
0.845433
0.845433
0.845475
0.845475
0.845475
0.845001
0.845001
0.845001
0.850937
0.850937
0.850937
0.850701
0.850701
0.850701
0.850491
0.850491
0.850491
0.849394
0.849394
0.849394
0.84723
0.84723
0.84723
0.847271
0.847271
0.847271
0.849935
0.849935
0.849935
0.852627
0.852627
0.852627
0.852601
0.852601
0.852601
0.850489
0.850489
0.850489
0.851655
0.851655
0.851655
0.851709
0.851709
0.851709
0.850274
0.850274
0.850274
0.850621
0.850621
0.850621
0.852108
0.852108
0.852108
0.843958
0.843958
0.843958
0.78458
0.78458
0.78458
0.838183
0.838183
0.838183
0.836962
0.836962
0.836962
0.838389
0.838389
0.838389
0.833782
0.833782
0.833782
0.833742
0.833742
0.833742
0.836218
0.836218
0.836218
0.835413
0.835413
0.835413
0.834628
0.834628
0.834628
0.841565
0.841565
0.841565
0.842192
0.842192
0.842192
0.839072
0.839072
0.839072
0.839031
0.839031
0.839031
0.847353
0.847353
0.847353
0.842233
0.842233
0.842233
0.84284
0.84284
0.84284
0.842881
0.842881
0.842881
0.845042
0.845042
0.845042
0.84455
0.84455
0.84455
0.831779
0.831779
0.831779
0.831139
0.831139
0.831139
0.830274
0.830274
0.830274
0.828478
0.828478
0.828478
0.837084
0.837084
0.837084
0.828178
0.828178
0.828178
0.826686
0.826686
0.826686
0.825707
0.825707
0.825707
0.818141
0.818141
0.818141
0.850698
0.850698
0.850698
0.850827
0.850827
0.850827
0.850909
0.850909
0.850909
0.850998
0.850998
0.850998
0.850885
0.850885
0.850885
0.850422
0.850422
0.850422
0.835037
0.835037
0.835037
0.839311
0.839311
0.839311
0.839027
0.839027
0.839027
0.844521
0.844521
0.844521
0.843432
0.843432
0.843432
0.852096
0.852096
0.852096
0.853021
0.853021
0.853021
0.853297
0.853297
0.853297
0.853157
0.853157
0.853157
0.852167
0.852167
0.852167
0.852204
0.852204
0.852204
0.8517
0.8517
0.8517
0.851557
0.851557
0.851557
0.85166
0.85166
0.85166
0.85158
0.85158
0.85158
0.785244
0.785244
0.785244
0.78641
0.78641
0.78641
0.791579
0.791579
0.791579
0.788053
0.788053
0.788053
0.786962
0.786962
0.786962
0.785716
0.785716
0.785716
0.785802
0.785802
0.785802
0.786155
0.786155
0.786155
0.786046
0.786046
0.786046
0.826558
0.826558
0.826558
0.793369
0.793369
0.793369
0.791613
0.791613
0.791613
0.789926
0.789926
0.789926
0.843588
0.843588
0.843588
0.843627
0.843627
0.843627
0.846092
0.846092
0.846092
0.84653
0.84653
0.84653
0.845556
0.845556
0.845556
0.845596
0.845596
0.845596
0.85107
0.85107
0.85107
0.851248
0.851248
0.851248
0.851444
0.851444
0.851444
0.850962
0.850962
0.850962
0.850998
0.850998
0.850998
0.849024
0.849024
0.849024
0.849378
0.849378
0.849378
0.849676
0.849676
0.849676
0.851357
0.851357
0.851357
0.851816
0.851816
0.851816
0.851673
0.851673
0.851673
0.851778
0.851778
0.851778
0.851596
0.851596
0.851596
0.851892
0.851892
0.851892
0.851711
0.851711
0.851711
0.851929
0.851929
0.851929
0.851786
0.851786
0.851786
0.850556
0.850556
0.850556
0.850804
0.850804
0.850804
0.850768
0.850768
0.850768
0.848302
0.848302
0.848302
0.84873
0.84873
0.84873
0.848691
0.848691
0.848691
0.847699
0.847699
0.847699
0.847736
0.847736
0.847736
0.844918
0.844918
0.844918
0.846744
0.846744
0.846744
0.845888
0.845888
0.845888
0.846367
0.846367
0.846367
0.846786
0.846786
0.846786
0.850018
0.850018
0.850018
0.8501
0.8501
0.8501
0.850221
0.850221
0.850221
0.849977
0.849977
0.849977
0.849631
0.849631
0.849631
0.849673
0.849673
0.849673
0.846132
0.846132
0.846132
0.846609
0.846609
0.846609
0.846648
0.846648
0.846648
0.846209
0.846209
0.846209
0.845971
0.845971
0.845971
0.846409
0.846409
0.846409
0.846012
0.846012
0.846012
0.84649
0.84649
0.84649
0.846869
0.846869
0.846869
0.84691
0.84691
0.84691
0.848184
0.848184
0.848184
0.848264
0.848264
0.848264
0.848063
0.848063
0.848063
0.848144
0.848144
0.848144
0.847737
0.847737
0.847737
0.847696
0.847696
0.847696
0.849178
0.849178
0.849178
0.849552
0.849552
0.849552
0.852266
0.852266
0.852266
0.852215
0.852215
0.852215
0.852468
0.852468
0.852468
0.852443
0.852443
0.852443
0.852189
0.852189
0.852189
0.851944
0.851944
0.851944
0.851918
0.851918
0.851918
0.852136
0.852136
0.852136
0.852364
0.852364
0.852364
0.852391
0.852391
0.852391
0.849526
0.849526
0.849526
0.849125
0.849125
0.849125
0.851787
0.851787
0.851787
0.851735
0.851735
0.851735
0.851997
0.851997
0.851997
0.852022
0.852022
0.852022
0.85116
0.85116
0.85116
0.850847
0.850847
0.850847
0.85082
0.85082
0.85082
0.851106
0.851106
0.851106
0.851403
0.851403
0.851403
0.85143
0.85143
0.85143
0.851239
0.851239
0.851239
0.851186
0.851186
0.851186
0.8509
0.8509
0.8509
0.850926
0.850926
0.850926
0.851508
0.851508
0.851508
0.851482
0.851482
0.851482
0.850248
0.850248
0.850248
0.849882
0.849882
0.849882
0.850542
0.850542
0.850542
0.850569
0.850569
0.850569
0.849218
0.849218
0.849218
0.849188
0.849188
0.849188
0.847958
0.847958
0.847958
0.848396
0.848396
0.848396
0.848756
0.848756
0.848756
0.848786
0.848786
0.848786
0.850461
0.850461
0.850461
0.851079
0.851079
0.851079
0.850765
0.850765
0.850765
0.850737
0.850737
0.850737
0.841571
0.841571
0.841571
0.844028
0.844028
0.844028
0.842802
0.842802
0.842802
0.842214
0.842214
0.842214
0.842249
0.842249
0.842249
0.842872
0.842872
0.842872
0.843407
0.843407
0.843407
0.843442
0.843442
0.843442
0.84654
0.84654
0.84654
0.846046
0.846046
0.846046
0.846317
0.846317
0.846317
0.845707
0.845707
0.845707
0.850112
0.850112
0.850112
0.847452
0.847452
0.847452
0.843691
0.843691
0.843691
0.843717
0.843717
0.843717
0.846962
0.846962
0.846962
0.846481
0.846481
0.846481
0.845955
0.845955
0.845955
0.798593
0.798593
0.798593
0.800138
0.800138
0.800138
0.800172
0.800172
0.800172
0.804533
0.804533
0.804533
0.801615
0.801615
0.801615
0.803109
0.803109
0.803109
0.801718
0.801718
0.801718
0.803147
0.803147
0.803147
0.801688
0.801688
0.801688
0.805976
0.805976
0.805976
0.785371
0.785371
0.785371
0.785417
0.785417
0.785417
0.7871
0.7871
0.7871
0.787144
0.787144
0.787144
0.838907
0.838907
0.838907
0.838949
0.838949
0.838949
0.842695
0.842695
0.842695
0.842767
0.842767
0.842767
0.842659
0.842659
0.842659
0.832875
0.832875
0.832875
0.832835
0.832835
0.832835
0.831946
0.831946
0.831946
0.836922
0.836922
0.836922
0.837645
0.837645
0.837645
0.838267
0.838267
0.838267
0.836841
0.836841
0.836841
0.838308
0.838308
0.838308
0.837605
0.837605
0.837605
0.837481
0.837481
0.837481
0.837523
0.837523
0.837523
0.8368
0.8368
0.8368
0.838822
0.838822
0.838822
0.844168
0.844168
0.844168
0.844213
0.844213
0.844213
0.843748
0.843748
0.843748
0.843704
0.843704
0.843704
0.84322
0.84322
0.84322
0.839694
0.839694
0.839694
0.840961
0.840961
0.840961
0.840296
0.840296
0.840296
0.839653
0.839653
0.839653
0.839775
0.839775
0.839775
0.841648
0.841648
0.841648
0.841002
0.841002
0.841002
0.840378
0.840378
0.840378
0.840419
0.840419
0.840419
0.812985
0.812985
0.812985
0.81673
0.81673
0.81673
0.830022
0.830022
0.830022
0.830937
0.830937
0.830937
0.829137
0.829137
0.829137
0.832317
0.832317
0.832317
0.832363
0.832363
0.832363
0.833604
0.833604
0.833604
0.832804
0.832804
0.832804
0.829339
0.829339
0.829339
0.82843
0.82843
0.82843
0.824659
0.824659
0.824659
0.822539
0.822539
0.822539
0.823634
0.823634
0.823634
0.827546
0.827546
0.827546
0.826639
0.826639
0.826639
0.827594
0.827594
0.827594
0.835041
0.835041
0.835041
0.8239
0.8239
0.8239
0.823943
0.823943
0.823943
0.819333
0.819333
0.819333
0.825753
0.825753
0.825753
0.795678
0.795678
0.795678
0.797353
0.797353
0.797353
0.795715
0.795715
0.795715
0.81316
0.81316
0.81316
0.814412
0.814412
0.814412
0.81568
0.81568
0.81568
0.817825
0.817825
0.817825
0.817583
0.817583
0.817583
0.822892
0.822892
0.822892
0.811061
0.811061
0.811061
0.851199
0.851199
0.851199
0.851076
0.851076
0.851076
0.851094
0.851094
0.851094
0.850649
0.850649
0.850649
0.850814
0.850814
0.850814
0.848653
0.848653
0.848653
0.850286
0.850286
0.850286
0.850081
0.850081
0.850081
0.849125
0.849125
0.849125
0.84489
0.84489
0.84489
0.844996
0.844996
0.844996
0.83345
0.83345
0.83345
0.83428
0.83428
0.83428
0.832651
0.832651
0.832651
0.834332
0.834332
0.834332
0.833553
0.833553
0.833553
0.832702
0.832702
0.832702
0.840032
0.840032
0.840032
0.840578
0.840578
0.840578
0.83998
0.83998
0.83998
0.842883
0.842883
0.842883
0.838368
0.838368
0.838368
0.842667
0.842667
0.842667
0.842075
0.842075
0.842075
0.840733
0.840733
0.840733
0.840682
0.840682
0.840682
0.842516
0.842516
0.842516
0.841414
0.841414
0.841414
0.841924
0.841924
0.841924
0.841364
0.841364
0.841364
0.842567
0.842567
0.842567
0.842025
0.842025
0.842025
0.845491
0.845491
0.845491
0.845038
0.845038
0.845038
0.84286
0.84286
0.84286
0.843616
0.843616
0.843616
0.844032
0.844032
0.844032
0.843479
0.843479
0.843479
0.844078
0.844078
0.844078
0.843571
0.843571
0.843571
0.85044
0.85044
0.85044
0.850919
0.850919
0.850919
0.850659
0.850659
0.850659
0.850852
0.850852
0.850852
0.851059
0.851059
0.851059
0.851012
0.851012
0.851012
0.85123
0.85123
0.85123
0.851334
0.851334
0.851334
0.851137
0.851137
0.851137
0.851287
0.851287
0.851287
0.852497
0.852497
0.852497
0.852409
0.852409
0.852409
0.85234
0.85234
0.85234
0.852386
0.852386
0.852386
0.852372
0.852372
0.852372
0.852265
0.852265
0.852265
0.85227
0.85227
0.85227
0.85218
0.85218
0.85218
0.852152
0.852152
0.852152
0.85214
0.85214
0.85214
0.785344
0.785344
0.785344
0.786443
0.786443
0.786443
0.789858
0.789858
0.789858
0.789824
0.789824
0.789824
0.786342
0.786342
0.786342
0.788019
0.788019
0.788019
0.786308
0.786308
0.786308
0.787951
0.787951
0.787951
0.795022
0.795022
0.795022
0.788662
0.788662
0.788662
0.786989
0.786989
0.786989
0.785885
0.785885
0.785885
0.797253
0.797253
0.797253
0.788608
0.788608
0.788608
0.787269
0.787269
0.787269
0.787211
0.787211
0.787211
0.794234
0.794234
0.794234
0.82875
0.82875
0.82875
0.830689
0.830689
0.830689
0.829718
0.829718
0.829718
0.832322
0.832322
0.832322
0.832405
0.832405
0.832405
0.832378
0.832378
0.832378
0.827626
0.827626
0.827626
0.826585
0.826585
0.826585
0.820051
0.820051
0.820051
0.827733
0.827733
0.827733
0.819805
0.819805
0.819805
0.82221
0.82221
0.82221
0.817382
0.817382
0.817382
0.818593
0.818593
0.818593
0.812076
0.812076
0.812076
0.813422
0.813422
0.813422
0.816118
0.816118
0.816118
0.816089
0.816089
0.816089
0.803643
0.803643
0.803643
0.802097
0.802097
0.802097
0.840504
0.840504
0.840504
0.839787
0.839787
0.839787
0.843124
0.843124
0.843124
0.83331
0.83331
0.83331
0.844597
0.844597
0.844597
0.843441
0.843441
0.843441
0.844014
0.844014
0.844014
0.814711
0.814711
0.814711
0.82332
0.82332
0.82332
0.825493
0.825493
0.825493
0.824432
0.824432
0.824432
0.807396
0.807396
0.807396
0.810263
0.810263
0.810263
0.808861
0.808861
0.808861
0.808827
0.808827
0.808827
0.810196
0.810196
0.810196
0.844118
0.844118
0.844118
0.844079
0.844079
0.844079
0.84459
0.84459
0.84459
0.845122
0.845122
0.845122
0.850694
0.850694
0.850694
0.851407
0.851407
0.851407
0.851549
0.851549
0.851549
0.851586
0.851586
0.851586
0.851174
0.851174
0.851174
0.851312
0.851312
0.851312
0.851279
0.851279
0.851279
0.848866
0.848866
0.848866
0.848784
0.848784
0.848784
0.848493
0.848493
0.848493
0.848452
0.848452
0.848452
0.849517
0.849517
0.849517
0.849797
0.849797
0.849797
0.849756
0.849756
0.849756
0.849436
0.849436
0.849436
0.849139
0.849139
0.849139
0.84918
0.84918
0.84918
0.849558
0.849558
0.849558
0.849637
0.849637
0.849637
0.848985
0.848985
0.848985
0.8493
0.8493
0.8493
0.84926
0.84926
0.84926
0.848906
0.848906
0.848906
0.848574
0.848574
0.848574
0.848613
0.848613
0.848613
0.85014
0.85014
0.85014
0.849877
0.849877
0.849877
0.849917
0.849917
0.849917
0.850219
0.850219
0.850219
0.850426
0.850426
0.850426
0.850465
0.850465
0.850465
0.850532
0.850532
0.850532
0.850304
0.850304
0.850304
0.850345
0.850345
0.850345
0.851473
0.851473
0.851473
0.851435
0.851435
0.851435
0.848635
0.848635
0.848635
0.847808
0.847808
0.847808
0.846981
0.846981
0.846981
0.848086
0.848086
0.848086
0.848491
0.848491
0.848491
0.849529
0.849529
0.849529
0.849213
0.849213
0.849213
0.848842
0.848842
0.848842
0.848805
0.848805
0.848805
0.849865
0.849865
0.849865
0.850146
0.850146
0.850146
0.850484
0.850484
0.850484
0.850447
0.850447
0.850447
0.849022
0.849022
0.849022
0.849357
0.849357
0.849357
0.847935
0.847935
0.847935
0.847511
0.847511
0.847511
0.847108
0.847108
0.847108
0.846011
0.846011
0.846011
0.844932
0.844932
0.844932
0.845003
0.845003
0.845003
0.845462
0.845462
0.845462
0.845498
0.845498
0.845498
0.843923
0.843923
0.843923
0.844455
0.844455
0.844455
0.844419
0.844419
0.844419
0.843851
0.843851
0.843851
0.843301
0.843301
0.843301
0.843337
0.843337
0.843337
0.843815
0.843815
0.843815
0.843228
0.843228
0.843228
0.843191
0.843191
0.843191
0.847258
0.847258
0.847258
0.844427
0.844427
0.844427
0.843388
0.843388
0.843388
0.843958
0.843958
0.843958
0.844468
0.844468
0.844468
0.843833
0.843833
0.843833
0.843263
0.843263
0.843263
0.842716
0.842716
0.842716
0.842758
0.842758
0.842758
0.843347
0.843347
0.843347
0.843875
0.843875
0.843875
0.850179
0.850179
0.850179
0.850406
0.850406
0.850406
0.850363
0.850363
0.850363
0.850093
0.850093
0.850093
0.849892
0.849892
0.849892
0.849849
0.849849
0.849849
0.847393
0.847393
0.847393
0.847472
0.847472
0.847472
0.84699
0.84699
0.84699
0.84703
0.84703
0.84703
0.847857
0.847857
0.847857
0.847817
0.847817
0.847817
0.844668
0.844668
0.844668
0.845161
0.845161
0.845161
0.845675
0.845675
0.845675
0.845714
0.845714
0.845714
0.849774
0.849774
0.849774
0.849099
0.849099
0.849099
0.84868
0.84868
0.84868
0.848653
0.848653
0.848653
0.849044
0.849044
0.849044
0.851921
0.851921
0.851921
0.847928
0.847928
0.847928
0.847867
0.847867
0.847867
0.848336
0.848336
0.848336
0.848305
0.848305
0.848305
0.846088
0.846088
0.846088
0.847029
0.847029
0.847029
0.847472
0.847472
0.847472
0.847442
0.847442
0.847442
0.850281
0.850281
0.850281
0.846218
0.846218
0.846218
0.846251
0.846251
0.846251
0.851023
0.851023
0.851023
0.844629
0.844629
0.844629
0.844062
0.844062
0.844062
0.845569
0.845569
0.845569
0.845039
0.845039
0.845039
0.844525
0.844525
0.844525
0.84456
0.84456
0.84456
0.846575
0.846575
0.846575
0.846349
0.846349
0.846349
0.845211
0.845211
0.845211
0.844663
0.844663
0.844663
0.845806
0.845806
0.845806
0.845773
0.845773
0.845773
0.845244
0.845244
0.845244
0.84531
0.84531
0.84531
0.844762
0.844762
0.844762
0.844729
0.844729
0.844729
0.84779
0.84779
0.84779
0.848217
0.848217
0.848217
0.850084
0.850084
0.850084
0.850028
0.850028
0.850028
0.850405
0.850405
0.850405
0.850377
0.850377
0.850377
0.849277
0.849277
0.849277
0.848351
0.848351
0.848351
0.84876
0.84876
0.84876
0.848734
0.848734
0.848734
0.847897
0.847897
0.847897
0.845436
0.845436
0.845436
0.844318
0.844318
0.844318
0.844873
0.844873
0.844873
0.845847
0.845847
0.845847
0.845928
0.845928
0.845928
0.845874
0.845874
0.845874
0.798654
0.798654
0.798654
0.803215
0.803215
0.803215
0.806135
0.806135
0.806135
0.806097
0.806097
0.806097
0.804652
0.804652
0.804652
0.804615
0.804615
0.804615
0.806019
0.806019
0.806019
0.807477
0.807477
0.807477
0.807436
0.807436
0.807436
0.784066
0.784066
0.784066
0.784195
0.784195
0.784195
0.785547
0.785547
0.785547
0.785504
0.785504
0.785504
0.784457
0.784457
0.784457
0.784329
0.784329
0.784329
0.794074
0.794074
0.794074
0.797393
0.797393
0.797393
0.833662
0.833662
0.833662
0.833621
0.833621
0.833621
0.830994
0.830994
0.830994
0.831905
0.831905
0.831905
0.832753
0.832753
0.832753
0.839815
0.839815
0.839815
0.840499
0.840499
0.840499
0.840538
0.840538
0.840538
0.839894
0.839894
0.839894
0.840046
0.840046
0.840046
0.838659
0.838659
0.838659
0.839381
0.839381
0.839381
0.841464
0.841464
0.841464
0.841536
0.841536
0.841536
0.842143
0.842143
0.842143
0.842107
0.842107
0.842107
0.840119
0.840119
0.840119
0.839417
0.839417
0.839417
0.838732
0.838732
0.838732
0.842035
0.842035
0.842035
0.841428
0.841428
0.841428
0.840728
0.840728
0.840728
0.840765
0.840765
0.840765
0.837954
0.837954
0.837954
0.837192
0.837192
0.837192
0.836446
0.836446
0.836446
0.83799
0.83799
0.83799
0.836483
0.836483
0.836483
0.837265
0.837265
0.837265
0.837301
0.837301
0.837301
0.82833
0.82833
0.82833
0.82733
0.82733
0.82733
0.82837
0.82837
0.82837
0.827409
0.827409
0.827409
0.828447
0.828447
0.828447
0.827448
0.827448
0.827448
0.82115
0.82115
0.82115
0.822254
0.822254
0.822254
0.832954
0.832954
0.832954
0.832993
0.832993
0.832993
0.834667
0.834667
0.834667
0.83386
0.83386
0.83386
0.834744
0.834744
0.834744
0.833898
0.833898
0.833898
0.832026
0.832026
0.832026
0.832065
0.832065
0.832065
0.836717
0.836717
0.836717
0.835127
0.835127
0.835127
0.844658
0.844658
0.844658
0.845583
0.845583
0.845583
0.844613
0.844613
0.844613
0.845084
0.845084
0.845084
0.846108
0.846108
0.846108
0.845628
0.845628
0.845628
0.845175
0.845175
0.845175
0.839527
0.839527
0.839527
0.840254
0.840254
0.840254
0.83957
0.83957
0.83957
0.843133
0.843133
0.843133
0.843089
0.843089
0.843089
0.839307
0.839307
0.839307
0.841688
0.841688
0.841688
0.841083
0.841083
0.841083
0.842314
0.842314
0.842314
0.842354
0.842354
0.842354
0.841768
0.841768
0.841768
0.841123
0.841123
0.841123
0.817614
0.817614
0.817614
0.81883
0.81883
0.81883
0.819984
0.819984
0.819984
0.818599
0.818599
0.818599
0.831075
0.831075
0.831075
0.829268
0.829268
0.829268
0.830222
0.830222
0.830222
0.831115
0.831115
0.831115
0.827291
0.827291
0.827291
0.821857
0.821857
0.821857
0.822934
0.822934
0.822934
0.818519
0.818519
0.818519
0.816555
0.816555
0.816555
0.816519
0.816519
0.816519
0.816409
0.816409
0.816409
0.816446
0.816446
0.816446
0.83307
0.83307
0.83307
0.823589
0.823589
0.823589
0.822473
0.822473
0.822473
0.8141
0.8141
0.8141
0.814029
0.814029
0.814029
0.815359
0.815359
0.815359
0.815323
0.815323
0.815323
0.814135
0.814135
0.814135
0.815429
0.815429
0.815429
0.815463
0.815463
0.815463
0.812849
0.812849
0.812849
0.812952
0.812952
0.812952
0.811571
0.811571
0.811571
0.811604
0.811604
0.811604
0.812884
0.812884
0.812884
0.814238
0.814238
0.814238
0.814204
0.814204
0.814204
0.817937
0.817937
0.817937
0.817797
0.817797
0.817797
0.818977
0.818977
0.818977
0.820167
0.820167
0.820167
0.83109
0.83109
0.83109
0.831932
0.831932
0.831932
0.831882
0.831882
0.831882
0.830989
0.830989
0.830989
0.830323
0.830323
0.830323
0.831237
0.831237
0.831237
0.829436
0.829436
0.829436
0.831285
0.831285
0.831285
0.831517
0.831517
0.831517
0.82976
0.82976
0.82976
0.826778
0.826778
0.826778
0.832081
0.832081
0.832081
0.832032
0.832032
0.832032
0.832854
0.832854
0.832854
0.822493
0.822493
0.822493
0.839856
0.839856
0.839856
0.838556
0.838556
0.838556
0.839262
0.839262
0.839262
0.839902
0.839902
0.839902
0.839762
0.839762
0.839762
0.839714
0.839714
0.839714
0.837784
0.837784
0.837784
0.83851
0.83851
0.83851
0.839169
0.839169
0.839169
0.839122
0.839122
0.839122
0.838416
0.838416
0.838416
0.837737
0.837737
0.837737
0.838779
0.838779
0.838779
0.838055
0.838055
0.838055
0.835847
0.835847
0.835847
0.836589
0.836589
0.836589
0.837353
0.837353
0.837353
0.83589
0.83589
0.83589
0.837396
0.837396
0.837396
0.836675
0.836675
0.836675
0.834997
0.834997
0.834997
0.833233
0.833233
0.833233
0.834908
0.834908
0.834908
0.835715
0.835715
0.835715
0.836545
0.836545
0.836545
0.835759
0.835759
0.835759
0.83641
0.83641
0.83641
0.837131
0.837131
0.837131
0.837876
0.837876
0.837876
0.836456
0.836456
0.836456
0.827168
0.827168
0.827168
0.82721
0.82721
0.82721
0.824884
0.824884
0.824884
0.824928
0.824928
0.824928
0.825014
0.825014
0.825014
0.815724
0.815724
0.815724
0.816967
0.816967
0.816967
0.813329
0.813329
0.813329
0.823813
0.823813
0.823813
0.821466
0.821466
0.821466
0.812899