<VTKFile type="UnstructuredGrid" version="1.0">
<UnstructuredGrid>
<Piece NumberOfPoints="11046" NumberOfCells="3682">
<Points>
<DataArray type="Float64" NumberOfComponents="3" format="ascii">
0.0582363 3.01 7.40676
0.05 3.01 7.3875
0.0717021 3.01 7.3875
0.95 3.01 7.81621
0.95 3.01 7.8552
0.942301 3.01 7.8357
0.0962623 3.01 8.2875
0.086422 3.01 8.26716
0.107711 3.01 8.26733
0.466226 3.01 8.03111
0.454968 3.01 8.05072
0.443707 3.01 8.03111
0.353567 3.01 7.95281
0.364839 3.01 7.93328
0.376113 3.01 7.95282
0.376113 3.01 7.95282
0.364843 3.01 7.97236
0.353567 3.01 7.95281
0.353567 3.01 7.95281
0.364843 3.01 7.97236
0.342292 3.01 7.97236
0.37611 3.01 7.91375
0.364837 3.01 7.89423
0.387379 3.01 7.89423
0.376113 3.01 7.95282
0.364839 3.01 7.93328
0.387381 3.01 7.93328
0.364839 3.01 7.93328
0.37611 3.01 7.91375
0.387381 3.01 7.93328
0.066417 3.01 8.26952
0.05 3.01 8.2875
0.05 3.01 8.26375
0.0582363 3.01 7.40676
0.0717021 3.01 7.3875
0.0817675 3.01 7.40698
0.0817675 3.01 7.40698
0.0711754 3.01 7.42639
0.0582363 3.01 7.40676
0.11641 3.01 7.3875
0.138968 3.01 7.3875
0.127475 3.01 7.40703
0.127475 3.01 7.40703
0.104722 3.01 7.40703
0.11641 3.01 7.3875
0.0711754 3.01 7.42639
0.0817675 3.01 7.40698
0.0934889 3.01 7.4265
0.0934889 3.01 7.4265
0.0817675 3.01 7.40698
0.104722 3.01 7.40703
0.116091 3.01 7.42653
0.104722 3.01 7.40703
0.127475 3.01 7.40703
0.116091 3.01 7.42653
0.0934889 3.01 7.4265
0.104722 3.01 7.40703
0.116091 3.01 7.42653
0.127244 3.01 7.44601
0.104394 3.01 7.44598
0.104394 3.01 7.44598
0.0934889 3.01 7.4265
0.116091 3.01 7.42653
0.941764 3.01 7.40676
0.928298 3.01 7.3875
0.95 3.01 7.3875
0.387379 3.01 7.89423
0.364837 3.01 7.89423
0.376108 3.01 7.87472
0.161282 3.01 7.81621
0.138583 3.01 7.81621
0.149908 3.01 7.79672
0.0933091 3.01 7.89421
0.0813038 3.01 7.8747
0.104333 3.01 7.8747
0.104333 3.01 7.8747
0.0813038 3.01 7.8747
0.0933065 3.01 7.8552
0.331016 3.01 7.99192
0.319739 3.01 8.01149
0.308447 3.01 7.99191
0.308447 3.01 7.99191
0.319729 3.01 7.97236
0.331016 3.01 7.99192
0.331016 3.01 7.99192
0.319729 3.01 7.97236
0.342292 3.01 7.97236
0.138613 3.01 8.01141
0.12718 3.01 7.99185
0.149933 3.01 7.99186
0.138613 3.01 8.01141
0.149933 3.01 7.99186
0.161316 3.01 8.01142
0.161316 3.01 8.01142
0.149933 3.01 7.99186
0.172648 3.01 7.99186
0.206681 3.01 8.01144
0.195336 3.01 7.99187
0.217999 3.01 7.99188
0.263262 3.01 7.9919
0.285863 3.01 7.99191
0.274572 3.01 8.01147
0.274559 3.01 7.97235
0.285863 3.01 7.99191
0.263262 3.01 7.9919
0.240697 3.01 7.407
0.229409 3.01 7.3875
0.252012 3.01 7.3875
0.138758 3.01 7.42653
0.116091 3.01 7.42653
0.127475 3.01 7.40703
0.127244 3.01 7.44601
0.116091 3.01 7.42653
0.138758 3.01 7.42653
0.229332 3.01 7.46547
0.206685 3.01 7.46548
0.218031 3.01 7.44599
0.184016 3.01 7.46549
0.161325 3.01 7.46549
0.172705 3.01 7.44601
0.184093 3.01 7.42651
0.172705 3.01 7.44601
0.161431 3.01 7.42653
0.218082 3.01 7.407
0.229409 3.01 7.3875
0.240697 3.01 7.407
0.218082 3.01 7.407
0.206798 3.01 7.3875
0.229409 3.01 7.3875
0.138617 3.01 7.46549
0.161325 3.01 7.46549
0.149916 3.01 7.48496
0.376107 3.01 7.79672
0.353559 3.01 7.79672
0.364834 3.01 7.77723
0.942264 3.01 8.03097
0.95 3.01 8.0114
0.95 3.01 8.05056
0.466226 3.01 8.03111
0.443707 3.01 8.03111
0.454966 3.01 8.01151
0.466223 3.01 7.95282
0.477482 3.01 7.93328
0.488741 3.01 7.95282
0.466223 3.01 7.95282
0.454964 3.01 7.97237
0.443703 3.01 7.95282
0.511259 3.01 7.95282
0.522518 3.01 7.93328
0.533777 3.01 7.95282
0.533777 3.01 7.95282
0.522517 3.01 7.97237
0.511259 3.01 7.95282
0.488741 3.01 7.95282
0.477482 3.01 7.93328
0.5 3.01 7.93328
0.511259 3.01 7.95282
0.488741 3.01 7.95282
0.5 3.01 7.93328
0.5 3.01 7.93328
0.522518 3.01 7.93328
0.511259 3.01 7.95282
0.387388 3.01 8.01151
0.398653 3.01 7.99193
0.40992 3.01 8.01151
0.376117 3.01 7.99193
0.398653 3.01 7.99193
0.387388 3.01 8.01151
0.443703 3.01 7.95282
0.454964 3.01 7.97237
0.432443 3.01 7.97237
0.432443 3.01 7.97237
0.454964 3.01 7.97237
0.443705 3.01 7.99193
0.274559 3.01 7.97235
0.26325 3.01 7.9528
0.285853 3.01 7.9528
0.387384 3.01 7.97237
0.398653 3.01 7.99193
0.376117 3.01 7.99193
0.376117 3.01 7.99193
0.364843 3.01 7.97236
0.387384 3.01 7.97237
0.387384 3.01 7.97237
0.364843 3.01 7.97236
0.376113 3.01 7.95282
0.342292 3.01 7.97236
0.319729 3.01 7.97236
0.331009 3.01 7.95281
0.331009 3.01 7.95281
0.353567 3.01 7.95281
0.342292 3.01 7.97236
0.545011 3.01 8.2875
0.522505 3.01 8.2875
0.533759 3.01 8.2677
0.533762 3.01 8.22811
0.545018 3.01 8.20833
0.55627 3.01 8.22811
0.55627 3.01 8.22811
0.545018 3.01 8.20833
0.567528 3.01 8.20832
0.567528 3.01 8.20832
0.578788 3.01 8.18856
0.59004 3.01 8.20832
0.466232 3.01 8.14908
0.454974 3.01 8.12936
0.477488 3.01 8.12937
0.567516 3.01 8.2875
0.578772 3.01 8.2677
0.590022 3.01 8.2875
0.601316 3.01 8.14907
0.61257 3.01 8.1688
0.590051 3.01 8.1688
0.62384 3.01 8.14906
0.61257 3.01 8.1688
0.601316 3.01 8.14907
0.680198 3.01 8.12931
0.691494 3.01 8.10962
0.702757 3.01 8.12929
0.086422 3.01 8.26716
0.0962623 3.01 8.2875
0.073896 3.01 8.2875
0.073896 3.01 8.2875
0.066417 3.01 8.26952
0.086422 3.01 8.26716
0.05 3.01 8.2875
0.066417 3.01 8.26952
0.073896 3.01 8.2875
0.0721919 3.01 8.24789
0.066417 3.01 8.26952
0.05 3.01 8.26375
0.086422 3.01 8.26716
0.066417 3.01 8.26952
0.0721919 3.01 8.24789
0.118481 3.01 8.2875
0.0962623 3.01 8.2875
0.107711 3.01 8.26733
0.5 3.01 8.2875
0.477495 3.01 8.2875
0.488747 3.01 8.2677
0.432484 3.01 8.2875
0.409978 3.01 8.2875
0.421228 3.01 8.2677
0.443725 3.01 8.18856
0.421212 3.01 8.18856
0.432465 3.01 8.16881
0.319802 3.01 8.12931
0.331063 3.01 8.10963
0.342348 3.01 8.12933
0.353629 3.01 8.14905
0.342348 3.01 8.12933
0.364886 3.01 8.12934
0.10433 3.01 7.8357
0.0933065 3.01 7.8552
0.0813011 3.01 7.8357
0.0939466 3.01 7.3875
0.11641 3.01 7.3875
0.104722 3.01 7.40703
0.0939466 3.01 7.3875
0.0817675 3.01 7.40698
0.0717021 3.01 7.3875
0.104722 3.01 7.40703
0.0817675 3.01 7.40698
0.0939466 3.01 7.3875
0.0933065 3.01 7.8552
0.0813038 3.01 7.8747
0.0710513 3.01 7.8552
0.0710513 3.01 7.8552
0.0813011 3.01 7.8357
0.0933065 3.01 7.8552
0.115908 3.01 7.93324
0.0933131 3.01 7.93324
0.104337 3.01 7.91372
0.104337 3.01 7.91372
0.127165 3.01 7.91372
0.115908 3.01 7.93324
0.104343 3.01 7.95276
0.0933131 3.01 7.93324
0.115908 3.01 7.93324
0.104343 3.01 7.95276
0.115915 3.01 7.9723
0.0933188 3.01 7.9723
0.942303 3.01 7.79671
0.95 3.01 7.77722
0.95 3.01 7.81621
0.92895 3.01 7.77722
0.95 3.01 7.77722
0.942303 3.01 7.79671
0.9187 3.01 7.79671
0.906695 3.01 7.81621
0.895671 3.01 7.79671
0.92895 3.01 7.77722
0.942303 3.01 7.79671
0.9187 3.01 7.79671
0.942316 3.01 7.56285
0.928965 3.01 7.54335
0.95 3.01 7.54336
0.95 3.01 7.62132
0.942309 3.01 7.60183
0.95 3.01 7.58234
0.942316 3.01 7.56285
0.95 3.01 7.54336
0.95 3.01 7.58234
0.95 3.01 7.42605
0.941764 3.01 7.40676
0.95 3.01 7.3875
0.95 3.01 7.42605
0.95 3.01 7.46525
0.942358 3.01 7.44571
0.612617 3.01 7.46545
0.635157 3.01 7.46545
0.623887 3.01 7.48493
0.895671 3.01 7.79671
0.884102 3.01 7.77722
0.906696 3.01 7.77722
0.906696 3.01 7.77722
0.9187 3.01 7.79671
0.895671 3.01 7.79671
0.92895 3.01 7.77722
0.9187 3.01 7.79671
0.906696 3.01 7.77722
0.353563 3.01 7.91375
0.37611 3.01 7.91375
0.364839 3.01 7.93328
0.364837 3.01 7.89423
0.37611 3.01 7.91375
0.353563 3.01 7.91375
0.297145 3.01 7.93327
0.319723 3.01 7.93327
0.308439 3.01 7.95281
0.308439 3.01 7.95281
0.285853 3.01 7.9528
0.297145 3.01 7.93327
0.308439 3.01 7.95281
0.331009 3.01 7.95281
0.319729 3.01 7.97236
0.319723 3.01 7.93327
0.331009 3.01 7.95281
0.308439 3.01 7.95281
0.17262 3.01 7.79672
0.161282 3.01 7.81621
0.149908 3.01 7.79672
0.138583 3.01 7.81621
0.161282 3.01 7.81621
0.149909 3.01 7.8357
0.149909 3.01 7.8357
0.127158 3.01 7.8357
0.138583 3.01 7.81621
0.149909 3.01 7.8357
0.172622 3.01 7.83571
0.161284 3.01 7.8552
0.161282 3.01 7.81621
0.172622 3.01 7.83571
0.149909 3.01 7.8357
0.240621 3.01 7.91374
0.217979 3.01 7.91373
0.229301 3.01 7.89422
0.229301 3.01 7.89422
0.217979 3.01 7.91373
0.206649 3.01 7.89422
0.195316 3.01 7.91373
0.206649 3.01 7.89422
0.217979 3.01 7.91373
0.115908 3.01 7.93324
0.127165 3.01 7.91372
0.138594 3.01 7.93324
0.0933091 3.01 7.89421
0.104333 3.01 7.8747
0.115904 3.01 7.89421
0.115904 3.01 7.89421
0.104333 3.01 7.8747
0.127161 3.01 7.8747
0.115904 3.01 7.89421
0.104337 3.01 7.91372
0.0933091 3.01 7.89421
0.127165 3.01 7.91372
0.104337 3.01 7.91372
0.115904 3.01 7.89421
0.115901 3.01 7.8552
0.104333 3.01 7.8747
0.0933065 3.01 7.8552
0.127161 3.01 7.8747
0.104333 3.01 7.8747
0.115901 3.01 7.8552
0.115901 3.01 7.8552
0.0933065 3.01 7.8552
0.10433 3.01 7.8357
0.10433 3.01 7.8357
0.127158 3.01 7.8357
0.115901 3.01 7.8552
0.183972 3.01 7.81621
0.17262 3.01 7.79672
0.195307 3.01 7.79672
0.161282 3.01 7.81621
0.17262 3.01 7.79672
0.183972 3.01 7.81621
0.183972 3.01 7.81621
0.172622 3.01 7.83571
0.161282 3.01 7.81621
0.263244 3.01 7.91374
0.240621 3.01 7.91374
0.251933 3.01 7.89422
0.229301 3.01 7.89422
0.240617 3.01 7.87471
0.251933 3.01 7.89422
0.251933 3.01 7.89422
0.240621 3.01 7.91374
0.229301 3.01 7.89422
0.274543 3.01 7.85521
0.263237 3.01 7.83571
0.285842 3.01 7.83571
0.285842 3.01 7.83571
0.263237 3.01 7.83571
0.274541 3.01 7.81621
0.319739 3.01 8.01149
0.331016 3.01 7.99192
0.3423 3.01 8.0115
0.297163 3.01 8.01148
0.285878 3.01 8.03106
0.274572 3.01 8.01147
0.308447 3.01 7.99191
0.319739 3.01 8.01149
0.297163 3.01 8.01148
0.297163 3.01 8.01148
0.285863 3.01 7.99191
0.308447 3.01 7.99191
0.274572 3.01 8.01147
0.285863 3.01 7.99191
0.297163 3.01 8.01148
0.183992 3.01 7.97232
0.195336 3.01 7.99187
0.172648 3.01 7.99186
0.183992 3.01 7.97232
0.172636 3.01 7.95278
0.195323 3.01 7.95278
0.184008 3.01 8.01143
0.161316 3.01 8.01142
0.172648 3.01 7.99186
0.172648 3.01 7.99186
0.195336 3.01 7.99187
0.184008 3.01 8.01143
0.184008 3.01 8.01143
0.206681 3.01 8.01144
0.195356 3.01 8.03101
0.195336 3.01 7.99187
0.206681 3.01 8.01144
0.184008 3.01 8.01143
0.308434 3.01 7.91375
0.319723 3.01 7.93327
0.297145 3.01 7.93327
0.297145 3.01 7.93327
0.285847 3.01 7.91374
0.308434 3.01 7.91375
0.308434 3.01 7.91375
[...]
<PointData Scalars="View Factor" >
<DataArray type="Float64" Name="View Factor" NumberOfComponents="1" format="ascii">
0.856881
0.856881
0.856881
0.789372
0.789372
0.789372
0.856406
0.856406
0.856406
0.843082
0.843082
0.843082
0.848189
0.848189
0.848189
0.848187
0.848187
0.848187
0.848738
0.848738
0.848738
0.847624
0.847624
0.847624
0.84762
0.84762
0.84762
0.847621
0.847621
0.847621
0.856817
0.856817
0.856817
0.85679
0.85679
0.85679
0.856791
0.856791
0.856791
0.856051
0.856051
0.856051
0.856233
0.856233
0.856233
0.856673
0.856673
0.856673
0.856545
0.856545
0.856545
0.856234
0.856234
0.856234
0.856397
0.856397
0.856397
0.856234
0.856234
0.856234
0.856397
0.856397
0.856397
0.790614
0.790614
0.790614
0.847626
0.847626
0.847626
0.855603
0.855603
0.855603
0.856501
0.856501
0.856501
0.856503
0.856503
0.856503
0.850276
0.850276
0.850276
0.850277
0.850277
0.850277
0.849782
0.849782
0.849782
0.855797
0.855797
0.855797
0.855581
0.855581
0.855581
0.855349
0.855349
0.855349
0.854249
0.854249
0.854249
0.852078
0.852078
0.852078
0.852079
0.852079
0.852079
0.853304
0.853304
0.853304
0.856052
0.856052
0.856052
0.856052
0.856052
0.856052
0.853988
0.853988
0.853988
0.855157
0.855157
0.855157
0.855158
0.855158
0.855158
0.853656
0.853656
0.853656
0.853992
0.853992
0.853992
0.855638
0.855638
0.855638
0.848207
0.848207
0.848207
0.789352
0.789352
0.789352
0.843084
0.843084
0.843084
0.841622
0.841622
0.841622
0.843092
0.843092
0.843092
0.838433
0.838433
0.838433
0.838432
0.838432
0.838432
0.840857
0.840857
0.840857
0.840069
0.840069
0.840069
0.839262
0.839262
0.839262
0.846416
0.846416
0.846416
0.847024
0.847024
0.847024
0.843796
0.843796
0.843796
0.843795
0.843795
0.843795
0.852083
0.852083
0.852083
0.847026
0.847026
0.847026
0.847615
0.847615
0.847615
0.847617
0.847617
0.847617
0.849784
0.849784
0.849784
0.849271
0.849271
0.849271
0.837544
0.837544
0.837544
0.83668
0.83668
0.83668
0.835788
0.835788
0.835788
0.833938
0.833938
0.833938
0.842345
0.842345
0.842345
0.833929
0.833929
0.833929
0.832001
0.832001
0.832001
0.830996
0.830996
0.830996
0.823295
0.823295
0.823295
0.85654
0.85654
0.85654
0.856645
0.856645
0.856645
0.856754
0.856754
0.856754
0.856762
0.856762
0.856762
0.856652
0.856652
0.856652
0.856263
0.856263
0.856263
0.840815
0.840815
0.840815
0.845106
0.845106
0.845106
0.844454
0.844454
0.844454
0.849763
0.849763
0.849763
0.848715
0.848715
0.848715
0.856506
0.856506
0.856506
0.856395
0.856395
0.856395
0.856672
0.856672
0.856672
0.856545
0.856545
0.856545
0.85663
0.85663
0.85663
0.856632
0.856632
0.856632
0.856347
0.856347
0.856347
0.856185
0.856185
0.856185
0.856346
0.856346
0.856346
0.856343
0.856343
0.856343
0.789376
0.789376
0.789376
0.790512
0.790512
0.790512
0.79574
0.79574
0.79574
0.792175
0.792175
0.792175
0.790534
0.790534
0.790534
0.789396
0.789396
0.789396
0.789399
0.789399
0.789399
0.789444
0.789444
0.789444
0.789409
0.789409
0.789409
0.830038
0.830038
0.830038
0.797485
0.797485
0.797485
0.795741
0.795741
0.795741
0.794035
0.794035
0.794035
0.848192
0.848192
0.848192
0.848193
0.848193
0.848193
0.850761
0.850761
0.850761
0.851219
0.851219
0.851219
0.850281
0.850281
0.850281
0.850282
0.850282
0.850282
0.855372
0.855372
0.855372
0.855602
0.855602
0.855602
0.855816
0.855816
0.855816
0.855368
0.855368
0.855368
0.855369
0.855369
0.855369
0.853606
0.853606
0.853606
0.853943
0.853943
0.853943
0.85426
0.85426
0.85426
0.856003
0.856003
0.856003
0.856352
0.856352
0.856352
0.85619
0.85619
0.85619
0.85635
0.85635
0.85635
0.856187
0.856187
0.856187
0.856355
0.856355
0.856355
0.856191
0.856191
0.856191
0.856356
0.856356
0.856356
0.856194
0.856194
0.856194
0.854857
0.854857
0.854857
0.855122
0.855122
0.855122
0.855121
0.855121
0.855121
0.852883
0.852883
0.852883
0.853256
0.853256
0.853256
0.853254
0.853254
0.853254
0.852096
0.852096
0.852096
0.852098
0.852098
0.852098
0.849779
0.849779
0.849779
0.851651
0.851651
0.851651
0.850752
0.850752
0.850752
0.851213
0.851213
0.851213
0.851653
0.851653
0.851653
0.854835
0.854835
0.854835
0.854839
0.854839
0.854839
0.855099
0.855099
0.855099
0.854834
0.854834
0.854834
0.854547
0.854547
0.854547
0.854549
0.854549
0.854549
0.850762
0.850762
0.850762
0.851222
0.851222
0.851222
0.851224
0.851224
0.851224
0.850765
0.850765
0.850765
0.850756
0.850756
0.850756
0.851214
0.851214
0.851214
0.850757
0.850757
0.850757
0.851218
0.851218
0.851218
0.851657
0.851657
0.851657
0.851658
0.851658
0.851658
0.852878
0.852878
0.852878
0.852881
0.852881
0.852881
0.852873
0.852873
0.852873
0.852877
0.852877
0.852877
0.852488
0.852488
0.852488
0.852486
0.852486
0.852486
0.852546
0.852546
0.852546
0.852933
0.852933
0.852933
0.855639
0.855639
0.855639
0.855639
0.855639
0.855639
0.855854
0.855854
0.855854
0.855854
0.855854
0.855854
0.855639
0.855639
0.855639
0.855407
0.855407
0.855407
0.855407
0.855407
0.855407
0.855638
0.855638
0.855638
0.855854
0.855854
0.855854
0.855854
0.855854
0.855854
0.852932
0.852932
0.852932
0.852544
0.852544
0.852544
0.855159
0.855159
0.855159
0.855158
0.855158
0.855158
0.855408
0.855408
0.855408
0.855408
0.855408
0.855408
0.854608
0.854608
0.854608
0.854307
0.854307
0.854307
0.854306
0.854306
0.854306
0.854607
0.854607
0.854607
0.854891
0.854891
0.854891
0.854891
0.854891
0.854891
0.85461
0.85461
0.85461
0.854609
0.854609
0.854609
0.854308
0.854308
0.854308
0.854309
0.854309
0.854309
0.854893
0.854893
0.854893
0.854892
0.854892
0.854892
0.853655
0.853655
0.853655
0.853302
0.853302
0.853302
0.853989
0.853989
0.853989
0.85399
0.85399
0.85399
0.85292
0.85292
0.85292
0.852919
0.852919
0.852919
0.851701
0.851701
0.851701
0.852125
0.852125
0.852125
0.852529
0.852529
0.852529
0.85253
0.85253
0.85253
0.853987
0.853987
0.853987
0.854606
0.854606
0.854606
0.854305
0.854305
0.854305
0.854304
0.854304
0.854304
0.845813
0.845813
0.845813
0.848209
0.848209
0.848209
0.847048
0.847048
0.847048
0.846441
0.846441
0.846441
0.846442
0.846442
0.846442
0.847051
0.847051
0.847051
0.847637
0.847637
0.847637
0.847639
0.847639
0.847639
0.850778
0.850778
0.850778
0.8503
0.8503
0.8503
0.850311
0.850311
0.850311
0.849811
0.849811
0.849811
0.853651
0.853651
0.853651
0.850816
0.850816
0.850816
0.847086
0.847086
0.847086
0.847087
0.847087
0.847087
0.850338
0.850338
0.850338
0.849843
0.849843
0.849843
0.849329
0.849329
0.849329
0.804239
0.804239
0.804239
0.805765
0.805765
0.805765
0.80575
0.80575
0.80575
0.8102
0.8102
0.8102
0.807271
0.807271
0.807271
0.808745
0.808745
0.808745
0.807229
0.807229
0.807229
0.808735
0.808735
0.808735
0.807246
0.807246
0.807246
0.811623
0.811623
0.811623
0.790473
0.790473
0.790473
0.790476
0.790476
0.790476
0.792142
0.792142
0.792142
0.792145
0.792145
0.792145
0.84379
0.84379
0.84379
0.843791
0.843791
0.843791
0.847044
0.847044
0.847044
0.847047
0.847047
0.847047
0.847042
0.847042
0.847042
0.837581
0.837581
0.837581
0.837579
0.837579
0.837579
0.836707
0.836707
0.836707
0.841621
0.841621
0.841621
0.842365
0.842365
0.842365
0.843087
0.843087
0.843087
0.841618
0.841618
0.841618
0.843088
0.843088
0.843088
0.842364
0.842364
0.842364
0.842359
0.842359
0.842359
0.842361
0.842361
0.842361
0.841616
0.841616
0.841616
0.843787
0.843787
0.843787
0.849256
0.849256
0.849256
0.849257
0.849257
0.849257
0.848728
0.848728
0.848728
0.848726
0.848726
0.848726
0.848177
0.848177
0.848177
0.844479
0.844479
0.844479
0.845789
0.845789
0.845789
0.845142
0.845142
0.845142
0.844478
0.844478
0.844478
0.844482
0.844482
0.844482
0.846419
0.846419
0.846419
0.845791
0.845791
0.845791
0.845146
0.845146
0.845146
0.845147
0.845147
0.845147
0.817062
0.817062
0.817062
0.820896
0.820896
0.820896
0.83578
0.83578
0.83578
0.836674
0.836674
0.836674
0.834867
0.834867
0.834867
0.837561
0.837561
0.837561
0.837563
0.837563
0.837563
0.839226
0.839226
0.839226
0.838399
0.838399
0.838399
0.834873
0.834873
0.834873
0.833937
0.833937
0.833937
0.829967
0.829967
0.829967
0.82784
0.82784
0.82784
0.828916
0.828916
0.828916
0.832979
0.832979
0.832979
0.831999
0.831999
0.831999
0.832981
0.832981
0.832981
0.840056
0.840056
0.840056
0.828922
0.828922
0.828922
0.828923
0.828923
0.828923
0.824469
0.824469
0.824469
0.830997
0.830997
0.830997
0.800807
0.800807
0.800807
0.802423
0.802423
0.802423
0.800802
0.800802
0.800802
0.818342
0.818342
0.818342
0.819619
0.819619
0.819619
0.82087
0.82087
0.82087
0.823295
0.823295
0.823295
0.823295
0.823295
0.823295
0.827848
0.827848
0.827848
0.815707
0.815707
0.815707
0.856834
0.856834
0.856834
0.856806
0.856806
0.856806
0.856777
0.856777
0.856777
0.856412
0.856412
0.856412
0.856553
0.856553
0.856553
0.854487
0.854487
0.854487
0.856099
0.856099
0.856099
0.85592
0.85592
0.85592
0.854783
0.854783
0.854783
0.850707
0.850707
0.850707
0.850712
0.850712
0.850712
0.839221
0.839221
0.839221
0.840029
0.840029
0.840029
0.838394
0.838394
0.838394
0.840031
0.840031
0.840031
0.839225
0.839225
0.839225
0.838396
0.838396
0.838396
0.845754
0.845754
0.845754
0.846378
0.846378
0.846378
0.845752
0.845752
0.845752
0.848692
0.848692
0.848692
0.84377
0.84377
0.84377
0.848155
0.848155
0.848155
0.847585
0.847585
0.847585
0.846383
0.846383
0.846383
0.846381
0.846381
0.846381
0.848149
0.848149
0.848149
0.846993
0.846993
0.846993
0.847579
0.847579
0.847579
0.846991
0.846991
0.846991
0.848151
0.848151
0.848151
0.847583
0.847583
0.847583
0.850735
0.850735
0.850735
0.850259
0.850259
0.850259
0.848163
0.848163
0.848163
0.848722
0.848722
0.848722
0.84925
0.84925
0.84925
0.848717
0.848717
0.848717
0.849252
0.849252
0.849252
0.84872
0.84872
0.84872
0.85557
0.85557
0.85557
0.856161
0.856161
0.856161
0.855579
0.855579
0.855579
0.855794
0.855794
0.855794
0.856323
0.856323
0.856323
0.856321
0.856321
0.856321
0.856473
0.856473
0.856473
0.856599
0.856599
0.856599
0.856469
0.856469
0.856469
0.856598
0.856598
0.856598
0.85689
0.85689
0.85689
0.856838
0.856838
0.856838
0.85675
0.85675
0.85675
0.856886
0.856886
0.856886
0.856836
0.856836
0.856836
0.856747
0.856747
0.856747
0.856882
0.856882
0.856882
0.856829
0.856829
0.856829
0.856877
0.856877
0.856877
0.856827
0.856827
0.856827
0.78938
0.78938
0.78938
0.790513
0.790513
0.790513
0.794032
0.794032
0.794032
0.794031
0.794031
0.794031
0.790509
0.790509
0.790509
0.792173
0.792173
0.792173
0.790508
0.790508
0.790508
0.792171
0.792171
0.792171
0.799158
0.799158
0.799158
0.792197
0.792197
0.792197
0.790535
0.790535
0.790535
0.789402
0.789402
0.789402
0.800843
0.800843
0.800843
0.792197
0.792197
0.792197
0.790584
0.790584
0.790584
0.790551
0.790551
0.790551
0.797559
0.797559
0.797559
0.832081
0.832081
0.832081
0.834023
0.834023
0.834023
0.833063
0.833063
0.833063
0.835866
0.835866
0.835866
0.83587
0.83587
0.83587
0.835868
0.835868
0.835868
0.831069
0.831069
0.831069
0.830039
0.830039
0.830039
0.823367
0.823367
0.823367
0.831074
0.831074
0.831074
0.823353
0.823353
0.823353
0.825683
0.825683
0.825683
0.820926
0.820926
0.820926
0.822151
0.822151
0.822151
0.815747
0.815747
0.815747
0.817081
0.817081
0.817081
0.819672
0.819672
0.819672
0.81967
0.81967
0.81967
0.807163
0.807163
0.807163
0.805627
0.805627
0.805627
0.843856
0.843856
0.843856
0.84315
0.84315
0.84315
0.84648
0.84648
0.84648
0.836763
0.836763
0.836763
0.848233
0.848233
0.848233
0.847075
0.847075
0.847075
0.847663
0.847663
0.847663
0.818386
0.818386
0.818386
0.826807
0.826807
0.826807
0.828985
0.828985
0.828985
0.827909
0.827909
0.827909
0.811558
0.811558
0.811558
0.814366
0.814366
0.814366
0.812977
0.812977
0.812977
0.812976
0.812976
0.812976
0.814364
0.814364
0.814364
0.848742
0.848742
0.848742
0.848741
0.848741
0.848741
0.849272
0.849272
0.849272
0.849787
0.849787
0.849787
0.855118
0.855118
0.855118
0.855815
0.855815
0.855815
0.85601
0.85601
0.85601
0.856012
0.856012
0.856012
0.855599
0.855599
0.855599
0.855382
0.855382
0.855382
0.855381
0.855381
0.855381
0.8536
0.8536
0.8536
0.853597
0.853597
0.853597
0.853246
0.853246
0.853246
0.853245
0.853245
0.853245
0.854254
0.854254
0.854254
0.854554
0.854554
0.854554
0.854552
0.854552
0.854552
0.854251
0.854251
0.854251
0.853933
0.853933
0.853933
0.853935
0.853935
0.853935
0.854256
0.854256
0.854256
0.854259
0.854259
0.854259
0.853605
0.853605
0.853605
0.85394
0.85394
0.85394
0.853938
0.853938
0.853938
0.853602
0.853602
0.853602
0.85325
0.85325
0.85325
0.853251
0.853251
0.853251
0.85484
0.85484
0.85484
0.854557
0.854557
0.854557
0.854559
0.854559
0.854559
0.854843
0.854843
0.854843
0.855107
0.855107
0.855107
0.855109
0.855109
0.855109
0.855351
0.855351
0.855351
0.855102
0.855102
0.855102
0.855104
0.855104
0.855104
0.856007
0.856007
0.856007
0.856006
0.856006
0.856006
0.852896
0.852896
0.852896
0.852101
0.852101
0.852101
0.851237
0.851237
0.851237
0.852501
0.852501
0.852501
0.85289
0.85289
0.85289
0.853949
0.853949
0.853949
0.853614
0.853614
0.853614
0.85326
0.85326
0.85326
0.853259
0.853259
0.853259
0.854268
0.854268
0.854268
0.854568
0.854568
0.854568
0.854854
0.854854
0.854854
0.854852
0.854852
0.854852
0.853267
0.853267
0.853267
0.85362
0.85362
0.85362
0.852496
0.852496
0.852496
0.852089
0.852089
0.852089
0.851666
0.851666
0.851666
0.850299
0.850299
0.850299
0.849286
0.849286
0.849286
0.849289
0.849289
0.849289
0.849801
0.849801
0.849801
0.849802
0.849802
0.849802
0.848205
0.848205
0.848205
0.848756
0.848756
0.848756
0.848754
0.848754
0.848754
0.848202
0.848202
0.848202
0.847633
0.847633
0.847633
0.847635
0.847635
0.847635
0.848201
0.848201
0.848201
0.84763
0.84763
0.84763
0.847629
0.847629
0.847629
0.851672
0.851672
0.851672
0.849266
0.849266
0.849266
0.848184
0.848184
0.848184
0.848736
0.848736
0.848736
0.849268
0.849268
0.849268
0.848731
0.848731
0.848731
0.848179
0.848179
0.848179
0.84761
0.84761
0.84761
0.847612
0.847612
0.847612
0.848182
0.848182
0.848182
0.848733
0.848733
0.848733
0.855098
0.855098
0.855098
0.855346
0.855346
0.855346
0.855344
0.855344
0.855344
0.855094
0.855094
0.855094
0.85483
0.85483
0.85483
0.854829
0.854829
0.854829
0.852084
0.852084
0.852084
0.852087
0.852087
0.852087
0.851661
0.851661
0.851661
0.851663
0.851663
0.851663
0.852492
0.852492
0.852492
0.852491
0.852491
0.852491
0.849276
0.849276
0.849276
0.849789
0.849789
0.849789
0.850285
0.850285
0.850285
0.850287
0.850287
0.850287
0.853298
0.853298
0.853298
0.852543
0.852543
0.852543
0.852136
0.852136
0.852136
0.852135
0.852135
0.852135
0.852541
0.852541
0.852541
0.855836
0.855836
0.855836
0.8517
0.8517
0.8517
0.851697
0.851697
0.851697
0.852123
0.852123
0.852123
0.852121
0.852121
0.852121
0.849827
0.849827
0.849827
0.850799
0.850799
0.850799
0.851257
0.851257
0.851257
0.851256
0.851256
0.851256
0.854285
0.854285
0.854285
0.850307
0.850307
0.850307
0.850308
0.850308
0.850308
0.854604
0.854604
0.854604
0.848763
0.848763
0.848763
0.848211
0.848211
0.848211
0.849805
0.849805
0.849805
0.84929
0.84929
0.84929
0.848758
0.848758
0.848758
0.84876
0.84876
0.84876
0.85078
0.85078
0.85078
0.850312
0.850312
0.850312
0.849297
0.849297
0.849297
0.848764
0.848764
0.848764
0.849815
0.849815
0.849815
0.849813
0.849813
0.849813
0.849299
0.849299
0.849299
0.849301
0.849301
0.849301
0.848768
0.848768
0.848768
0.848767
0.848767
0.848767
0.851271
0.851271
0.851271
0.851711
0.851711
0.851711
0.85365
0.85365
0.85365
0.853648
0.853648
0.853648
0.853985
0.853985
0.853985
0.853984
0.853984
0.853984
0.852923
0.852923
0.852923
0.851717
0.851717
0.851717
0.852139
0.852139
0.852139
0.852138
0.852138
0.852138
0.851275
0.851275
0.851275
0.848797
0.848797
0.848797
0.847676
0.847676
0.847676
0.848245
0.848245
0.848245
0.849324
0.849324
0.849324
0.849327
0.849327
0.849327
0.849325
0.849325
0.849325
0.804203
0.804203
0.804203
0.808707
0.808707
0.808707
0.811589
0.811589
0.811589
0.811598
0.811598
0.811598
0.810172
0.810172
0.810172
0.810183
0.810183
0.810183
0.811616
0.811616
0.811616
0.813007
0.813007
0.813007
0.813014
0.813014
0.813014
0.789341
0.789341
0.789341
0.789336
0.789336
0.789336
0.790482
0.790482
0.790482
0.79048
0.79048
0.79048
0.789348
0.789348
0.789348
0.789343
0.789343
0.789343
0.799135
0.799135
0.799135
0.802421
0.802421
0.802421
0.838429
0.838429
0.838429
0.838427
0.838427
0.838427
0.835812
0.835812
0.835812
0.836706
0.836706
0.836706
0.837576
0.837576
0.837576
0.844484
0.844484
0.844484
0.84515
0.84515
0.84515
0.845152
0.845152
0.845152
0.844487
0.844487
0.844487
0.844493
0.844493
0.844493
0.843102
0.843102
0.843102
0.843808
0.843808
0.843808
0.845809
0.845809
0.845809
0.845812
0.845812
0.845812
0.846438
0.846438
0.846438
0.846437
0.846437
0.846437
0.844496
0.844496
0.844496
0.843809
0.843809
0.843809
0.843105
0.843105
0.843105
0.846434
0.846434
0.846434
0.845808
0.845808
0.845808
0.845159
0.845159
0.845159
0.845161
0.845161
0.845161
0.842377
0.842377
0.842377
0.841631
0.841631
0.841631
0.840866
0.840866
0.840866
0.842379
0.842379
0.842379
0.840867
0.840867
0.840867
0.841634
0.841634
0.841634
0.841635
0.841635
0.841635
0.833004
0.833004
0.833004
0.832021
0.832021
0.832021
0.833006
0.833006
0.833006
0.832024
0.832024
0.832024
0.833009
0.833009
0.833009
0.832025
0.832025
0.832025
0.825637
0.825637
0.825637
0.826762
0.826762
0.826762
0.837584
0.837584
0.837584
0.837585
0.837585
0.837585
0.839264
0.839264
0.839264
0.838436
0.838436
0.838436
0.839267
0.839267
0.839267
0.838437
0.838437
0.838437
0.83671
0.83671
0.83671
0.836712
0.836712
0.836712
0.841613
0.841613
0.841613
0.840059
0.840059
0.840059
0.849769
0.849769
0.849769
0.85074
0.85074
0.85074
0.849767
0.849767
0.849767
0.850261
0.850261
0.850261
0.851202
0.851202
0.851202
0.850741
0.850741
0.850741
0.850265
0.850265
0.850265
0.844473
0.844473
0.844473
0.845141
0.845141
0.845141
0.844474
0.844474
0.844474
0.848174
0.848174
0.848174
0.848172
0.848172
0.848172
0.844464
0.844464
0.844464
0.84642
0.84642
0.84642
0.845794
0.845794
0.845794
0.847029
0.847029
0.847029
0.84703
0.84703
0.84703
0.846423
0.846423
0.846423
0.845796
0.845796
0.845796
0.82211
0.82211
0.82211
0.823312
0.823312
0.823312
0.824486
0.824486
0.824486
0.823304
0.823304
0.823304
0.835815
0.835815
0.835815
0.833964
0.833964
0.833964
0.834902
0.834902
0.834902
0.835816
0.835816
0.835816
0.832019
0.832019
0.832019
0.826749
0.826749
0.826749
0.827849
0.827849
0.827849
0.823302
0.823302
0.823302
0.82089
0.82089
0.82089
0.820888
0.820888
0.820888
0.820884
0.820884
0.820884
0.820886
0.820886
0.820886
0.837588
0.837588
0.837588
0.827872
0.827872
0.827872
0.82677
0.82677
0.82677
0.81836
0.81836
0.81836
0.818358
0.818358
0.818358
0.819639
0.819639
0.819639
0.819638
0.819638
0.819638
0.818362
0.818362
0.818362
0.819642
0.819642
0.819642
0.819643
0.819643
0.819643
0.817056
0.817056
0.817056
0.81706
0.81706
0.81706
0.815725
0.815725
0.815725
0.815726
0.815726
0.815726
0.817058
0.817058
0.817058
0.818366
0.818366
0.818366
0.818364
0.818364
0.818364
0.822122
0.822122
0.822122
0.822117
0.822117
0.822117
0.823317
0.823317
0.823317
0.824493
0.824493
0.824493
0.836678
0.836678
0.836678
0.837549
0.837549
0.837549
0.837547
0.837547
0.837547
0.836675
0.836675
0.836675
0.83579
0.83579
0.83579
0.836683
0.836683
0.836683
0.834876
0.834876
0.834876
0.836685
0.836685
0.836685
0.836692
0.836692
0.836692
0.834886
0.834886
0.834886
0.832003
0.832003
0.832003
0.837553
0.837553
0.837553
0.837552
0.837552
0.837552
0.838401
0.838401
0.838401
0.827839
0.827839
0.827839
0.845126
0.845126
0.845126
0.843777
0.843777
0.843777
0.844463
0.844463
0.844463
0.845127
0.845127
0.845127
0.845122
0.845122
0.845122
0.84512
0.84512
0.84512
0.843069
0.843069
0.843069
0.843775
0.843775
0.843775
0.844459
0.844459
0.844459
0.844457
0.844457
0.844457
0.843771
0.843771
0.843771
0.843067
0.843067
0.843067
0.843785
0.843785
0.843785
0.843079
0.843079
0.843079
0.840843
0.840843
0.840843
0.841608
0.841608
0.841608
0.842354
0.842354
0.842354
0.840844
0.840844
0.840844
0.842356
0.842356
0.842356
0.841611
0.841611
0.841611
0.840054
0.840054
0.840054
0.838413
0.838413
0.838413
0.840051
0.840051
0.840051
0.840838
0.840838
0.840838
0.841607
0.841607
0.841607
0.84084
0.84084
0.84084
0.841602
0.841602
0.841602
0.842346
0.842346
0.842346
0.843072
0.843072
0.843072
0.841603
0.841603
0.841603
0.832015
0.832015
0.832015
0.832017
0.832017
0.832017
0.829973
0.829973
0.829973
0.829974
0.829974
0.829974
0.829977
0.829977
0.829977
0.82087
0.82087
0.82087
0.822095
0.822095
0.822095
0.81834
0.81834
0.81834
0.82892
0.82892
0.82892