<VTKFile type="UnstructuredGrid" version="1.0">
<UnstructuredGrid>
<Piece NumberOfPoints="11046" NumberOfCells="3682">
<Points>
<DataArray type="Float64" NumberOfComponents="3" format="ascii">
1.77647 2.48053 10.5302
1.76268 2.49432 10.5225
1.79026 2.46674 10.5225
1.46971 2.78729 10.5389
1.457 2.8 10.5225
1.47379 2.78321 10.5225
1.46971 2.78729 10.5389
1.457 2.8 10.5464
1.457 2.8 10.5225
1.79026 2.46674 11.4225
1.76268 2.49432 11.4225
1.77647 2.48053 11.4148
1.95562 2.30138 11.4015
1.95562 2.30138 11.4225
1.94184 2.31516 11.4148
1.7213 2.5357 11.2999
1.73509 2.52191 11.2885
1.7351 2.5219 11.3112
1.94184 2.31516 10.5302
1.95562 2.30138 10.5225
1.95562 2.30138 10.5435
1.76268 2.49432 10.5658
1.77647 2.48053 10.5538
1.77647 2.48053 10.5768
1.77647 2.48053 10.5768
1.77647 2.48053 10.5538
1.79025 2.46675 10.5658
1.79025 2.46675 10.95
1.80403 2.45297 10.9612
1.79025 2.46675 10.9725
1.457 2.8 10.995
1.457 2.8 10.9725
1.471 2.786 10.9838
2.0934 2.1636 11.1979
2.07961 2.17739 11.2092
2.07961 2.17739 11.1866
1.95561 2.30139 11.198
1.96939 2.28761 11.1867
1.96938 2.28762 11.2093
1.96938 2.28762 11.2093
1.96939 2.28761 11.1867
1.98316 2.27384 11.198
1.94184 2.31516 11.4148
1.95562 2.30138 11.4225
1.92806 2.32894 11.4225
1.84538 2.41162 11.3792
1.85916 2.39784 11.3912
1.84538 2.41162 11.4015
1.87294 2.38406 11.3792
1.85916 2.39784 11.3912
1.85916 2.39784 11.3682
1.85916 2.39784 11.3682
1.85916 2.39784 11.3912
1.84538 2.41162 11.3792
1.79025 2.46675 11.0626
1.77646 2.48054 11.0739
1.77646 2.48054 11.0513
1.79025 2.46675 10.9725
1.80403 2.45297 10.9612
1.80403 2.45297 10.9838
1.77646 2.48054 11.1415
1.79025 2.46675 11.1528
1.77646 2.48054 11.1641
1.77647 2.48053 11.4148
1.76268 2.49432 11.4225
1.76268 2.49432 11.4014
2.07959 2.17741 10.6453
2.0934 2.1636 10.6567
2.0796 2.1774 10.668
1.92805 2.32895 10.95
1.94183 2.31517 10.9387
1.94183 2.31517 10.9612
1.74889 2.50811 10.5302
1.7351 2.5219 10.5225
1.76268 2.49432 10.5225
1.76268 2.49432 10.5658
1.74889 2.50811 10.5538
1.76268 2.49432 10.5436
1.76268 2.49432 10.5436
1.77647 2.48053 10.5538
1.76268 2.49432 10.5658
1.76268 2.49432 10.5436
1.74889 2.50811 10.5302
1.76268 2.49432 10.5225
1.74889 2.50811 10.5538
1.74889 2.50811 10.5302
1.76268 2.49432 10.5436
1.76268 2.49432 10.5436
1.76268 2.49432 10.5225
1.77647 2.48053 10.5302
1.77647 2.48053 10.5302
1.77647 2.48053 10.5538
1.76268 2.49432 10.5436
1.79025 2.46675 10.5658
1.77647 2.48053 10.5538
1.79025 2.46675 10.5436
1.79025 2.46675 10.5436
1.80404 2.45296 10.5538
1.79025 2.46675 10.5658
1.77647 2.48053 10.5302
1.79026 2.46674 10.5225
1.79025 2.46675 10.5436
1.79025 2.46675 10.5436
1.77647 2.48053 10.5538
1.77647 2.48053 10.5302
1.77647 2.48053 10.5997
1.77647 2.48053 10.5768
1.79025 2.46675 10.5884
1.79025 2.46675 10.5884
1.77647 2.48053 10.5768
1.79025 2.46675 10.5658
1.81782 2.43918 10.7922
1.81782 2.43918 10.7696
1.8316 2.4254 10.7809
1.80403 2.45297 10.7809
1.81782 2.43918 10.7696
1.81782 2.43918 10.7922
1.92806 2.32894 10.5225
1.95562 2.30138 10.5225
1.94184 2.31516 10.5302
1.79026 2.46674 10.5225
1.81782 2.43918 10.5225
1.80404 2.45296 10.5302
1.80404 2.45296 10.5302
1.79025 2.46675 10.5436
1.79026 2.46674 10.5225
1.80404 2.45296 10.5538
1.79025 2.46675 10.5436
1.80404 2.45296 10.5302
1.80403 2.45297 10.9387
1.79025 2.46675 10.95
1.79025 2.46675 10.9275
1.80403 2.45297 10.9612
1.79025 2.46675 10.95
1.80403 2.45297 10.9387
1.80403 2.45297 10.9387
1.81782 2.43918 10.95
1.80403 2.45297 10.9612
2.07962 2.17738 10.9162
2.0934 2.1636 10.9049
2.0934 2.1636 10.9275
2.0934 2.1636 10.7922
2.07961 2.17739 10.781
2.0934 2.1636 10.7697
2.0934 2.1636 11.0851
2.0934 2.1636 11.1076
2.07962 2.17738 11.0964
2.07962 2.17738 11.1189
2.06584 2.19116 11.1302
2.06584 2.19116 11.1077
2.07962 2.17738 11.1189
2.0934 2.1636 11.1076
2.0934 2.1636 11.1302
2.06584 2.19116 11.1077
2.07962 2.17738 11.0964
2.07962 2.17738 11.1189
2.07962 2.17738 11.1189
2.07962 2.17738 11.0964
2.0934 2.1636 11.1076
2.07962 2.17738 11.1415
2.0934 2.1636 11.1302
2.0934 2.1636 11.1528
2.07962 2.17738 11.1415
2.07962 2.17738 11.1189
2.0934 2.1636 11.1302
2.06584 2.19116 11.1302
2.07962 2.17738 11.1189
2.07962 2.17738 11.1415
2.0934 2.1636 11.1979
2.07961 2.17739 11.1866
2.0934 2.1636 11.1753
2.05205 2.20495 11.2092
2.03827 2.21873 11.1979
2.05205 2.20495 11.1866
2.05205 2.20495 11.164
2.05205 2.20495 11.1866
2.03827 2.21873 11.1753
2.03827 2.21873 11.1753
2.03827 2.21873 11.1979
2.02449 2.23251 11.1866
2.03827 2.21873 11.1753
2.05205 2.20495 11.1866
2.03827 2.21873 11.1979
2.0934 2.1636 11.0175
2.07962 2.17738 11.0063
2.0934 2.1636 10.995
2.07962 2.17738 11.0738
2.0934 2.1636 11.0626
2.0934 2.1636 11.0851
2.0934 2.1636 11.0851
2.07962 2.17738 11.0964
2.07962 2.17738 11.0738
2.07962 2.17738 11.0738
2.07962 2.17738 11.0513
2.0934 2.1636 11.0626
2.06584 2.19116 11.0626
2.07962 2.17738 11.0513
2.07962 2.17738 11.0738
1.98316 2.27384 11.3112
1.96939 2.28761 11.3226
1.96939 2.28761 11.2999
1.9694 2.2876 11.3682
1.95562 2.30138 11.3792
1.95562 2.30138 11.3566
1.94184 2.31516 11.3912
1.95562 2.30138 11.4015
1.94184 2.31516 11.4148
1.94184 2.31516 11.3912
1.95562 2.30138 11.3792
1.95562 2.30138 11.4015
1.98319 2.27381 11.4015
1.98319 2.27381 11.3792
1.99698 2.26002 11.3912
1.98316 2.27384 11.198
1.96939 2.28761 11.1867
1.98316 2.27384 11.1754
1.96939 2.28761 11.1867
1.96939 2.28761 11.1641
1.98316 2.27384 11.1754
1.98316 2.27384 11.1528
1.99694 2.26006 11.1641
1.98316 2.27384 11.1754
1.98316 2.27384 11.1754
1.96939 2.28761 11.1641
1.98316 2.27384 11.1528
1.98316 2.27384 11.2206
1.96938 2.28762 11.2093
1.98316 2.27384 11.198
1.98316 2.27384 11.2206
1.99694 2.26006 11.2319
1.98316 2.27384 11.2432
2.0934 2.1636 11.2205
2.07961 2.17739 11.2092
2.0934 2.1636 11.1979
1.79025 2.46675 11.4015
1.79026 2.46674 11.4225
1.77647 2.48053 11.4148
1.81782 2.43918 11.4015
1.81782 2.43918 11.4225
1.80404 2.45296 11.4148
1.80404 2.45296 11.4148
1.80404 2.45296 11.3912
1.81782 2.43918 11.4015
1.80404 2.45296 11.4148
1.81782 2.43918 11.4225
1.79026 2.46674 11.4225
1.79026 2.46674 11.4225
1.79025 2.46675 11.4015
1.80404 2.45296 11.4148
1.80404 2.45296 11.4148
1.79025 2.46675 11.4015
1.80404 2.45296 11.3912
1.80404 2.45296 11.3912
1.79025 2.46675 11.4015
1.79025 2.46675 11.3792
1.85916 2.39784 11.4148
1.87294 2.38406 11.4225
1.84538 2.41162 11.4225
1.84538 2.41162 11.4225
1.84538 2.41162 11.4015
1.85916 2.39784 11.4148
1.85916 2.39784 11.4148
1.84538 2.41162 11.4015
1.85916 2.39784 11.3912
1.8316 2.4254 11.4148
1.81782 2.43918 11.4225
1.81782 2.43918 11.4015
1.84538 2.41162 11.4225
1.81782 2.43918 11.4225
1.8316 2.4254 11.4148
1.8316 2.4254 11.4148
1.84538 2.41162 11.4015
1.84538 2.41162 11.4225
1.84538 2.41162 11.3792
1.84538 2.41162 11.4015
1.8316 2.4254 11.3912
1.8316 2.4254 11.3912
1.8316 2.4254 11.3682
1.84538 2.41162 11.3792
1.8316 2.4254 11.3912
1.8316 2.4254 11.4148
1.81782 2.43918 11.4015
1.84538 2.41162 11.4015
1.8316 2.4254 11.4148
1.8316 2.4254 11.3912
1.84538 2.41162 11.3566
1.85916 2.39784 11.3682
1.84538 2.41162 11.3792
1.84538 2.41162 11.3566
1.8316 2.4254 11.3682
1.8316 2.4254 11.3453
1.84538 2.41162 11.3792
1.8316 2.4254 11.3682
1.84538 2.41162 11.3566
1.76267 2.49433 11.0851
1.77646 2.48054 11.0739
1.77646 2.48054 11.0964
1.77646 2.48054 11.0964
1.76267 2.49433 11.1077
1.76267 2.49433 11.0851
1.79025 2.46675 11.1302
1.79025 2.46675 11.1528
1.77646 2.48054 11.1415
1.76267 2.49433 11.0175
1.77646 2.48054 11.0063
1.77646 2.48054 11.0288
1.77646 2.48054 11.0288
1.77646 2.48054 11.0063
1.79025 2.46675 11.0175
1.76267 2.49433 11.0626
1.77646 2.48054 11.0739
1.76267 2.49433 11.0851
1.76267 2.49433 11.0626
1.77646 2.48054 11.0513
1.77646 2.48054 11.0739
1.80403 2.45297 10.9612
1.81782 2.43918 10.95
1.81782 2.43918 10.9725
1.81782 2.43918 10.9725
1.80403 2.45297 10.9838
1.80403 2.45297 10.9612
1.79025 2.46675 11.0175
1.77646 2.48054 11.0063
1.79025 2.46675 10.995
1.79025 2.46675 10.9725
1.80403 2.45297 10.9838
1.79025 2.46675 10.995
1.79025 2.46675 11.198
1.79025 2.46675 11.2206
1.77646 2.48054 11.2093
1.72129 2.53571 11.2772
1.73509 2.52191 11.2885
1.7213 2.5357 11.2999
1.63839 2.61861 11.4148
1.65223 2.60477 11.4225
1.62454 2.63246 11.4225
1.70749 2.54951 11.2885
1.72129 2.53571 11.2772
1.7213 2.5357 11.2999
1.70749 2.54951 11.2658
1.72129 2.53571 11.2772
1.70749 2.54951 11.2885
1.74889 2.50811 11.3453
1.76268 2.49432 11.3566
1.74889 2.50811 11.3682
1.74889 2.50811 11.3682
1.76268 2.49432 11.3566
1.76268 2.49432 11.3792
1.7213 2.5357 11.3682
1.7213 2.5357 11.3453
1.7351 2.5219 11.3566
1.7351 2.5219 11.3566
1.7351 2.5219 11.3792
1.7213 2.5357 11.3682
1.7351 2.5219 11.3566
1.7351 2.5219 11.3339
1.74889 2.50811 11.3453
1.7213 2.5357 11.3453
1.7351 2.5219 11.3339
1.7351 2.5219 11.3566
1.74889 2.50811 11.3453
1.74889 2.50811 11.3682
1.7351 2.5219 11.3566
1.7351 2.5219 11.3566
1.74889 2.50811 11.3682
1.7351 2.5219 11.3792
1.76268 2.49432 11.4225
1.7351 2.5219 11.4225
1.74889 2.50811 11.4148
1.74889 2.50811 11.4148
1.76268 2.49432 11.4014
1.76268 2.49432 11.4225
1.7213 2.5357 11.3682
1.7351 2.5219 11.3792
1.7213 2.5357 11.3912
1.457 2.8 11.4225
1.46971 2.78729 11.4061
1.47379 2.78321 11.4225
1.47379 2.78321 11.4225
1.46971 2.78729 11.4061
1.48501 2.77199 11.4003
1.48501 2.77199 11.4003
1.48882 2.76818 11.4225
1.47379 2.78321 11.4225
2.07978 2.17722 10.5307
2.06614 2.19086 10.5225
2.0934 2.1636 10.5225
2.06582 2.19118 10.566
2.07962 2.17738 10.5543
2.07959 2.17741 10.5772
2.0934 2.1636 10.6341
2.0934 2.1636 10.6567
2.07959 2.17741 10.6453
2.07959 2.17741 10.5772
2.07962 2.17738 10.5543
2.0934 2.1636 10.5664
2.0934 2.1636 10.5664
2.0934 2.1636 10.5889
2.07959 2.17741 10.5772
2.07959 2.17741 10.5772
2.0934 2.1636 10.5889
2.07958 2.17742 10.6
2.0934 2.1636 10.7471
2.07961 2.17739 10.7358
2.0934 2.1636 10.7245
2.07961 2.17739 10.7132
2.0934 2.1636 10.7019
2.0934 2.1636 10.7245
2.0934 2.1636 10.7245
2.07961 2.17739 10.7358
2.07961 2.17739 10.7132
2.0934 2.1636 10.6793
2.0796 2.1774 10.668
2.0934 2.1636 10.6567
1.95562 2.30138 10.5225
1.98319 2.27381 10.5225
1.9694 2.2876 10.5302
1.9694 2.2876 10.5302
[...]
<PointData Scalars="View Factor" >
<DataArray type="Float64" Name="View Factor" NumberOfComponents="1" format="ascii">
0.724308
0.724308
0.724308
0.720806
0.720806
0.720806
0.720285
0.720285
0.720285
0.724038
0.724038
0.724038
0.668546
0.668546
0.668546
0.728317
0.728317
0.728317
0.668736
0.668736
0.668736
0.724849
0.724849
0.724849
0.723718
0.723718
0.723718
0.72168
0.72168
0.72168
0.720143
0.720143
0.720143
0.663827
0.663827
0.663827
0.66305
0.66305
0.66305
0.663238
0.663238
0.663238
0.673935
0.673935
0.673935
0.710398
0.710398
0.710398
0.706584
0.706584
0.706584
0.709181
0.709181
0.709181
0.723581
0.723581
0.723581
0.720964
0.720964
0.720964
0.723553
0.723553
0.723553
0.725106
0.725106
0.725106
0.663934
0.663934
0.663934
0.676606
0.676606
0.676606
0.727177
0.727177
0.727177
0.726324
0.726324
0.726324
0.72537
0.72537
0.72537
0.726331
0.726331
0.726331
0.726763
0.726763
0.726763
0.725376
0.725376
0.725376
0.724853
0.724853
0.724853
0.723109
0.723109
0.723109
0.721786
0.721786
0.721786
0.723114
0.723114
0.723114
0.723723
0.723723
0.723723
0.723712
0.723712
0.723712
0.723103
0.723103
0.723103
0.7169
0.7169
0.7169
0.718662
0.718662
0.718662
0.674133
0.674133
0.674133
0.720332
0.720332
0.720332
0.721792
0.721792
0.721792
0.721077
0.721077
0.721077
0.721687
0.721687
0.721687
0.720972
0.720972
0.720972
0.71944
0.71944
0.71944
0.66384
0.66384
0.66384
0.663866
0.663866
0.663866
0.663803
0.663803
0.663803
0.663952
0.663952
0.663952
0.663798
0.663798
0.663798
0.663924
0.663924
0.663924
0.663847
0.663847
0.663847
0.663794
0.663794
0.663794
0.663842
0.663842
0.663842
0.663919
0.663919
0.663919
0.663784
0.663784
0.663784
0.664
0.664
0.664
0.664005
0.664005
0.664005
0.663971
0.663971
0.663971
0.663998
0.663998
0.663998
0.663822
0.663822
0.663822
0.663808
0.663808
0.663808
0.663852
0.663852
0.663852
0.663856
0.663856
0.663856
0.663933
0.663933
0.663933
0.663212
0.663212
0.663212
0.662907
0.662907
0.662907
0.671293
0.671293
0.671293
0.668551
0.668551
0.668551
0.66344
0.66344
0.66344
0.663329
0.663329
0.663329
0.663244
0.663244
0.663244
0.663494
0.663494
0.663494
0.663334
0.663334
0.663334
0.663323
0.663323
0.663323
0.663479
0.663479
0.663479
0.663779
0.663779
0.663779
0.722852
0.722852
0.722852
0.718472
0.718472
0.718472
0.719297
0.719297
0.719297
0.720074
0.720074
0.720074
0.721534
0.721534
0.721534
0.720827
0.720827
0.720827
0.721542
0.721542
0.721542
0.707897
0.707897
0.707897
0.710391
0.710391
0.710391
0.709174
0.709174
0.709174
0.716712
0.716712
0.716712
0.714784
0.714784
0.714784
0.712683
0.712683
0.712683
0.71269
0.71269
0.71269
0.713768
0.713768
0.713768
0.715773
0.715773
0.715773
0.713761
0.713761
0.713761
0.710405
0.710405
0.710405
0.713776
0.713776
0.713776
0.712697
0.712697
0.712697
0.724702
0.724702
0.724702
0.725218
0.725218
0.725218
0.722945
0.722945
0.722945
0.724723
0.724723
0.724723
0.723596
0.723596
0.723596
0.725224
0.725224
0.725224
0.724709
0.724709
0.724709
0.718615
0.718615
0.718615
0.719434
0.719434
0.719434
0.722987
0.722987
0.722987
0.721674
0.721674
0.721674
0.722924
0.722924
0.722924
0.728607
0.728607
0.728607
0.730291
0.730291
0.730291
0.72911
0.72911
0.72911
0.729333
0.729333
0.729333
0.726511
0.726511
0.726511
0.726073
0.726073
0.726073
0.72858
0.72858
0.72858
0.728291
0.728291
0.728291
0.727661
0.727661
0.727661
0.728301
0.728301
0.728301
0.727301
0.727301
0.727301
0.727652
0.727652
0.727652
0.726895
0.726895
0.726895
0.726057
0.726057
0.726057
0.728572
0.728572
0.728572
0.7204
0.7204
0.7204
0.72125
0.72125
0.72125
0.721808
0.721808
0.721808
0.663996
0.663996
0.663996
0.664027
0.664027
0.664027
0.66389
0.66389
0.66389
0.663949
0.663949
0.663949
0.663902
0.663902
0.663902
0.663946
0.663946
0.663946
0.663874
0.663874
0.663874
0.663878
0.663878
0.663878
0.663922
0.663922
0.663922
0.663886
0.663886
0.663886
0.663282
0.663282
0.663282
0.663083
0.663083
0.663083
0.676659
0.676659
0.676659
0.683775
0.683775
0.683775
0.679118
0.679118
0.679118
0.671458
0.671458
0.671458
0.692099
0.692099
0.692099
0.695814
0.695814
0.695814
0.671481
0.671481
0.671481
0.668732
0.668732
0.668732
0.671477
0.671477
0.671477
0.668682
0.668682
0.668682
0.663024
0.663024
0.663024
0.679064
0.679064
0.679064
0.726757
0.726757
0.726757
0.702433
0.702433
0.702433
0.710625
0.710625
0.710625
0.70091
0.70091
0.70091
0.692079
0.692079
0.692079
0.695794
0.695794
0.695794
0.705349
0.705349
0.705349
0.702412
0.702412
0.702412
0.72173
0.72173
0.72173
0.723052
0.723052
0.723052
0.715953
0.715953
0.715953
0.716893
0.716893
0.716893
0.71393
0.71393
0.71393
0.715947
0.715947
0.715947
0.712852
0.712852
0.712852
0.713926
0.713926
0.713926
0.695804
0.695804
0.695804
0.70813
0.70813
0.70813
0.700915
0.700915
0.700915
0.702471
0.702471
0.702471
0.70541
0.70541
0.70541
0.697607
0.697607
0.697607
0.721071
0.721071
0.721071
0.719538
0.719538
0.719538
0.718712
0.718712
0.718712
0.721782
0.721782
0.721782
0.723007
0.723007
0.723007
0.727823
0.727823
0.727823
0.710551
0.710551
0.710551
0.712847
0.712847
0.712847
0.71054
0.71054
0.71054
0.709316
0.709316
0.709316
0.706711
0.706711
0.706711
0.719459
0.719459
0.719459
0.718639
0.718639
0.718639
0.726239
0.726239
0.726239
0.725286
0.725286
0.725286
0.724764
0.724764
0.724764
0.713901
0.713901
0.713901
0.709311
0.709311
0.709311
0.712829
0.712829
0.712829
0.710535
0.710535
0.710535
0.710529
0.710529
0.710529
0.712823
0.712823
0.712823
0.720978
0.720978
0.720978
0.664028
0.664028
0.664028
0.663548
0.663548
0.663548
0.663752
0.663752
0.663752
0.663622
0.663622
0.663622
0.664024
0.664024
0.664024
0.664004
0.664004
0.664004
0.664055
0.664055
0.664055
0.664051
0.664051
0.664051
0.664058
0.664058
0.664058
0.664053
0.664053
0.664053
0.664044
0.664044
0.664044
0.663831
0.663831
0.663831
0.663844
0.663844
0.663844
0.663965
0.663965
0.663965
0.663888
0.663888
0.663888
0.663884
0.663884
0.663884
0.663835
0.663835
0.663835
0.663879
0.663879
0.663879
0.663956
0.663956
0.663956
0.663987
0.663987
0.663987
0.66391
0.66391
0.66391
0.663853
0.663853
0.663853
0.663901
0.663901
0.663901
0.73073
0.73073
0.73073
0.721645
0.721645
0.721645
0.72058
0.72058
0.72058
0.664002
0.664002
0.664002
0.663947
0.663947
0.663947
0.663991
0.663991
0.663991
0.663993
0.663993
0.663993
0.663822
0.663822
0.663822
0.663774
0.663774
0.663774
0.663996
0.663996
0.663996
0.663986
0.663986
0.663986
0.663904
0.663904
0.663904
0.663991
0.663991
0.663991
0.663937
0.663937
0.663937
0.663981
0.663981
0.663981
0.718582
0.718582
0.718582
0.720938
0.720938
0.720938
0.719407
0.719407
0.719407
0.722974
0.722974
0.722974
0.721653
0.721653
0.721653
0.723589
0.723589
0.723589
0.722982
0.722982
0.722982
0.718609
0.718609
0.718609
0.710524
0.710524
0.710524
0.709305
0.709305
0.709305
0.706682
0.706682
0.706682
0.705303
0.705303
0.705303
0.671386
0.671386
0.671386
0.663999
0.663999
0.663999
0.663937
0.663937
0.663937
0.663085
0.663085
0.663085
0.663279
0.663279
0.663279
0.663344
0.663344
0.663344
0.662967
0.662967
0.662967
0.683695
0.683695
0.683695
0.6859
0.6859
0.6859
0.663339
0.663339
0.663339
0.663249
0.663249
0.663249
0.663254
0.663254
0.663254
0.663065
0.663065
0.663065
0.663515
0.663515
0.663515
0.663504
0.663504
0.663504
0.663499
0.663499
0.663499
0.663569
0.663569
0.663569
0.663574
0.663574
0.663574
0.663704
0.663704
0.663704
0.663845
0.663845
0.663845
0.663961
0.663961
0.663961
0.663898
0.663898
0.663898
0.663996
0.663996
0.663996
0.664006
0.664006
0.664006
0.664015
0.664015
0.664015
0.663543
0.663543
0.663543
0.663613
0.663613
0.663613
0.663743
0.663743
0.663743
0.663618
0.663618
0.663618
0.663811
0.663811
0.663811
0.663552
0.663552
0.663552
0.663975
0.663975
0.663975
0.663943
0.663943
0.663943
0.663866
0.663866
0.663866
0.663966
0.663966
0.663966
0.663971
0.663971
0.663971
0.663938
0.663938
0.663938
0.663302
0.663302
0.663302
0.668557
0.668557
0.668557
0.671299
0.671299
0.671299
0.663012
0.663012
0.663012
0.663274
0.663274
0.663274
0.662896
0.662896
0.662896
0.663092
0.663092
0.663092
0.663296
0.663296
0.663296
0.663206
0.663206
0.663206
0.663516
0.663516
0.663516
0.705235
0.705235
0.705235
0.663055
0.663055
0.663055
0.671356
0.671356
0.671356
0.66861
0.66861
0.66861
0.662951
0.662951
0.662951
0.663554
0.663554
0.663554
0.663484
0.663484
0.663484
0.712767
0.712767
0.712767
0.724592
0.724592
0.724592
0.723466
0.723466
0.723466
0.722861
0.722861
0.722861
0.725114
0.725114
0.725114
0.700712
0.700712
0.700712
0.697407
0.697407
0.697407
0.709188
0.709188
0.709188
0.702265
0.702265
0.702265
0.705199
0.705199
0.705199
0.705193
0.705193
0.705193
0.706577
0.706577
0.706577
0.699079
0.699079
0.699079
0.702259
0.702259
0.702259
0.700704
0.700704
0.700704
0.695653
0.695653
0.695653
0.69194
0.69194
0.69194
0.695645
0.695645
0.695645
0.6974
0.6974
0.6974
0.687925
0.687925
0.687925
0.691933
0.691933
0.691933
0.689971
0.689971
0.689971
0.67895
0.67895
0.67895
0.676492
0.676492
0.676492
0.683605
0.683605
0.683605
0.685809
0.685809
0.685809
0.722953
0.722953
0.722953
0.723568
0.723568
0.723568
0.724695
0.724695
0.724695
0.723559
0.723559
0.723559
0.721627
0.721627
0.721627
0.718568
0.718568
0.718568
0.721633
0.721633
0.721633
0.719387
0.719387
0.719387
0.720919
0.720919
0.720919
0.725232
0.725232
0.725232
0.725238
0.725238
0.725238
0.724716
0.724716
0.724716
0.716852
0.716852
0.716852
0.712817
0.712817
0.712817
0.715912
0.715912
0.715912
0.713895
0.713895
0.713895
0.723538
0.723538
0.723538
0.715789
0.715789
0.715789
0.713783
0.713783
0.713783
0.709196
0.709196
0.709196
0.712705
0.712705
0.712705
0.710413
0.710413
0.710413
0.715804
0.715804
0.715804
0.72514
0.72514
0.72514
0.724618
0.724618
0.724618
0.726082
0.726082
0.726082
0.725132
0.725132
0.725132
0.726098
0.726098
0.726098
0.727678
0.727678
0.727678
0.727326
0.727326
0.727326
0.726537
0.726537
0.726537
0.71675
0.71675
0.71675
0.724626
0.724626
0.724626
0.725148
0.725148
0.725148
0.724634
0.724634
0.724634
0.723508
0.723508
0.723508
0.719372
0.719372
0.719372
0.720911
0.720911
0.720911
0.722902
0.722902
0.722902
0.720889
0.720889
0.720889
0.721604
0.721604
0.721604
0.720896
0.720896
0.720896
0.72859
0.72859
0.72859
0.728599
0.728599
0.728599
0.728309
0.728309
0.728309
0.729084
0.729084
0.729084
0.727291
0.727291
0.727291
0.726494
0.726494
0.726494
0.726064
0.726064
0.726064
0.726502
0.726502
0.726502
0.728818
0.728818
0.728818
0.728594
0.728594
0.728594
0.728151
0.728151
0.728151
0.727128
0.727128
0.727128
0.726565
0.726565
0.726565
0.727663
0.727663
0.727663
0.725295
0.725295
0.725295
0.725657
0.725657
0.725657
0.725956
0.725956
0.725956
0.722552
0.722552
0.722552
0.723302
0.723302
0.723302
0.721185
0.721185
0.721185
0.721654
0.721654
0.721654
0.664059
0.664059
0.664059
0.664062
0.664062
0.664062
0.66403
0.66403
0.66403
0.663898
0.663898
0.663898
0.663905
0.663905
0.663905
0.663908
0.663908
0.663908
0.663953
0.663953
0.663953
0.664055
0.664055
0.664055
0.664023
0.664023
0.664023
0.664075
0.664075
0.664075
0.664084
0.664084
0.664084
0.663918
0.663918
0.663918
0.66387
0.66387
0.66387
0.663914
0.663914
0.663914
0.66393
0.66393
0.66393
0.663926
0.663926
0.663926
0.663882
0.663882
0.663882
0.663182
0.663182
0.663182
0.663178
0.663178
0.663178
0.663079
0.663079
0.663079
0.66376
0.66376
0.66376
0.663878
0.663878
0.663878
0.663819
0.663819
0.663819
0.68598
0.68598
0.68598
0.702428
0.702428
0.702428
0.700872
0.700872
0.700872
0.697565
0.697565
0.697565
0.695809
0.695809
0.695809
0.697559
0.697559
0.697559
0.700867
0.700867
0.700867
0.695819
0.695819
0.695819
0.702438
0.702438
0.702438
0.697569
0.697569
0.697569
0.700877
0.700877
0.700877
0.692109
0.692109
0.692109
0.690144
0.690144
0.690144
0.692104
0.692104
0.692104
0.683771
0.683771
0.683771
0.685975
0.685975
0.685975
0.69014
0.69014
0.69014
0.690135
0.690135
0.690135
0.685971
0.685971
0.685971
0.702447
0.702447
0.702447
0.705395
0.705395
0.705395
0.70539
0.70539
0.70539
0.706775
0.706775
0.706775
0.668711
0.668711
0.668711
0.663354
0.663354
0.663354
0.671471
0.671471
0.671471
0.66317
0.66317
0.66317
0.663174
0.663174
0.663174
0.663075
0.663075
0.663075
0.663071
0.663071
0.663071
0.668726
0.668726
0.668726
0.668729
0.668729
0.668729
0.671474
0.671474
0.671474
0.679148
0.679148
0.679148
0.676684
0.676684
0.676684
0.683737
0.683737
0.683737
0.685936
0.685936
0.685936
0.69011
0.69011
0.69011
0.685941
0.685941
0.685941
0.671425
0.671425
0.671425
0.668678
0.668678
0.668678
0.683721
0.683721
0.683721
0.676591
0.676591
0.676591
0.663388
0.663388
0.663388
0.6901
0.6901
0.6901
0.692063
0.692063
0.692063
0.676611
0.676611
0.676611
0.679069
0.679069
0.679069
0.679074
0.679074
0.679074
0.683732
0.683732
0.683732
0.726319
0.726319
0.726319
0.724843
0.724843
0.724843
0.725366
0.725366
0.725366
0.72536
0.72536
0.72536
0.727916
0.727916
0.727916
0.727555
0.727555
0.727555
0.71868
0.71868
0.71868
0.710574
0.710574
0.710574
0.70537
0.70537
0.70537
0.705365
0.705365
0.705365
0.706749
0.706749
0.706749
0.709349
0.709349
0.709349
0.706744
0.706744
0.706744
0.723087
0.723087
0.723087
0.723701
0.723701
0.723701
0.724837
0.724837
0.724837
0.71503
0.71503
0.71503
0.712921
0.712921
0.712921
0.702466
0.702466
0.702466
0.710615
0.710615
0.710615
0.7106
0.7106
0.7106
0.710595
0.710595
0.710595
0.709375
0.709375
0.709375
0.692084
0.692084
0.692084
0.690115
0.690115
0.690115
0.685951
0.685951
0.685951
0.67143
0.67143
0.67143
0.676631
0.676631
0.676631
0.726696
0.726696
0.726696
0.723058
0.723058
0.723058
0.723667
0.723667
0.723667
0.71691
0.71691
0.71691
0.712875
0.712875
0.712875
0.718668
0.718668
0.718668
0.721736
0.721736
0.721736
0.719488
0.719488
0.719488
0.721021
0.721021
0.721021
0.712869
0.712869
0.712869
0.713948
0.713948
0.713948
0.715964
0.715964
0.715964
0.716905
0.716905
0.716905
0.715959
0.715959
0.715959
0.713942
0.713942
0.713942
0.718656
0.718656
0.718656
0.719481
0.719481
0.719481
0.721015
0.721015
0.721015
0.697555
0.697555
0.697555
0.695799
0.695799
0.695799
0.700856
0.700856
0.700856
0.697549
0.697549
0.697549
0.709339
0.709339
0.709339
0.710557
0.710557
0.710557
0.706734
0.706734
0.706734
0.709332
0.709332
0.709332
0.699301
0.699301
0.699301
0.7094
0.7094
0.7094
0.706794
0.706794
0.706794
0.709396
0.709396
0.709396
0.71062
0.71062
0.71062
0.702476
0.702476
0.702476
0.700919
0.700919
0.700919
0.702481
0.702481
0.702481
0.705414
0.705414
0.705414
0.705419
0.705419
0.705419
0.706799
0.706799
0.706799
0.725247
0.725247
0.725247
0.726198
0.726198
0.726198
0.726636
0.726636
0.726636
0.728464
0.728464
0.728464
0.716888
0.716888
0.716888
0.715942
0.715942
0.715942
0.716882
0.716882
0.716882
0.705332
0.705332
0.705332
0.706717
0.706717
0.706717
0.702402
0.702402
0.702402
0.705338
0.705338
0.705338
0.705326
0.705326
0.705326
0.706705
0.706705
0.706705
0.718634
0.718634
0.718634
0.719452
0.719452
0.719452
0.716876
0.716876
0.716876
0.712841
0.712841
0.712841
0.71392
0.71392
0.71392
0.715935
0.715935
0.715935
0.719465
0.719465
0.719465
0.720996
0.720996
0.720996
0.721711
0.721711
0.721711
0.718645
0.718645
0.718645
0.727469
0.727469
0.727469
0.726677
0.726677
0.726677
0.723635
0.723635
0.723635
0.72099
0.72099
0.72099
0.721705
0.721705
0.721705
0.723027
0.723027
0.723027
0.715919
0.715919
0.715919
0.716865
0.716865
0.716865
0.718626
0.718626
0.718626
0.719445
0.719445
0.719445
0.716858
0.716858
0.716858
0.718621
0.718621
0.718621
0.723622
0.723622
0.723622
0.720983
0.720983
0.720983
0.721698
0.721698
0.721698
0.72302
0.72302
0.72302
0.72363
0.72363
0.72363
0.721693
0.721693
0.721693
0.723015
0.723015
0.723015
0.726704
0.726704
0.726704
0.726265
0.726265
0.726265
0.725311
0.725311
0.725311
0.724795
0.724795
0.724795
0.718674
0.718674
0.718674
0.7195
0.7195
0.7195
0.721032
0.721032
0.721032
0.721742
0.721742
0.721742
0.721027
0.721027
0.721027
0.719493
0.719493
0.719493
0.663946
0.663946
0.663946
0.664008
0.664008
0.664008
0.664033
0.664033
0.664033
0.663908
0.663908
0.663908
0.66395
0.66395
0.66395
0.664013
0.664013
0.664013
0.663998
0.663998
0.663998
0.663961
0.663961
0.663961
0.664049
0.664049
0.664049
0.664033
0.664033
0.664033
0.663989
0.663989
0.663989
0.663993
0.663993
0.663993
0.664038
0.664038
0.664038
0.663862
0.663862
0.663862
0.663905
0.663905
0.663905
0.663857
0.663857
0.663857
0.664066
0.664066
0.664066
0.663978
0.663978
0.663978
0.663982
0.663982
0.663982
0.664011
0.664011
0.664011
0.664055
0.664055
0.664055
0.664071
0.664071
0.664071
0.664015
0.664015
0.664015
0.664059
0.664059
0.664059
0.722824
0.722824
0.722824
0.72634
0.72634
0.72634
0.726031
0.726031
0.726031
0.73053
0.73053
0.73053
0.730374
0.730374
0.730374
0.730571
0.730571
0.730571
0.730631
0.730631
0.730631
0.730577
0.730577
0.730577
0.730523
0.730523
0.730523
0.72999
0.72999
0.72999
0.730514
0.730514
0.730514
0.730361
0.730361
0.730361
0.730254
0.730254
0.730254
0.730026
0.730026
0.730026
0.729869
0.729869
0.729869
0.729492
0.729492
0.729492
0.720318
0.720318
0.720318
0.72033
0.72033
0.72033
0.720725
0.720725
0.720725
0.720765
0.720765
0.720765
0.72162
0.72162
0.72162
0.721569
0.721569
0.721569
0.722027
0.722027
0.722027
0.73029
0.73029
0.73029
0.730638
0.730638
0.730638
0.663899
0.663899
0.663899
0.663932
0.663932
0.663932
0.663976
0.663976
0.663976
0.663976
0.663976
0.663976
0.663942
0.663942
0.663942
0.663789
0.663789
0.663789
0.663832
0.663832
0.663832
0.663909
0.663909
0.663909
0.663837
0.663837
0.663837
0.663914
0.663914
0.663914
0.715887
0.715887
0.715887
0.716834
0.716834
0.716834
0.718589
0.718589
0.718589
0.716826
0.716826
0.716826
0.719401
0.719401
0.719401
0.718576
0.718576
0.718576
0.719393
0.719393
0.719393
0.720924
0.720924
0.720924
0.723575
0.723575
0.723575
0.722968
0.722968
0.722968
0.721646
0.721646
0.721646
0.720931
0.720931
0.720931
0.72296
0.72296
0.72296
0.721639
0.721639
0.721639
0.716845
0.716845
0.716845
0.713889
0.713889
0.713889
0.715906
0.715906
0.715906
0.712811
0.712811
0.712811
0.718602
0.718602
0.718602
0.721667
0.721667
0.721667
0.720959
0.720959
0.720959
0.719427
0.719427
0.719427
0.71684
0.71684
0.71684
0.715899
0.715899
0.715899
0.713883
0.713883
0.713883
0.715894
0.715894
0.715894
0.713872
0.713872
0.713872
0.709281
0.709281
0.709281
0.706688
0.706688
0.706688
0.705309
0.705309
0.705309
0.668639
0.668639
0.668639
0.662982
0.662982
0.662982
0.668629
0.668629
0.668629
0.662972
0.662972
0.662972
0.663071
0.663071
0.663071
0.663259
0.663259
0.663259
0.663349
0.663349
0.663349
0.702373
0.702373
0.702373
0.695757
0.695757
0.695757
0.697512
0.697512
0.697512
0.700818
0.700818
0.700818
0.692043
0.692043
0.692043
0.676586
0.676586
0.676586
0.679044
0.679044
0.679044
0.683701
0.683701
0.683701
0.679049
0.679049
0.679049
0.663797
0.663797
0.663797
0.663894
0.663894
0.663894
0.663932
0.663932
0.663932
0.66389
0.66389
0.66389
0.664046
0.664046
0.664046
0.664019
0.664019
0.664019
0.664049
0.664049
0.664049
0.663995
0.663995
0.663995
0.664042
0.664042
0.664042
0.664015
0.664015
0.664015
0.663793
0.663793
0.663793
0.663738
0.663738
0.663738
0.663274
0.663274
0.663274
0.663359
0.663359
0.663359
0.663524
0.663524
0.663524
0.663364
0.663364
0.663364
0.66358
0.66358
0.66358
0.66351
0.66351
0.66351
0.663585
0.663585
0.663585
0.663714
0.663714
0.663714
0.663861
0.663861
0.663861
0.663764
0.663764
0.663764
0.663709
0.663709
0.663709
0.663903
0.663903
0.663903
0.663866
0.663866
0.663866
0.663769
0.663769
0.663769
0.663748
0.663748
0.663748
0.663489
0.663489
0.663489
0.663564
0.663564
0.663564
0.663694
0.663694
0.663694
0.663559
0.663559
0.663559
0.663689
0.663689
0.663689
0.663951
0.663951
0.663951
0.663888
0.663888
0.663888
0.664011
0.664011
0.664011
0.664025
0.664025
0.664025
0.663928
0.663928
0.663928
0.664016
0.664016
0.664016
0.663961
0.663961
0.663961
0.664005
0.664005
0.664005
0.663956
0.663956
0.663956
0.664001
0.664001
0.664001
0.663941
0.663941
0.663941
0.663748
0.663748
0.663748
0.663899
0.663899
0.663899
0.663802
0.663802
0.663802
0.663903
0.663903
0.663903
0.663806
0.663806
0.663806
0.663912
0.663912
0.663912
0.663757
0.663757
0.663757
0.663627
0.663627
0.663627
0.663815
0.663815
0.663815
0.663761
0.663761
0.663761
0.663392
0.663392
0.663392
0.663302
0.663302
0.663302
0.663114
0.663114
0.663114
0.663015
0.663015
0.663015
0.663019
0.663019
0.663019
0.663118
0.663118
0.663118
0.663307
0.663307