<VTKFile type="UnstructuredGrid" version="1.0">
<UnstructuredGrid>
<Piece NumberOfPoints="11046" NumberOfCells="3682">
<Points>
<DataArray type="Float64" NumberOfComponents="3" format="ascii">
0.0582363 3.01 15.7668
0.05 3.01 15.7475
0.0717021 3.01 15.7475
0.95 3.01 16.1762
0.95 3.01 16.2152
0.942301 3.01 16.1957
0.0962623 3.01 16.6475
0.086422 3.01 16.6272
0.107711 3.01 16.6273
0.466226 3.01 16.3911
0.454968 3.01 16.4107
0.443707 3.01 16.3911
0.353567 3.01 16.3128
0.364839 3.01 16.2933
0.376113 3.01 16.3128
0.376113 3.01 16.3128
0.364843 3.01 16.3324
0.353567 3.01 16.3128
0.353567 3.01 16.3128
0.364843 3.01 16.3324
0.342292 3.01 16.3324
0.37611 3.01 16.2738
0.364837 3.01 16.2542
0.387379 3.01 16.2542
0.376113 3.01 16.3128
0.364839 3.01 16.2933
0.387381 3.01 16.2933
0.364839 3.01 16.2933
0.37611 3.01 16.2738
0.387381 3.01 16.2933
0.066417 3.01 16.6295
0.05 3.01 16.6475
0.05 3.01 16.6237
0.0582363 3.01 15.7668
0.0717021 3.01 15.7475
0.0817675 3.01 15.767
0.0817675 3.01 15.767
0.0711754 3.01 15.7864
0.0582363 3.01 15.7668
0.11641 3.01 15.7475
0.138968 3.01 15.7475
0.127475 3.01 15.767
0.127475 3.01 15.767
0.104722 3.01 15.767
0.11641 3.01 15.7475
0.0711754 3.01 15.7864
0.0817675 3.01 15.767
0.0934889 3.01 15.7865
0.0934889 3.01 15.7865
0.0817675 3.01 15.767
0.104722 3.01 15.767
0.116091 3.01 15.7865
0.104722 3.01 15.767
0.127475 3.01 15.767
0.116091 3.01 15.7865
0.0934889 3.01 15.7865
0.104722 3.01 15.767
0.116091 3.01 15.7865
0.127244 3.01 15.806
0.104394 3.01 15.806
0.104394 3.01 15.806
0.0934889 3.01 15.7865
0.116091 3.01 15.7865
0.941764 3.01 15.7668
0.928298 3.01 15.7475
0.95 3.01 15.7475
0.387379 3.01 16.2542
0.364837 3.01 16.2542
0.376108 3.01 16.2347
0.161282 3.01 16.1762
0.138583 3.01 16.1762
0.149908 3.01 16.1567
0.0933091 3.01 16.2542
0.0813038 3.01 16.2347
0.104333 3.01 16.2347
0.104333 3.01 16.2347
0.0813038 3.01 16.2347
0.0933065 3.01 16.2152
0.331016 3.01 16.3519
0.319739 3.01 16.3715
0.308447 3.01 16.3519
0.308447 3.01 16.3519
0.319729 3.01 16.3324
0.331016 3.01 16.3519
0.331016 3.01 16.3519
0.319729 3.01 16.3324
0.342292 3.01 16.3324
0.138613 3.01 16.3714
0.12718 3.01 16.3519
0.149933 3.01 16.3519
0.138613 3.01 16.3714
0.149933 3.01 16.3519
0.161316 3.01 16.3714
0.161316 3.01 16.3714
0.149933 3.01 16.3519
0.172648 3.01 16.3519
0.206681 3.01 16.3714
0.195336 3.01 16.3519
0.217999 3.01 16.3519
0.263262 3.01 16.3519
0.285863 3.01 16.3519
0.274572 3.01 16.3715
0.274559 3.01 16.3323
0.285863 3.01 16.3519
0.263262 3.01 16.3519
0.240697 3.01 15.767
0.229409 3.01 15.7475
0.252012 3.01 15.7475
0.138758 3.01 15.7865
0.116091 3.01 15.7865
0.127475 3.01 15.767
0.127244 3.01 15.806
0.116091 3.01 15.7865
0.138758 3.01 15.7865
0.229332 3.01 15.8255
0.206685 3.01 15.8255
0.218031 3.01 15.806
0.184016 3.01 15.8255
0.161325 3.01 15.8255
0.172705 3.01 15.806
0.184093 3.01 15.7865
0.172705 3.01 15.806
0.161431 3.01 15.7865
0.218082 3.01 15.767
0.229409 3.01 15.7475
0.240697 3.01 15.767
0.218082 3.01 15.767
0.206798 3.01 15.7475
0.229409 3.01 15.7475
0.138617 3.01 15.8255
0.161325 3.01 15.8255
0.149916 3.01 15.845
0.376107 3.01 16.1567
0.353559 3.01 16.1567
0.364834 3.01 16.1372
0.942264 3.01 16.391
0.95 3.01 16.3714
0.95 3.01 16.4106
0.466226 3.01 16.3911
0.443707 3.01 16.3911
0.454966 3.01 16.3715
0.466223 3.01 16.3128
0.477482 3.01 16.2933
0.488741 3.01 16.3128
0.466223 3.01 16.3128
0.454964 3.01 16.3324
0.443703 3.01 16.3128
0.511259 3.01 16.3128
0.522518 3.01 16.2933
0.533777 3.01 16.3128
0.533777 3.01 16.3128
0.522517 3.01 16.3324
0.511259 3.01 16.3128
0.488741 3.01 16.3128
0.477482 3.01 16.2933
0.5 3.01 16.2933
0.511259 3.01 16.3128
0.488741 3.01 16.3128
0.5 3.01 16.2933
0.5 3.01 16.2933
0.522518 3.01 16.2933
0.511259 3.01 16.3128
0.387388 3.01 16.3715
0.398653 3.01 16.3519
0.40992 3.01 16.3715
0.376117 3.01 16.3519
0.398653 3.01 16.3519
0.387388 3.01 16.3715
0.443703 3.01 16.3128
0.454964 3.01 16.3324
0.432443 3.01 16.3324
0.432443 3.01 16.3324
0.454964 3.01 16.3324
0.443705 3.01 16.3519
0.274559 3.01 16.3323
0.26325 3.01 16.3128
0.285853 3.01 16.3128
0.387384 3.01 16.3324
0.398653 3.01 16.3519
0.376117 3.01 16.3519
0.376117 3.01 16.3519
0.364843 3.01 16.3324
0.387384 3.01 16.3324
0.387384 3.01 16.3324
0.364843 3.01 16.3324
0.376113 3.01 16.3128
0.342292 3.01 16.3324
0.319729 3.01 16.3324
0.331009 3.01 16.3128
0.331009 3.01 16.3128
0.353567 3.01 16.3128
0.342292 3.01 16.3324
0.545011 3.01 16.6475
0.522505 3.01 16.6475
0.533759 3.01 16.6277
0.533762 3.01 16.5881
0.545018 3.01 16.5683
0.55627 3.01 16.5881
0.55627 3.01 16.5881
0.545018 3.01 16.5683
0.567528 3.01 16.5683
0.567528 3.01 16.5683
0.578788 3.01 16.5486
0.59004 3.01 16.5683
0.466232 3.01 16.5091
0.454974 3.01 16.4894
0.477488 3.01 16.4894
0.567516 3.01 16.6475
0.578772 3.01 16.6277
0.590022 3.01 16.6475
0.601316 3.01 16.5091
0.61257 3.01 16.5288
0.590051 3.01 16.5288
0.62384 3.01 16.5091
0.61257 3.01 16.5288
0.601316 3.01 16.5091
0.680198 3.01 16.4893
0.691494 3.01 16.4696
0.702757 3.01 16.4893
0.086422 3.01 16.6272
0.0962623 3.01 16.6475
0.073896 3.01 16.6475
0.073896 3.01 16.6475
0.066417 3.01 16.6295
0.086422 3.01 16.6272
0.05 3.01 16.6475
0.066417 3.01 16.6295
0.073896 3.01 16.6475
0.0721919 3.01 16.6079
0.066417 3.01 16.6295
0.05 3.01 16.6237
0.086422 3.01 16.6272
0.066417 3.01 16.6295
0.0721919 3.01 16.6079
0.118481 3.01 16.6475
0.0962623 3.01 16.6475
0.107711 3.01 16.6273
0.5 3.01 16.6475
0.477495 3.01 16.6475
0.488747 3.01 16.6277
0.432484 3.01 16.6475
0.409978 3.01 16.6475
0.421228 3.01 16.6277
0.443725 3.01 16.5486
0.421212 3.01 16.5486
0.432465 3.01 16.5288
0.319802 3.01 16.4893
0.331063 3.01 16.4696
0.342348 3.01 16.4893
0.353629 3.01 16.509
0.342348 3.01 16.4893
0.364886 3.01 16.4893
0.10433 3.01 16.1957
0.0933065 3.01 16.2152
0.0813011 3.01 16.1957
0.0939466 3.01 15.7475
0.11641 3.01 15.7475
0.104722 3.01 15.767
0.0939466 3.01 15.7475
0.0817675 3.01 15.767
0.0717021 3.01 15.7475
0.104722 3.01 15.767
0.0817675 3.01 15.767
0.0939466 3.01 15.7475
0.0933065 3.01 16.2152
0.0813038 3.01 16.2347
0.0710513 3.01 16.2152
0.0710513 3.01 16.2152
0.0813011 3.01 16.1957
0.0933065 3.01 16.2152
0.115908 3.01 16.2932
0.0933131 3.01 16.2932
0.104337 3.01 16.2737
0.104337 3.01 16.2737
0.127165 3.01 16.2737
0.115908 3.01 16.2932
0.104343 3.01 16.3128
0.0933131 3.01 16.2932
0.115908 3.01 16.2932
0.104343 3.01 16.3128
0.115915 3.01 16.3323
0.0933188 3.01 16.3323
0.942303 3.01 16.1567
0.95 3.01 16.1372
0.95 3.01 16.1762
0.92895 3.01 16.1372
0.95 3.01 16.1372
0.942303 3.01 16.1567
0.9187 3.01 16.1567
0.906695 3.01 16.1762
0.895671 3.01 16.1567
0.92895 3.01 16.1372
0.942303 3.01 16.1567
0.9187 3.01 16.1567
0.942316 3.01 15.9229
0.928965 3.01 15.9034
0.95 3.01 15.9034
0.95 3.01 15.9813
0.942309 3.01 15.9618
0.95 3.01 15.9423
0.942316 3.01 15.9229
0.95 3.01 15.9034
0.95 3.01 15.9423
0.95 3.01 15.7861
0.941764 3.01 15.7668
0.95 3.01 15.7475
0.95 3.01 15.7861
0.95 3.01 15.8253
0.942358 3.01 15.8057
0.612617 3.01 15.8254
0.635157 3.01 15.8254
0.623887 3.01 15.8449
0.895671 3.01 16.1567
0.884102 3.01 16.1372
0.906696 3.01 16.1372
0.906696 3.01 16.1372
0.9187 3.01 16.1567
0.895671 3.01 16.1567
0.92895 3.01 16.1372
0.9187 3.01 16.1567
0.906696 3.01 16.1372
0.353563 3.01 16.2738
0.37611 3.01 16.2738
0.364839 3.01 16.2933
0.364837 3.01 16.2542
0.37611 3.01 16.2738
0.353563 3.01 16.2738
0.297145 3.01 16.2933
0.319723 3.01 16.2933
0.308439 3.01 16.3128
0.308439 3.01 16.3128
0.285853 3.01 16.3128
0.297145 3.01 16.2933
0.308439 3.01 16.3128
0.331009 3.01 16.3128
0.319729 3.01 16.3324
0.319723 3.01 16.2933
0.331009 3.01 16.3128
0.308439 3.01 16.3128
0.17262 3.01 16.1567
0.161282 3.01 16.1762
0.149908 3.01 16.1567
0.138583 3.01 16.1762
0.161282 3.01 16.1762
0.149909 3.01 16.1957
0.149909 3.01 16.1957
0.127158 3.01 16.1957
0.138583 3.01 16.1762
0.149909 3.01 16.1957
0.172622 3.01 16.1957
0.161284 3.01 16.2152
0.161282 3.01 16.1762
0.172622 3.01 16.1957
0.149909 3.01 16.1957
0.240621 3.01 16.2737
0.217979 3.01 16.2737
0.229301 3.01 16.2542
0.229301 3.01 16.2542
0.217979 3.01 16.2737
0.206649 3.01 16.2542
0.195316 3.01 16.2737
0.206649 3.01 16.2542
0.217979 3.01 16.2737
0.115908 3.01 16.2932
0.127165 3.01 16.2737
0.138594 3.01 16.2932
0.0933091 3.01 16.2542
0.104333 3.01 16.2347
0.115904 3.01 16.2542
0.115904 3.01 16.2542
0.104333 3.01 16.2347
0.127161 3.01 16.2347
0.115904 3.01 16.2542
0.104337 3.01 16.2737
0.0933091 3.01 16.2542
0.127165 3.01 16.2737
0.104337 3.01 16.2737
0.115904 3.01 16.2542
0.115901 3.01 16.2152
0.104333 3.01 16.2347
0.0933065 3.01 16.2152
0.127161 3.01 16.2347
0.104333 3.01 16.2347
0.115901 3.01 16.2152
0.115901 3.01 16.2152
0.0933065 3.01 16.2152
0.10433 3.01 16.1957
0.10433 3.01 16.1957
0.127158 3.01 16.1957
0.115901 3.01 16.2152
0.183972 3.01 16.1762
0.17262 3.01 16.1567
0.195307 3.01 16.1567
0.161282 3.01 16.1762
0.17262 3.01 16.1567
0.183972 3.01 16.1762
0.183972 3.01 16.1762
0.172622 3.01 16.1957
0.161282 3.01 16.1762
0.263244 3.01 16.2737
0.240621 3.01 16.2737
0.251933 3.01 16.2542
0.229301 3.01 16.2542
0.240617 3.01 16.2347
0.251933 3.01 16.2542
0.251933 3.01 16.2542
0.240621 3.01 16.2737
0.229301 3.01 16.2542
0.274543 3.01 16.2152
0.263237 3.01 16.1957
0.285842 3.01 16.1957
0.285842 3.01 16.1957
0.263237 3.01 16.1957
0.274541 3.01 16.1762
0.319739 3.01 16.3715
0.331016 3.01 16.3519
0.3423 3.01 16.3715
0.297163 3.01 16.3715
0.285878 3.01 16.3911
0.274572 3.01 16.3715
0.308447 3.01 16.3519
0.319739 3.01 16.3715
0.297163 3.01 16.3715
0.297163 3.01 16.3715
0.285863 3.01 16.3519
0.308447 3.01 16.3519
0.274572 3.01 16.3715
0.285863 3.01 16.3519
0.297163 3.01 16.3715
0.183992 3.01 16.3323
0.195336 3.01 16.3519
0.172648 3.01 16.3519
0.183992 3.01 16.3323
0.172636 3.01 16.3128
0.195323 3.01 16.3128
0.184008 3.01 16.3714
0.161316 3.01 16.3714
0.172648 3.01 16.3519
0.172648 3.01 16.3519
0.195336 3.01 16.3519
0.184008 3.01 16.3714
0.184008 3.01 16.3714
0.206681 3.01 16.3714
0.195356 3.01 16.391
0.195336 3.01 16.3519
0.206681 3.01 16.3714
0.184008 3.01 16.3714
0.308434 3.01 16.2737
0.319723 3.01 16.2933
0.297145 3.01 16.2933
0.297145 3.01 16.2933
[...]
<PointData Scalars="View Factor" >
<DataArray type="Float64" Name="View Factor" NumberOfComponents="1" format="ascii">
0.84223
0.84223
0.84223
0.769253
0.769253
0.769253
0.823499
0.823499
0.823499
0.817449
0.817449
0.817449
0.824544
0.824544
0.824544
0.824251
0.824251
0.824251
0.824638
0.824638
0.824638
0.824979
0.824979
0.824979
0.824134
0.824134
0.824134
0.82442
0.82442
0.82442
0.823905
0.823905
0.823905
0.842061
0.842061
0.842061
0.841901
0.841901
0.841901
0.841412
0.841412
0.841412
0.841511
0.841511
0.841511
0.841703
0.841703
0.841703
0.841658
0.841658
0.841658
0.841351
0.841351
0.841351
0.84143
0.84143
0.84143
0.841024
0.841024
0.841024
0.841267
0.841267
0.841267
0.776808
0.776808
0.776808
0.825252
0.825252
0.825252
0.834587
0.834587
0.834587
0.834032
0.834032
0.834032
0.834303
0.834303
0.834303
0.825375
0.825375
0.825375
0.825683
0.825683
0.825683
0.825354
0.825354
0.825354
0.830731
0.830731
0.830731
0.830365
0.830365
0.830365
0.830298
0.830298
0.830298
0.82923
0.82923
0.82923
0.827124
0.827124
0.827124
0.827433
0.827433
0.827433
0.838705
0.838705
0.838705
0.841091
0.841091
0.841091
0.840927
0.840927
0.840927
0.838563
0.838563
0.838563
0.839713
0.839713
0.839713
0.840047
0.840047
0.840047
0.838973
0.838973
0.838973
0.839383
0.839383
0.839383
0.840015
0.840015
0.840015
0.827732
0.827732
0.827732
0.765279
0.765279
0.765279
0.817769
0.817769
0.817769
0.818154
0.818154
0.818154
0.819295
0.819295
0.819295
0.815048
0.815048
0.815048
0.814759
0.814759
0.814759
0.817551
0.817551
0.817551
0.816642
0.816642
0.816642
0.815998
0.815998
0.815998
0.821473
0.821473
0.821473
0.822218
0.822218
0.822218
0.819834
0.819834
0.819834
0.819535
0.819535
0.819535
0.828036
0.828036
0.828036
0.822525
0.822525
0.822525
0.823249
0.823249
0.823249
0.823548
0.823548
0.823548
0.825655
0.825655
0.825655
0.825304
0.825304
0.825304
0.805181
0.805181
0.805181
0.806226
0.806226
0.806226
0.805566
0.805566
0.805566
0.804175
0.804175
0.804175
0.814174
0.814174
0.814174
0.801707
0.801707
0.801707
0.803441
0.803441
0.803441
0.802653
0.802653
0.802653
0.796084
0.796084
0.796084
0.8234
0.8234
0.8234
0.823703
0.823703
0.823703
0.823579
0.823579
0.823579
0.824291
0.824291
0.824291
0.824149
0.824149
0.824149
0.823133
0.823133
0.823133
0.808323
0.808323
0.808323
0.812441
0.812441
0.812441
0.814901
0.814901
0.814901
0.821704
0.821704
0.821704
0.820328
0.820328
0.820328
0.834831
0.834831
0.834831
0.84175
0.84175
0.84175
0.842023
0.842023
0.842023
0.841818
0.841818
0.841818
0.83456
0.83456
0.83456
0.834824
0.834824
0.834824
0.832908
0.832908
0.832908
0.832893
0.832893
0.832893
0.832618
0.832618
0.832618
0.832025
0.832025
0.832025
0.769946
0.769946
0.769946
0.771286
0.771286
0.771286
0.776085
0.776085
0.776085
0.772808
0.772808
0.772808
0.774827
0.774827
0.774827
0.772997
0.772997
0.772997
0.773534
0.773534
0.773534
0.775505
0.775505
0.775505
0.775018
0.775018
0.775018
0.814807
0.814807
0.814807
0.778137
0.778137
0.778137
0.776313
0.776313
0.776313
0.774748
0.774748
0.774748
0.825116
0.825116
0.825116
0.825396
0.825396
0.825396
0.827189
0.827189
0.827189
0.82749
0.82749
0.82749
0.826285
0.826285
0.826285
0.826579
0.826579
0.826579
0.834485
0.834485
0.834485
0.834334
0.834334
0.834334
0.834416
0.834416
0.834416
0.833722
0.833722
0.833722
0.83398
0.83398
0.83398
0.830665
0.830665
0.830665
0.831131
0.831131
0.831131
0.831301
0.831301
0.831301
0.832573
0.832573
0.832573
0.83375
0.83375
0.83375
0.833729
0.833729
0.833729
0.833474
0.833474
0.833474
0.833176
0.833176
0.833176
0.834291
0.834291
0.834291
0.833999
0.833999
0.833999
0.834556
0.834556
0.834556
0.834528
0.834528
0.834528
0.833982
0.833982
0.833982
0.834117
0.834117
0.834117
0.833865
0.833865
0.833865
0.829961
0.829961
0.829961
0.830737
0.830737
0.830737
0.830461
0.830461
0.830461
0.830533
0.830533
0.830533
0.83079
0.83079
0.83079
0.824738
0.824738
0.824738
0.82624
0.82624
0.82624
0.825682
0.825682
0.825682
0.826284
0.826284
0.826284
0.826556
0.826556
0.826556
0.830108
0.830108
0.830108
0.830714
0.830714
0.830714
0.829899
0.829899
0.829899
0.829797
0.829797
0.829797
0.829048
0.829048
0.829048
0.829365
0.829365
0.829365
0.827476
0.827476
0.827476
0.828065
0.828065
0.828065
0.828346
0.828346
0.828346
0.828038
0.828038
0.828038
0.826299
0.826299
0.826299
0.826593
0.826593
0.826593
0.8266
0.8266
0.8266
0.827196
0.827196
0.827196
0.827174
0.827174
0.827174
0.827476
0.827476
0.827476
0.829103
0.829103
0.829103
0.82968
0.82968
0.82968
0.828203
0.828203
0.828203
0.828808
0.828808
0.828808
0.828281
0.828281
0.828281
0.827979
0.827979
0.827979
0.837958
0.837958
0.837958
0.838261
0.838261
0.838261
0.841006
0.841006
0.841006
0.840685
0.840685
0.840685
0.841138
0.841138
0.841138
0.840978
0.840978
0.840978
0.840521
0.840521
0.840521
0.84021
0.84021
0.84021
0.840043
0.840043
0.840043
0.840186
0.840186
0.840186
0.840483
0.840483
0.840483
0.84065
0.84065
0.84065
0.8381
0.8381
0.8381
0.837637
0.837637
0.837637
0.840533
0.840533
0.840533
0.840211
0.840211
0.840211
0.840538
0.840538
0.840538
0.840698
0.840698
0.840698
0.839506
0.839506
0.839506
0.839128
0.839128
0.839128
0.83896
0.83896
0.83896
0.839172
0.839172
0.839172
0.839535
0.839535
0.839535
0.839703
0.839703
0.839703
0.839992
0.839992
0.839992
0.83967
0.83967
0.83967
0.839455
0.839455
0.839455
0.839616
0.839616
0.839616
0.840191
0.840191
0.840191
0.84003
0.84003
0.84003
0.838812
0.838812
0.838812
0.838384
0.838384
0.838384
0.838897
0.838897
0.838897
0.839061
0.839061
0.839061
0.83618
0.83618
0.83618
0.83599
0.83599
0.83599
0.834699
0.834699
0.834699
0.83521
0.83521
0.83521
0.835319
0.835319
0.835319
0.835513
0.835513
0.835513
0.838392
0.838392
0.838392
0.839001
0.839001
0.839001
0.838618
0.838618
0.838618
0.838444
0.838444
0.838444
0.825393
0.825393
0.825393
0.828209
0.828209
0.828209
0.826599
0.826599
0.826599
0.826126
0.826126
0.826126
0.826364
0.826364
0.826364
0.827076
0.827076
0.827076
0.827295
0.827295
0.827295
0.827534
0.827534
0.827534
0.830365
0.830365
0.830365
0.829777
0.829777
0.829777
0.831613
0.831613
0.831613
0.830351
0.830351
0.830351
0.837975
0.837975
0.837975
0.836254
0.836254
0.836254
0.832341
0.832341
0.832341
0.8325
0.8325
0.8325
0.835704
0.835704
0.835704
0.835295
0.835295
0.835295
0.83471
0.83471
0.83471
0.773084
0.773084
0.773084
0.774766
0.774766
0.774766
0.775162
0.775162
0.775162
0.778841
0.778841
0.778841
0.776013
0.776013
0.776013
0.777645
0.777645
0.777645
0.777193
0.777193
0.777193
0.778046
0.778046
0.778046
0.77681
0.77681
0.77681
0.780423
0.780423
0.780423
0.763843
0.763843
0.763843
0.764182
0.764182
0.764182
0.765971
0.765971
0.765971
0.7663
0.7663
0.7663
0.818612
0.818612
0.818612
0.818925
0.818925
0.818925
0.825857
0.825857
0.825857
0.826356
0.826356
0.826356
0.825602
0.825602
0.825602
0.813786
0.813786
0.813786
0.813491
0.813491
0.813491
0.812493
0.812493
0.812493
0.817863
0.817863
0.817863
0.818442
0.818442
0.818442
0.818394
0.818394
0.818394
0.817269
0.817269
0.817269
0.818699
0.818699
0.818699
0.818144
0.818144
0.818144
0.817223
0.817223
0.817223
0.817535
0.817535
0.817535
0.816965
0.816965
0.816965
0.817971
0.817971
0.817971
0.82244
0.82244
0.82244
0.822779
0.822779
0.822779
0.822762
0.822762
0.822762
0.822431
0.822431
0.822431
0.822391
0.822391
0.822391
0.820051
0.820051
0.820051
0.821019
0.821019
0.821019
0.820237
0.820237
0.820237
0.819745
0.819745
0.819745
0.820648
0.820648
0.820648
0.822086
0.822086
0.822086
0.821326
0.821326
0.821326
0.820849
0.820849
0.820849
0.821148
0.821148
0.821148
0.797917
0.797917
0.797917
0.801115
0.801115
0.801115
0.803486
0.803486
0.803486
0.80456
0.80456
0.80456
0.802823
0.802823
0.802823
0.809549
0.809549
0.809549
0.809908
0.809908
0.809908
0.808068
0.808068
0.808068
0.807477
0.807477
0.807477
0.804484
0.804484
0.804484
0.80378
0.80378
0.80378
0.801474
0.801474
0.801474
0.799416
0.799416
0.799416
0.80064
0.80064
0.80064
0.803443
0.803443
0.803443
0.803067
0.803067
0.803067
0.803827
0.803827
0.803827
0.813862
0.813862
0.813862
0.80273
0.80273
0.80273
0.803058
0.803058
0.803058
0.797396
0.797396
0.797396
0.803017
0.803017
0.803017
0.773905
0.773905
0.773905
0.775982
0.775982
0.775982
0.774238
0.774238
0.774238
0.790931
0.790931
0.790931
0.791994
0.791994
0.791994
0.793383
0.793383
0.793383
0.793507
0.793507
0.793507
0.791471
0.791471
0.791471
0.802175
0.802175
0.802175
0.792462
0.792462
0.792462
0.825466
0.825466
0.825466
0.824628
0.824628
0.824628
0.824999
0.824999
0.824999
0.82395
0.82395
0.82395
0.824298
0.824298
0.824298
0.821431
0.821431
0.821431
0.823202
0.823202
0.823202
0.822804
0.822804
0.822804
0.823235
0.823235
0.823235
0.817811
0.817811
0.817811
0.818686
0.818686
0.818686
0.806793
0.806793
0.806793
0.807785
0.807785
0.807785
0.806214
0.806214
0.806214
0.808214
0.808214
0.808214
0.80765
0.80765
0.80765
0.806642
0.806642
0.806642
0.813713
0.813713
0.813713
0.813661
0.813661
0.813661
0.81328
0.81328
0.81328
0.81588
0.81588
0.81588
0.814433
0.814433
0.814433
0.818076
0.818076
0.818076
0.817329
0.817329
0.817329
0.814951
0.814951
0.814951
0.814528
0.814528
0.814528
0.816856
0.816856
0.816856
0.816156
0.816156
0.816156
0.816099
0.816099
0.816099
0.815743
0.815743
0.815743
0.81727
0.81727
0.81727
0.816926
0.816926
0.816926
0.822644
0.822644
0.822644
0.822363
0.822363
0.822363
0.819611
0.819611
0.819611
0.821753
0.821753
0.821753
0.821388
0.821388
0.821388
0.820693
0.820693
0.820693
0.821744
0.821744
0.821744
0.821406
0.821406
0.821406
0.828379
0.828379
0.828379
0.828066
0.828066
0.828066
0.830047
0.830047
0.830047
0.830095
0.830095
0.830095
0.828041
0.828041
0.828041
0.827673
0.827673
0.827673
0.828366
0.828366
0.828366
0.828306
0.828306
0.828306
0.82763
0.82763
0.82763
0.827937
0.827937
0.827937
0.835335
0.835335
0.835335
0.835025
0.835025
0.835025
0.83507
0.83507
0.83507
0.834542
0.834542
0.834542
0.83476
0.83476
0.83476
0.834541
0.834541
0.834541
0.833711
0.833711
0.833711
0.833376
0.833376
0.833376
0.832841
0.832841
0.832841
0.833086
0.833086
0.833086
0.77061
0.77061
0.77061
0.771507
0.771507
0.771507
0.774294
0.774294
0.774294
0.774061
0.774061
0.774061
0.770833
0.770833
0.770833
0.772582
0.772582
0.772582
0.770601
0.770601
0.770601
0.772118
0.772118
0.772118
0.779669
0.779669
0.779669
0.776723
0.776723
0.776723
0.774998
0.774998
0.774998
0.774048
0.774048
0.774048
0.784998
0.784998
0.784998
0.776381
0.776381
0.776381
0.776483
0.776483
0.776483
0.7763
0.7763
0.7763
0.783376
0.783376
0.783376
0.817778
0.817778
0.817778
0.819695
0.819695
0.819695
0.81867
0.81867
0.81867
0.820212
0.820212
0.820212
0.82072
0.82072
0.82072
0.820553
0.820553
0.820553
0.81607
0.81607
0.81607
0.814973
0.814973
0.814973
0.809177
0.809177
0.809177
0.816708
0.816708
0.816708
0.807712
0.807712
0.807712
0.810513
0.810513
0.810513
0.805319
0.805319
0.805319
0.806441
0.806441
0.806441
0.799334
0.799334
0.799334
0.800739
0.800739
0.800739
0.803998
0.803998
0.803998
0.803823
0.803823
0.803823
0.791745
0.791745
0.791745
0.790146
0.790146
0.790146
0.829393
0.829393
0.829393
0.828619
0.828619
0.828619
0.83198
0.83198
0.83198
0.821683
0.821683
0.821683
0.831942
0.831942
0.831942
0.830803
0.830803
0.830803
0.83129
0.83129
0.83129
0.801934
0.801934
0.801934
0.811539
0.811539
0.811539
0.813685
0.813685
0.813685
0.812708
0.812708
0.812708
0.791841
0.791841
0.791841
0.795049
0.795049
0.795049
0.793574
0.793574
0.793574
0.793346
0.793346
0.793346
0.794593
0.794593
0.794593
0.825511
0.825511
0.825511
0.825225
0.825225
0.825225
0.825597
0.825597
0.825597
0.826242
0.826242
0.826242
0.833349
0.833349
0.833349
0.834158
0.834158
0.834158
0.833956
0.833956
0.833956
0.83422
0.83422
0.83422
0.833818
0.833818
0.833818
0.836139
0.836139
0.836139
0.835913
0.835913
0.835913
0.829511
0.829511
0.829511
0.828906
0.828906
0.828906
0.829018
0.829018
0.829018
0.828716
0.828716
0.828716
0.830146
0.830146
0.830146
0.830288
0.830288
0.830288
0.829986
0.829986
0.829986
0.82954
0.82954
0.82954
0.829385
0.829385
0.829385
0.829687
0.829687
0.829687
0.830441
0.830441
0.830441
0.831019
0.831019
0.831019
0.830383
0.830383
0.830383
0.830567
0.830567
0.830567
0.830278
0.830278
0.830278
0.829806
0.829806
0.829806
0.829609
0.829609
0.829609
0.829897
0.829897
0.829897
0.831009
0.831009
0.831009
0.83088
0.83088
0.83088
0.831169
0.831169
0.831169
0.831588
0.831588
0.831588
0.831415
0.831415
0.831415
0.831704
0.831704
0.831704
0.830608
0.830608
0.830608
0.830519
0.830519
0.830519
0.830822
0.830822
0.830822
0.833415
0.833415
0.833415
0.833139
0.833139
0.833139
0.832313
0.832313
0.832313
0.831292
0.831292
0.831292
0.830693
0.830693
0.830693
0.830798
0.830798
0.830798
0.831307
0.831307
0.831307
0.832209
0.832209
0.832209
0.832012
0.832012
0.832012
0.831538
0.831538
0.831538
0.831275
0.831275
0.831275
0.83265
0.83265
0.83265
0.832813
0.832813
0.832813
0.833478
0.833478
0.833478
0.83322
0.83322
0.83322
0.832796
0.832796
0.832796
0.83302
0.83302
0.83302
0.829723
0.829723
0.829723
0.829189
0.829189
0.829189
0.828915
0.828915
0.828915
0.829532
0.829532
0.829532
0.828046
0.828046
0.828046
0.828546
0.828546
0.828546
0.828674
0.828674
0.828674
0.828924
0.828924
0.828924
0.827487
0.827487
0.827487
0.827902
0.827902
0.827902
0.827652
0.827652
0.827652
0.826988
0.826988
0.826988
0.826558
0.826558
0.826558
0.826807
0.826807
0.826807
0.826733
0.826733
0.826733
0.826047
0.826047
0.826047
0.825786
0.825786
0.825786
0.82999
0.82999
0.82999
0.824395
0.824395
0.824395
0.82365
0.82365
0.82365
0.824337
0.824337
0.824337
0.824703
0.824703
0.824703
0.823407
0.823407
0.823407
0.822713
0.822713
0.822713
0.82232
0.82232
0.82232
0.822634
0.822634
0.822634
0.823343
0.823343
0.823343
0.823722
0.823722
0.823722
0.829581
0.829581
0.829581
0.829662
0.829662
0.829662
0.829336
0.829336
0.829336
0.82893
0.82893
0.82893
0.829162
0.829162
0.829162
0.828836
0.828836
0.828836
0.828331
0.828331
0.828331
0.828907
0.828907
0.828907
0.828065
0.828065
0.828065
0.828353
0.828353
0.828353
0.82916
0.82916
0.82916
0.828871
0.828871
0.828871
0.826171
0.826171
0.826171
0.826529
0.826529
0.826529
0.827154
0.827154
0.827154
0.827434
0.827434
0.827434
0.837714
0.837714
0.837714
0.837473
0.837473
0.837473
0.836991
0.836991
0.836991
0.836824
0.836824
0.836824
0.837139
0.837139
0.837139
0.83766
0.83766
0.83766
0.834505
0.834505
0.834505
0.83411
0.83411
0.83411
0.834823
0.834823
0.834823
0.834625
0.834625
0.834625
0.832858
0.832858
0.832858
0.833621
0.833621
0.833621
0.833974
0.833974
0.833974
0.833777
0.833777
0.833777
0.835504
0.835504
0.835504
0.830949
0.830949
0.830949
0.831174
0.831174
0.831174
0.838651
0.838651
0.838651
0.829098
0.829098
0.829098
0.828443
0.828443
0.828443
0.829414
0.829414
0.829414
0.828791
0.828791
0.828791
0.828391
0.828391
0.828391
0.82863
0.82863
0.82863
0.830605
0.830605
0.830605
0.831828
0.831828
0.831828
0.829961
0.829961
0.829961
0.829327
0.829327
0.829327
0.831019
0.831019
0.831019
0.830799
0.830799
0.830799
0.830185
0.830185
0.830185
0.830624
0.830624
0.830624
0.829993
0.829993
0.829993
0.829774
0.829774
0.829774
0.835973
0.835973
0.835973
0.836323
0.836323
0.836323
0.837801
0.837801
0.837801
0.837444
0.837444
0.837444
0.838043
0.838043
0.838043
0.837864
0.837864
0.837864
0.836551
0.836551
0.836551
0.837141
0.837141
0.837141
0.837479
0.837479
0.837479
0.837319
0.837319
0.837319
0.836627
0.836627
0.836627
0.834264
0.834264
0.834264
0.833159
0.833159
0.833159
0.833642
0.833642
0.833642
0.834057
0.834057
0.834057
0.83455
0.83455
0.83455
0.834223
0.834223
0.834223
0.773869
0.773869
0.773869
0.77882
0.77882
0.77882
0.781997
0.781997
0.781997
0.781615
0.781615
0.781615
0.780038
0.780038
0.780038
0.779648
0.779648
0.779648
0.780829
0.780829
0.780829
0.782778
0.782778
0.782778
0.782383
0.782383
0.782383
0.761334
0.761334
0.761334
0.762395
0.762395
0.762395
0.765159
0.765159
0.765159
0.764839
0.764839
0.764839
0.764366
0.764366
0.764366
0.763407
0.763407
0.763407
0.772782
0.772782
0.772782
0.77631
0.77631
0.77631
0.814168
0.814168
0.814168
0.813865
0.813865
0.813865
0.81117
0.81117
0.81117
0.812191
0.812191
0.812191
0.812886
0.812886
0.812886
0.820939
0.820939
0.820939
0.821731
0.821731
0.821731
0.822016
0.822016
0.822016
0.821509
0.821509
0.821509
0.822596
0.822596
0.822596
0.82124
0.82124
0.82124
0.822059
0.822059
0.822059
0.824651
0.824651
0.824651
0.825149
0.825149
0.825149
0.825639
0.825639
0.825639
0.825389
0.825389
0.825389
0.823116
0.823116
0.823116
0.822319
0.822319
0.822319
0.821758
0.821758
0.821758
0.82488
0.82488
0.82488
0.824397
0.824397
0.824397
0.823377
0.823377
0.823377
0.823637
0.823637
0.823637
0.820663
0.820663
0.820663
0.819804
0.819804
0.819804
0.819187
0.819187
0.819187
0.820922
0.820922
0.820922
0.819446
0.819446
0.819446
0.820322
0.820322
0.820322
0.820575
0.820575
0.820575
0.809474
0.809474
0.809474
0.808371
0.808371
0.808371
0.80976
0.80976
0.80976
0.808944
0.808944
0.808944
0.81032
0.81032
0.81032
0.809223
0.809223
0.809223
0.803529
0.803529
0.803529
0.804494
0.804494
0.804494
0.814363
0.814363
0.814363
0.814645
0.814645
0.814645
0.816281
0.816281
0.816281
0.815613
0.815613
0.815613
0.816833
0.816833
0.816833
0.815889
0.815889
0.815889
0.813083
0.813083
0.813083
0.813372
0.813372
0.813372
0.816341
0.816341
0.816341
0.814515
0.814515
0.814515
0.822765
0.822765
0.822765
0.823358
0.823358
0.823358
0.822417
0.822417
0.822417
0.82272
0.82272
0.82272
0.824323
0.824323
0.824323
0.823707
0.823707
0.823707
0.823417
0.823417
0.823417
0.818798
0.818798
0.818798
0.819924
0.819924
0.819924
0.819119
0.819119
0.819119
0.82173
0.82173
0.82173
0.821391
0.821391
0.821391
0.817114
0.817114
0.817114
0.822385
0.822385
0.822385
0.821924
0.821924
0.821924
0.823124
0.823124
0.823124
0.823417
0.823417
0.823417
0.82297
0.82297
0.82297
0.822216
0.822216
0.822216
0.79995
0.79995
0.79995
0.801256
0.801256
0.801256
0.802271
0.802271
0.802271
0.799586
0.799586
0.799586
0.811773
0.811773
0.811773
0.810264
0.810264
0.810264
0.811322
0.811322
0.811322
0.812068
0.812068
0.812068
0.808078
0.808078
0.808078
0.801583
0.801583
0.801583
0.802495
0.802495
0.802495
0.798994
0.798994
0.798994
0.799913
0.799913
0.799913
0.799661
0.799661
0.799661
0.798884
0.798884
0.798884
0.799147
0.799147
0.799147
0.815196
0.815196
0.815196
0.807238
0.807238
0.807238
0.806038
0.806038
0.806038
0.797924
0.797924
0.797924
0.797434
0.797434
0.797434
0.799056
0.799056
0.799056
0.79881
0.79881
0.79881
0.798163
0.798163
0.798163
0.799536
0.799536
0.799536
0.79977
0.79977
0.79977
0.797001
0.797001
0.797001
0.797693
0.797693
0.797693
0.796043
0.796043
0.796043
0.796272
0.796272
0.796272
0.797235
0.797235
0.797235
0.798861
0.798861
0.798861
0.798632
0.798632
0.798632
0.802201
0.802201
0.802201
0.801238
0.801238
0.801238
0.802288
0.802288
0.802288
0.803563
0.803563
0.803563
0.80582
0.80582
0.80582
0.806453
0.806453
0.806453
0.806036
0.806036
0.806036
0.804987
0.804987
0.804987
0.805961
0.805961
0.805961
0.807018
0.807018
0.807018
0.805274
0.805274
0.805274
0.807404
0.807404
0.807404
0.809242
0.809242
0.809242
0.80784
0.80784
0.80784
0.80417
0.80417
0.80417
0.807663
0.807663
0.807663
0.807266
0.807266
0.807266
0.807884
0.807884
0.807884
0.799045
0.799045
0.799045
0.816862
0.816862
0.816862
0.815919
0.815919
0.815919
0.816761
0.816761
0.816761
0.817225
0.817225
0.817225
0.816117
0.816117
0.816117
0.815735
0.815735
0.815735
0.814692
0.814692
0.814692
0.815557
0.815557
0.815557
0.816035
0.816035
0.816035
0.815663
0.815663
0.815663
0.814814
0.814814
0.814814
0.814321
0.814321
0.814321
0.817643
0.817643
0.817643
0.816794
0.816794
0.816794
0.814791
0.814791
0.814791
0.815368
0.815368
0.815368
0.816256
0.816256
0.816256
0.815117
0.815117
0.815117
0.816584
0.816584
0.816584
0.816022
0.816022
0.816022
0.813528
0.813528
0.813528
0.810908
0.810908
0.810908
0.812842
0.812842
0.812842
0.813778
0.813778
0.813778
0.815033
0.815033
0.815033
0.814121
0.814121
0.814121
0.813993
0.813993
0.813993
0.814536
0.814536
0.814536
0.815416
0.815416
0.815416
0.814345
0.814345
0.814345
0.807171
0.807171
0.807171
0.807478
0.807478
0.807478
0.803247
0.803247
0.803247
0.803585
0.803585
0.803585
0.804243
0.804243
0.804243
0.793732
0.793732
0.793732
0.795093
0.795093
0.795093
0.792285
0.792285
0.792285
0.802056
0.802056
0.802056
0.798535
0.798535
0.798535
0.788731
0.788731