<VTKFile type="UnstructuredGrid" version="1.0">
<UnstructuredGrid>
<Piece NumberOfPoints="11046" NumberOfCells="3682">
<Points>
<DataArray type="Float64" NumberOfComponents="3" format="ascii">
3.01 0.0582363 10.5418
3.01 0.0717021 10.5225
3.01 0.05 10.5225
3.01 0.95 10.9512
3.01 0.942301 10.9707
3.01 0.95 10.9902
3.01 0.0962623 11.4225
3.01 0.107711 11.4023
3.01 0.086422 11.4022
3.01 0.466226 11.1661
3.01 0.443707 11.1661
3.01 0.454968 11.1857
3.01 0.353567 11.0878
3.01 0.376113 11.0878
3.01 0.364839 11.0683
3.01 0.376113 11.0878
3.01 0.353567 11.0878
3.01 0.364843 11.1074
3.01 0.353567 11.0878
3.01 0.342292 11.1074
3.01 0.364843 11.1074
3.01 0.37611 11.0488
3.01 0.387379 11.0292
3.01 0.364837 11.0292
3.01 0.376113 11.0878
3.01 0.387381 11.0683
3.01 0.364839 11.0683
3.01 0.364839 11.0683
3.01 0.387381 11.0683
3.01 0.37611 11.0488
3.01 0.066417 11.4045
3.01 0.05 11.3987
3.01 0.05 11.4225
3.01 0.0582363 10.5418
3.01 0.0817675 10.542
3.01 0.0717021 10.5225
3.01 0.0817675 10.542
3.01 0.0582363 10.5418
3.01 0.0711754 10.5614
3.01 0.11641 10.5225
3.01 0.127475 10.542
3.01 0.138968 10.5225
3.01 0.127475 10.542
3.01 0.11641 10.5225
3.01 0.104722 10.542
3.01 0.0711754 10.5614
3.01 0.0934889 10.5615
3.01 0.0817675 10.542
3.01 0.0934889 10.5615
3.01 0.104722 10.542
3.01 0.0817675 10.542
3.01 0.116091 10.5615
3.01 0.127475 10.542
3.01 0.104722 10.542
3.01 0.116091 10.5615
3.01 0.104722 10.542
3.01 0.0934889 10.5615
3.01 0.116091 10.5615
3.01 0.104394 10.581
3.01 0.127244 10.581
3.01 0.104394 10.581
3.01 0.116091 10.5615
3.01 0.0934889 10.5615
3.01 0.941764 10.5418
3.01 0.95 10.5225
3.01 0.928298 10.5225
3.01 0.387379 11.0292
3.01 0.376108 11.0097
3.01 0.364837 11.0292
3.01 0.161282 10.9512
3.01 0.149908 10.9317
3.01 0.138583 10.9512
3.01 0.0933091 11.0292
3.01 0.104333 11.0097
3.01 0.0813038 11.0097
3.01 0.104333 11.0097
3.01 0.0933065 10.9902
3.01 0.0813038 11.0097
3.01 0.331016 11.1269
3.01 0.308447 11.1269
3.01 0.319739 11.1465
3.01 0.308447 11.1269
3.01 0.331016 11.1269
3.01 0.319729 11.1074
3.01 0.331016 11.1269
3.01 0.342292 11.1074
3.01 0.319729 11.1074
3.01 0.138613 11.1464
3.01 0.149933 11.1269
3.01 0.12718 11.1269
3.01 0.138613 11.1464
3.01 0.161316 11.1464
3.01 0.149933 11.1269
3.01 0.161316 11.1464
3.01 0.172648 11.1269
3.01 0.149933 11.1269
3.01 0.206681 11.1464
3.01 0.217999 11.1269
3.01 0.195336 11.1269
3.01 0.263262 11.1269
3.01 0.274572 11.1465
3.01 0.285863 11.1269
3.01 0.274559 11.1073
3.01 0.263262 11.1269
3.01 0.285863 11.1269
3.01 0.240697 10.542
3.01 0.252012 10.5225
3.01 0.229409 10.5225
3.01 0.138758 10.5615
3.01 0.127475 10.542
3.01 0.116091 10.5615
3.01 0.127244 10.581
3.01 0.138758 10.5615
3.01 0.116091 10.5615
3.01 0.229332 10.6005
3.01 0.218031 10.581
3.01 0.206685 10.6005
3.01 0.184016 10.6005
3.01 0.172705 10.581
3.01 0.161325 10.6005
3.01 0.184093 10.5615
3.01 0.161431 10.5615
3.01 0.172705 10.581
3.01 0.218082 10.542
3.01 0.240697 10.542
3.01 0.229409 10.5225
3.01 0.218082 10.542
3.01 0.229409 10.5225
3.01 0.206798 10.5225
3.01 0.138617 10.6005
3.01 0.149916 10.62
3.01 0.161325 10.6005
3.01 0.376107 10.9317
3.01 0.364834 10.9122
3.01 0.353559 10.9317
3.01 0.942264 11.166
3.01 0.95 11.1856
3.01 0.95 11.1464
3.01 0.466226 11.1661
3.01 0.454966 11.1465
3.01 0.443707 11.1661
3.01 0.466223 11.0878
3.01 0.488741 11.0878
3.01 0.477482 11.0683
3.01 0.466223 11.0878
3.01 0.443703 11.0878
3.01 0.454964 11.1074
3.01 0.511259 11.0878
3.01 0.533777 11.0878
3.01 0.522518 11.0683
3.01 0.533777 11.0878
3.01 0.511259 11.0878
3.01 0.522517 11.1074
3.01 0.488741 11.0878
3.01 0.5 11.0683
3.01 0.477482 11.0683
3.01 0.511259 11.0878
3.01 0.5 11.0683
3.01 0.488741 11.0878
3.01 0.5 11.0683
3.01 0.511259 11.0878
3.01 0.522518 11.0683
3.01 0.387388 11.1465
3.01 0.40992 11.1465
3.01 0.398653 11.1269
3.01 0.376117 11.1269
3.01 0.387388 11.1465
3.01 0.398653 11.1269
3.01 0.443703 11.0878
3.01 0.432443 11.1074
3.01 0.454964 11.1074
3.01 0.432443 11.1074
3.01 0.443705 11.1269
3.01 0.454964 11.1074
3.01 0.274559 11.1073
3.01 0.285853 11.0878
3.01 0.26325 11.0878
3.01 0.387384 11.1074
3.01 0.376117 11.1269
3.01 0.398653 11.1269
3.01 0.376117 11.1269
3.01 0.387384 11.1074
3.01 0.364843 11.1074
3.01 0.387384 11.1074
3.01 0.376113 11.0878
3.01 0.364843 11.1074
3.01 0.342292 11.1074
3.01 0.331009 11.0878
3.01 0.319729 11.1074
3.01 0.331009 11.0878
3.01 0.342292 11.1074
3.01 0.353567 11.0878
3.01 0.545011 11.4225
3.01 0.533759 11.4027
3.01 0.522505 11.4225
3.01 0.533762 11.3631
3.01 0.55627 11.3631
3.01 0.545018 11.3433
3.01 0.55627 11.3631
3.01 0.567528 11.3433
3.01 0.545018 11.3433
3.01 0.567528 11.3433
3.01 0.59004 11.3433
3.01 0.578788 11.3236
3.01 0.466232 11.2841
3.01 0.477488 11.2644
3.01 0.454974 11.2644
3.01 0.567516 11.4225
3.01 0.590022 11.4225
3.01 0.578772 11.4027
3.01 0.601316 11.2841
3.01 0.590051 11.3038
3.01 0.61257 11.3038
3.01 0.62384 11.2841
3.01 0.601316 11.2841
3.01 0.61257 11.3038
3.01 0.680198 11.2643
3.01 0.702757 11.2643
3.01 0.691494 11.2446
3.01 0.086422 11.4022
3.01 0.073896 11.4225
3.01 0.0962623 11.4225
3.01 0.073896 11.4225
3.01 0.086422 11.4022
3.01 0.066417 11.4045
3.01 0.05 11.4225
3.01 0.073896 11.4225
3.01 0.066417 11.4045
3.01 0.0721919 11.3829
3.01 0.05 11.3987
3.01 0.066417 11.4045
3.01 0.086422 11.4022
3.01 0.0721919 11.3829
3.01 0.066417 11.4045
3.01 0.118481 11.4225
3.01 0.107711 11.4023
3.01 0.0962623 11.4225
3.01 0.5 11.4225
3.01 0.488747 11.4027
3.01 0.477495 11.4225
3.01 0.432484 11.4225
3.01 0.421228 11.4027
3.01 0.409978 11.4225
3.01 0.443725 11.3236
3.01 0.432465 11.3038
3.01 0.421212 11.3236
3.01 0.319802 11.2643
3.01 0.342348 11.2643
3.01 0.331063 11.2446
3.01 0.353629 11.284
3.01 0.364886 11.2643
3.01 0.342348 11.2643
3.01 0.10433 10.9707
3.01 0.0813011 10.9707
3.01 0.0933065 10.9902
3.01 0.0939466 10.5225
3.01 0.104722 10.542
3.01 0.11641 10.5225
3.01 0.0939466 10.5225
3.01 0.0717021 10.5225
3.01 0.0817675 10.542
3.01 0.104722 10.542
3.01 0.0939466 10.5225
3.01 0.0817675 10.542
3.01 0.0933065 10.9902
3.01 0.0710513 10.9902
3.01 0.0813038 11.0097
3.01 0.0710513 10.9902
3.01 0.0933065 10.9902
3.01 0.0813011 10.9707
3.01 0.115908 11.0682
3.01 0.104337 11.0487
3.01 0.0933131 11.0682
3.01 0.104337 11.0487
3.01 0.115908 11.0682
3.01 0.127165 11.0487
3.01 0.104343 11.0878
3.01 0.115908 11.0682
3.01 0.0933131 11.0682
3.01 0.104343 11.0878
3.01 0.0933188 11.1073
3.01 0.115915 11.1073
3.01 0.942303 10.9317
3.01 0.95 10.9512
3.01 0.95 10.9122
3.01 0.92895 10.9122
3.01 0.942303 10.9317
3.01 0.95 10.9122
3.01 0.9187 10.9317
3.01 0.895671 10.9317
3.01 0.906695 10.9512
3.01 0.92895 10.9122
3.01 0.9187 10.9317
3.01 0.942303 10.9317
3.01 0.942316 10.6979
3.01 0.95 10.6784
3.01 0.928965 10.6784
3.01 0.95 10.7563
3.01 0.95 10.7173
3.01 0.942309 10.7368
3.01 0.942316 10.6979
3.01 0.95 10.7173
3.01 0.95 10.6784
3.01 0.95 10.5611
3.01 0.95 10.5225
3.01 0.941764 10.5418
3.01 0.95 10.5611
3.01 0.942358 10.5807
3.01 0.95 10.6003
3.01 0.612617 10.6004
3.01 0.623887 10.6199
3.01 0.635157 10.6004
3.01 0.895671 10.9317
3.01 0.906696 10.9122
3.01 0.884102 10.9122
3.01 0.906696 10.9122
3.01 0.895671 10.9317
3.01 0.9187 10.9317
3.01 0.92895 10.9122
3.01 0.906696 10.9122
3.01 0.9187 10.9317
3.01 0.353563 11.0488
3.01 0.364839 11.0683
3.01 0.37611 11.0488
3.01 0.364837 11.0292
3.01 0.353563 11.0488
3.01 0.37611 11.0488
3.01 0.297145 11.0683
3.01 0.308439 11.0878
3.01 0.319723 11.0683
3.01 0.308439 11.0878
3.01 0.297145 11.0683
3.01 0.285853 11.0878
3.01 0.308439 11.0878
3.01 0.319729 11.1074
3.01 0.331009 11.0878
3.01 0.319723 11.0683
3.01 0.308439 11.0878
3.01 0.331009 11.0878
3.01 0.17262 10.9317
3.01 0.149908 10.9317
3.01 0.161282 10.9512
3.01 0.138583 10.9512
3.01 0.149909 10.9707
3.01 0.161282 10.9512
3.01 0.149909 10.9707
3.01 0.138583 10.9512
3.01 0.127158 10.9707
3.01 0.149909 10.9707
3.01 0.161284 10.9902
3.01 0.172622 10.9707
3.01 0.161282 10.9512
3.01 0.149909 10.9707
3.01 0.172622 10.9707
3.01 0.240621 11.0487
3.01 0.229301 11.0292
3.01 0.217979 11.0487
3.01 0.229301 11.0292
3.01 0.206649 11.0292
3.01 0.217979 11.0487
3.01 0.195316 11.0487
3.01 0.217979 11.0487
3.01 0.206649 11.0292
3.01 0.115908 11.0682
3.01 0.138594 11.0682
3.01 0.127165 11.0487
3.01 0.0933091 11.0292
3.01 0.115904 11.0292
3.01 0.104333 11.0097
3.01 0.115904 11.0292
3.01 0.127161 11.0097
3.01 0.104333 11.0097
3.01 0.115904 11.0292
3.01 0.0933091 11.0292
3.01 0.104337 11.0487
3.01 0.127165 11.0487
3.01 0.115904 11.0292
3.01 0.104337 11.0487
3.01 0.115901 10.9902
3.01 0.0933065 10.9902
3.01 0.104333 11.0097
3.01 0.127161 11.0097
3.01 0.115901 10.9902
3.01 0.104333 11.0097
3.01 0.115901 10.9902
3.01 0.10433 10.9707
3.01 0.0933065 10.9902
3.01 0.10433 10.9707
3.01 0.115901 10.9902
3.01 0.127158 10.9707
3.01 0.183972 10.9512
3.01 0.195307 10.9317
3.01 0.17262 10.9317
3.01 0.161282 10.9512
3.01 0.183972 10.9512
3.01 0.17262 10.9317
3.01 0.183972 10.9512
3.01 0.161282 10.9512
3.01 0.172622 10.9707
3.01 0.263244 11.0487
3.01 0.251933 11.0292
3.01 0.240621 11.0487
3.01 0.229301 11.0292
3.01 0.251933 11.0292
3.01 0.240617 11.0097
3.01 0.251933 11.0292
3.01 0.229301 11.0292
3.01 0.240621 11.0487
3.01 0.274543 10.9902
3.01 0.285842 10.9707
3.01 0.263237 10.9707
3.01 0.285842 10.9707
3.01 0.274541 10.9512
3.01 0.263237 10.9707
3.01 0.319739 11.1465
3.01 0.3423 11.1465
3.01 0.331016 11.1269
3.01 0.297163 11.1465
3.01 0.274572 11.1465
3.01 0.285878 11.1661
3.01 0.308447 11.1269
3.01 0.297163 11.1465
3.01 0.319739 11.1465
3.01 0.297163 11.1465
3.01 0.308447 11.1269
3.01 0.285863 11.1269
3.01 0.274572 11.1465
3.01 0.297163 11.1465
3.01 0.285863 11.1269
3.01 0.183992 11.1073
3.01 0.172648 11.1269
3.01 0.195336 11.1269
3.01 0.183992 11.1073
3.01 0.195323 11.0878
3.01 0.172636 11.0878
3.01 0.184008 11.1464
3.01 0.172648 11.1269
3.01 0.161316 11.1464
3.01 0.172648 11.1269
3.01 0.184008 11.1464
3.01 0.195336 11.1269
3.01 0.184008 11.1464
3.01 0.195356 11.166
3.01 0.206681 11.1464
3.01 0.195336 11.1269
3.01 0.184008 11.1464
3.01 0.206681 11.1464
3.01 0.308434 11.0487
3.01 0.297145 11.0683
3.01 0.319723 11.0683
3.01 0.297145 11.0683
[...]
<PointData Scalars="View Factor" >
<DataArray type="Float64" Name="View Factor" NumberOfComponents="1" format="ascii">
0.866863
0.866863
0.866863
0.789566
0.789566
0.789566
0.866167
0.866167
0.866167
0.851386
0.851386
0.851386
0.857119
0.857119
0.857119
0.857115
0.857115
0.857115
0.857727
0.857727
0.857727
0.856498
0.856498
0.856498
0.856485
0.856485
0.856485
0.85649
0.85649
0.85649
0.86662
0.86662
0.86662
0.866762
0.866762
0.866762
0.866761
0.866761
0.866761
0.865947
0.865947
0.865947
0.866147
0.866147
0.866147
0.86663
0.86663
0.86663
0.86649
0.86649
0.86649
0.866145
0.866145
0.866145
0.866325
0.866325
0.866325
0.866142
0.866142
0.866142
0.866323
0.866323
0.866323
0.791098
0.791098
0.791098
0.856503
0.856503
0.856503
0.865381
0.865381
0.865381
0.866359
0.866359
0.866359
0.866364
0.866364
0.866364
0.859434
0.859434
0.859434
0.859438
0.859438
0.859438
0.858889
0.858889
0.858889
0.865557
0.865557
0.865557
0.865317
0.865317
0.865317
0.865063
0.865063
0.865063
0.863845
0.863845
0.863845
0.861437
0.861437
0.861437
0.861441
0.861441
0.861441
0.862906
0.862906
0.862906
0.865944
0.865944
0.865944
0.865942
0.865942
0.865942
0.863654
0.863654
0.863654
0.864948
0.864948
0.864948
0.864953
0.864953
0.864953
0.863295
0.863295
0.863295
0.863668
0.863668
0.863668
0.865478
0.865478
0.865478
0.857169
0.857169
0.857169
0.789505
0.789505
0.789505
0.85139
0.85139
0.85139
0.849765
0.849765
0.849765
0.851413
0.851413
0.851413
0.846174
0.846174
0.846174
0.84617
0.84617
0.84617
0.848906
0.848906
0.848906
0.848018
0.848018
0.848018
0.847111
0.847111
0.847111
0.855126
0.855126
0.855126
0.855808
0.855808
0.855808
0.852202
0.852202
0.852202
0.852197
0.852197
0.852197
0.86145
0.86145
0.86145
0.855812
0.855812
0.855812
0.856472
0.856472
0.856472
0.856476
0.856476
0.856476
0.858893
0.858893
0.858893
0.858323
0.858323
0.858323
0.845096
0.845096
0.845096
0.844135
0.844135
0.844135
0.843128
0.843128
0.843128
0.841036
0.841036
0.841036
0.850536
0.850536
0.850536
0.841007
0.841007
0.841007
0.838848
0.838848
0.838848
0.837708
0.837708
0.837708
0.828927
0.828927
0.828927
0.866312
0.866312
0.866312
0.86643
0.86643
0.86643
0.866549
0.866549
0.866549
0.866563
0.866563
0.866563
0.866442
0.866442
0.866442
0.866006
0.866006
0.866006
0.848782
0.848782
0.848782
0.853598
0.853598
0.853598
0.852892
0.852892
0.852892
0.858835
0.858835
0.858835
0.857664
0.857664
0.857664
0.866372
0.866372
0.866372
0.866327
0.866327
0.866327
0.866632
0.866632
0.866632
0.866491
0.866491
0.866491
0.866506
0.866506
0.866506
0.86651
0.86651
0.86651
0.86618
0.86618
0.86618
0.866003
0.866003
0.866003
0.866176
0.866176
0.866176
0.866167
0.866167
0.866167
0.789578
0.789578
0.789578
0.790916
0.790916
0.790916
0.797051
0.797051
0.797051
0.79287
0.79287
0.79287
0.790981
0.790981
0.790981
0.789633
0.789633
0.789633
0.789644
0.789644
0.789644
0.789719
0.789719
0.789719
0.789672
0.789672
0.789672
0.836746
0.836746
0.836746
0.799097
0.799097
0.799097
0.797055
0.797055
0.797055
0.795055
0.795055
0.795055
0.857128
0.857128
0.857128
0.857132
0.857132
0.857132
0.859985
0.859985
0.859985
0.860494
0.860494
0.860494
0.859447
0.859447
0.859447
0.859452
0.859452
0.859452
0.865127
0.865127
0.865127
0.865377
0.865377
0.865377
0.865613
0.865613
0.865613
0.865115
0.865115
0.865115
0.865119
0.865119
0.865119
0.863152
0.863152
0.863152
0.863526
0.863526
0.863526
0.863876
0.863876
0.863876
0.8658
0.8658
0.8658
0.866193
0.866193
0.866193
0.866015
0.866015
0.866015
0.866189
0.866189
0.866189
0.866007
0.866007
0.866007
0.866201
0.866201
0.866201
0.86602
0.86602
0.86602
0.866205
0.866205
0.866205
0.866028
0.866028
0.866028
0.864556
0.864556
0.864556
0.864849
0.864849
0.864849
0.864845
0.864845
0.864845
0.862349
0.862349
0.862349
0.862767
0.862767
0.862767
0.862762
0.862762
0.862762
0.861489
0.861489
0.861489
0.861493
0.861493
0.861493
0.858879
0.858879
0.858879
0.860959
0.860959
0.860959
0.859962
0.859962
0.859962
0.860476
0.860476
0.860476
0.860964
0.860964
0.860964
0.864497
0.864497
0.864497
0.864506
0.864506
0.864506
0.864784
0.864784
0.864784
0.864492
0.864492
0.864492
0.864171
0.864171
0.864171
0.864176
0.864176
0.864176
0.859989
0.859989
0.859989
0.860503
0.860503
0.860503
0.860507
0.860507
0.860507
0.859998
0.859998
0.859998
0.859972
0.859972
0.859972
0.86048
0.86048
0.86048
0.859976
0.859976
0.859976
0.860489
0.860489
0.860489
0.860973
0.860973
0.860973
0.860978
0.860978
0.860978
0.862336
0.862336
0.862336
0.862345
0.862345
0.862345
0.862323
0.862323
0.862323
0.862332
0.862332
0.862332
0.861899
0.861899
0.861899
0.861894
0.861894
0.861894
0.862064
0.862064
0.862064
0.862493
0.862493
0.862493
0.865492
0.865492
0.865492
0.865488
0.865488
0.865488
0.865729
0.865729
0.865729
0.865727
0.865727
0.865727
0.865486
0.865486
0.865486
0.865228
0.865228
0.865228
0.865225
0.865225
0.865225
0.865481
0.865481
0.865481
0.86572
0.86572
0.86572
0.865723
0.865723
0.865723
0.86249
0.86249
0.86249
0.862058
0.862058
0.862058
0.864961
0.864961
0.864961
0.864956
0.864956
0.864956
0.865233
0.865233
0.865233
0.865235
0.865235
0.865235
0.864345
0.864345
0.864345
0.864011
0.864011
0.864011
0.864008
0.864008
0.864008
0.864339
0.864339
0.864339
0.864655
0.864655
0.864655
0.864658
0.864658
0.864658
0.864353
0.864353
0.864353
0.864348
0.864348
0.864348
0.864016
0.864016
0.864016
0.864019
0.864019
0.864019
0.864665
0.864665
0.864665
0.864663
0.864663
0.864663
0.863292
0.863292
0.863292
0.8629
0.8629
0.8629
0.86366
0.86366
0.86366
0.863662
0.863662
0.863662
0.862455
0.862455
0.862455
0.862451
0.862451
0.862451
0.861098
0.861098
0.861098
0.86157
0.86157
0.86157
0.862015
0.862015
0.862015
0.862019
0.862019
0.862019
0.863651
0.863651
0.863651
0.864336
0.864336
0.864336
0.864002
0.864002
0.864002
0.863999
0.863999
0.863999
0.854496
0.854496
0.854496
0.857177
0.857177
0.857177
0.855876
0.855876
0.855876
0.855199
0.855199
0.855199
0.855203
0.855203
0.855203
0.855884
0.855884
0.855884
0.856535
0.856535
0.856535
0.856539
0.856539
0.856539
0.860035
0.860035
0.860035
0.859502
0.859502
0.859502
0.859533
0.859533
0.859533
0.858968
0.858968
0.858968
0.863277
0.863277
0.863277
0.860143
0.860143
0.860143
0.855981
0.855981
0.855981
0.855984
0.855984
0.855984
0.85961
0.85961
0.85961
0.85906
0.85906
0.85906
0.858486
0.858486
0.858486
0.806881
0.806881
0.806881
0.808658
0.808658
0.808658
0.808644
0.808644
0.808644
0.813804
0.813804
0.813804
0.810407
0.810407
0.810407
0.812119
0.812119
0.812119
0.810367
0.810367
0.810367
0.812111
0.812111
0.812111
0.810384
0.810384
0.810384
0.815453
0.815453
0.815453
0.790802
0.790802
0.790802
0.790809
0.790809
0.790809
0.792769
0.792769
0.792769
0.792775
0.792775
0.792775
0.852184
0.852184
0.852184
0.852188
0.852188
0.852188
0.855864
0.855864
0.855864
0.855872
0.855872
0.855872
0.85586
0.85586
0.85586
0.845209
0.845209
0.845209
0.845204
0.845204
0.845204
0.844218
0.844218
0.844218
0.849761
0.849761
0.849761
0.850596
0.850596
0.850596
0.851399
0.851399
0.851399
0.849752
0.849752
0.849752
0.851404
0.851404
0.851404
0.850592
0.850592
0.850592
0.850578
0.850578
0.850578
0.850583
0.850583
0.850583
0.849747
0.849747
0.849747
0.852175
0.852175
0.852175
0.858281
0.858281
0.858281
0.858285
0.858285
0.858285
0.857699
0.857699
0.857699
0.857695
0.857695
0.857695
0.857087
0.857087
0.857087
0.852963
0.852963
0.852963
0.854428
0.854428
0.854428
0.853702
0.853702
0.853702
0.852959
0.852959
0.852959
0.852972
0.852972
0.852972
0.855135
0.855135
0.855135
0.854432
0.854432
0.854432
0.853711
0.853711
0.853711
0.853716
0.853716
0.853716
0.821841
0.821841
0.821841
0.826245
0.826245
0.826245
0.843103
0.843103
0.843103
0.844115
0.844115
0.844115
0.842071
0.842071
0.842071
0.84515
0.84515
0.84515
0.845154
0.845154
0.845154
0.847003
0.847003
0.847003
0.846072
0.846072
0.846072
0.84209
0.84209
0.84209
0.841032
0.841032
0.841032
0.836536
0.836536
0.836536
0.834113
0.834113
0.834113
0.835341
0.835341
0.835341
0.839951
0.839951
0.839951
0.838843
0.838843
0.838843
0.839956
0.839956
0.839956
0.847978
0.847978
0.847978
0.835365
0.835365
0.835365
0.83537
0.83537
0.83537
0.830273
0.830273
0.830273
0.837712
0.837712
0.837712
0.802912
0.802912
0.802912
0.804802
0.804802
0.804802
0.802909
0.802909
0.802909
0.823239
0.823239
0.823239
0.824706
0.824706
0.824706
0.826144
0.826144
0.826144
0.828907
0.828907
0.828907
0.828891
0.828891
0.828891
0.834145
0.834145
0.834145
0.82024
0.82024
0.82024
0.866651
0.866651
0.866651
0.866613
0.866613
0.866613
0.866584
0.866584
0.866584
0.866177
0.866177
0.866177
0.866334
0.866334
0.866334
0.864043
0.864043
0.864043
0.865828
0.865828
0.865828
0.865628
0.865628
0.865628
0.864382
0.864382
0.864382
0.859849
0.859849
0.859849
0.85986
0.85986
0.85986
0.846988
0.846988
0.846988
0.8479
0.8479
0.8479
0.846057
0.846057
0.846057
0.847905
0.847905
0.847905
0.846998
0.846998
0.846998
0.846062
0.846062
0.846062
0.854328
0.854328
0.854328
0.855021
0.855021
0.855021
0.854323
0.854323
0.854323
0.857604
0.857604
0.857604
0.852126
0.852126
0.852126
0.857026
0.857026
0.857026
0.856388
0.856388
0.856388
0.855037
0.855037
0.855037
0.855031
0.855031
0.855031
0.85701
0.85701
0.85701
0.855723
0.855723
0.855723
0.856372
0.856372
0.856372
0.855718
0.855718
0.855718
0.857015
0.857015
0.857015
0.856383
0.856383
0.856383
0.859918
0.859918
0.859918
0.859389
0.859389
0.859389
0.857048
0.857048
0.857048
0.857685
0.857685
0.857685
0.858265
0.858265
0.858265
0.85767
0.85767
0.85767
0.858271
0.858271
0.858271
0.85768
0.85768
0.85768
0.865288
0.865288
0.865288
0.865933
0.865933
0.865933
0.865312
0.865312
0.865312
0.865548
0.865548
0.865548
0.866111
0.866111
0.866111
0.866106
0.866106
0.866106
0.866278
0.866278
0.866278
0.866416
0.866416
0.866416
0.866268
0.866268
0.866268
0.866411
0.866411
0.866411
0.866798
0.866798
0.866798
0.866737
0.866737
0.866737
0.866642
0.866642
0.866642
0.866785
0.866785
0.866785
0.866733
0.866733
0.866733
0.866633
0.866633
0.866633
0.866773
0.866773
0.866773
0.866712
0.866712
0.866712
0.86676
0.86676
0.86676
0.866707
0.866707
0.866707
0.789589
0.789589
0.789589
0.79092
0.79092
0.79092
0.795047
0.795047
0.795047
0.795044
0.795044
0.795044
0.790908
0.790908
0.790908
0.792866
0.792866
0.792866
0.790904
0.790904
0.790904
0.792858
0.792858
0.792858
0.801054
0.801054
0.801054
0.792939
0.792939
0.792939
0.790983
0.790983
0.790983
0.789653
0.789653
0.789653
0.803062
0.803062
0.803062
0.792934
0.792934
0.792934
0.791058
0.791058
0.791058
0.791018
0.791018
0.791018
0.799243
0.799243
0.799243
0.83908
0.83908
0.83908
0.841283
0.841283
0.841283
0.840193
0.840193
0.840193
0.843354
0.843354
0.843354
0.843364
0.843364
0.843364
0.843361
0.843361
0.843361
0.837921
0.837921
0.837921
0.836749
0.836749
0.836749
0.829141
0.829141
0.829141
0.837935
0.837935
0.837935
0.829107
0.829107
0.829107
0.831779
0.831779
0.831779
0.826324
0.826324
0.826324
0.827729
0.827729
0.827729
0.820355
0.820355
0.820355
0.821893
0.821893
0.821893
0.824883
0.824883
0.824883
0.824879
0.824879
0.824879
0.810428
0.810428
0.810428
0.808642
0.808642
0.808642
0.852369
0.852369
0.852369
0.851576
0.851576
0.851576
0.855307
0.855307
0.855307
0.844376
0.844376
0.844376
0.857244
0.857244
0.857244
0.855951
0.855951
0.855951
0.856607
0.856607
0.856607
0.823395
0.823395
0.823395
0.833062
0.833062
0.833062
0.835545
0.835545
0.835545
0.83432
0.83432
0.83432
0.815479
0.815479
0.815479
0.81873
0.81873
0.81873
0.817124
0.817124
0.817124
0.81712
0.81712
0.81712
0.818722
0.818722
0.818722
0.85774
0.85774
0.85774
0.857736
0.857736
0.857736
0.858327
0.858327
0.858327
0.858902
0.858902
0.858902
0.864837
0.864837
0.864837
0.865609
0.865609
0.865609
0.865821
0.865821
0.865821
0.865825
0.865825
0.865825
0.865369
0.865369
0.865369
0.865155
0.865155
0.865155
0.865151
0.865151
0.865151
0.863134
0.863134
0.863134
0.863125
0.863125
0.863125
0.86274
0.86274
0.86274
0.862736
0.862736
0.862736
0.863858
0.863858
0.863858
0.864189
0.864189
0.864189
0.864185
0.864185
0.864185
0.863849
0.863849
0.863849
0.863499
0.863499
0.863499
0.863504
0.863504
0.863504
0.863863
0.863863
0.863863
0.863872
0.863872
0.863872
0.863147
0.863147
0.863147
0.863517
0.863517
0.863517
0.863513
0.863513
0.863513
0.863139
0.863139
0.863139
0.862749
0.862749
0.862749
0.862754
0.862754
0.862754
0.86451
0.86451
0.86451
0.864198
0.864198
0.864198
0.864203
0.864203
0.864203
0.864519
0.864519
0.864519
0.864807
0.864807
0.864807
0.864811
0.864811
0.864811
0.865067
0.865067
0.865067
0.864794
0.864794
0.864794
0.864798
0.864798
0.864798
0.865813
0.865813
0.865813
0.865808
0.865808
0.865808
0.862387
0.862387
0.862387
0.861501
0.861501
0.861501
0.860544
0.860544
0.860544
0.861938
0.861938
0.861938
0.86237
0.86237
0.86237
0.863543
0.863543
0.863543
0.863173
0.863173
0.863173
0.862779
0.862779
0.862779
0.862775
0.862775
0.862775
0.863897
0.863897
0.863897
0.864228
0.864228
0.864228
0.864548
0.864548
0.864548
0.864544
0.864544
0.864544
0.8628
0.8628
0.8628
0.863189
0.863189
0.863189
0.861921
0.861921
0.861921
0.861468
0.861468
0.861468
0.861
0.861
0.861
0.859498
0.859498
0.859498
0.858365
0.858365
0.858365
0.858374
0.858374
0.858374
0.85894
0.85894
0.85894
0.858944
0.858944
0.858944
0.857165
0.857165
0.857165
0.857778
0.857778
0.857778
0.857774
0.857774
0.857774
0.857157
0.857157
0.857157
0.856523
0.856523
0.856523
0.856527
0.856527
0.856527
0.857153
0.857153
0.857153
0.856515
0.856515
0.856515
0.856511
0.856511
0.856511
0.861017
0.861017
0.861017
0.858309
0.858309
0.858309
0.857106
0.857106
0.857106
0.857723
0.857723
0.857723
0.858314
0.858314
0.858314
0.857709
0.857709
0.857709
0.857092
0.857092
0.857092
0.856458
0.856458
0.856458
0.856463
0.856463
0.856463
0.857101
0.857101
0.857101
0.857713
0.857713
0.857713
0.86478
0.86478
0.86478
0.865053
0.865053
0.865053
0.865049
0.865049
0.865049
0.86477
0.86477
0.86477
0.864483
0.864483
0.864483
0.864478
0.864478
0.864478
0.861455
0.861455
0.861455
0.861464
0.861464
0.861464
0.860987
0.860987
0.860987
0.860991
0.860991
0.860991
0.861912
0.861912
0.861912
0.861908
0.861908
0.861908
0.858336
0.858336
0.858336
0.858906
0.858906
0.858906
0.85946
0.85946
0.85946
0.859465
0.859465
0.859465
0.862888
0.862888
0.862888
0.862055
0.862055
0.862055
0.861603
0.861603
0.861603
0.8616
0.8616
0.8616
0.862049
0.862049
0.862049
0.865668
0.865668
0.865668
0.861094
0.861094
0.861094
0.861087
0.861087
0.861087
0.861563
0.861563
0.861563
0.861559
0.861559
0.861559
0.859013
0.859013
0.859013
0.860092
0.860092
0.860092
0.860602
0.860602
0.860602
0.860598
0.860598
0.860598
0.863945
0.863945
0.863945
0.859522
0.859522
0.859522
0.859526
0.859526
0.859526
0.86433
0.86433
0.86433
0.857798
0.857798
0.857798
0.857181
0.857181
0.857181
0.858952
0.858952
0.858952
0.858378
0.858378
0.858378
0.857786
0.857786
0.857786
0.85779
0.85779
0.85779
0.860039
0.860039
0.860039
0.859537
0.859537
0.859537
0.858397
0.858397
0.858397
0.857802
0.857802
0.857802
0.85898
0.85898
0.85898
0.858976
0.858976
0.858976
0.858401
0.858401
0.858401
0.858409
0.858409
0.858409
0.857813
0.857813
0.857813
0.857809
0.857809
0.857809
0.860639
0.860639
0.860639
0.861128
0.861128
0.861128
0.863274
0.863274
0.863274
0.863268
0.863268
0.863268
0.863644
0.863644
0.863644
0.863641
0.863641
0.863641
0.862462
0.862462
0.862462
0.861144
0.861144
0.861144
0.861613
0.861613
0.861613
0.86161
0.86161
0.86161
0.860652
0.860652
0.860652
0.857894
0.857894
0.857894
0.856643
0.856643
0.856643
0.857278
0.857278
0.857278
0.858473
0.858473
0.858473
0.858483
0.858483
0.858483
0.858476
0.858476
0.858476
0.806845
0.806845
0.806845
0.812084
0.812084
0.812084
0.815427
0.815427
0.815427
0.815435
0.815435
0.815435
0.813782
0.813782
0.813782
0.813791
0.813791
0.813791
0.815449
0.815449
0.815449
0.817062
0.817062
0.817062
0.817067
0.817067
0.817067
0.789459
0.789459
0.789459
0.789462
0.789462
0.789462
0.790823
0.790823
0.790823
0.790819
0.790819
0.790819
0.789492
0.789492
0.789492
0.789478
0.789478
0.789478
0.800963
0.800963
0.800963
0.804802
0.804802
0.804802
0.846161
0.846161
0.846161
0.846157
0.846157
0.846157
0.843201
0.843201
0.843201
0.844213
0.844213
0.844213
0.845195
0.845195
0.845195
0.852977
0.852977
0.852977
0.853724
0.853724
0.853724
0.853729
0.853729
0.853729
0.852985
0.852985
0.852985
0.853002
0.853002
0.853002
0.851443
0.851443
0.851443
0.852236
0.852236
0.852236
0.854483
0.854483
0.854483
0.854492
0.854492
0.854492
0.855191
0.855191
0.855191
0.855187
0.855187
0.855187
0.85301
0.85301
0.85301
0.85224
0.85224
0.85224
0.851451
0.851451
0.851451
0.855178
0.855178
0.855178
0.854479
0.854479
0.854479
0.85375
0.85375
0.85375
0.853754
0.853754
0.853754
0.85063
0.85063
0.85063
0.84979
0.84979
0.84979
0.848931
0.848931
0.848931
0.850634
0.850634
0.850634
0.848935
0.848935
0.848935
0.849799
0.849799
0.849799
0.849803
0.849803
0.849803
0.84003
0.84003
0.84003
0.838913
0.838913
0.838913
0.840035
0.840035
0.840035
0.838921
0.838921
0.838921
0.840043
0.840043
0.840043
0.838925
0.838925
0.838925
0.831653
0.831653
0.831653
0.832937
0.832937
0.832937
0.845217
0.845217
0.845217
0.845221
0.845221
0.845221
0.847115
0.847115
0.847115
0.846183
0.846183
0.846183
0.847123
0.847123
0.847123
0.846187
0.846187
0.846187
0.844226
0.844226
0.844226
0.844231
0.844231
0.844231
0.849738
0.849738
0.849738
0.847987
0.847987
0.847987
0.858851
0.858851
0.858851
0.859928
0.859928
0.859928
0.858845
0.858845
0.858845
0.859395
0.859395
0.859395
0.860447
0.860447
0.860447
0.859933
0.859933
0.859933
0.859405
0.859405
0.859405
0.852945
0.852945
0.852945
0.853698
0.853698
0.853698
0.85295
0.85295
0.85295
0.857078
0.857078
0.857078
0.857073
0.857073
0.857073
0.852921
0.852921
0.852921
0.85514
0.85514
0.85514
0.854441
0.854441
0.854441
0.855821
0.855821
0.855821
0.855826
0.855826
0.855826
0.855149
0.855149
0.855149
0.854445
0.854445
0.854445
0.827615
0.827615
0.827615
0.828993
0.828993
0.828993
0.830336
0.830336
0.830336
0.828968
0.828968
0.828968
0.84321
0.84321
0.84321
0.841117
0.841117
0.841117
0.842181
0.842181
0.842181
0.843214
0.843214
0.843214
0.838908
0.838908
0.838908
0.832895
0.832895
0.832895
0.834149
0.834149
0.834149
0.82896
0.82896
0.82896
0.826225
0.826225
0.826225
0.826221
0.826221
0.826221
0.826209
0.826209
0.826209
0.826213
0.826213
0.826213
0.84523
0.84523
0.84523
0.834219
0.834219
0.834219
0.832961
0.832961
0.832961
0.823323
0.823323
0.823323
0.823315
0.823315
0.823315
0.824792
0.824792
0.824792
0.824788
0.824788
0.824788
0.823327
0.823327
0.823327
0.8248
0.8248
0.8248
0.824804
0.824804
0.824804
0.821826
0.821826
0.821826
0.821837
0.821837
0.821837
0.820295
0.820295
0.820295
0.820299
0.820299
0.820299
0.821829
0.821829
0.821829
0.823339
0.823339
0.823339
0.823335
0.823335
0.823335
0.827651
0.827651
0.827651
0.827635
0.827635
0.827635
0.829009
0.829009
0.829009
0.830356
0.830356
0.830356
0.84413
0.84413
0.84413
0.845111
0.845111
0.845111
0.845106
0.845106
0.845106
0.84412
0.84412
0.84412
0.843133
0.843133
0.843133
0.844144
0.844144
0.844144
0.8421
0.8421
0.8421
0.844149
0.844149
0.844149
0.844173
0.844173
0.844173
0.842132
0.842132
0.842132
0.838856
0.838856
0.838856
0.845126
0.845126
0.845126
0.845121
0.845121
0.845121
0.846077
0.846077
0.846077
0.834109
0.834109
0.834109
0.853655
0.853655
0.853655
0.852146
0.852146
0.852146
0.852917
0.852917
0.852917
0.85366
0.85366
0.85366
0.853645
0.853645
0.853645
0.85364
0.85364
0.85364
0.851348
0.851348
0.851348
0.852141
0.852141
0.852141
0.852907
0.852907
0.852907
0.852902
0.852902
0.852902
0.852131
0.852131
0.852131
0.851343
0.851343
0.851343
0.85217
0.85217
0.85217
0.851377
0.851377
0.851377
0.848866
0.848866
0.848866
0.849725
0.849725
0.849725
0.850565
0.850565
0.850565
0.84887
0.84887
0.84887
0.850569
0.850569
0.850569
0.849734
0.849734
0.849734
0.847973
0.847973
0.847973
0.846116
0.846116
0.846116
0.847964
0.847964
0.847964
0.848852
0.848852
0.848852
0.84972
0.84972
0.84972
0.848856
0.848856
0.848856
0.849706
0.849706
0.849706
0.850541
0.850541
0.850541
0.851358
0.851358
0.851358
0.849711
0.849711
0.849711
0.838896
0.838896
0.838896
0.8389
0.8389
0.8389
0.836557
0.836557
0.836557
0.836561
0.836561
0.836561
0.83657
0.83657
0.83657
0.826147
0.826147
0.826147
0.827554
0.827554
0.827554
0.823248
0.823248
0.823248
0.835357
0.835357
0.835357
0.83286
0.83286
0.83286
0.823234
0.823234