<VTKFile type="UnstructuredGrid" version="1.0">
<UnstructuredGrid>
<Piece NumberOfPoints="11046" NumberOfCells="3682">
<Points>
<DataArray type="Float64" NumberOfComponents="3" format="ascii">
3.01 0.0582363 12.6318
3.01 0.0717021 12.6125
3.01 0.05 12.6125
3.01 0.95 13.0412
3.01 0.942301 13.0607
3.01 0.95 13.0802
3.01 0.0962623 13.5125
3.01 0.107711 13.4923
3.01 0.086422 13.4922
3.01 0.466226 13.2561
3.01 0.443707 13.2561
3.01 0.454968 13.2757
3.01 0.353567 13.1778
3.01 0.376113 13.1778
3.01 0.364839 13.1583
3.01 0.376113 13.1778
3.01 0.353567 13.1778
3.01 0.364843 13.1974
3.01 0.353567 13.1778
3.01 0.342292 13.1974
3.01 0.364843 13.1974
3.01 0.37611 13.1388
3.01 0.387379 13.1192
3.01 0.364837 13.1192
3.01 0.376113 13.1778
3.01 0.387381 13.1583
3.01 0.364839 13.1583
3.01 0.364839 13.1583
3.01 0.387381 13.1583
3.01 0.37611 13.1388
3.01 0.066417 13.4945
3.01 0.05 13.4887
3.01 0.05 13.5125
3.01 0.0582363 12.6318
3.01 0.0817675 12.632
3.01 0.0717021 12.6125
3.01 0.0817675 12.632
3.01 0.0582363 12.6318
3.01 0.0711754 12.6514
3.01 0.11641 12.6125
3.01 0.127475 12.632
3.01 0.138968 12.6125
3.01 0.127475 12.632
3.01 0.11641 12.6125
3.01 0.104722 12.632
3.01 0.0711754 12.6514
3.01 0.0934889 12.6515
3.01 0.0817675 12.632
3.01 0.0934889 12.6515
3.01 0.104722 12.632
3.01 0.0817675 12.632
3.01 0.116091 12.6515
3.01 0.127475 12.632
3.01 0.104722 12.632
3.01 0.116091 12.6515
3.01 0.104722 12.632
3.01 0.0934889 12.6515
3.01 0.116091 12.6515
3.01 0.104394 12.671
3.01 0.127244 12.671
3.01 0.104394 12.671
3.01 0.116091 12.6515
3.01 0.0934889 12.6515
3.01 0.941764 12.6318
3.01 0.95 12.6125
3.01 0.928298 12.6125
3.01 0.387379 13.1192
3.01 0.376108 13.0997
3.01 0.364837 13.1192
3.01 0.161282 13.0412
3.01 0.149908 13.0217
3.01 0.138583 13.0412
3.01 0.0933091 13.1192
3.01 0.104333 13.0997
3.01 0.0813038 13.0997
3.01 0.104333 13.0997
3.01 0.0933065 13.0802
3.01 0.0813038 13.0997
3.01 0.331016 13.2169
3.01 0.308447 13.2169
3.01 0.319739 13.2365
3.01 0.308447 13.2169
3.01 0.331016 13.2169
3.01 0.319729 13.1974
3.01 0.331016 13.2169
3.01 0.342292 13.1974
3.01 0.319729 13.1974
3.01 0.138613 13.2364
3.01 0.149933 13.2169
3.01 0.12718 13.2169
3.01 0.138613 13.2364
3.01 0.161316 13.2364
3.01 0.149933 13.2169
3.01 0.161316 13.2364
3.01 0.172648 13.2169
3.01 0.149933 13.2169
3.01 0.206681 13.2364
3.01 0.217999 13.2169
3.01 0.195336 13.2169
3.01 0.263262 13.2169
3.01 0.274572 13.2365
3.01 0.285863 13.2169
3.01 0.274559 13.1973
3.01 0.263262 13.2169
3.01 0.285863 13.2169
3.01 0.240697 12.632
3.01 0.252012 12.6125
3.01 0.229409 12.6125
3.01 0.138758 12.6515
3.01 0.127475 12.632
3.01 0.116091 12.6515
3.01 0.127244 12.671
3.01 0.138758 12.6515
3.01 0.116091 12.6515
3.01 0.229332 12.6905
3.01 0.218031 12.671
3.01 0.206685 12.6905
3.01 0.184016 12.6905
3.01 0.172705 12.671
3.01 0.161325 12.6905
3.01 0.184093 12.6515
3.01 0.161431 12.6515
3.01 0.172705 12.671
3.01 0.218082 12.632
3.01 0.240697 12.632
3.01 0.229409 12.6125
3.01 0.218082 12.632
3.01 0.229409 12.6125
3.01 0.206798 12.6125
3.01 0.138617 12.6905
3.01 0.149916 12.71
3.01 0.161325 12.6905
3.01 0.376107 13.0217
3.01 0.364834 13.0022
3.01 0.353559 13.0217
3.01 0.942264 13.256
3.01 0.95 13.2756
3.01 0.95 13.2364
3.01 0.466226 13.2561
3.01 0.454966 13.2365
3.01 0.443707 13.2561
3.01 0.466223 13.1778
3.01 0.488741 13.1778
3.01 0.477482 13.1583
3.01 0.466223 13.1778
3.01 0.443703 13.1778
3.01 0.454964 13.1974
3.01 0.511259 13.1778
3.01 0.533777 13.1778
3.01 0.522518 13.1583
3.01 0.533777 13.1778
3.01 0.511259 13.1778
3.01 0.522517 13.1974
3.01 0.488741 13.1778
3.01 0.5 13.1583
3.01 0.477482 13.1583
3.01 0.511259 13.1778
3.01 0.5 13.1583
3.01 0.488741 13.1778
3.01 0.5 13.1583
3.01 0.511259 13.1778
3.01 0.522518 13.1583
3.01 0.387388 13.2365
3.01 0.40992 13.2365
3.01 0.398653 13.2169
3.01 0.376117 13.2169
3.01 0.387388 13.2365
3.01 0.398653 13.2169
3.01 0.443703 13.1778
3.01 0.432443 13.1974
3.01 0.454964 13.1974
3.01 0.432443 13.1974
3.01 0.443705 13.2169
3.01 0.454964 13.1974
3.01 0.274559 13.1973
3.01 0.285853 13.1778
3.01 0.26325 13.1778
3.01 0.387384 13.1974
3.01 0.376117 13.2169
3.01 0.398653 13.2169
3.01 0.376117 13.2169
3.01 0.387384 13.1974
3.01 0.364843 13.1974
3.01 0.387384 13.1974
3.01 0.376113 13.1778
3.01 0.364843 13.1974
3.01 0.342292 13.1974
3.01 0.331009 13.1778
3.01 0.319729 13.1974
3.01 0.331009 13.1778
3.01 0.342292 13.1974
3.01 0.353567 13.1778
3.01 0.545011 13.5125
3.01 0.533759 13.4927
3.01 0.522505 13.5125
3.01 0.533762 13.4531
3.01 0.55627 13.4531
3.01 0.545018 13.4333
3.01 0.55627 13.4531
3.01 0.567528 13.4333
3.01 0.545018 13.4333
3.01 0.567528 13.4333
3.01 0.59004 13.4333
3.01 0.578788 13.4136
3.01 0.466232 13.3741
3.01 0.477488 13.3544
3.01 0.454974 13.3544
3.01 0.567516 13.5125
3.01 0.590022 13.5125
3.01 0.578772 13.4927
3.01 0.601316 13.3741
3.01 0.590051 13.3938
3.01 0.61257 13.3938
3.01 0.62384 13.3741
3.01 0.601316 13.3741
3.01 0.61257 13.3938
3.01 0.680198 13.3543
3.01 0.702757 13.3543
3.01 0.691494 13.3346
3.01 0.086422 13.4922
3.01 0.073896 13.5125
3.01 0.0962623 13.5125
3.01 0.073896 13.5125
3.01 0.086422 13.4922
3.01 0.066417 13.4945
3.01 0.05 13.5125
3.01 0.073896 13.5125
3.01 0.066417 13.4945
3.01 0.0721919 13.4729
3.01 0.05 13.4887
3.01 0.066417 13.4945
3.01 0.086422 13.4922
3.01 0.0721919 13.4729
3.01 0.066417 13.4945
3.01 0.118481 13.5125
3.01 0.107711 13.4923
3.01 0.0962623 13.5125
3.01 0.5 13.5125
3.01 0.488747 13.4927
3.01 0.477495 13.5125
3.01 0.432484 13.5125
3.01 0.421228 13.4927
3.01 0.409978 13.5125
3.01 0.443725 13.4136
3.01 0.432465 13.3938
3.01 0.421212 13.4136
3.01 0.319802 13.3543
3.01 0.342348 13.3543
3.01 0.331063 13.3346
3.01 0.353629 13.374
3.01 0.364886 13.3543
3.01 0.342348 13.3543
3.01 0.10433 13.0607
3.01 0.0813011 13.0607
3.01 0.0933065 13.0802
3.01 0.0939466 12.6125
3.01 0.104722 12.632
3.01 0.11641 12.6125
3.01 0.0939466 12.6125
3.01 0.0717021 12.6125
3.01 0.0817675 12.632
3.01 0.104722 12.632
3.01 0.0939466 12.6125
3.01 0.0817675 12.632
3.01 0.0933065 13.0802
3.01 0.0710513 13.0802
3.01 0.0813038 13.0997
3.01 0.0710513 13.0802
3.01 0.0933065 13.0802
3.01 0.0813011 13.0607
3.01 0.115908 13.1582
3.01 0.104337 13.1387
3.01 0.0933131 13.1582
3.01 0.104337 13.1387
3.01 0.115908 13.1582
3.01 0.127165 13.1387
3.01 0.104343 13.1778
3.01 0.115908 13.1582
3.01 0.0933131 13.1582
3.01 0.104343 13.1778
3.01 0.0933188 13.1973
3.01 0.115915 13.1973
3.01 0.942303 13.0217
3.01 0.95 13.0412
3.01 0.95 13.0022
3.01 0.92895 13.0022
3.01 0.942303 13.0217
3.01 0.95 13.0022
3.01 0.9187 13.0217
3.01 0.895671 13.0217
3.01 0.906695 13.0412
3.01 0.92895 13.0022
3.01 0.9187 13.0217
3.01 0.942303 13.0217
3.01 0.942316 12.7879
3.01 0.95 12.7684
3.01 0.928965 12.7684
3.01 0.95 12.8463
3.01 0.95 12.8073
3.01 0.942309 12.8268
3.01 0.942316 12.7879
3.01 0.95 12.8073
3.01 0.95 12.7684
3.01 0.95 12.6511
3.01 0.95 12.6125
3.01 0.941764 12.6318
3.01 0.95 12.6511
3.01 0.942358 12.6707
3.01 0.95 12.6903
3.01 0.612617 12.6904
3.01 0.623887 12.7099
3.01 0.635157 12.6904
3.01 0.895671 13.0217
3.01 0.906696 13.0022
3.01 0.884102 13.0022
3.01 0.906696 13.0022
3.01 0.895671 13.0217
3.01 0.9187 13.0217
3.01 0.92895 13.0022
3.01 0.906696 13.0022
3.01 0.9187 13.0217
3.01 0.353563 13.1388
3.01 0.364839 13.1583
3.01 0.37611 13.1388
3.01 0.364837 13.1192
3.01 0.353563 13.1388
3.01 0.37611 13.1388
3.01 0.297145 13.1583
3.01 0.308439 13.1778
3.01 0.319723 13.1583
3.01 0.308439 13.1778
3.01 0.297145 13.1583
3.01 0.285853 13.1778
3.01 0.308439 13.1778
3.01 0.319729 13.1974
3.01 0.331009 13.1778
3.01 0.319723 13.1583
3.01 0.308439 13.1778
3.01 0.331009 13.1778
3.01 0.17262 13.0217
3.01 0.149908 13.0217
3.01 0.161282 13.0412
3.01 0.138583 13.0412
3.01 0.149909 13.0607
3.01 0.161282 13.0412
3.01 0.149909 13.0607
3.01 0.138583 13.0412
3.01 0.127158 13.0607
3.01 0.149909 13.0607
3.01 0.161284 13.0802
3.01 0.172622 13.0607
3.01 0.161282 13.0412
3.01 0.149909 13.0607
3.01 0.172622 13.0607
3.01 0.240621 13.1387
3.01 0.229301 13.1192
3.01 0.217979 13.1387
3.01 0.229301 13.1192
3.01 0.206649 13.1192
3.01 0.217979 13.1387
3.01 0.195316 13.1387
3.01 0.217979 13.1387
3.01 0.206649 13.1192
3.01 0.115908 13.1582
3.01 0.138594 13.1582
3.01 0.127165 13.1387
3.01 0.0933091 13.1192
3.01 0.115904 13.1192
3.01 0.104333 13.0997
3.01 0.115904 13.1192
3.01 0.127161 13.0997
3.01 0.104333 13.0997
3.01 0.115904 13.1192
3.01 0.0933091 13.1192
3.01 0.104337 13.1387
3.01 0.127165 13.1387
3.01 0.115904 13.1192
3.01 0.104337 13.1387
3.01 0.115901 13.0802
3.01 0.0933065 13.0802
3.01 0.104333 13.0997
3.01 0.127161 13.0997
3.01 0.115901 13.0802
3.01 0.104333 13.0997
3.01 0.115901 13.0802
3.01 0.10433 13.0607
3.01 0.0933065 13.0802
3.01 0.10433 13.0607
3.01 0.115901 13.0802
3.01 0.127158 13.0607
3.01 0.183972 13.0412
3.01 0.195307 13.0217
3.01 0.17262 13.0217
3.01 0.161282 13.0412
3.01 0.183972 13.0412
3.01 0.17262 13.0217
3.01 0.183972 13.0412
3.01 0.161282 13.0412
3.01 0.172622 13.0607
3.01 0.263244 13.1387
3.01 0.251933 13.1192
3.01 0.240621 13.1387
3.01 0.229301 13.1192
3.01 0.251933 13.1192
3.01 0.240617 13.0997
3.01 0.251933 13.1192
3.01 0.229301 13.1192
3.01 0.240621 13.1387
3.01 0.274543 13.0802
3.01 0.285842 13.0607
3.01 0.263237 13.0607
3.01 0.285842 13.0607
3.01 0.274541 13.0412
3.01 0.263237 13.0607
3.01 0.319739 13.2365
3.01 0.3423 13.2365
3.01 0.331016 13.2169
3.01 0.297163 13.2365
3.01 0.274572 13.2365
3.01 0.285878 13.2561
3.01 0.308447 13.2169
3.01 0.297163 13.2365
3.01 0.319739 13.2365
3.01 0.297163 13.2365
3.01 0.308447 13.2169
3.01 0.285863 13.2169
3.01 0.274572 13.2365
3.01 0.297163 13.2365
3.01 0.285863 13.2169
3.01 0.183992 13.1973
3.01 0.172648 13.2169
3.01 0.195336 13.2169
3.01 0.183992 13.1973
3.01 0.195323 13.1778
3.01 0.172636 13.1778
3.01 0.184008 13.2364
3.01 0.172648 13.2169
3.01 0.161316 13.2364
3.01 0.172648 13.2169
3.01 0.184008 13.2364
3.01 0.195336 13.2169
3.01 0.184008 13.2364
3.01 0.195356 13.256
3.01 0.206681 13.2364
3.01 0.195336 13.2169
3.01 0.184008 13.2364
3.01 0.206681 13.2364
3.01 0.308434 13.1387
3.01 0.297145 13.1583
3.01 0.319723 13.1583
3.01 0.297145 13.1583
[...]
<PointData Scalars="View Factor" >
<DataArray type="Float64" Name="View Factor" NumberOfComponents="1" format="ascii">
0.865903
0.865903
0.865903
0.788374
0.788374
0.788374
0.864562
0.864562
0.864562
0.850008
0.850008
0.850008
0.85581
0.85581
0.85581
0.855795
0.855795
0.855795
0.856402
0.856402
0.856402
0.855224
0.855224
0.855224
0.855182
0.855182
0.855182
0.855196
0.855196
0.855196
0.865015
0.865015
0.865015
0.865798
0.865798
0.865798
0.86579
0.86579
0.86579
0.864987
0.864987
0.864987
0.865184
0.865184
0.865184
0.865656
0.865656
0.865656
0.865519
0.865519
0.865519
0.865175
0.865175
0.865175
0.865351
0.865351
0.865351
0.865157
0.865157
0.865157
0.865342
0.865342
0.865342
0.790166
0.790166
0.790166
0.855238
0.855238
0.855238
0.864168
0.864168
0.864168
0.865093
0.865093
0.865093
0.865107
0.865107
0.865107
0.858081
0.858081
0.858081
0.858097
0.858097
0.858097
0.857553
0.857553
0.857553
0.864201
0.864201
0.864201
0.863955
0.863955
0.863955
0.863706
0.863706
0.863706
0.86249
0.86249
0.86249
0.860083
0.860083
0.860083
0.860098
0.860098
0.860098
0.861947
0.861947
0.861947
0.86497
0.86497
0.86497
0.864961
0.864961
0.864961
0.86266
0.86266
0.86266
0.863954
0.863954
0.863954
0.863973
0.863973
0.863973
0.862333
0.862333
0.862333
0.862709
0.862709
0.862709
0.864476
0.864476
0.864476
0.855974
0.855974
0.855974
0.78817
0.78817
0.78817
0.850023
0.850023
0.850023
0.848461
0.848461
0.848461
0.850097
0.850097
0.850097
0.844872
0.844872
0.844872
0.844858
0.844858
0.844858
0.847607
0.847607
0.847607
0.846715
0.846715
0.846715
0.845813
0.845813
0.845813
0.853772
0.853772
0.853772
0.854458
0.854458
0.854458
0.850881
0.850881
0.850881
0.850866
0.850866
0.850866
0.860128
0.860128
0.860128
0.854473
0.854473
0.854473
0.855138
0.855138
0.855138
0.855152
0.855152
0.855152
0.857567
0.857567
0.857567
0.857003
0.857003
0.857003
0.843503
0.843503
0.843503
0.8426
0.8426
0.8426
0.8416
0.8416
0.8416
0.839522
0.839522
0.839522
0.849074
0.849074
0.849074
0.839418
0.839418
0.839418
0.837371
0.837371
0.837371
0.836238
0.836238
0.836238
0.827493
0.827493
0.827493
0.8647
0.8647
0.8647
0.864824
0.864824
0.864824
0.864936
0.864936
0.864936
0.864971
0.864971
0.864971
0.864849
0.864849
0.864849
0.864395
0.864395
0.864395
0.847186
0.847186
0.847186
0.851997
0.851997
0.851997
0.851386
0.851386
0.851386
0.857379
0.857379
0.857379
0.856197
0.856197
0.856197
0.865134
0.865134
0.865134
0.865367
0.865367
0.865367
0.865672
0.865672
0.865672
0.865528
0.865528
0.865528
0.865254
0.865254
0.865254
0.865267
0.865267
0.865267
0.86488
0.86488
0.86488
0.864707
0.864707
0.864707
0.864865
0.864865
0.864865
0.864836
0.864836
0.864836
0.788412
0.788412
0.788412
0.789759
0.789759
0.789759
0.795878
0.795878
0.795878
0.791707
0.791707
0.791707
0.789966
0.789966
0.789966
0.788589
0.788589
0.788589
0.788622
0.788622
0.788622
0.788782
0.788782
0.788782
0.788714
0.788714
0.788714
0.835757
0.835757
0.835757
0.797937
0.797937
0.797937
0.79589
0.79589
0.79589
0.793896
0.793896
0.793896
0.855838
0.855838
0.855838
0.855853
0.855853
0.855853
0.858679
0.858679
0.858679
0.859182
0.859182
0.859182
0.858126
0.858126
0.858126
0.858141
0.858141
0.858141
0.863918
0.863918
0.863918
0.864154
0.864154
0.864154
0.864385
0.864385
0.864385
0.863878
0.863878
0.863878
0.863891
0.863891
0.863891
0.861868
0.861868
0.861868
0.862247
0.862247
0.862247
0.862592
0.862592
0.862592
0.8645
0.8645
0.8645
0.864922
0.864922
0.864922
0.864749
0.864749
0.864749
0.864908
0.864908
0.864908
0.864721
0.864721
0.864721
0.86495
0.86495
0.86495
0.864763
0.864763
0.864763
0.864963
0.864963
0.864963
0.864791
0.864791
0.864791
0.863348
0.863348
0.863348
0.863636
0.863636
0.863636
0.863622
0.863622
0.863622
0.861066
0.861066
0.861066
0.861498
0.861498
0.861498
0.861484
0.861484
0.861484
0.860255
0.860255
0.860255
0.860268
0.860268
0.860268
0.857522
0.857522
0.857522
0.85959
0.85959
0.85959
0.858605
0.858605
0.858605
0.859123
0.859123
0.859123
0.859605
0.859605
0.859605
0.863151
0.863151
0.863151
0.863181
0.863181
0.863181
0.863423
0.863423
0.863423
0.863136
0.863136
0.863136
0.862799
0.862799
0.862799
0.862815
0.862815
0.862815
0.858693
0.858693
0.858693
0.859211
0.859211
0.859211
0.859225
0.859225
0.859225
0.858722
0.858722
0.858722
0.858635
0.858635
0.858635
0.859138
0.859138
0.859138
0.85865
0.85865
0.85865
0.859168
0.859168
0.859168
0.859636
0.859636
0.859636
0.859651
0.859651
0.859651
0.861023
0.861023
0.861023
0.861052
0.861052
0.861052
0.860979
0.860979
0.860979
0.861009
0.861009
0.861009
0.860571
0.860571
0.860571
0.860556
0.860556
0.860556
0.861106
0.861106
0.861106
0.861532
0.861532
0.861532
0.864532
0.864532
0.864532
0.864514
0.864514
0.864514
0.864765
0.864765
0.864765
0.864756
0.864756
0.864756
0.864505
0.864505
0.864505
0.864244
0.864244
0.864244
0.864234
0.864234
0.864234
0.864486
0.864486
0.864486
0.864729
0.864729
0.864729
0.864738
0.864738
0.864738
0.861522
0.861522
0.861522
0.861086
0.861086
0.861086
0.864001
0.864001
0.864001
0.863983
0.863983
0.863983
0.864263
0.864263
0.864263
0.864272
0.864272
0.864272
0.863365
0.863365
0.863365
0.863027
0.863027
0.863027
0.863017
0.863017
0.863017
0.863345
0.863345
0.863345
0.863664
0.863664
0.863664
0.863674
0.863674
0.863674
0.863394
0.863394
0.863394
0.863375
0.863375
0.863375
0.863047
0.863047
0.863047
0.863056
0.863056
0.863056
0.863702
0.863702
0.863702
0.863693
0.863693
0.863693
0.862323
0.862323
0.862323
0.861927
0.861927
0.861927
0.86268
0.86268
0.86268
0.86269
0.86269
0.86269
0.861406
0.861406
0.861406
0.861395
0.861395
0.861395
0.860038
0.860038
0.860038
0.860514
0.860514
0.860514
0.860947
0.860947
0.860947
0.860959
0.860959
0.860959
0.86265
0.86265
0.86265
0.863335
0.863335
0.863335
0.862997
0.862997
0.862997
0.862987
0.862987
0.862987
0.853302
0.853302
0.853302
0.856
0.856
0.856
0.854682
0.854682
0.854682
0.854009
0.854009
0.854009
0.854022
0.854022
0.854022
0.854707
0.854707
0.854707
0.855345
0.855345
0.855345
0.855358
0.855358
0.855358
0.858843
0.858843
0.858843
0.858306
0.858306
0.858306
0.858406
0.858406
0.858406
0.857811
0.857811
0.857811
0.862273
0.862273
0.862273
0.859185
0.859185
0.859185
0.855015
0.855015
0.855015
0.855026
0.855026
0.855026
0.858649
0.858649
0.858649
0.858103
0.858103
0.858103
0.857526
0.857526
0.857526
0.805317
0.805317
0.805317
0.807099
0.807099
0.807099
0.807098
0.807098
0.807098
0.812236
0.812236
0.812236
0.808841
0.808841
0.808841
0.810559
0.810559
0.810559
0.808839
0.808839
0.808839
0.810563
0.810563
0.810563
0.808844
0.808844
0.808844
0.81389
0.81389
0.81389
0.78938
0.78938
0.78938
0.789398
0.789398
0.789398
0.791363
0.791363
0.791363
0.791379
0.791379
0.791379
0.850821
0.850821
0.850821
0.850836
0.850836
0.850836
0.854642
0.854642
0.854642
0.854669
0.854669
0.854669
0.854629
0.854629
0.854629
0.843892
0.843892
0.843892
0.843877
0.843877
0.843877
0.842886
0.842886
0.842886
0.848446
0.848446
0.848446
0.849276
0.849276
0.849276
0.850053
0.850053
0.850053
0.848417
0.848417
0.848417
0.850068
0.850068
0.850068
0.849261
0.849261
0.849261
0.849217
0.849217
0.849217
0.849232
0.849232
0.849232
0.848402
0.848402
0.848402
0.85079
0.85079
0.85079
0.856864
0.856864
0.856864
0.85688
0.85688
0.85688
0.856311
0.856311
0.856311
0.856295
0.856295
0.856295
0.855705
0.855705
0.855705
0.851626
0.851626
0.851626
0.853079
0.853079
0.853079
0.852349
0.852349
0.852349
0.851611
0.851611
0.851611
0.851656
0.851656
0.851656
0.853802
0.853802
0.853802
0.853094
0.853094
0.853094
0.852379
0.852379
0.852379
0.852393
0.852393
0.852393
0.820691
0.820691
0.820691
0.825071
0.825071
0.825071
0.841512
0.841512
0.841512
0.842529
0.842529
0.842529
0.840487
0.840487
0.840487
0.843692
0.843692
0.843692
0.843708
0.843708
0.843708
0.845447
0.845447
0.845447
0.844523
0.844523
0.844523
0.840557
0.840557
0.840557
0.839505
0.839505
0.839505
0.835062
0.835062
0.835062
0.83264
0.83264
0.83264
0.833873
0.833873
0.833873
0.838444
0.838444
0.838444
0.837355
0.837355
0.837355
0.838461
0.838461
0.838461
0.84658
0.84658
0.84658
0.833966
0.833966
0.833966
0.833981
0.833981
0.833981
0.828843
0.828843
0.828843
0.836254
0.836254
0.836254
0.801484
0.801484
0.801484
0.803389
0.803389
0.803389
0.801491
0.801491
0.801491
0.821797
0.821797
0.821797
0.823258
0.823258
0.823258
0.8247
0.8247
0.8247
0.82739
0.82739
0.82739
0.827312
0.827312
0.827312
0.832762
0.832762
0.832762
0.818938
0.818938
0.818938
0.865092
0.865092
0.865092
0.86503
0.86503
0.86503
0.865013
0.865013
0.865013
0.864585
0.864585
0.864585
0.864748
0.864748
0.864748
0.862433
0.862433
0.862433
0.864223
0.864223
0.864223
0.864016
0.864016
0.864016
0.862818
0.862818
0.862818
0.858243
0.858243
0.858243
0.858281
0.858281
0.858281
0.845393
0.845393
0.845393
0.846311
0.846311
0.846311
0.84447
0.84447
0.84447
0.846329
0.846329
0.846329
0.84543
0.84543
0.84543
0.844488
0.844488
0.844488
0.852747
0.852747
0.852747
0.853419
0.853419
0.853419
0.852729
0.852729
0.852729
0.856
0.856
0.856
0.850628
0.850628
0.850628
0.855506
0.855506
0.855506
0.854862
0.854862
0.854862
0.853474
0.853474
0.853474
0.853456
0.853456
0.853456
0.855452
0.855452
0.855452
0.854179
0.854179
0.854179
0.854808
0.854808
0.854808
0.854161
0.854161
0.854161
0.85547
0.85547
0.85547
0.854844
0.854844
0.854844
0.85846
0.85846
0.85846
0.857938
0.857938
0.857938
0.855575
0.855575
0.855575
0.856263
0.856263
0.856263
0.856815
0.856815
0.856815
0.856214
0.856214
0.856214
0.856832
0.856832
0.856832
0.856247
0.856247
0.856247
0.863861
0.863861
0.863861
0.864477
0.864477
0.864477
0.86394
0.86394
0.86394
0.86417
0.86417
0.86417
0.864649
0.864649
0.864649
0.864632
0.864632
0.864632
0.864822
0.864822
0.864822
0.864953
0.864953
0.864953
0.864788
0.864788
0.864788
0.864937
0.864937
0.864937
0.865565
0.865565
0.865565
0.865495
0.865495
0.865495
0.865404
0.865404
0.865404
0.865524
0.865524
0.865524
0.865481
0.865481
0.865481
0.865377
0.865377
0.865377
0.865482
0.865482
0.865482
0.865411
0.865411
0.865411
0.865439
0.865439
0.865439
0.865396
0.865396
0.865396
0.78845
0.78845
0.78845
0.789771
0.789771
0.789771
0.793871
0.793871
0.793871
0.793858
0.793858
0.793858
0.789734
0.789734
0.789734
0.791695
0.791695
0.791695
0.789721
0.789721
0.789721
0.79167
0.79167
0.79167
0.799887
0.799887
0.799887
0.791934
0.791934
0.791934
0.789976
0.789976
0.789976
0.788653
0.788653
0.788653
0.802042
0.802042
0.802042
0.791915
0.791915
0.791915
0.790113
0.790113
0.790113
0.790066
0.790066
0.790066
0.798295
0.798295
0.798295
0.838131
0.838131
0.838131
0.840334
0.840334
0.840334
0.839241
0.839241
0.839241
0.842348
0.842348
0.842348
0.842379
0.842379
0.842379
0.842369
0.842369
0.842369
0.836942
0.836942
0.836942
0.835767
0.835767
0.835767
0.828196
0.828196
0.828196
0.836984
0.836984
0.836984
0.8281
0.8281
0.8281
0.830792
0.830792
0.830792
0.825318
0.825318
0.825318
0.826719
0.826719
0.826719
0.819314
0.819314
0.819314
0.820856
0.820856
0.820856
0.823874
0.823874
0.823874
0.823863
0.823863
0.823863
0.809428
0.809428
0.809428
0.807639
0.807639
0.807639
0.851415
0.851415
0.851415
0.850619
0.850619
0.850619
0.854352
0.854352
0.854352
0.843394
0.843394
0.843394
0.856213
0.856213
0.856213
0.85492
0.85492
0.85492
0.855572
0.855572
0.855572
0.822353
0.822353
0.822353
0.832071
0.832071
0.832071
0.834553
0.834553
0.834553
0.833332
0.833332
0.833332
0.814306
0.814306
0.814306
0.817573
0.817573
0.817573
0.815963
0.815963
0.815963
0.815951
0.815951
0.815951
0.817548
0.817548
0.817548
0.856446
0.856446
0.856446
0.856431
0.856431
0.856431
0.857017
0.857017
0.857017
0.857597
0.857597
0.857597
0.863596
0.863596
0.863596
0.864372
0.864372
0.864372
0.86457
0.86457
0.86457
0.864583
0.864583
0.864583
0.864127
0.864127
0.864127
0.864007
0.864007
0.864007
0.863995
0.863995
0.863995
0.86181
0.86181
0.86181
0.861781
0.861781
0.861781
0.861412
0.861412
0.861412
0.861397
0.861397
0.861397
0.862534
0.862534
0.862534
0.86286
0.86286
0.86286
0.862845
0.862845
0.862845
0.862505
0.862505
0.862505
0.86216
0.86216
0.86216
0.862175
0.862175
0.862175
0.862549
0.862549
0.862549
0.862578
0.862578
0.862578
0.861854
0.861854
0.861854
0.862218
0.862218
0.862218
0.862204
0.862204
0.862204
0.861825
0.861825
0.861825
0.861441
0.861441
0.861441
0.861456
0.861456
0.861456
0.863196
0.863196
0.863196
0.862889
0.862889
0.862889
0.862904
0.862904
0.862904
0.863224
0.863224
0.863224
0.863497
0.863497
0.863497
0.863512
0.863512
0.863512
0.863721
0.863721
0.863721
0.863453
0.863453
0.863453
0.863468
0.863468
0.863468
0.864542
0.864542
0.864542
0.864528
0.864528
0.864528
0.861189
0.861189
0.861189
0.860295
0.860295
0.860295
0.859347
0.859347
0.859347
0.860698
0.860698
0.860698
0.861135
0.861135
0.861135
0.862302
0.862302
0.862302
0.861937
0.861937
0.861937
0.861539
0.861539
0.861539
0.861526
0.861526
0.861526
0.862661
0.862661
0.862661
0.862987
0.862987
0.862987
0.863321
0.863321
0.863321
0.863308
0.863308
0.863308
0.861606
0.861606
0.861606
0.86199
0.86199
0.86199
0.860643
0.860643
0.860643
0.860186
0.860186
0.860186
0.859723
0.859723
0.859723
0.858293
0.858293
0.858293
0.857142
0.857142
0.857142
0.857169
0.857169
0.857169
0.857721
0.857721
0.857721
0.857734
0.857734
0.857734
0.855961
0.855961
0.855961
0.856569
0.856569
0.856569
0.856556
0.856556
0.856556
0.855935
0.855935
0.855935
0.855306
0.855306
0.855306
0.855319
0.855319
0.855319
0.855921
0.855921
0.855921
0.855279
0.855279
0.855279
0.855266
0.855266
0.855266
0.859778
0.859778
0.859778
0.856958
0.856958
0.856958
0.855766
0.855766
0.855766
0.856387
0.856387
0.856387
0.856973
0.856973
0.856973
0.856342
0.856342
0.856342
0.85572
0.85572
0.85572
0.855093
0.855093
0.855093
0.855108
0.855108
0.855108
0.855751
0.855751
0.855751
0.856357
0.856357
0.856357
0.863408
0.863408
0.863408
0.863676
0.863676
0.863676
0.86366
0.86366
0.86366
0.863377
0.863377
0.863377
0.863106
0.863106
0.863106
0.86309
0.86309
0.86309
0.860143
0.860143
0.860143
0.860172
0.860172
0.860172
0.85968
0.85968
0.85968
0.859694
0.859694
0.859694
0.860615
0.860615
0.860615
0.8606
0.8606
0.8606
0.857046
0.857046
0.857046
0.857611
0.857611
0.857611
0.85817
0.85817
0.85817
0.858184
0.858184
0.858184
0.861887
0.861887
0.861887
0.861076
0.861076
0.861076
0.860621
0.860621
0.860621
0.860611
0.860611
0.860611
0.861056
0.861056
0.861056
0.864562
0.864562
0.864562
0.860027
0.860027
0.860027
0.860004
0.860004
0.860004
0.860491
0.860491
0.860491
0.86048
0.86048
0.86048
0.857954
0.857954
0.857954
0.859026
0.859026
0.859026
0.859531
0.859531
0.859531
0.859519
0.859519
0.859519
0.862815
0.862815
0.862815
0.858369
0.858369
0.858369
0.858382
0.858382
0.858382
0.863314
0.863314
0.863314
0.856633
0.856633
0.856633
0.856013
0.856013
0.856013
0.857761
0.857761
0.857761
0.857182
0.857182
0.857182
0.856595
0.856595
0.856595
0.856608
0.856608
0.856608
0.858856
0.858856
0.858856
0.858418
0.858418
0.858418
0.857245
0.857245
0.857245
0.856646
0.856646
0.856646
0.857849
0.857849
0.857849
0.857836
0.857836
0.857836
0.857258
0.857258
0.857258
0.857282
0.857282
0.857282
0.856683
0.856683
0.856683
0.856671
0.856671
0.856671
0.85965
0.85965
0.85965
0.860135
0.860135
0.860135
0.862262
0.862262
0.862262
0.862241
0.862241
0.862241
0.862629
0.862629
0.862629
0.862618
0.862618
0.862618
0.861428
0.861428
0.861428
0.860186
0.860186
0.860186
0.860651
0.860651
0.860651
0.860641
0.860641
0.860641
0.859691
0.859691
0.859691
0.856938
0.856938
0.856938
0.855688
0.855688
0.855688
0.856318
0.856318
0.856318
0.857485
0.857485
0.857485
0.857516
0.857516
0.857516
0.857495
0.857495
0.857495
0.805307
0.805307
0.805307
0.810561
0.810561
0.810561
0.813914
0.813914
0.813914
0.813909
0.813909
0.813909
0.812251
0.812251
0.812251
0.812248
0.812248
0.812248
0.813899
0.813899
0.813899
0.815529
0.815529
0.815529
0.815522
0.815522
0.815522
0.787991
0.787991
0.787991
0.78803
0.78803
0.78803
0.789446
0.789446
0.789446
0.78943
0.78943
0.78943
0.788126
0.788126
0.788126
0.78808
0.78808
0.78808
0.799552
0.799552
0.799552
0.8034
0.8034
0.8034
0.844829
0.844829
0.844829
0.844814
0.844814
0.844814
0.841855
0.841855
0.841855
0.842872
0.842872
0.842872
0.843848
0.843848
0.843848
0.85167
0.85167
0.85167
0.852422
0.852422
0.852422
0.852437
0.852437
0.852437
0.851699
0.851699
0.851699
0.851754
0.851754
0.851754
0.850196
0.850196
0.850196
0.850993
0.850993
0.850993
0.853263
0.853263
0.853263
0.853289
0.853289
0.853289
0.853983
0.853983
0.853983
0.85397
0.85397
0.85397
0.851781
0.851781
0.851781
0.851007
0.851007
0.851007
0.850223
0.850223
0.850223
0.853943
0.853943
0.853943
0.853249
0.853249
0.853249
0.852506
0.852506
0.852506
0.85252
0.85252
0.85252
0.849389
0.849389
0.849389
0.848545
0.848545
0.848545
0.84769
0.84769
0.84769
0.849402
0.849402
0.849402
0.847704
0.847704
0.847704
0.848572
0.848572
0.848572
0.848585
0.848585
0.848585
0.838722
0.838722
0.838722
0.8376
0.8376
0.8376
0.838736
0.838736
0.838736
0.837629
0.837629
0.837629
0.838765
0.838765
0.838765
0.837643
0.837643
0.837643
0.830394
0.830394
0.830394
0.831672
0.831672
0.831672
0.843921
0.843921
0.843921
0.843935
0.843935
0.843935
0.845827
0.845827
0.845827
0.8449
0.8449
0.8449
0.845855
0.845855
0.845855
0.844914
0.844914
0.844914
0.842916
0.842916
0.842916
0.84293
0.84293
0.84293
0.848372
0.848372
0.848372
0.846611
0.846611
0.846611
0.857428
0.857428
0.857428
0.858494
0.858494
0.858494
0.857412
0.857412
0.857412
0.857955
0.857955
0.857955
0.859029
0.859029
0.859029
0.85851
0.85851
0.85851
0.857988
0.857988
0.857988
0.851566
0.851566
0.851566
0.852334
0.852334
0.852334
0.851581
0.851581
0.851581
0.855673
0.855673
0.855673
0.855657
0.855657
0.855657
0.851487
0.851487
0.851487
0.853817
0.853817
0.853817
0.853124
0.853124
0.853124
0.854503
0.854503
0.854503
0.854517
0.854517
0.854517
0.853846
0.853846
0.853846
0.853138
0.853138
0.853138
0.826353
0.826353
0.826353
0.827735
0.827735
0.827735
0.829073
0.829073
0.829073
0.827652
0.827652
0.827652
0.841885
0.841885
0.841885
0.839803
0.839803
0.839803
0.840871
0.840871
0.840871
0.841899
0.841899
0.841899
0.837586
0.837586
0.837586
0.83153
0.83153
0.83153
0.832777
0.832777
0.832777
0.827623
0.827623
0.827623
0.825007
0.825007
0.825007
0.824994
0.824994
0.824994
0.824953
0.824953
0.824953
0.824967
0.824967
0.824967
0.843963
0.843963
0.843963
0.833014
0.833014
0.833014
0.831753
0.831753
0.831753
0.822124
0.822124
0.822124
0.822098
0.822098
0.822098
0.823588
0.823588
0.823588
0.823575
0.823575
0.823575
0.822137
0.822137
0.822137
0.823614
0.823614
0.823614
0.823627
0.823627
0.823627
0.820641
0.820641
0.820641
0.820679
0.820679
0.820679
0.819124
0.819124
0.819124
0.819136
0.819136
0.819136
0.820654
0.820654
0.820654
0.822175
0.822175
0.822175
0.822163
0.822163
0.822163
0.826472
0.826472
0.826472
0.82642
0.82642
0.82642
0.827789
0.827789
0.827789
0.82914
0.82914
0.82914
0.842582
0.842582
0.842582
0.843556
0.843556
0.843556
0.843539
0.843539
0.843539
0.842547
0.842547
0.842547
0.841617
0.841617
0.841617
0.842634
0.842634
0.842634
0.840591
0.840591
0.840591
0.842651
0.842651
0.842651
0.842733
0.842733
0.842733
0.840705
0.840705
0.840705
0.837403
0.837403
0.837403
0.843609
0.843609
0.843609
0.843591
0.843591
0.843591
0.844541
0.844541
0.844541
0.832624
0.832624
0.832624
0.852191
0.852191
0.852191
0.850695
0.850695
0.850695
0.85147
0.85147
0.85147
0.852207
0.852207
0.852207
0.852157
0.852157
0.852157
0.85214
0.85214
0.85214
0.84988
0.84988
0.84988
0.850678
0.850678
0.850678
0.851437
0.851437
0.851437
0.851421
0.851421
0.851421
0.850645
0.850645
0.850645
0.849863
0.849863
0.849863
0.850775
0.850775
0.850775
0.849976
0.849976
0.849976
0.847473
0.847473
0.847473
0.848326
0.848326
0.848326
0.849171
0.849171
0.849171
0.847488
0.847488
0.847488
0.849186
0.849186
0.849186
0.848357
0.848357
0.848357
0.846565
0.846565
0.846565
0.844675
0.844675
0.844675
0.846533
0.846533
0.846533
0.847426
0.847426
0.847426
0.84831
0.84831
0.84831
0.847441
0.847441
0.847441
0.848262
0.848262
0.848262
0.849091
0.849091
0.849091
0.849913
0.849913
0.849913
0.848278
0.848278
0.848278
0.837542
0.837542
0.837542
0.837557
0.837557
0.837557
0.83514
0.83514
0.83514
0.835155
0.835155
0.835155
0.835186
0.835186
0.835186
0.824714
0.824714
0.824714
0.826126
0.826126
0.826126
0.821851
0.821851
0.821851
0.833935
0.833935
0.833935
0.831394
0.831394
0.831394
0.821721
0.821721