<VTKFile type="UnstructuredGrid" version="1.0">
<UnstructuredGrid>
<Piece NumberOfPoints="11046" NumberOfCells="3682">
<Points>
<DataArray type="Float64" NumberOfComponents="3" format="ascii">
1.77647 2.48053 12.6202
1.76268 2.49432 12.6125
1.79026 2.46674 12.6125
1.46971 2.78729 12.6289
1.457 2.8 12.6125
1.47379 2.78321 12.6125
1.46971 2.78729 12.6289
1.457 2.8 12.6364
1.457 2.8 12.6125
1.79026 2.46674 13.5125
1.76268 2.49432 13.5125
1.77647 2.48053 13.5048
1.95562 2.30138 13.4915
1.95562 2.30138 13.5125
1.94184 2.31516 13.5048
1.7213 2.5357 13.3899
1.73509 2.52191 13.3785
1.7351 2.5219 13.4012
1.94184 2.31516 12.6202
1.95562 2.30138 12.6125
1.95562 2.30138 12.6335
1.76268 2.49432 12.6558
1.77647 2.48053 12.6438
1.77647 2.48053 12.6668
1.77647 2.48053 12.6668
1.77647 2.48053 12.6438
1.79025 2.46675 12.6558
1.79025 2.46675 13.04
1.80403 2.45297 13.0512
1.79025 2.46675 13.0625
1.457 2.8 13.085
1.457 2.8 13.0625
1.471 2.786 13.0738
2.0934 2.1636 13.2879
2.07961 2.17739 13.2992
2.07961 2.17739 13.2766
1.95561 2.30139 13.288
1.96939 2.28761 13.2767
1.96938 2.28762 13.2993
1.96938 2.28762 13.2993
1.96939 2.28761 13.2767
1.98316 2.27384 13.288
1.94184 2.31516 13.5048
1.95562 2.30138 13.5125
1.92806 2.32894 13.5125
1.84538 2.41162 13.4692
1.85916 2.39784 13.4812
1.84538 2.41162 13.4915
1.87294 2.38406 13.4692
1.85916 2.39784 13.4812
1.85916 2.39784 13.4582
1.85916 2.39784 13.4582
1.85916 2.39784 13.4812
1.84538 2.41162 13.4692
1.79025 2.46675 13.1526
1.77646 2.48054 13.1639
1.77646 2.48054 13.1413
1.79025 2.46675 13.0625
1.80403 2.45297 13.0512
1.80403 2.45297 13.0738
1.77646 2.48054 13.2315
1.79025 2.46675 13.2428
1.77646 2.48054 13.2541
1.77647 2.48053 13.5048
1.76268 2.49432 13.5125
1.76268 2.49432 13.4914
2.07959 2.17741 12.7353
2.0934 2.1636 12.7467
2.0796 2.1774 12.758
1.92805 2.32895 13.04
1.94183 2.31517 13.0287
1.94183 2.31517 13.0512
1.74889 2.50811 12.6202
1.7351 2.5219 12.6125
1.76268 2.49432 12.6125
1.76268 2.49432 12.6558
1.74889 2.50811 12.6438
1.76268 2.49432 12.6336
1.76268 2.49432 12.6336
1.77647 2.48053 12.6438
1.76268 2.49432 12.6558
1.76268 2.49432 12.6336
1.74889 2.50811 12.6202
1.76268 2.49432 12.6125
1.74889 2.50811 12.6438
1.74889 2.50811 12.6202
1.76268 2.49432 12.6336
1.76268 2.49432 12.6336
1.76268 2.49432 12.6125
1.77647 2.48053 12.6202
1.77647 2.48053 12.6202
1.77647 2.48053 12.6438
1.76268 2.49432 12.6336
1.79025 2.46675 12.6558
1.77647 2.48053 12.6438
1.79025 2.46675 12.6335
1.79025 2.46675 12.6335
1.80404 2.45296 12.6438
1.79025 2.46675 12.6558
1.77647 2.48053 12.6202
1.79026 2.46674 12.6125
1.79025 2.46675 12.6335
1.79025 2.46675 12.6335
1.77647 2.48053 12.6438
1.77647 2.48053 12.6202
1.77647 2.48053 12.6897
1.77647 2.48053 12.6668
1.79025 2.46675 12.6784
1.79025 2.46675 12.6784
1.77647 2.48053 12.6668
1.79025 2.46675 12.6558
1.81782 2.43918 12.8822
1.81782 2.43918 12.8596
1.8316 2.4254 12.8709
1.80403 2.45297 12.8709
1.81782 2.43918 12.8596
1.81782 2.43918 12.8822
1.92806 2.32894 12.6125
1.95562 2.30138 12.6125
1.94184 2.31516 12.6202
1.79026 2.46674 12.6125
1.81782 2.43918 12.6125
1.80404 2.45296 12.6202
1.80404 2.45296 12.6202
1.79025 2.46675 12.6335
1.79026 2.46674 12.6125
1.80404 2.45296 12.6438
1.79025 2.46675 12.6335
1.80404 2.45296 12.6202
1.80403 2.45297 13.0287
1.79025 2.46675 13.04
1.79025 2.46675 13.0175
1.80403 2.45297 13.0512
1.79025 2.46675 13.04
1.80403 2.45297 13.0287
1.80403 2.45297 13.0287
1.81782 2.43918 13.04
1.80403 2.45297 13.0512
2.07962 2.17738 13.0062
2.0934 2.1636 12.9949
2.0934 2.1636 13.0175
2.0934 2.1636 12.8822
2.07961 2.17739 12.871
2.0934 2.1636 12.8597
2.0934 2.1636 13.1751
2.0934 2.1636 13.1976
2.07962 2.17738 13.1864
2.07962 2.17738 13.2089
2.06584 2.19116 13.2202
2.06584 2.19116 13.1977
2.07962 2.17738 13.2089
2.0934 2.1636 13.1976
2.0934 2.1636 13.2202
2.06584 2.19116 13.1977
2.07962 2.17738 13.1864
2.07962 2.17738 13.2089
2.07962 2.17738 13.2089
2.07962 2.17738 13.1864
2.0934 2.1636 13.1976
2.07962 2.17738 13.2315
2.0934 2.1636 13.2202
2.0934 2.1636 13.2428
2.07962 2.17738 13.2315
2.07962 2.17738 13.2089
2.0934 2.1636 13.2202
2.06584 2.19116 13.2202
2.07962 2.17738 13.2089
2.07962 2.17738 13.2315
2.0934 2.1636 13.2879
2.07961 2.17739 13.2766
2.0934 2.1636 13.2653
2.05205 2.20495 13.2992
2.03827 2.21873 13.2879
2.05205 2.20495 13.2766
2.05205 2.20495 13.254
2.05205 2.20495 13.2766
2.03827 2.21873 13.2653
2.03827 2.21873 13.2653
2.03827 2.21873 13.2879
2.02449 2.23251 13.2766
2.03827 2.21873 13.2653
2.05205 2.20495 13.2766
2.03827 2.21873 13.2879
2.0934 2.1636 13.1075
2.07962 2.17738 13.0963
2.0934 2.1636 13.085
2.07962 2.17738 13.1638
2.0934 2.1636 13.1526
2.0934 2.1636 13.1751
2.0934 2.1636 13.1751
2.07962 2.17738 13.1864
2.07962 2.17738 13.1638
2.07962 2.17738 13.1638
2.07962 2.17738 13.1413
2.0934 2.1636 13.1526
2.06584 2.19116 13.1526
2.07962 2.17738 13.1413
2.07962 2.17738 13.1638
1.98316 2.27384 13.4012
1.96939 2.28761 13.4126
1.96939 2.28761 13.3899
1.9694 2.2876 13.4582
1.95562 2.30138 13.4692
1.95562 2.30138 13.4466
1.94184 2.31516 13.4812
1.95562 2.30138 13.4915
1.94184 2.31516 13.5048
1.94184 2.31516 13.4812
1.95562 2.30138 13.4692
1.95562 2.30138 13.4915
1.98319 2.27381 13.4915
1.98319 2.27381 13.4692
1.99698 2.26002 13.4812
1.98316 2.27384 13.288
1.96939 2.28761 13.2767
1.98316 2.27384 13.2654
1.96939 2.28761 13.2767
1.96939 2.28761 13.2541
1.98316 2.27384 13.2654
1.98316 2.27384 13.2428
1.99694 2.26006 13.2541
1.98316 2.27384 13.2654
1.98316 2.27384 13.2654
1.96939 2.28761 13.2541
1.98316 2.27384 13.2428
1.98316 2.27384 13.3106
1.96938 2.28762 13.2993
1.98316 2.27384 13.288
1.98316 2.27384 13.3106
1.99694 2.26006 13.3219
1.98316 2.27384 13.3332
2.0934 2.1636 13.3105
2.07961 2.17739 13.2992
2.0934 2.1636 13.2879
1.79025 2.46675 13.4915
1.79026 2.46674 13.5125
1.77647 2.48053 13.5048
1.81782 2.43918 13.4915
1.81782 2.43918 13.5125
1.80404 2.45296 13.5048
1.80404 2.45296 13.5048
1.80404 2.45296 13.4812
1.81782 2.43918 13.4915
1.80404 2.45296 13.5048
1.81782 2.43918 13.5125
1.79026 2.46674 13.5125
1.79026 2.46674 13.5125
1.79025 2.46675 13.4915
1.80404 2.45296 13.5048
1.80404 2.45296 13.5048
1.79025 2.46675 13.4915
1.80404 2.45296 13.4812
1.80404 2.45296 13.4812
1.79025 2.46675 13.4915
1.79025 2.46675 13.4692
1.85916 2.39784 13.5048
1.87294 2.38406 13.5125
1.84538 2.41162 13.5125
1.84538 2.41162 13.5125
1.84538 2.41162 13.4915
1.85916 2.39784 13.5048
1.85916 2.39784 13.5048
1.84538 2.41162 13.4915
1.85916 2.39784 13.4812
1.8316 2.4254 13.5048
1.81782 2.43918 13.5125
1.81782 2.43918 13.4915
1.84538 2.41162 13.5125
1.81782 2.43918 13.5125
1.8316 2.4254 13.5048
1.8316 2.4254 13.5048
1.84538 2.41162 13.4915
1.84538 2.41162 13.5125
1.84538 2.41162 13.4692
1.84538 2.41162 13.4915
1.8316 2.4254 13.4812
1.8316 2.4254 13.4812
1.8316 2.4254 13.4582
1.84538 2.41162 13.4692
1.8316 2.4254 13.4812
1.8316 2.4254 13.5048
1.81782 2.43918 13.4915
1.84538 2.41162 13.4915
1.8316 2.4254 13.5048
1.8316 2.4254 13.4812
1.84538 2.41162 13.4466
1.85916 2.39784 13.4582
1.84538 2.41162 13.4692
1.84538 2.41162 13.4466
1.8316 2.4254 13.4582
1.8316 2.4254 13.4353
1.84538 2.41162 13.4692
1.8316 2.4254 13.4582
1.84538 2.41162 13.4466
1.76267 2.49433 13.1751
1.77646 2.48054 13.1639
1.77646 2.48054 13.1864
1.77646 2.48054 13.1864
1.76267 2.49433 13.1977
1.76267 2.49433 13.1751
1.79025 2.46675 13.2202
1.79025 2.46675 13.2428
1.77646 2.48054 13.2315
1.76267 2.49433 13.1075
1.77646 2.48054 13.0963
1.77646 2.48054 13.1188
1.77646 2.48054 13.1188
1.77646 2.48054 13.0963
1.79025 2.46675 13.1075
1.76267 2.49433 13.1526
1.77646 2.48054 13.1639
1.76267 2.49433 13.1751
1.76267 2.49433 13.1526
1.77646 2.48054 13.1413
1.77646 2.48054 13.1639
1.80403 2.45297 13.0512
1.81782 2.43918 13.04
1.81782 2.43918 13.0625
1.81782 2.43918 13.0625
1.80403 2.45297 13.0738
1.80403 2.45297 13.0512
1.79025 2.46675 13.1075
1.77646 2.48054 13.0963
1.79025 2.46675 13.085
1.79025 2.46675 13.0625
1.80403 2.45297 13.0738
1.79025 2.46675 13.085
1.79025 2.46675 13.288
1.79025 2.46675 13.3106
1.77646 2.48054 13.2993
1.72129 2.53571 13.3672
1.73509 2.52191 13.3785
1.7213 2.5357 13.3899
1.63839 2.61861 13.5048
1.65223 2.60477 13.5125
1.62454 2.63246 13.5125
1.70749 2.54951 13.3785
1.72129 2.53571 13.3672
1.7213 2.5357 13.3899
1.70749 2.54951 13.3558
1.72129 2.53571 13.3672
1.70749 2.54951 13.3785
1.74889 2.50811 13.4353
1.76268 2.49432 13.4466
1.74889 2.50811 13.4582
1.74889 2.50811 13.4582
1.76268 2.49432 13.4466
1.76268 2.49432 13.4692
1.7213 2.5357 13.4582
1.7213 2.5357 13.4353
1.7351 2.5219 13.4466
1.7351 2.5219 13.4466
1.7351 2.5219 13.4692
1.7213 2.5357 13.4582
1.7351 2.5219 13.4466
1.7351 2.5219 13.4239
1.74889 2.50811 13.4353
1.7213 2.5357 13.4353
1.7351 2.5219 13.4239
1.7351 2.5219 13.4466
1.74889 2.50811 13.4353
1.74889 2.50811 13.4582
1.7351 2.5219 13.4466
1.7351 2.5219 13.4466
1.74889 2.50811 13.4582
1.7351 2.5219 13.4692
1.76268 2.49432 13.5125
1.7351 2.5219 13.5125
1.74889 2.50811 13.5048
1.74889 2.50811 13.5048
1.76268 2.49432 13.4914
1.76268 2.49432 13.5125
1.7213 2.5357 13.4582
1.7351 2.5219 13.4692
1.7213 2.5357 13.4812
1.457 2.8 13.5125
1.46971 2.78729 13.4961
1.47379 2.78321 13.5125
1.47379 2.78321 13.5125
1.46971 2.78729 13.4961
1.48501 2.77199 13.4903
1.48501 2.77199 13.4903
1.48882 2.76818 13.5125
1.47379 2.78321 13.5125
2.07978 2.17722 12.6207
2.06614 2.19086 12.6125
2.0934 2.1636 12.6125
2.06582 2.19118 12.656
2.07962 2.17738 12.6443
2.07959 2.17741 12.6672
2.0934 2.1636 12.7241
2.0934 2.1636 12.7467
2.07959 2.17741 12.7353
2.07959 2.17741 12.6672
2.07962 2.17738 12.6443
2.0934 2.1636 12.6564
2.0934 2.1636 12.6564
2.0934 2.1636 12.6789
2.07959 2.17741 12.6672
2.07959 2.17741 12.6672
2.0934 2.1636 12.6789
2.07958 2.17742 12.69
2.0934 2.1636 12.8371
2.07961 2.17739 12.8258
2.0934 2.1636 12.8145
2.07961 2.17739 12.8032
2.0934 2.1636 12.7919
2.0934 2.1636 12.8145
2.0934 2.1636 12.8145
2.07961 2.17739 12.8258
2.07961 2.17739 12.8032
2.0934 2.1636 12.7693
2.0796 2.1774 12.758
2.0934 2.1636 12.7467
1.95562 2.30138 12.6125
1.98319 2.27381 12.6125
1.9694 2.2876 12.6202
1.9694 2.2876 12.6202
[...]
<PointData Scalars="View Factor" >
<DataArray type="Float64" Name="View Factor" NumberOfComponents="1" format="ascii">
0.723425
0.723425
0.723425
0.719464
0.719464
0.719464
0.718929
0.718929
0.718929
0.722606
0.722606
0.722606
0.66753
0.66753
0.66753
0.726876
0.726876
0.726876
0.668103
0.668103
0.668103
0.72394
0.72394
0.72394
0.722823
0.722823
0.722823
0.720604
0.720604
0.720604
0.718423
0.718423
0.718423
0.662989
0.662989
0.662989
0.662169
0.662169
0.662169
0.662362
0.662362
0.662362
0.672894
0.672894
0.672894
0.709162
0.709162
0.709162
0.705387
0.705387
0.705387
0.707963
0.707963
0.707963
0.722417
0.722417
0.722417
0.71989
0.71989
0.71989
0.72233
0.72233
0.72233
0.723658
0.723658
0.723658
0.663304
0.663304
0.663304
0.675794
0.675794
0.675794
0.726254
0.726254
0.726254
0.725401
0.725401
0.725401
0.724461
0.724461
0.724461
0.725418
0.725418
0.725418
0.725839
0.725839
0.725839
0.724477
0.724477
0.724477
0.723956
0.723956
0.723956
0.722226
0.722226
0.722226
0.720917
0.720917
0.720917
0.722241
0.722241
0.722241
0.722839
0.722839
0.722839
0.722807
0.722807
0.722807
0.72221
0.72221
0.72221
0.715968
0.715968
0.715968
0.717715
0.717715
0.717715
0.673489
0.673489
0.673489
0.719489
0.719489
0.719489
0.720933
0.720933
0.720933
0.72022
0.72022
0.72022
0.720623
0.720623
0.720623
0.719911
0.719911
0.719911
0.718396
0.718396
0.718396
0.66312
0.66312
0.66312
0.663195
0.663195
0.663195
0.663011
0.663011
0.663011
0.663145
0.663145
0.663145
0.662997
0.662997
0.662997
0.663123
0.663123
0.663123
0.663048
0.663048
0.663048
0.662982
0.662982
0.662982
0.663034
0.663034
0.663034
0.663108
0.663108
0.663108
0.662952
0.662952
0.662952
0.663151
0.663151
0.663151
0.663166
0.663166
0.663166
0.663122
0.663122
0.663122
0.663153
0.663153
0.663153
0.663067
0.663067
0.663067
0.663025
0.663025
0.663025
0.663063
0.663063
0.663063
0.663077
0.663077
0.663077
0.663151
0.663151
0.663151
0.662278
0.662278
0.662278
0.661937
0.661937
0.661937
0.670272
0.670272
0.670272
0.667548
0.667548
0.667548
0.662471
0.662471
0.662471
0.662459
0.662459
0.662459
0.662378
0.662378
0.662378
0.662639
0.662639
0.662639
0.662475
0.662475
0.662475
0.662443
0.662443
0.662443
0.662591
0.662591
0.662591
0.662937
0.662937
0.662937
0.721447
0.721447
0.721447
0.717133
0.717133
0.717133
0.717955
0.717955
0.717955
0.718708
0.718708
0.718708
0.720151
0.720151
0.720151
0.719463
0.719463
0.719463
0.720176
0.720176
0.720176
0.706662
0.706662
0.706662
0.709139
0.709139
0.709139
0.70794
0.70794
0.70794
0.715395
0.715395
0.715395
0.713483
0.713483
0.713483
0.71141
0.71141
0.71141
0.711433
0.711433
0.711433
0.712508
0.712508
0.712508
0.714475
0.714475
0.714475
0.712484
0.712484
0.712484
0.709184
0.709184
0.709184
0.712531
0.712531
0.712531
0.711456
0.711456
0.711456
0.723505
0.723505
0.723505
0.724004
0.724004
0.724004
0.721739
0.721739
0.721739
0.72357
0.72357
0.72357
0.72246
0.72246
0.72246
0.724026
0.724026
0.724026
0.723527
0.723527
0.723527
0.717572
0.717572
0.717572
0.718376
0.718376
0.718376
0.721866
0.721866
0.721866
0.720584
0.720584
0.720584
0.721671
0.721671
0.721671
0.727165
0.727165
0.727165
0.728524
0.728524
0.728524
0.727647
0.727647
0.727647
0.72787
0.72787
0.72787
0.725076
0.725076
0.725076
0.72464
0.72464
0.72464
0.727081
0.727081
0.727081
0.726793
0.726793
0.726793
0.726203
0.726203
0.726203
0.726822
0.726822
0.726822
0.725844
0.725844
0.725844
0.726176
0.726176
0.726176
0.725396
0.725396
0.725396
0.724586
0.724586
0.724586
0.727053
0.727053
0.727053
0.718217
0.718217
0.718217
0.719099
0.719099
0.719099
0.719666
0.719666
0.719666
0.663406
0.663406
0.663406
0.663423
0.663423
0.663423
0.663264
0.663264
0.663264
0.663348
0.663348
0.663348
0.663297
0.663297
0.663297
0.663337
0.663337
0.663337
0.663219
0.663219
0.663219
0.66323
0.66323
0.66323
0.663269
0.663269
0.663269
0.663253
0.663253
0.663253
0.662665
0.662665
0.662665
0.662462
0.662462
0.662462
0.675946
0.675946
0.675946
0.683036
0.683036
0.683036
0.678394
0.678394
0.678394
0.67076
0.67076
0.67076
0.691313
0.691313
0.691313
0.695013
0.695013
0.695013
0.670837
0.670837
0.670837
0.668091
0.668091
0.668091
0.670826
0.670826
0.670826
0.667936
0.667936
0.667936
0.662293
0.662293
0.662293
0.678239
0.678239
0.678239
0.725821
0.725821
0.725821
0.701602
0.701602
0.701602
0.709846
0.709846
0.709846
0.700156
0.700156
0.700156
0.691255
0.691255
0.691255
0.694954
0.694954
0.694954
0.704462
0.704462
0.704462
0.70154
0.70154
0.70154
0.720753
0.720753
0.720753
0.722059
0.722059
0.722059
0.715024
0.715024
0.715024
0.71595
0.71595
0.71595
0.713005
0.713005
0.713005
0.715006
0.715006
0.715006
0.711929
0.711929
0.711929
0.712989
0.712989
0.712989
0.694984
0.694984
0.694984
0.707367
0.707367
0.707367
0.70017
0.70017
0.70017
0.701715
0.701715
0.701715
0.70464
0.70464
0.70464
0.696875
0.696875
0.696875
0.720204
0.720204
0.720204
0.718684
0.718684
0.718684
0.71786
0.71786
0.71786
0.720902
0.720902
0.720902
0.721927
0.721927
0.721927
0.726701
0.726701
0.726701
0.709633
0.709633
0.709633
0.711913
0.711913
0.711913
0.7096
0.7096
0.7096
0.708378
0.708378
0.708378
0.705778
0.705778
0.705778
0.718451
0.718451
0.718451
0.717646
0.717646
0.717646
0.725149
0.725149
0.725149
0.724212
0.724212
0.724212
0.723691
0.723691
0.723691
0.712919
0.712919
0.712919
0.708361
0.708361
0.708361
0.711861
0.711861
0.711861
0.709583
0.709583
0.709583
0.709566
0.709566
0.709566
0.711843
0.711843
0.711843
0.719929
0.719929
0.719929
0.663294
0.663294
0.663294
0.662799
0.662799
0.662799
0.663012
0.663012
0.663012
0.66288
0.66288
0.66288
0.663281
0.663281
0.663281
0.663264
0.663264
0.663264
0.663324
0.663324
0.663324
0.663311
0.663311
0.663311
0.663323
0.663323
0.663323
0.66331
0.66331
0.66331
0.663303
0.663303
0.663303
0.663094
0.663094
0.663094
0.663133
0.663133
0.663133
0.663246
0.663246
0.663246
0.663171
0.663171
0.663171
0.663158
0.663158
0.663158
0.663107
0.663107
0.663107
0.663145
0.663145
0.663145
0.66322
0.66322
0.66322
0.663309
0.663309
0.663309
0.663234
0.663234
0.663234
0.663158
0.663158
0.663158
0.663209
0.663209
0.663209
0.729686
0.729686
0.729686
0.720312
0.720312
0.720312
0.718879
0.718879
0.718879
0.663176
0.663176
0.663176
0.66313
0.66313
0.66313
0.663171
0.663171
0.663171
0.663137
0.663137
0.663137
0.662973
0.662973
0.662973
0.662921
0.662921
0.662921
0.66316
0.66316
0.66316
0.663156
0.663156
0.663156
0.663063
0.663063
0.663063
0.663145
0.663145
0.663145
0.6631
0.6631
0.6631
0.663141
0.663141
0.663141
0.717474
0.717474
0.717474
0.71981
0.71981
0.71981
0.718297
0.718297
0.718297
0.721826
0.721826
0.721826
0.720522
0.720522
0.720522
0.722439
0.722439
0.722439
0.721848
0.721848
0.721848
0.717553
0.717553
0.717553
0.709548
0.709548
0.709548
0.708344
0.708344
0.708344
0.70569
0.70569
0.70569
0.704327
0.704327
0.704327
0.670551
0.670551
0.670551
0.66325
0.66325
0.66325
0.663185
0.663185
0.663185
0.662277
0.662277
0.662277
0.662484
0.662484
0.662484
0.662506
0.662506
0.662506
0.662122
0.662122
0.662122
0.682801
0.682801
0.682801
0.685002
0.685002
0.685002
0.662491
0.662491
0.662491
0.662394
0.662394
0.662394
0.662409
0.662409
0.662409
0.662217
0.662217
0.662217
0.6627
0.6627
0.6627
0.66267
0.66267
0.66267
0.662655
0.662655
0.662655
0.662721
0.662721
0.662721
0.662737
0.662737
0.662737
0.66287
0.66287
0.66287
0.66299
0.66299
0.66299
0.663136
0.663136
0.663136
0.66307
0.66307
0.66307
0.663186
0.663186
0.663186
0.663191
0.663191
0.663191
0.663197
0.663197
0.663197
0.662786
0.662786
0.662786
0.662853
0.662853
0.662853
0.662985
0.662985
0.662985
0.662866
0.662866
0.662866
0.663077
0.663077
0.663077
0.662812
0.662812
0.662812
0.663216
0.663216
0.663216
0.66318
0.66318
0.66318
0.663105
0.663105
0.663105
0.663188
0.663188
0.663188
0.663202
0.663202
0.663202
0.663166
0.663166
0.663166
0.662376
0.662376
0.662376
0.667567
0.667567
0.667567
0.670292
0.670292
0.670292
0.66205
0.66205
0.66205
0.662288
0.662288
0.662288
0.661901
0.661901
0.661901
0.662098
0.662098
0.662098
0.662359
0.662359
0.662359
0.662261
0.662261
0.662261
0.662554
0.662554
0.662554
0.704115
0.704115
0.704115
0.662185
0.662185
0.662185
0.670457
0.670457
0.670457
0.667714
0.667714
0.667714
0.662074
0.662074
0.662074
0.662674
0.662674
0.662674
0.662607
0.662607
0.662607
0.711673
0.711673
0.711673
0.723163
0.723163
0.723163
0.722059
0.722059
0.722059
0.721474
0.721474
0.721474
0.723684
0.723684
0.723684
0.699557
0.699557
0.699557
0.696274
0.696274
0.696274
0.707986
0.707986
0.707986
0.701093
0.701093
0.701093
0.704006
0.704006
0.704006
0.703984
0.703984
0.703984
0.705364
0.705364
0.705364
0.697909
0.697909
0.697909
0.701072
0.701072
0.701072
0.699535
0.699535
0.699535
0.694523
0.694523
0.694523
0.690832
0.690832
0.690832
0.694501
0.694501
0.694501
0.696252
0.696252
0.696252
0.686819
0.686819
0.686819
0.690811
0.690811
0.690811
0.688866
0.688866
0.688866
0.677891
0.677891
0.677891
0.675451
0.675451
0.675451
0.682526
0.682526
0.682526
0.684725
0.684725
0.684725
0.721762
0.721762
0.721762
0.722375
0.722375
0.722375
0.723483
0.723483
0.723483
0.722351
0.722351
0.722351
0.720439
0.720439
0.720439
0.717432
0.717432
0.717432
0.720461
0.720461
0.720461
0.718234
0.718234
0.718234
0.719748
0.719748
0.719748
0.724048
0.724048
0.724048
0.724068
0.724068
0.724068
0.723548
0.723548
0.723548
0.715826
0.715826
0.715826
0.711825
0.711825
0.711825
0.714901
0.714901
0.714901
0.712901
0.712901
0.712901
0.722284
0.722284
0.722284
0.714524
0.714524
0.714524
0.712555
0.712555
0.712555
0.708009
0.708009
0.708009
0.711479
0.711479
0.711479
0.709208
0.709208
0.709208
0.714571
0.714571
0.714571
0.723764
0.723764
0.723764
0.723243
0.723243
0.723243
0.724667
0.724667
0.724667
0.723738
0.723738
0.723738
0.724719
0.724719
0.724719
0.726257
0.726257
0.726257
0.725924
0.725924
0.725924
0.725156
0.725156
0.725156
0.715515
0.715515
0.715515
0.723268
0.723268
0.723268
0.723789
0.723789
0.723789
0.723294
0.723294
0.723294
0.722189
0.722189
0.722189
0.718191
0.718191
0.718191
0.719726
0.719726
0.719726
0.721601
0.721601
0.721601
0.719658
0.719658
0.719658
0.720372
0.720372
0.720372
0.719681
0.719681
0.719681
0.72711
0.72711
0.72711
0.727138
0.727138
0.727138
0.726849
0.726849
0.726849
0.727564
0.727564
0.727564
0.725816
0.725816
0.725816
0.725021
0.725021
0.725021
0.724612
0.724612
0.724612
0.725048
0.725048
0.725048
0.727253
0.727253
0.727253
0.726691
0.726691
0.726691
0.726233
0.726233
0.726233
0.725157
0.725157
0.725157
0.72458
0.72458
0.72458
0.725723
0.725723
0.725723
0.723256
0.723256
0.723256
0.72365
0.72365
0.72365
0.723948
0.723948
0.723948
0.720436
0.720436
0.720436
0.721199
0.721199
0.721199
0.719047
0.719047
0.719047
0.71954
0.71954
0.71954
0.663458
0.663458
0.663458
0.663467
0.663467
0.663467
0.663433
0.663433
0.663433
0.663286
0.663286
0.663286
0.663308
0.663308
0.663308
0.663318
0.663318
0.663318
0.663358
0.663358
0.663358
0.663447
0.663447
0.663447
0.663412
0.663412
0.663412
0.663393
0.663393
0.663393
0.663399
0.663399
0.663399
0.663258
0.663258
0.663258
0.663207
0.663207
0.663207
0.663246
0.663246
0.663246
0.663293
0.663293
0.663293
0.663281
0.663281
0.663281
0.663242
0.663242
0.663242
0.662559
0.662559
0.662559
0.662548
0.662548
0.662548
0.662451
0.662451
0.662451
0.663152
0.663152
0.663152
0.663269
0.663269
0.663269
0.663206
0.663206
0.663206
0.685238
0.685238
0.685238
0.701588
0.701588
0.701588
0.700044
0.700044
0.700044
0.696751
0.696751
0.696751
0.694999
0.694999
0.694999
0.696736
0.696736
0.696736
0.700029
0.700029
0.700029
0.695027
0.695027
0.695027
0.701617
0.701617
0.701617
0.696766
0.696766
0.696766
0.700058
0.700058
0.700058
0.691341
0.691341
0.691341
0.689388
0.689388
0.689388
0.691327
0.691327
0.691327
0.683023
0.683023
0.683023
0.685225
0.685225
0.685225
0.689375
0.689375
0.689375
0.689361
0.689361
0.689361
0.685212
0.685212
0.685212
0.701646
0.701646
0.701646
0.704597
0.704597
0.704597
0.704583
0.704583
0.704583
0.705965
0.705965
0.705965
0.668015
0.668015
0.668015
0.662704
0.662704
0.662704
0.670805
0.670805
0.670805
0.662525
0.662525
0.662525
0.662536
0.662536
0.662536
0.66244
0.66244
0.66244
0.662428
0.662428
0.662428
0.66807
0.66807
0.66807
0.66808
0.66808
0.66808
0.670815
0.670815
0.670815
0.678488
0.678488
0.678488
0.676027
0.676027
0.676027
0.682924
0.682924
0.682924
0.685111
0.685111
0.685111
0.689289
0.689289
0.689289
0.685126
0.685126
0.685126
0.670666
0.670666
0.670666
0.667922
0.667922
0.667922
0.682879
0.682879
0.682879
0.675749
0.675749
0.675749
0.662636
0.662636
0.662636
0.689258
0.689258
0.689258
0.691209
0.691209
0.691209
0.675808
0.675808
0.675808
0.678254
0.678254
0.678254
0.678268
0.678268
0.678268
0.68291
0.68291
0.68291
0.725384
0.725384
0.725384
0.723924
0.723924
0.723924
0.724445
0.724445
0.724445
0.724428
0.724428
0.724428
0.726976
0.726976
0.726976
0.726617
0.726617
0.726617
0.717766
0.717766
0.717766
0.709698
0.709698
0.709698
0.704524
0.704524
0.704524
0.704509
0.704509
0.704509
0.705891
0.705891
0.705891
0.708476
0.708476
0.708476
0.705876
0.705876
0.705876
0.722162
0.722162
0.722162
0.722774
0.722774
0.722774
0.723907
0.723907
0.723907
0.714227
0.714227
0.714227
0.712129
0.712129
0.712129
0.701701
0.701701
0.701701
0.709818
0.709818
0.709818
0.709775
0.709775
0.709775
0.709759
0.709759
0.709759
0.708552
0.708552
0.708552
0.69127
0.69127
0.69127
0.689304
0.689304
0.689304
0.685155
0.685155
0.685155
0.67068
0.67068
0.67068
0.675865
0.675865
0.675865
0.725643
0.725643
0.725643
0.722076
0.722076
0.722076
0.722672
0.722672
0.722672
0.716
0.716
0.716
0.711994
0.711994
0.711994
0.717732
0.717732
0.717732
0.72077
0.72077
0.72077
0.718538
0.718538
0.718538
0.720056
0.720056
0.720056
0.711978
0.711978
0.711978
0.713055
0.713055
0.713055
0.715056
0.715056
0.715056
0.715984
0.715984
0.715984
0.71504
0.71504
0.71504
0.713039
0.713039
0.713039
0.717698
0.717698
0.717698
0.718521
0.718521
0.718521
0.720039
0.720039
0.720039
0.696722
0.696722
0.696722
0.694969
0.694969
0.694969
0.699998
0.699998
0.699998
0.696707
0.696707
0.696707
0.708445
0.708445
0.708445
0.70965
0.70965
0.70965
0.705845
0.705845
0.705845
0.708427
0.708427
0.708427
0.698578
0.698578
0.698578
0.708624
0.708624
0.708624
0.706022
0.706022
0.706022
0.70861
0.70861
0.70861
0.709832
0.709832
0.709832
0.701728
0.701728
0.701728
0.700183
0.700183
0.700183
0.701742
0.701742
0.701742
0.704653
0.704653
0.704653
0.704666
0.704666
0.704666
0.706036
0.706036
0.706036
0.724092
0.724092
0.724092
0.725025
0.725025
0.725025
0.725462
0.725462
0.725462
0.727325
0.727325
0.727325
0.715934
0.715934
0.715934
0.71499
0.71499
0.71499
0.715916
0.715916
0.715916
0.704413
0.704413
0.704413
0.705795
0.705795
0.705795
0.701509
0.701509
0.701509
0.704429
0.704429
0.704429
0.704396
0.704396
0.704396
0.705761
0.705761
0.705761
0.717628
0.717628
0.717628
0.718432
0.718432
0.718432
0.715898
0.715898
0.715898
0.711896
0.711896
0.711896
0.712972
0.712972
0.712972
0.714972
0.714972
0.714972
0.718469
0.718469
0.718469
0.719984
0.719984
0.719984
0.720698
0.720698
0.720698
0.717664
0.717664
0.717664
0.726361
0.726361
0.726361
0.725586
0.725586
0.725586
0.722579
0.722579
0.722579
0.719966
0.719966
0.719966
0.72068
0.72068
0.72068
0.721986
0.721986
0.721986
0.71492
0.71492
0.71492
0.715864
0.715864
0.715864
0.717608
0.717608
0.717608
0.718413
0.718413
0.718413
0.715845
0.715845
0.715845
0.71759
0.71759
0.71759
0.72254
0.72254
0.72254
0.719947
0.719947
0.719947
0.72066
0.72066
0.72066
0.721966
0.721966
0.721966
0.722561
0.722561
0.722561
0.720643
0.720643
0.720643
0.721948
0.721948
0.721948
0.725663
0.725663
0.725663
0.725225
0.725225
0.725225
0.724287
0.724287
0.724287
0.723784
0.723784
0.723784
0.717749
0.717749
0.717749
0.718573
0.718573
0.718573
0.720091
0.720091
0.720091
0.720787
0.720787
0.720787
0.720074
0.720074
0.720074
0.718555
0.718555
0.718555
0.663212
0.663212
0.663212
0.663277
0.663277
0.663277
0.663307
0.663307
0.663307
0.663177
0.663177
0.663177
0.663225
0.663225
0.663225
0.66329
0.66329
0.66329
0.663282
0.663282
0.663282
0.663233
0.663233
0.663233
0.663316
0.663316
0.663316
0.663298
0.663298
0.663298
0.663256
0.663256
0.663256
0.663269
0.663269
0.663269
0.663311
0.663311
0.663311
0.663183
0.663183
0.663183
0.663222
0.663222
0.663222
0.663171
0.663171
0.663171
0.663368
0.663368
0.663368
0.663284
0.663284
0.663284
0.663297
0.663297
0.663297
0.66332
0.66332
0.66332
0.663362
0.663362
0.663362
0.66338
0.66338
0.66338
0.663332
0.663332
0.663332
0.663374
0.663374
0.663374
0.721497
0.721497
0.721497
0.725085
0.725085
0.725085
0.724761
0.724761
0.724761
0.729278
0.729278
0.729278
0.729139
0.729139
0.729139
0.729287
0.729287
0.729287
0.729346
0.729346
0.729346
0.72931
0.72931
0.72931
0.729256
0.729256
0.729256
0.728742
0.728742
0.728742
0.729231
0.729231
0.729231
0.729095
0.729095
0.729095
0.728989
0.728989
0.728989
0.728851
0.728851
0.728851
0.72871
0.72871
0.72871
0.728348
0.728348
0.728348
0.718932
0.718932
0.718932
0.71896
0.71896
0.71896
0.719367
0.719367
0.719367
0.719393
0.719393
0.719393
0.720263
0.720263
0.720263
0.720226
0.720226
0.720226
0.720685
0.720685
0.720685
0.7291
0.7291
0.7291
0.729353
0.729353
0.729353
0.663047
0.663047
0.663047
0.663084
0.663084
0.663084
0.663125
0.663125
0.663125
0.663097
0.663097
0.663097
0.663115
0.663115
0.663115
0.662967
0.662967
0.662967
0.663004
0.663004
0.663004
0.663078
0.663078
0.663078
0.663019
0.663019
0.663019
0.663093
0.663093
0.663093
0.714825
0.714825
0.714825
0.71577
0.71577
0.71577
0.717494
0.717494
0.717494
0.715749
0.715749
0.715749
0.718277
0.718277
0.718277
0.717454
0.717454
0.717454
0.718255
0.718255
0.718255
0.719768
0.719768
0.719768
0.722396
0.722396
0.722396
0.721805
0.721805
0.721805
0.720502
0.720502
0.720502
0.719789
0.719789
0.719789
0.721783
0.721783
0.721783
0.720481
0.720481
0.720481
0.715807
0.715807
0.715807
0.712883
0.712883
0.712883
0.714882
0.714882
0.714882
0.711807
0.711807
0.711807
0.717533
0.717533
0.717533
0.720564
0.720564
0.720564
0.719872
0.719872
0.719872
0.718357
0.718357
0.718357
0.715789
0.715789
0.715789
0.714863
0.714863
0.714863
0.712864
0.712864
0.712864
0.714846
0.714846
0.714846
0.712828
0.712828
0.712828
0.708272
0.708272
0.708272
0.705708
0.705708
0.705708
0.704344
0.704344
0.704344
0.667807
0.667807
0.667807
0.662167
0.662167
0.662167
0.667777
0.667777
0.667777
0.662137
0.662137
0.662137
0.662232
0.662232
0.662232
0.662425
0.662425
0.662425
0.662522
0.662522
0.662522
0.701425
0.701425
0.701425
0.694843
0.694843
0.694843
0.696596
0.696596
0.696596
0.699884
0.699884
0.699884
0.691146
0.691146
0.691146
0.675733
0.675733
0.675733
0.678177
0.678177
0.678177
0.682817
0.682817
0.682817
0.678193
0.678193
0.678193
0.663037
0.663037
0.663037
0.663137
0.663137
0.663137
0.663171
0.663171
0.663171
0.663123
0.663123
0.663123
0.663297
0.663297
0.663297
0.663267
0.663267
0.663267
0.663296
0.663296
0.663296
0.663237
0.663237
0.663237
0.663284
0.663284
0.663284
0.663254
0.663254
0.663254
0.663023
0.663023
0.663023
0.662972
0.662972
0.662972
0.66247
0.66247
0.66247
0.662551
0.662551
0.662551
0.662729
0.662729
0.662729
0.662566
0.662566
0.662566
0.662752
0.662752
0.662752
0.662685
0.662685
0.662685
0.662767
0.662767
0.662767
0.6629
0.6629
0.6629
0.663036
0.663036
0.663036
0.662936
0.662936
0.662936
0.662885
0.662885
0.662885
0.663085
0.663085
0.663085
0.663051
0.663051
0.663051
0.662951
0.662951
0.662951
0.66289
0.66289
0.66289
0.662624
0.662624
0.662624
0.662706
0.662706
0.662706
0.662839
0.662839
0.662839
0.66269
0.66269
0.66269
0.662823
0.662823
0.662823
0.663106
0.663106
0.663106
0.66304
0.66304
0.66304
0.663205
0.663205
0.663205
0.663226
0.663226
0.663226
0.663137
0.663137
0.663137
0.66322
0.66322
0.66322
0.663173
0.663173
0.663173
0.663215
0.663215
0.663215
0.663159
0.663159
0.663159
0.663201
0.663201
0.663201
0.663198
0.663198
0.663198
0.662999
0.662999
0.662999
0.66315
0.66315
0.66315
0.663051
0.663051
0.663051
0.663164
0.663164
0.663164
0.663064
0.663064
0.663064
0.66319
0.66319
0.66319
0.663026
0.663026
0.663026
0.662893
0.662893
0.662893
0.66309
0.66309
0.66309
0.663039
0.663039
0.663039
0.662649
0.662649
0.662649
0.662554
0.662554
0.662554
0.662362
0.662362
0.662362
0.662266
0.662266
0.662266
0.662279
0.662279
0.662279
0.662375
0.662375
0.662375
0.662567
0.662567
0.662567
0.662389