<VTKFile type="UnstructuredGrid" version="1.0">
<UnstructuredGrid>
<Piece NumberOfPoints="11046" NumberOfCells="3682">
<Points>
<DataArray type="Float64" NumberOfComponents="3" format="ascii">
3.01 0.0582363 11.5868
3.01 0.0717021 11.5675
3.01 0.05 11.5675
3.01 0.95 11.9962
3.01 0.942301 12.0157
3.01 0.95 12.0352
3.01 0.0962623 12.4675
3.01 0.107711 12.4473
3.01 0.086422 12.4472
3.01 0.466226 12.2111
3.01 0.443707 12.2111
3.01 0.454968 12.2307
3.01 0.353567 12.1328
3.01 0.376113 12.1328
3.01 0.364839 12.1133
3.01 0.376113 12.1328
3.01 0.353567 12.1328
3.01 0.364843 12.1524
3.01 0.353567 12.1328
3.01 0.342292 12.1524
3.01 0.364843 12.1524
3.01 0.37611 12.0938
3.01 0.387379 12.0742
3.01 0.364837 12.0742
3.01 0.376113 12.1328
3.01 0.387381 12.1133
3.01 0.364839 12.1133
3.01 0.364839 12.1133
3.01 0.387381 12.1133
3.01 0.37611 12.0938
3.01 0.066417 12.4495
3.01 0.05 12.4437
3.01 0.05 12.4675
3.01 0.0582363 11.5868
3.01 0.0817675 11.587
3.01 0.0717021 11.5675
3.01 0.0817675 11.587
3.01 0.0582363 11.5868
3.01 0.0711754 11.6064
3.01 0.11641 11.5675
3.01 0.127475 11.587
3.01 0.138968 11.5675
3.01 0.127475 11.587
3.01 0.11641 11.5675
3.01 0.104722 11.587
3.01 0.0711754 11.6064
3.01 0.0934889 11.6065
3.01 0.0817675 11.587
3.01 0.0934889 11.6065
3.01 0.104722 11.587
3.01 0.0817675 11.587
3.01 0.116091 11.6065
3.01 0.127475 11.587
3.01 0.104722 11.587
3.01 0.116091 11.6065
3.01 0.104722 11.587
3.01 0.0934889 11.6065
3.01 0.116091 11.6065
3.01 0.104394 11.626
3.01 0.127244 11.626
3.01 0.104394 11.626
3.01 0.116091 11.6065
3.01 0.0934889 11.6065
3.01 0.941764 11.5868
3.01 0.95 11.5675
3.01 0.928298 11.5675
3.01 0.387379 12.0742
3.01 0.376108 12.0547
3.01 0.364837 12.0742
3.01 0.161282 11.9962
3.01 0.149908 11.9767
3.01 0.138583 11.9962
3.01 0.0933091 12.0742
3.01 0.104333 12.0547
3.01 0.0813038 12.0547
3.01 0.104333 12.0547
3.01 0.0933065 12.0352
3.01 0.0813038 12.0547
3.01 0.331016 12.1719
3.01 0.308447 12.1719
3.01 0.319739 12.1915
3.01 0.308447 12.1719
3.01 0.331016 12.1719
3.01 0.319729 12.1524
3.01 0.331016 12.1719
3.01 0.342292 12.1524
3.01 0.319729 12.1524
3.01 0.138613 12.1914
3.01 0.149933 12.1719
3.01 0.12718 12.1719
3.01 0.138613 12.1914
3.01 0.161316 12.1914
3.01 0.149933 12.1719
3.01 0.161316 12.1914
3.01 0.172648 12.1719
3.01 0.149933 12.1719
3.01 0.206681 12.1914
3.01 0.217999 12.1719
3.01 0.195336 12.1719
3.01 0.263262 12.1719
3.01 0.274572 12.1915
3.01 0.285863 12.1719
3.01 0.274559 12.1523
3.01 0.263262 12.1719
3.01 0.285863 12.1719
3.01 0.240697 11.587
3.01 0.252012 11.5675
3.01 0.229409 11.5675
3.01 0.138758 11.6065
3.01 0.127475 11.587
3.01 0.116091 11.6065
3.01 0.127244 11.626
3.01 0.138758 11.6065
3.01 0.116091 11.6065
3.01 0.229332 11.6455
3.01 0.218031 11.626
3.01 0.206685 11.6455
3.01 0.184016 11.6455
3.01 0.172705 11.626
3.01 0.161325 11.6455
3.01 0.184093 11.6065
3.01 0.161431 11.6065
3.01 0.172705 11.626
3.01 0.218082 11.587
3.01 0.240697 11.587
3.01 0.229409 11.5675
3.01 0.218082 11.587
3.01 0.229409 11.5675
3.01 0.206798 11.5675
3.01 0.138617 11.6455
3.01 0.149916 11.665
3.01 0.161325 11.6455
3.01 0.376107 11.9767
3.01 0.364834 11.9572
3.01 0.353559 11.9767
3.01 0.942264 12.211
3.01 0.95 12.2306
3.01 0.95 12.1914
3.01 0.466226 12.2111
3.01 0.454966 12.1915
3.01 0.443707 12.2111
3.01 0.466223 12.1328
3.01 0.488741 12.1328
3.01 0.477482 12.1133
3.01 0.466223 12.1328
3.01 0.443703 12.1328
3.01 0.454964 12.1524
3.01 0.511259 12.1328
3.01 0.533777 12.1328
3.01 0.522518 12.1133
3.01 0.533777 12.1328
3.01 0.511259 12.1328
3.01 0.522517 12.1524
3.01 0.488741 12.1328
3.01 0.5 12.1133
3.01 0.477482 12.1133
3.01 0.511259 12.1328
3.01 0.5 12.1133
3.01 0.488741 12.1328
3.01 0.5 12.1133
3.01 0.511259 12.1328
3.01 0.522518 12.1133
3.01 0.387388 12.1915
3.01 0.40992 12.1915
3.01 0.398653 12.1719
3.01 0.376117 12.1719
3.01 0.387388 12.1915
3.01 0.398653 12.1719
3.01 0.443703 12.1328
3.01 0.432443 12.1524
3.01 0.454964 12.1524
3.01 0.432443 12.1524
3.01 0.443705 12.1719
3.01 0.454964 12.1524
3.01 0.274559 12.1523
3.01 0.285853 12.1328
3.01 0.26325 12.1328
3.01 0.387384 12.1524
3.01 0.376117 12.1719
3.01 0.398653 12.1719
3.01 0.376117 12.1719
3.01 0.387384 12.1524
3.01 0.364843 12.1524
3.01 0.387384 12.1524
3.01 0.376113 12.1328
3.01 0.364843 12.1524
3.01 0.342292 12.1524
3.01 0.331009 12.1328
3.01 0.319729 12.1524
3.01 0.331009 12.1328
3.01 0.342292 12.1524
3.01 0.353567 12.1328
3.01 0.545011 12.4675
3.01 0.533759 12.4477
3.01 0.522505 12.4675
3.01 0.533762 12.4081
3.01 0.55627 12.4081
3.01 0.545018 12.3883
3.01 0.55627 12.4081
3.01 0.567528 12.3883
3.01 0.545018 12.3883
3.01 0.567528 12.3883
3.01 0.59004 12.3883
3.01 0.578788 12.3686
3.01 0.466232 12.3291
3.01 0.477488 12.3094
3.01 0.454974 12.3094
3.01 0.567516 12.4675
3.01 0.590022 12.4675
3.01 0.578772 12.4477
3.01 0.601316 12.3291
3.01 0.590051 12.3488
3.01 0.61257 12.3488
3.01 0.62384 12.3291
3.01 0.601316 12.3291
3.01 0.61257 12.3488
3.01 0.680198 12.3093
3.01 0.702757 12.3093
3.01 0.691494 12.2896
3.01 0.086422 12.4472
3.01 0.073896 12.4675
3.01 0.0962623 12.4675
3.01 0.073896 12.4675
3.01 0.086422 12.4472
3.01 0.066417 12.4495
3.01 0.05 12.4675
3.01 0.073896 12.4675
3.01 0.066417 12.4495
3.01 0.0721919 12.4279
3.01 0.05 12.4437
3.01 0.066417 12.4495
3.01 0.086422 12.4472
3.01 0.0721919 12.4279
3.01 0.066417 12.4495
3.01 0.118481 12.4675
3.01 0.107711 12.4473
3.01 0.0962623 12.4675
3.01 0.5 12.4675
3.01 0.488747 12.4477
3.01 0.477495 12.4675
3.01 0.432484 12.4675
3.01 0.421228 12.4477
3.01 0.409978 12.4675
3.01 0.443725 12.3686
3.01 0.432465 12.3488
3.01 0.421212 12.3686
3.01 0.319802 12.3093
3.01 0.342348 12.3093
3.01 0.331063 12.2896
3.01 0.353629 12.329
3.01 0.364886 12.3093
3.01 0.342348 12.3093
3.01 0.10433 12.0157
3.01 0.0813011 12.0157
3.01 0.0933065 12.0352
3.01 0.0939466 11.5675
3.01 0.104722 11.587
3.01 0.11641 11.5675
3.01 0.0939466 11.5675
3.01 0.0717021 11.5675
3.01 0.0817675 11.587
3.01 0.104722 11.587
3.01 0.0939466 11.5675
3.01 0.0817675 11.587
3.01 0.0933065 12.0352
3.01 0.0710513 12.0352
3.01 0.0813038 12.0547
3.01 0.0710513 12.0352
3.01 0.0933065 12.0352
3.01 0.0813011 12.0157
3.01 0.115908 12.1132
3.01 0.104337 12.0937
3.01 0.0933131 12.1132
3.01 0.104337 12.0937
3.01 0.115908 12.1132
3.01 0.127165 12.0937
3.01 0.104343 12.1328
3.01 0.115908 12.1132
3.01 0.0933131 12.1132
3.01 0.104343 12.1328
3.01 0.0933188 12.1523
3.01 0.115915 12.1523
3.01 0.942303 11.9767
3.01 0.95 11.9962
3.01 0.95 11.9572
3.01 0.92895 11.9572
3.01 0.942303 11.9767
3.01 0.95 11.9572
3.01 0.9187 11.9767
3.01 0.895671 11.9767
3.01 0.906695 11.9962
3.01 0.92895 11.9572
3.01 0.9187 11.9767
3.01 0.942303 11.9767
3.01 0.942316 11.7429
3.01 0.95 11.7234
3.01 0.928965 11.7234
3.01 0.95 11.8013
3.01 0.95 11.7623
3.01 0.942309 11.7818
3.01 0.942316 11.7429
3.01 0.95 11.7623
3.01 0.95 11.7234
3.01 0.95 11.6061
3.01 0.95 11.5675
3.01 0.941764 11.5868
3.01 0.95 11.6061
3.01 0.942358 11.6257
3.01 0.95 11.6453
3.01 0.612617 11.6454
3.01 0.623887 11.6649
3.01 0.635157 11.6454
3.01 0.895671 11.9767
3.01 0.906696 11.9572
3.01 0.884102 11.9572
3.01 0.906696 11.9572
3.01 0.895671 11.9767
3.01 0.9187 11.9767
3.01 0.92895 11.9572
3.01 0.906696 11.9572
3.01 0.9187 11.9767
3.01 0.353563 12.0938
3.01 0.364839 12.1133
3.01 0.37611 12.0938
3.01 0.364837 12.0742
3.01 0.353563 12.0938
3.01 0.37611 12.0938
3.01 0.297145 12.1133
3.01 0.308439 12.1328
3.01 0.319723 12.1133
3.01 0.308439 12.1328
3.01 0.297145 12.1133
3.01 0.285853 12.1328
3.01 0.308439 12.1328
3.01 0.319729 12.1524
3.01 0.331009 12.1328
3.01 0.319723 12.1133
3.01 0.308439 12.1328
3.01 0.331009 12.1328
3.01 0.17262 11.9767
3.01 0.149908 11.9767
3.01 0.161282 11.9962
3.01 0.138583 11.9962
3.01 0.149909 12.0157
3.01 0.161282 11.9962
3.01 0.149909 12.0157
3.01 0.138583 11.9962
3.01 0.127158 12.0157
3.01 0.149909 12.0157
3.01 0.161284 12.0352
3.01 0.172622 12.0157
3.01 0.161282 11.9962
3.01 0.149909 12.0157
3.01 0.172622 12.0157
3.01 0.240621 12.0937
3.01 0.229301 12.0742
3.01 0.217979 12.0937
3.01 0.229301 12.0742
3.01 0.206649 12.0742
3.01 0.217979 12.0937
3.01 0.195316 12.0937
3.01 0.217979 12.0937
3.01 0.206649 12.0742
3.01 0.115908 12.1132
3.01 0.138594 12.1132
3.01 0.127165 12.0937
3.01 0.0933091 12.0742
3.01 0.115904 12.0742
3.01 0.104333 12.0547
3.01 0.115904 12.0742
3.01 0.127161 12.0547
3.01 0.104333 12.0547
3.01 0.115904 12.0742
3.01 0.0933091 12.0742
3.01 0.104337 12.0937
3.01 0.127165 12.0937
3.01 0.115904 12.0742
3.01 0.104337 12.0937
3.01 0.115901 12.0352
3.01 0.0933065 12.0352
3.01 0.104333 12.0547
3.01 0.127161 12.0547
3.01 0.115901 12.0352
3.01 0.104333 12.0547
3.01 0.115901 12.0352
3.01 0.10433 12.0157
3.01 0.0933065 12.0352
3.01 0.10433 12.0157
3.01 0.115901 12.0352
3.01 0.127158 12.0157
3.01 0.183972 11.9962
3.01 0.195307 11.9767
3.01 0.17262 11.9767
3.01 0.161282 11.9962
3.01 0.183972 11.9962
3.01 0.17262 11.9767
3.01 0.183972 11.9962
3.01 0.161282 11.9962
3.01 0.172622 12.0157
3.01 0.263244 12.0937
3.01 0.251933 12.0742
3.01 0.240621 12.0937
3.01 0.229301 12.0742
3.01 0.251933 12.0742
3.01 0.240617 12.0547
3.01 0.251933 12.0742
3.01 0.229301 12.0742
3.01 0.240621 12.0937
3.01 0.274543 12.0352
3.01 0.285842 12.0157
3.01 0.263237 12.0157
3.01 0.285842 12.0157
3.01 0.274541 11.9962
3.01 0.263237 12.0157
3.01 0.319739 12.1915
3.01 0.3423 12.1915
3.01 0.331016 12.1719
3.01 0.297163 12.1915
3.01 0.274572 12.1915
3.01 0.285878 12.2111
3.01 0.308447 12.1719
3.01 0.297163 12.1915
3.01 0.319739 12.1915
3.01 0.297163 12.1915
3.01 0.308447 12.1719
3.01 0.285863 12.1719
3.01 0.274572 12.1915
3.01 0.297163 12.1915
3.01 0.285863 12.1719
3.01 0.183992 12.1523
3.01 0.172648 12.1719
3.01 0.195336 12.1719
3.01 0.183992 12.1523
3.01 0.195323 12.1328
3.01 0.172636 12.1328
3.01 0.184008 12.1914
3.01 0.172648 12.1719
3.01 0.161316 12.1914
3.01 0.172648 12.1719
3.01 0.184008 12.1914
3.01 0.195336 12.1719
3.01 0.184008 12.1914
3.01 0.195356 12.211
3.01 0.206681 12.1914
3.01 0.195336 12.1719
3.01 0.184008 12.1914
3.01 0.206681 12.1914
3.01 0.308434 12.0937
3.01 0.297145 12.1133
3.01 0.319723 12.1133
3.01 0.297145 12.1133
[...]
<PointData Scalars="View Factor" >
<DataArray type="Float64" Name="View Factor" NumberOfComponents="1" format="ascii">
0.866515
0.866515
0.866515
0.78914
0.78914
0.78914
0.86561
0.86561
0.86561
0.850901
0.850901
0.850901
0.856656
0.856656
0.856656
0.856648
0.856648
0.856648
0.857259
0.857259
0.857259
0.856047
0.856047
0.856047
0.856024
0.856024
0.856024
0.856032
0.856032
0.856032
0.866064
0.866064
0.866064
0.866412
0.866412
0.866412
0.866408
0.866408
0.866408
0.865599
0.865599
0.865599
0.865797
0.865797
0.865797
0.866276
0.866276
0.866276
0.866138
0.866138
0.866138
0.865793
0.865793
0.865793
0.865971
0.865971
0.865971
0.865785
0.865785
0.865785
0.865967
0.865967
0.865967
0.790758
0.790758
0.790758
0.856054
0.856054
0.856054
0.864949
0.864949
0.864949
0.865911
0.865911
0.865911
0.865918
0.865918
0.865918
0.858957
0.858957
0.858957
0.858965
0.858965
0.858965
0.858417
0.858417
0.858417
0.865079
0.865079
0.865079
0.864837
0.864837
0.864837
0.864585
0.864585
0.864585
0.863367
0.863367
0.863367
0.86096
0.86096
0.86096
0.860968
0.860968
0.860968
0.862557
0.862557
0.862557
0.865591
0.865591
0.865591
0.865587
0.865587
0.865587
0.863294
0.863294
0.863294
0.864588
0.864588
0.864588
0.864598
0.864598
0.864598
0.862946
0.862946
0.862946
0.86332
0.86332
0.86332
0.865115
0.865115
0.865115
0.856743
0.856743
0.856743
0.789033
0.789033
0.789033
0.850909
0.850909
0.850909
0.849303
0.849303
0.849303
0.850948
0.850948
0.850948
0.845713
0.845713
0.845713
0.845706
0.845706
0.845706
0.848446
0.848446
0.848446
0.847557
0.847557
0.847557
0.846651
0.846651
0.846651
0.854649
0.854649
0.854649
0.855332
0.855332
0.855332
0.851735
0.851735
0.851735
0.851727
0.851727
0.851727
0.860983
0.860983
0.860983
0.85534
0.85534
0.85534
0.856001
0.856001
0.856001
0.856009
0.856009
0.856009
0.858425
0.858425
0.858425
0.857856
0.857856
0.857856
0.844542
0.844542
0.844542
0.843599
0.843599
0.843599
0.842595
0.842595
0.842595
0.840508
0.840508
0.840508
0.850024
0.850024
0.850024
0.840455
0.840455
0.840455
0.838331
0.838331
0.838331
0.837193
0.837193
0.837193
0.828424
0.828424
0.828424
0.865753
0.865753
0.865753
0.865873
0.865873
0.865873
0.86599
0.86599
0.86599
0.86601
0.86601
0.86601
0.865889
0.865889
0.865889
0.865448
0.865448
0.865448
0.848228
0.848228
0.848228
0.853042
0.853042
0.853042
0.852366
0.852366
0.852366
0.858325
0.858325
0.858325
0.857151
0.857151
0.857151
0.865932
0.865932
0.865932
0.865979
0.865979
0.865979
0.866284
0.866284
0.866284
0.866141
0.866141
0.866141
0.866061
0.866061
0.866061
0.866069
0.866069
0.866069
0.86572
0.86572
0.86572
0.865544
0.865544
0.865544
0.865713
0.865713
0.865713
0.865697
0.865697
0.865697
0.78916
0.78916
0.78916
0.790502
0.790502
0.790502
0.796631
0.796631
0.796631
0.792454
0.792454
0.792454
0.790613
0.790613
0.790613
0.789256
0.789256
0.789256
0.789274
0.789274
0.789274
0.789378
0.789378
0.789378
0.789323
0.789323
0.789323
0.836387
0.836387
0.836387
0.798682
0.798682
0.798682
0.796638
0.796638
0.796638
0.79464
0.79464
0.79464
0.856671
0.856671
0.856671
0.856679
0.856679
0.856679
0.859523
0.859523
0.859523
0.86003
0.86003
0.86003
0.85898
0.85898
0.85898
0.858988
0.858988
0.858988
0.864696
0.864696
0.864696
0.864942
0.864942
0.864942
0.865177
0.865177
0.865177
0.864675
0.864675
0.864675
0.864682
0.864682
0.864682
0.862697
0.862697
0.862697
0.863073
0.863073
0.863073
0.863421
0.863421
0.863421
0.86534
0.86534
0.86534
0.865742
0.865742
0.865742
0.865567
0.865567
0.865567
0.865735
0.865735
0.865735
0.865552
0.865552
0.865552
0.865757
0.865757
0.865757
0.865574
0.865574
0.865574
0.865764
0.865764
0.865764
0.865588
0.865588
0.865588
0.864126
0.864126
0.864126
0.864417
0.864417
0.864417
0.86441
0.86441
0.86441
0.861895
0.861895
0.861895
0.862317
0.862317
0.862317
0.86231
0.86231
0.86231
0.86105
0.86105
0.86105
0.861058
0.861058
0.861058
0.858401
0.858401
0.858401
0.860477
0.860477
0.860477
0.859484
0.859484
0.859484
0.859999
0.859999
0.859999
0.860485
0.860485
0.860485
0.864022
0.864022
0.864022
0.864038
0.864038
0.864038
0.864305
0.864305
0.864305
0.864014
0.864014
0.864014
0.863688
0.863688
0.863688
0.863696
0.863696
0.863696
0.859531
0.859531
0.859531
0.860045
0.860045
0.860045
0.860053
0.860053
0.860053
0.859546
0.859546
0.859546
0.8595
0.8595
0.8595
0.860007
0.860007
0.860007
0.859508
0.859508
0.859508
0.860022
0.860022
0.860022
0.860501
0.860501
0.860501
0.860509
0.860509
0.860509
0.861872
0.861872
0.861872
0.861887
0.861887
0.861887
0.861849
0.861849
0.861849
0.861864
0.861864
0.861864
0.86143
0.86143
0.86143
0.861422
0.861422
0.861422
0.861716
0.861716
0.861716
0.862144
0.862144
0.862144
0.865143
0.865143
0.865143
0.865135
0.865135
0.865135
0.865379
0.865379
0.865379
0.865375
0.865375
0.865375
0.86513
0.86513
0.86513
0.864871
0.864871
0.864871
0.864866
0.864866
0.864866
0.86512
0.86512
0.86512
0.865361
0.865361
0.865361
0.865366
0.865366
0.865366
0.862139
0.862139
0.862139
0.861706
0.861706
0.861706
0.864612
0.864612
0.864612
0.864603
0.864603
0.864603
0.864881
0.864881
0.864881
0.864885
0.864885
0.864885
0.86399
0.86399
0.86399
0.863654
0.863654
0.863654
0.863649
0.863649
0.863649
0.863979
0.863979
0.863979
0.864296
0.864296
0.864296
0.864301
0.864301
0.864301
0.864005
0.864005
0.864005
0.863995
0.863995
0.863995
0.863664
0.863664
0.863664
0.863669
0.863669
0.863669
0.864316
0.864316
0.864316
0.864311
0.864311
0.864311
0.862941
0.862941
0.862941
0.862547
0.862547
0.862547
0.863305
0.863305
0.863305
0.86331
0.86331
0.86331
0.862077
0.862077
0.862077
0.862071
0.862071
0.862071
0.860716
0.860716
0.860716
0.86119
0.86119
0.86119
0.861631
0.861631
0.861631
0.861637
0.861637
0.861637
0.863289
0.863289
0.863289
0.863974
0.863974
0.863974
0.863638
0.863638
0.863638
0.863633
0.863633
0.863633
0.85407
0.85407
0.85407
0.856757
0.856757
0.856757
0.85545
0.85545
0.85545
0.854775
0.854775
0.854775
0.854781
0.854781
0.854781
0.855464
0.855464
0.855464
0.856111
0.856111
0.856111
0.856118
0.856118
0.856118
0.85961
0.85961
0.85961
0.859076
0.859076
0.859076
0.85913
0.85913
0.85913
0.858555
0.858555
0.858555
0.862914
0.862914
0.862914
0.859795
0.859795
0.859795
0.855631
0.855631
0.855631
0.855636
0.855636
0.855636
0.859261
0.859261
0.859261
0.858712
0.858712
0.858712
0.858137
0.858137
0.858137
0.806336
0.806336
0.806336
0.808115
0.808115
0.808115
0.808104
0.808104
0.808104
0.813258
0.813258
0.813258
0.809861
0.809861
0.809861
0.811575
0.811575
0.811575
0.809833
0.809833
0.809833
0.811571
0.811571
0.811571
0.809847
0.809847
0.809847
0.814909
0.814909
0.814909
0.790302
0.790302
0.790302
0.790312
0.790312
0.790312
0.792274
0.792274
0.792274
0.792283
0.792283
0.792283
0.851704
0.851704
0.851704
0.851711
0.851711
0.851711
0.855429
0.855429
0.855429
0.855443
0.855443
0.855443
0.855422
0.855422
0.855422
0.844743
0.844743
0.844743
0.844735
0.844735
0.844735
0.843747
0.843747
0.843747
0.849296
0.849296
0.849296
0.85013
0.85013
0.85013
0.850924
0.850924
0.850924
0.849281
0.849281
0.849281
0.850932
0.850932
0.850932
0.850122
0.850122
0.850122
0.850098
0.850098
0.850098
0.850106
0.850106
0.850106
0.849273
0.849273
0.849273
0.851687
0.851687
0.851687
0.857783
0.857783
0.857783
0.857792
0.857792
0.857792
0.857211
0.857211
0.857211
0.857203
0.857203
0.857203
0.856601
0.856601
0.856601
0.852491
0.852491
0.852491
0.853952
0.853952
0.853952
0.853225
0.853225
0.853225
0.852484
0.852484
0.852484
0.852507
0.852507
0.852507
0.854665
0.854665
0.854665
0.85396
0.85396
0.85396
0.853241
0.853241
0.853241
0.853248
0.853248
0.853248
0.821429
0.821429
0.821429
0.825826
0.825826
0.825826
0.84255
0.84255
0.84255
0.843564
0.843564
0.843564
0.84152
0.84152
0.84152
0.844639
0.844639
0.844639
0.844648
0.844648
0.844648
0.846462
0.846462
0.846462
0.845533
0.845533
0.845533
0.841556
0.841556
0.841556
0.840499
0.840499
0.840499
0.83602
0.83602
0.83602
0.833597
0.833597
0.833597
0.834827
0.834827
0.834827
0.839425
0.839425
0.839425
0.838323
0.838323
0.838323
0.839433
0.839433
0.839433
0.847487
0.847487
0.847487
0.834873
0.834873
0.834873
0.834881
0.834881
0.834881
0.829771
0.829771
0.829771
0.837201
0.837201
0.837201
0.80241
0.80241
0.80241
0.804305
0.804305
0.804305
0.80241
0.80241
0.80241
0.822733
0.822733
0.822733
0.824198
0.824198
0.824198
0.825638
0.825638
0.825638
0.828377
0.828377
0.828377
0.828342
0.828342
0.828342
0.833658
0.833658
0.833658
0.819779
0.819779
0.819779
0.866109
0.866109
0.866109
0.866064
0.866064
0.866064
0.866038
0.866038
0.866038
0.865624
0.865624
0.865624
0.865783
0.865783
0.865783
0.863484
0.863484
0.863484
0.865271
0.865271
0.865271
0.865069
0.865069
0.865069
0.863838
0.863838
0.863838
0.859292
0.859292
0.859292
0.859311
0.859311
0.859311
0.846434
0.846434
0.846434
0.847348
0.847348
0.847348
0.845505
0.845505
0.845505
0.847357
0.847357
0.847357
0.846453
0.846453
0.846453
0.845514
0.845514
0.845514
0.853779
0.853779
0.853779
0.854465
0.854465
0.854465
0.853769
0.853769
0.853769
0.857048
0.857048
0.857048
0.851603
0.851603
0.851603
0.856496
0.856496
0.856496
0.855856
0.855856
0.855856
0.854493
0.854493
0.854493
0.854484
0.854484
0.854484
0.856468
0.856468
0.856468
0.855185
0.855185
0.855185
0.855828
0.855828
0.855828
0.855176
0.855176
0.855176
0.856477
0.856477
0.856477
0.855847
0.855847
0.855847
0.859407
0.859407
0.859407
0.858881
0.858881
0.858881
0.856532
0.856532
0.856532
0.857186
0.857186
0.857186
0.857757
0.857757
0.857757
0.85716
0.85716
0.85716
0.857766
0.857766
0.857766
0.857177
0.857177
0.857177
0.864788
0.864788
0.864788
0.865424
0.865424
0.865424
0.864829
0.864829
0.864829
0.865063
0.865063
0.865063
0.865599
0.865599
0.865599
0.86559
0.86559
0.86559
0.865768
0.865768
0.865768
0.865904
0.865904
0.865904
0.865751
0.865751
0.865751
0.865896
0.865896
0.865896
0.86636
0.86636
0.86636
0.866296
0.866296
0.866296
0.866202
0.866202
0.866202
0.866338
0.866338
0.866338
0.866289
0.866289
0.866289
0.866188
0.866188
0.866188
0.866316
0.866316
0.866316
0.866252
0.866252
0.866252
0.866293
0.866293
0.866293
0.866244
0.866244
0.866244
0.78918
0.78918
0.78918
0.790508
0.790508
0.790508
0.794627
0.794627
0.794627
0.79462
0.79462
0.79462
0.790488
0.790488
0.790488
0.792447
0.792447
0.792447
0.790481
0.790481
0.790481
0.792433
0.792433
0.792433
0.800636
0.800636
0.800636
0.792574
0.792574
0.792574
0.790618
0.790618
0.790618
0.78929
0.78929
0.78929
0.802693
0.802693
0.802693
0.792565
0.792565
0.792565
0.790714
0.790714
0.790714
0.790671
0.790671
0.790671
0.798898
0.798898
0.798898
0.838735
0.838735
0.838735
0.840938
0.840938
0.840938
0.839847
0.839847
0.839847
0.84299
0.84299
0.84299
0.843007
0.843007
0.843007
0.843001
0.843001
0.843001
0.837566
0.837566
0.837566
0.836393
0.836393
0.836393
0.828797
0.828797
0.828797
0.837589
0.837589
0.837589
0.828743
0.828743
0.828743
0.831421
0.831421
0.831421
0.82596
0.82596
0.82596
0.827364
0.827364
0.827364
0.819979
0.819979
0.819979
0.821518
0.821518
0.821518
0.824518
0.824518
0.824518
0.824512
0.824512
0.824512
0.810066
0.810066
0.810066
0.808278
0.808278
0.808278
0.852022
0.852022
0.852022
0.851228
0.851228
0.851228
0.85496
0.85496
0.85496
0.84402
0.84402
0.84402
0.856872
0.856872
0.856872
0.855579
0.855579
0.855579
0.856233
0.856233
0.856233
0.823019
0.823019
0.823019
0.832703
0.832703
0.832703
0.835186
0.835186
0.835186
0.833962
0.833962
0.833962
0.815059
0.815059
0.815059
0.818316
0.818316
0.818316
0.816708
0.816708
0.816708
0.816702
0.816702
0.816702
0.818303
0.818303
0.818303
0.857282
0.857282
0.857282
0.857274
0.857274
0.857274
0.857864
0.857864
0.857864
0.85844
0.85844
0.85844
0.864396
0.864396
0.864396
0.86517
0.86517
0.86517
0.865377
0.865377
0.865377
0.865384
0.865384
0.865384
0.864928
0.864928
0.864928
0.864744
0.864744
0.864744
0.864738
0.864738
0.864738
0.862667
0.862667
0.862667
0.862651
0.862651
0.862651
0.862271
0.862271
0.862271
0.862264
0.862264
0.862264
0.863391
0.863391
0.863391
0.86372
0.86372
0.86372
0.863712
0.863712
0.863712
0.863375
0.863375
0.863375
0.863027
0.863027
0.863027
0.863034
0.863034
0.863034
0.863399
0.863399
0.863399
0.863414
0.863414
0.863414
0.86269
0.86269
0.86269
0.863058
0.863058
0.863058
0.86305
0.86305
0.86305
0.862674
0.862674
0.862674
0.862287
0.862287
0.862287
0.862294
0.862294
0.862294
0.864046
0.864046
0.864046
0.863735
0.863735
0.863735
0.863743
0.863743
0.863743
0.864061
0.864061
0.864061
0.864344
0.864344
0.864344
0.864352
0.864352
0.864352
0.864593
0.864593
0.864593
0.864321
0.864321
0.864321
0.864329
0.864329
0.864329
0.865362
0.865362
0.865362
0.865355
0.865355
0.865355
0.86196
0.86196
0.86196
0.861072
0.861072
0.861072
0.860118
0.860118
0.860118
0.861497
0.861497
0.861497
0.861932
0.861932
0.861932
0.863102
0.863102
0.863102
0.862734
0.862734
0.862734
0.862339
0.862339
0.862339
0.862332
0.862332
0.862332
0.863458
0.863458
0.863458
0.863787
0.863787
0.863787
0.864112
0.864112
0.864112
0.864105
0.864105
0.864105
0.862374
0.862374
0.862374
0.862762
0.862762
0.862762
0.861468
0.861468
0.861468
0.861014
0.861014
0.861014
0.860547
0.860547
0.860547
0.859069
0.859069
0.859069
0.85793
0.85793
0.85793
0.857944
0.857944
0.857944
0.858506
0.858506
0.858506
0.858513
0.858513
0.858513
0.856736
0.856736
0.856736
0.857347
0.857347
0.857347
0.85734
0.85734
0.85734
0.856722
0.856722
0.856722
0.85609
0.85609
0.85609
0.856097
0.856097
0.856097
0.856715
0.856715
0.856715
0.856076
0.856076
0.856076
0.856069
0.856069
0.856069
0.860576
0.860576
0.860576
0.857833
0.857833
0.857833
0.856633
0.856633
0.856633
0.857251
0.857251
0.857251
0.857841
0.857841
0.857841
0.857227
0.857227
0.857227
0.856609
0.856609
0.856609
0.855977
0.855977
0.855977
0.855985
0.855985
0.855985
0.856625
0.856625
0.856625
0.857235
0.857235
0.857235
0.864297
0.864297
0.864297
0.864569
0.864569
0.864569
0.86456
0.86456
0.86456
0.86428
0.86428
0.86428
0.863998
0.863998
0.863998
0.86399
0.86399
0.86399
0.860991
0.860991
0.860991
0.861006
0.861006
0.861006
0.860524
0.860524
0.860524
0.860532
0.860532
0.860532
0.861453
0.861453
0.861453
0.861445
0.861445
0.861445
0.857879
0.857879
0.857879
0.858448
0.858448
0.858448
0.859003
0.859003
0.859003
0.859011
0.859011
0.859011
0.862525
0.862525
0.862525
0.8617
0.8617
0.8617
0.861247
0.861247
0.861247
0.861242
0.861242
0.861242
0.86169
0.86169
0.86169
0.865271
0.865271
0.865271
0.86071
0.86071
0.86071
0.860697
0.860697
0.860697
0.861177
0.861177
0.861177
0.861171
0.861171
0.861171
0.858631
0.858631
0.858631
0.859708
0.859708
0.859708
0.860216
0.860216
0.860216
0.86021
0.86021
0.86021
0.86354
0.86354
0.86354
0.85911
0.85911
0.85911
0.859116
0.859116
0.859116
0.863963
0.863963
0.863963
0.857382
0.857382
0.857382
0.856764
0.856764
0.856764
0.858527
0.858527
0.858527
0.857951
0.857951
0.857951
0.857361
0.857361
0.857361
0.857368
0.857368
0.857368
0.859617
0.859617
0.859617
0.859136
0.859136
0.859136
0.857985
0.857985
0.857985
0.857389
0.857389
0.857389
0.858574
0.858574
0.858574
0.858568
0.858568
0.858568
0.857992
0.857992
0.857992
0.858005
0.858005
0.858005
0.857408
0.857408
0.857408
0.857402
0.857402
0.857402
0.860281
0.860281
0.860281
0.860769
0.860769
0.860769
0.862908
0.862908
0.862908
0.862897
0.862897
0.862897
0.863277
0.863277
0.863277
0.863272
0.863272
0.863272
0.862089
0.862089
0.862089
0.860796
0.860796
0.860796
0.861264
0.861264
0.861264
0.861258
0.861258
0.861258
0.860303
0.860303
0.860303
0.857546
0.857546
0.857546
0.856296
0.856296
0.856296
0.856929
0.856929
0.856929
0.858115
0.858115
0.858115
0.858132
0.858132
0.858132
0.85812
0.85812
0.85812
0.806308
0.806308
0.806308
0.811552
0.811552
0.811552
0.814898
0.814898
0.814898
0.814902
0.814902
0.814902
0.813247
0.813247
0.813247
0.813253
0.813253
0.813253
0.814908
0.814908
0.814908
0.816527
0.816527
0.816527
0.816528
0.816528
0.816528
0.788944
0.788944
0.788944
0.788959
0.788959
0.788959
0.790337
0.790337
0.790337
0.790329
0.790329
0.790329
0.78901
0.78901
0.78901
0.788986
0.788986
0.788986
0.800466
0.800466
0.800466
0.804308
0.804308
0.804308
0.84569
0.84569
0.84569
0.845683
0.845683
0.845683
0.842726
0.842726
0.842726
0.84374
0.84374
0.84374
0.84472
0.84472
0.84472
0.852514
0.852514
0.852514
0.853264
0.853264
0.853264
0.853271
0.853271
0.853271
0.852529
0.852529
0.852529
0.852559
0.852559
0.852559
0.851
0.851
0.851
0.851794
0.851794
0.851794
0.854049
0.854049
0.854049
0.854063
0.854063
0.854063
0.854761
0.854761
0.854761
0.854754
0.854754
0.854754
0.852573
0.852573
0.852573
0.851802
0.851802
0.851802
0.851014
0.851014
0.851014
0.854739
0.854739
0.854739
0.854042
0.854042
0.854042
0.853308
0.853308
0.853308
0.853315
0.853315
0.853315
0.850189
0.850189
0.850189
0.849348
0.849348
0.849348
0.84849
0.84849
0.84849
0.850196
0.850196
0.850196
0.848497
0.848497
0.848497
0.849362
0.849362
0.849362
0.849369
0.849369
0.849369
0.839567
0.839567
0.839567
0.838448
0.838448
0.838448
0.839575
0.839575
0.839575
0.838463
0.838463
0.838463
0.83959
0.83959
0.83959
0.838471
0.838471
0.838471
0.831206
0.831206
0.831206
0.832488
0.832488
0.832488
0.844758
0.844758
0.844758
0.844766
0.844766
0.844766
0.846659
0.846659
0.846659
0.845728
0.845728
0.845728
0.846673
0.846673
0.846673
0.845736
0.845736
0.845736
0.843763
0.843763
0.843763
0.84377
0.84377
0.84377
0.849257
0.849257
0.849257
0.847503
0.847503
0.847503
0.858351
0.858351
0.858351
0.859425
0.859425
0.859425
0.858343
0.858343
0.858343
0.85889
0.85889
0.85889
0.859949
0.859949
0.859949
0.859434
0.859434
0.859434
0.858907
0.858907
0.858907
0.85246
0.85246
0.85246
0.853217
0.853217
0.853217
0.852468
0.852468
0.852468
0.856584
0.856584
0.856584
0.856576
0.856576
0.856576
0.852418
0.852418
0.852418
0.854672
0.854672
0.854672
0.853975
0.853975
0.853975
0.855355
0.855355
0.855355
0.855363
0.855363
0.855363
0.854688
0.854688
0.854688
0.853983
0.853983
0.853983
0.827167
0.827167
0.827167
0.828546
0.828546
0.828546
0.829888
0.829888
0.829888
0.828503
0.828503
0.828503
0.842742
0.842742
0.842742
0.840652
0.840652
0.840652
0.841717
0.841717
0.841717
0.842749
0.842749
0.842749
0.838441
0.838441
0.838441
0.832414
0.832414
0.832414
0.833666
0.833666
0.833666
0.828488
0.828488
0.828488
0.825791
0.825791
0.825791
0.825784
0.825784
0.825784
0.825763
0.825763
0.825763
0.82577
0.82577
0.82577
0.84478
0.84478
0.84478
0.83379
0.83379
0.83379
0.83253
0.83253
0.83253
0.822896
0.822896
0.822896
0.822882
0.822882
0.822882
0.824363
0.824363
0.824363
0.824356
0.824356
0.824356
0.822902
0.822902
0.822902
0.824377
0.824377
0.824377
0.824384
0.824384
0.824384
0.821402
0.821402
0.821402
0.821423
0.821423
0.821423
0.819876
0.819876
0.819876
0.819883
0.819883
0.819883
0.821409
0.821409
0.821409
0.822923
0.822923
0.822923
0.822916
0.822916
0.822916
0.827229
0.827229
0.827229
0.827202
0.827202
0.827202
0.828574
0.828574
0.828574
0.829923
0.829923
0.829923
0.843591
0.843591
0.843591
0.84457
0.84457
0.84457
0.844561
0.844561
0.844561
0.843573
0.843573
0.843573
0.842604
0.842604
0.842604
0.843617
0.843617
0.843617
0.841573
0.841573
0.841573
0.843626
0.843626
0.843626
0.843668
0.843668
0.843668
0.841631
0.841631
0.841631
0.838347
0.838347
0.838347
0.844596
0.844596
0.844596
0.844587
0.844587
0.844587
0.845541
0.845541
0.845541
0.83359
0.83359
0.83359
0.853142
0.853142
0.853142
0.851638
0.851638
0.851638
0.85241
0.85241
0.85241
0.853151
0.853151
0.853151
0.853125
0.853125
0.853125
0.853116
0.853116
0.853116
0.850834
0.850834
0.850834
0.851629
0.851629
0.851629
0.852393
0.852393
0.852393
0.852384
0.852384
0.852384
0.851612
0.851612
0.851612
0.850825
0.850825
0.850825
0.851679
0.851679
0.851679
0.850884
0.850884
0.850884
0.848376
0.848376
0.848376
0.849233
0.849233
0.849233
0.850074
0.850074
0.850074
0.848384
0.848384
0.848384
0.850082
0.850082
0.850082
0.849249
0.849249
0.849249
0.847478
0.847478
0.847478
0.84561
0.84561
0.84561
0.847462
0.847462
0.847462
0.848351
0.848351
0.848351
0.849225
0.849225
0.849225
0.848359
0.848359
0.848359
0.8492
0.8492
0.8492
0.850033
0.850033
0.850033
0.850851
0.850851
0.850851
0.849208
0.849208
0.849208
0.838418
0.838418
0.838418
0.838426
0.838426
0.838426
0.836059
0.836059
0.836059
0.836067
0.836067
0.836067
0.836083
0.836083
0.836083
0.825644
0.825644
0.825644
0.827053
0.827053
0.827053
0.822756
0.822756
0.822756
0.834858
0.834858
0.834858
0.832347
0.832347
0.832347
0.822705
0.822705
0.822705