<VTKFile type="UnstructuredGrid" version="1.0">
<UnstructuredGrid>
<Piece NumberOfPoints="11046" NumberOfCells="3682">
<Points>
<DataArray type="Float64" NumberOfComponents="3" format="ascii">
0.0582363 3.01 8.45176
0.05 3.01 8.4325
0.0717021 3.01 8.4325
0.95 3.01 8.86121
0.95 3.01 8.9002
0.942301 3.01 8.8807
0.0962623 3.01 9.3325
0.086422 3.01 9.31216
0.107711 3.01 9.31233
0.466226 3.01 9.07611
0.454968 3.01 9.09572
0.443707 3.01 9.07611
0.353567 3.01 8.99781
0.364839 3.01 8.97828
0.376113 3.01 8.99782
0.376113 3.01 8.99782
0.364843 3.01 9.01736
0.353567 3.01 8.99781
0.353567 3.01 8.99781
0.364843 3.01 9.01736
0.342292 3.01 9.01736
0.37611 3.01 8.95875
0.364837 3.01 8.93923
0.387379 3.01 8.93923
0.376113 3.01 8.99782
0.364839 3.01 8.97828
0.387381 3.01 8.97828
0.364839 3.01 8.97828
0.37611 3.01 8.95875
0.387381 3.01 8.97828
0.066417 3.01 9.31452
0.05 3.01 9.3325
0.05 3.01 9.30875
0.0582363 3.01 8.45176
0.0717021 3.01 8.4325
0.0817675 3.01 8.45198
0.0817675 3.01 8.45198
0.0711754 3.01 8.47139
0.0582363 3.01 8.45176
0.11641 3.01 8.4325
0.138968 3.01 8.4325
0.127475 3.01 8.45203
0.127475 3.01 8.45203
0.104722 3.01 8.45203
0.11641 3.01 8.4325
0.0711754 3.01 8.47139
0.0817675 3.01 8.45198
0.0934889 3.01 8.4715
0.0934889 3.01 8.4715
0.0817675 3.01 8.45198
0.104722 3.01 8.45203
0.116091 3.01 8.47153
0.104722 3.01 8.45203
0.127475 3.01 8.45203
0.116091 3.01 8.47153
0.0934889 3.01 8.4715
0.104722 3.01 8.45203
0.116091 3.01 8.47153
0.127244 3.01 8.49101
0.104394 3.01 8.49098
0.104394 3.01 8.49098
0.0934889 3.01 8.4715
0.116091 3.01 8.47153
0.941764 3.01 8.45176
0.928298 3.01 8.4325
0.95 3.01 8.4325
0.387379 3.01 8.93923
0.364837 3.01 8.93923
0.376108 3.01 8.91972
0.161282 3.01 8.86121
0.138583 3.01 8.86121
0.149908 3.01 8.84172
0.0933091 3.01 8.93921
0.0813038 3.01 8.9197
0.104333 3.01 8.9197
0.104333 3.01 8.9197
0.0813038 3.01 8.9197
0.0933065 3.01 8.9002
0.331016 3.01 9.03692
0.319739 3.01 9.05649
0.308447 3.01 9.03691
0.308447 3.01 9.03691
0.319729 3.01 9.01736
0.331016 3.01 9.03692
0.331016 3.01 9.03692
0.319729 3.01 9.01736
0.342292 3.01 9.01736
0.138613 3.01 9.05641
0.12718 3.01 9.03685
0.149933 3.01 9.03686
0.138613 3.01 9.05641
0.149933 3.01 9.03686
0.161316 3.01 9.05642
0.161316 3.01 9.05642
0.149933 3.01 9.03686
0.172648 3.01 9.03686
0.206681 3.01 9.05644
0.195336 3.01 9.03687
0.217999 3.01 9.03688
0.263262 3.01 9.0369
0.285863 3.01 9.03691
0.274572 3.01 9.05647
0.274559 3.01 9.01735
0.285863 3.01 9.03691
0.263262 3.01 9.0369
0.240697 3.01 8.452
0.229409 3.01 8.4325
0.252012 3.01 8.4325
0.138758 3.01 8.47153
0.116091 3.01 8.47153
0.127475 3.01 8.45203
0.127244 3.01 8.49101
0.116091 3.01 8.47153
0.138758 3.01 8.47153
0.229332 3.01 8.51047
0.206685 3.01 8.51048
0.218031 3.01 8.49099
0.184016 3.01 8.51049
0.161325 3.01 8.51049
0.172705 3.01 8.49101
0.184093 3.01 8.47151
0.172705 3.01 8.49101
0.161431 3.01 8.47153
0.218082 3.01 8.452
0.229409 3.01 8.4325
0.240697 3.01 8.452
0.218082 3.01 8.452
0.206798 3.01 8.4325
0.229409 3.01 8.4325
0.138617 3.01 8.51049
0.161325 3.01 8.51049
0.149916 3.01 8.52996
0.376107 3.01 8.84172
0.353559 3.01 8.84172
0.364834 3.01 8.82223
0.942264 3.01 9.07597
0.95 3.01 9.0564
0.95 3.01 9.09556
0.466226 3.01 9.07611
0.443707 3.01 9.07611
0.454966 3.01 9.05651
0.466223 3.01 8.99782
0.477482 3.01 8.97828
0.488741 3.01 8.99782
0.466223 3.01 8.99782
0.454964 3.01 9.01737
0.443703 3.01 8.99782
0.511259 3.01 8.99782
0.522518 3.01 8.97828
0.533777 3.01 8.99782
0.533777 3.01 8.99782
0.522517 3.01 9.01737
0.511259 3.01 8.99782
0.488741 3.01 8.99782
0.477482 3.01 8.97828
0.5 3.01 8.97828
0.511259 3.01 8.99782
0.488741 3.01 8.99782
0.5 3.01 8.97828
0.5 3.01 8.97828
0.522518 3.01 8.97828
0.511259 3.01 8.99782
0.387388 3.01 9.05651
0.398653 3.01 9.03693
0.40992 3.01 9.05651
0.376117 3.01 9.03693
0.398653 3.01 9.03693
0.387388 3.01 9.05651
0.443703 3.01 8.99782
0.454964 3.01 9.01737
0.432443 3.01 9.01737
0.432443 3.01 9.01737
0.454964 3.01 9.01737
0.443705 3.01 9.03693
0.274559 3.01 9.01735
0.26325 3.01 8.9978
0.285853 3.01 8.9978
0.387384 3.01 9.01737
0.398653 3.01 9.03693
0.376117 3.01 9.03693
0.376117 3.01 9.03693
0.364843 3.01 9.01736
0.387384 3.01 9.01737
0.387384 3.01 9.01737
0.364843 3.01 9.01736
0.376113 3.01 8.99782
0.342292 3.01 9.01736
0.319729 3.01 9.01736
0.331009 3.01 8.99781
0.331009 3.01 8.99781
0.353567 3.01 8.99781
0.342292 3.01 9.01736
0.545011 3.01 9.3325
0.522505 3.01 9.3325
0.533759 3.01 9.3127
0.533762 3.01 9.27311
0.545018 3.01 9.25333
0.55627 3.01 9.27311
0.55627 3.01 9.27311
0.545018 3.01 9.25333
0.567528 3.01 9.25332
0.567528 3.01 9.25332
0.578788 3.01 9.23356
0.59004 3.01 9.25332
0.466232 3.01 9.19408
0.454974 3.01 9.17437
0.477488 3.01 9.17437
0.567516 3.01 9.3325
0.578772 3.01 9.3127
0.590022 3.01 9.3325
0.601316 3.01 9.19407
0.61257 3.01 9.2138
0.590051 3.01 9.2138
0.62384 3.01 9.19406
0.61257 3.01 9.2138
0.601316 3.01 9.19407
0.680198 3.01 9.17431
0.691494 3.01 9.15462
0.702757 3.01 9.17429
0.086422 3.01 9.31216
0.0962623 3.01 9.3325
0.073896 3.01 9.3325
0.073896 3.01 9.3325
0.066417 3.01 9.31452
0.086422 3.01 9.31216
0.05 3.01 9.3325
0.066417 3.01 9.31452
0.073896 3.01 9.3325
0.0721919 3.01 9.29289
0.066417 3.01 9.31452
0.05 3.01 9.30875
0.086422 3.01 9.31216
0.066417 3.01 9.31452
0.0721919 3.01 9.29289
0.118481 3.01 9.3325
0.0962623 3.01 9.3325
0.107711 3.01 9.31233
0.5 3.01 9.3325
0.477495 3.01 9.3325
0.488747 3.01 9.3127
0.432484 3.01 9.3325
0.409978 3.01 9.3325
0.421228 3.01 9.3127
0.443725 3.01 9.23356
0.421212 3.01 9.23356
0.432465 3.01 9.21381
0.319802 3.01 9.17431
0.331063 3.01 9.15463
0.342348 3.01 9.17433
0.353629 3.01 9.19405
0.342348 3.01 9.17433
0.364886 3.01 9.17434
0.10433 3.01 8.8807
0.0933065 3.01 8.9002
0.0813011 3.01 8.8807
0.0939466 3.01 8.4325
0.11641 3.01 8.4325
0.104722 3.01 8.45203
0.0939466 3.01 8.4325
0.0817675 3.01 8.45198
0.0717021 3.01 8.4325
0.104722 3.01 8.45203
0.0817675 3.01 8.45198
0.0939466 3.01 8.4325
0.0933065 3.01 8.9002
0.0813038 3.01 8.9197
0.0710513 3.01 8.9002
0.0710513 3.01 8.9002
0.0813011 3.01 8.8807
0.0933065 3.01 8.9002
0.115908 3.01 8.97824
0.0933131 3.01 8.97824
0.104337 3.01 8.95872
0.104337 3.01 8.95872
0.127165 3.01 8.95872
0.115908 3.01 8.97824
0.104343 3.01 8.99776
0.0933131 3.01 8.97824
0.115908 3.01 8.97824
0.104343 3.01 8.99776
0.115915 3.01 9.0173
0.0933188 3.01 9.0173
0.942303 3.01 8.84171
0.95 3.01 8.82222
0.95 3.01 8.86121
0.92895 3.01 8.82222
0.95 3.01 8.82222
0.942303 3.01 8.84171
0.9187 3.01 8.84171
0.906695 3.01 8.86121
0.895671 3.01 8.84171
0.92895 3.01 8.82222
0.942303 3.01 8.84171
0.9187 3.01 8.84171
0.942316 3.01 8.60785
0.928965 3.01 8.58835
0.95 3.01 8.58836
0.95 3.01 8.66632
0.942309 3.01 8.64683
0.95 3.01 8.62734
0.942316 3.01 8.60785
0.95 3.01 8.58836
0.95 3.01 8.62734
0.95 3.01 8.47105
0.941764 3.01 8.45176
0.95 3.01 8.4325
0.95 3.01 8.47105
0.95 3.01 8.51025
0.942358 3.01 8.49071
0.612617 3.01 8.51045
0.635157 3.01 8.51045
0.623887 3.01 8.52993
0.895671 3.01 8.84171
0.884102 3.01 8.82222
0.906696 3.01 8.82222
0.906696 3.01 8.82222
0.9187 3.01 8.84171
0.895671 3.01 8.84171
0.92895 3.01 8.82222
0.9187 3.01 8.84171
0.906696 3.01 8.82222
0.353563 3.01 8.95875
0.37611 3.01 8.95875
0.364839 3.01 8.97828
0.364837 3.01 8.93923
0.37611 3.01 8.95875
0.353563 3.01 8.95875
0.297145 3.01 8.97827
0.319723 3.01 8.97827
0.308439 3.01 8.99781
0.308439 3.01 8.99781
0.285853 3.01 8.9978
0.297145 3.01 8.97827
0.308439 3.01 8.99781
0.331009 3.01 8.99781
0.319729 3.01 9.01736
0.319723 3.01 8.97827
0.331009 3.01 8.99781
0.308439 3.01 8.99781
0.17262 3.01 8.84172
0.161282 3.01 8.86121
0.149908 3.01 8.84172
0.138583 3.01 8.86121
0.161282 3.01 8.86121
0.149909 3.01 8.8807
0.149909 3.01 8.8807
0.127158 3.01 8.8807
0.138583 3.01 8.86121
0.149909 3.01 8.8807
0.172622 3.01 8.88071
0.161284 3.01 8.9002
0.161282 3.01 8.86121
0.172622 3.01 8.88071
0.149909 3.01 8.8807
0.240621 3.01 8.95874
0.217979 3.01 8.95873
0.229301 3.01 8.93922
0.229301 3.01 8.93922
0.217979 3.01 8.95873
0.206649 3.01 8.93922
0.195316 3.01 8.95873
0.206649 3.01 8.93922
0.217979 3.01 8.95873
0.115908 3.01 8.97824
0.127165 3.01 8.95872
0.138594 3.01 8.97824
0.0933091 3.01 8.93921
0.104333 3.01 8.9197
0.115904 3.01 8.93921
0.115904 3.01 8.93921
0.104333 3.01 8.9197
0.127161 3.01 8.9197
0.115904 3.01 8.93921
0.104337 3.01 8.95872
0.0933091 3.01 8.93921
0.127165 3.01 8.95872
0.104337 3.01 8.95872
0.115904 3.01 8.93921
0.115901 3.01 8.9002
0.104333 3.01 8.9197
0.0933065 3.01 8.9002
0.127161 3.01 8.9197
0.104333 3.01 8.9197
0.115901 3.01 8.9002
0.115901 3.01 8.9002
0.0933065 3.01 8.9002
0.10433 3.01 8.8807
0.10433 3.01 8.8807
0.127158 3.01 8.8807
0.115901 3.01 8.9002
0.183972 3.01 8.86121
0.17262 3.01 8.84172
0.195307 3.01 8.84172
0.161282 3.01 8.86121
0.17262 3.01 8.84172
0.183972 3.01 8.86121
0.183972 3.01 8.86121
0.172622 3.01 8.88071
0.161282 3.01 8.86121
0.263244 3.01 8.95874
0.240621 3.01 8.95874
0.251933 3.01 8.93922
0.229301 3.01 8.93922
0.240617 3.01 8.91971
0.251933 3.01 8.93922
0.251933 3.01 8.93922
0.240621 3.01 8.95874
0.229301 3.01 8.93922
0.274543 3.01 8.90021
0.263237 3.01 8.88071
0.285842 3.01 8.88071
0.285842 3.01 8.88071
0.263237 3.01 8.88071
0.274541 3.01 8.86121
0.319739 3.01 9.05649
0.331016 3.01 9.03692
0.3423 3.01 9.0565
0.297163 3.01 9.05648
0.285878 3.01 9.07607
0.274572 3.01 9.05647
0.308447 3.01 9.03691
0.319739 3.01 9.05649
0.297163 3.01 9.05648
0.297163 3.01 9.05648
0.285863 3.01 9.03691
0.308447 3.01 9.03691
0.274572 3.01 9.05647
0.285863 3.01 9.03691
0.297163 3.01 9.05648
0.183992 3.01 9.01732
0.195336 3.01 9.03687
0.172648 3.01 9.03686
0.183992 3.01 9.01732
0.172636 3.01 8.99778
0.195323 3.01 8.99778
0.184008 3.01 9.05643
0.161316 3.01 9.05642
0.172648 3.01 9.03686
0.172648 3.01 9.03686
0.195336 3.01 9.03687
0.184008 3.01 9.05643
0.184008 3.01 9.05643
0.206681 3.01 9.05644
0.195356 3.01 9.07601
0.195336 3.01 9.03687
0.206681 3.01 9.05644
0.184008 3.01 9.05643
0.308434 3.01 8.95875
0.319723 3.01 8.97827
0.297145 3.01 8.97827
0.297145 3.01 8.97827
0.285847 3.01 8.95874
0.308434 3.01 8.95875
0.308434 3.01 8.95875
[...]
<PointData Scalars="View Factor" >
<DataArray type="Float64" Name="View Factor" NumberOfComponents="1" format="ascii">
0.856761
0.856761
0.856761
0.789232
0.789232
0.789232
0.856238
0.856238
0.856238
0.842929
0.842929
0.842929
0.848041
0.848041
0.848041
0.848039
0.848039
0.848039
0.848589
0.848589
0.848589
0.847479
0.847479
0.847479
0.847472
0.847472
0.847472
0.847475
0.847475
0.847475
0.856649
0.856649
0.856649
0.85667
0.85667
0.85667
0.85667
0.85667
0.85667
0.855932
0.855932
0.855932
0.856113
0.856113
0.856113
0.856552
0.856552
0.856552
0.856425
0.856425
0.856425
0.856113
0.856113
0.856113
0.856276
0.856276
0.856276
0.856112
0.856112
0.856112
0.856275
0.856275
0.856275
0.790496
0.790496
0.790496
0.847481
0.847481
0.847481
0.855463
0.855463
0.855463
0.856357
0.856357
0.856357
0.856359
0.856359
0.856359
0.850125
0.850125
0.850125
0.850127
0.850127
0.850127
0.849633
0.849633
0.849633
0.855646
0.855646
0.855646
0.855429
0.855429
0.855429
0.855198
0.855198
0.855198
0.854098
0.854098
0.854098
0.851927
0.851927
0.851927
0.851929
0.851929
0.851929
0.853184
0.853184
0.853184
0.855931
0.855931
0.855931
0.85593
0.85593
0.85593
0.853865
0.853865
0.853865
0.855034
0.855034
0.855034
0.855036
0.855036
0.855036
0.853536
0.853536
0.853536
0.853872
0.853872
0.853872
0.855514
0.855514
0.855514
0.848067
0.848067
0.848067
0.789201
0.789201
0.789201
0.842932
0.842932
0.842932
0.841475
0.841475
0.841475
0.842943
0.842943
0.842943
0.838286
0.838286
0.838286
0.838283
0.838283
0.838283
0.84071
0.84071
0.84071
0.839922
0.839922
0.839922
0.839115
0.839115
0.839115
0.846264
0.846264
0.846264
0.846873
0.846873
0.846873
0.843647
0.843647
0.843647
0.843645
0.843645
0.843645
0.851934
0.851934
0.851934
0.846876
0.846876
0.846876
0.847465
0.847465
0.847465
0.847468
0.847468
0.847468
0.849635
0.849635
0.849635
0.849122
0.849122
0.849122
0.837375
0.837375
0.837375
0.836516
0.836516
0.836516
0.835624
0.835624
0.835624
0.833775
0.833775
0.833775
0.842186
0.842186
0.842186
0.833761
0.833761
0.833761
0.83184
0.83184
0.83184
0.830836
0.830836
0.830836
0.823137
0.823137
0.823137
0.856371
0.856371
0.856371
0.856477
0.856477
0.856477
0.856585
0.856585
0.856585
0.856594
0.856594
0.856594
0.856485
0.856485
0.856485
0.856094
0.856094
0.856094
0.840646
0.840646
0.840646
0.844937
0.844937
0.844937
0.844292
0.844292
0.844292
0.849604
0.849604
0.849604
0.848555
0.848555
0.848555
0.856363
0.856363
0.856363
0.856276
0.856276
0.856276
0.856552
0.856552
0.856552
0.856425
0.856425
0.856425
0.856487
0.856487
0.856487
0.856489
0.856489
0.856489
0.8562
0.8562
0.8562
0.856039
0.856039
0.856039
0.856198
0.856198
0.856198
0.856193
0.856193
0.856193
0.789238
0.789238
0.789238
0.790375
0.790375
0.790375
0.795602
0.795602
0.795602
0.792037
0.792037
0.792037
0.790409
0.790409
0.790409
0.789268
0.789268
0.789268
0.789274
0.789274
0.789274
0.789326
0.789326
0.789326
0.789288
0.789288
0.789288
0.829915
0.829915
0.829915
0.797347
0.797347
0.797347
0.795604
0.795604
0.795604
0.793898
0.793898
0.793898
0.848046
0.848046
0.848046
0.848048
0.848048
0.848048
0.850613
0.850613
0.850613
0.851071
0.851071
0.851071
0.850132
0.850132
0.850132
0.850134
0.850134
0.850134
0.855232
0.855232
0.855232
0.855461
0.855461
0.855461
0.855675
0.855675
0.855675
0.855226
0.855226
0.855226
0.855228
0.855228
0.855228
0.853461
0.853461
0.853461
0.853797
0.853797
0.853797
0.854114
0.854114
0.854114
0.855856
0.855856
0.855856
0.856207
0.856207
0.856207
0.856045
0.856045
0.856045
0.856205
0.856205
0.856205
0.856041
0.856041
0.856041
0.856211
0.856211
0.856211
0.856048
0.856048
0.856048
0.856213
0.856213
0.856213
0.856052
0.856052
0.856052
0.854716
0.854716
0.854716
0.854982
0.854982
0.854982
0.85498
0.85498
0.85498
0.852737
0.852737
0.852737
0.853111
0.853111
0.853111
0.853109
0.853109
0.853109
0.851954
0.851954
0.851954
0.851956
0.851956
0.851956
0.849628
0.849628
0.849628
0.851499
0.851499
0.851499
0.850601
0.850601
0.850601
0.851062
0.851062
0.851062
0.851502
0.851502
0.851502
0.854685
0.854685
0.854685
0.85469
0.85469
0.85469
0.854948
0.854948
0.854948
0.854683
0.854683
0.854683
0.854395
0.854395
0.854395
0.854398
0.854398
0.854398
0.850615
0.850615
0.850615
0.851076
0.851076
0.851076
0.851078
0.851078
0.851078
0.85062
0.85062
0.85062
0.850606
0.850606
0.850606
0.851064
0.851064
0.851064
0.850608
0.850608
0.850608
0.851069
0.851069
0.851069
0.851507
0.851507
0.851507
0.851509
0.851509
0.851509
0.85273
0.85273
0.85273
0.852735
0.852735
0.852735
0.852723
0.852723
0.852723
0.852728
0.852728
0.852728
0.852339
0.852339
0.852339
0.852336
0.852336
0.852336
0.852426
0.852426
0.852426
0.852813
0.852813
0.852813
0.85552
0.85552
0.85552
0.855518
0.855518
0.855518
0.855734
0.855734
0.855734
0.855734
0.855734
0.855734
0.855517
0.855517
0.855517
0.855285
0.855285
0.855285
0.855284
0.855284
0.855284
0.855515
0.855515
0.855515
0.855731
0.855731
0.855731
0.855732
0.855732
0.855732
0.852811
0.852811
0.852811
0.852423
0.852423
0.852423
0.855039
0.855039
0.855039
0.855037
0.855037
0.855037
0.855287
0.855287
0.855287
0.855288
0.855288
0.855288
0.854487
0.854487
0.854487
0.854185
0.854185
0.854185
0.854184
0.854184
0.854184
0.854484
0.854484
0.854484
0.854768
0.854768
0.854768
0.854769
0.854769
0.854769
0.85449
0.85449
0.85449
0.854488
0.854488
0.854488
0.854188
0.854188
0.854188
0.854189
0.854189
0.854189
0.854773
0.854773
0.854773
0.854772
0.854772
0.854772
0.853534
0.853534
0.853534
0.853181
0.853181
0.853181
0.853868
0.853868
0.853868
0.853869
0.853869
0.853869
0.852793
0.852793
0.852793
0.852791
0.852791
0.852791
0.851573
0.851573
0.851573
0.851997
0.851997
0.851997
0.8524
0.8524
0.8524
0.852402
0.852402
0.852402
0.853863
0.853863
0.853863
0.854483
0.854483
0.854483
0.854181
0.854181
0.854181
0.854179
0.854179
0.854179
0.845674
0.845674
0.845674
0.848072
0.848072
0.848072
0.846909
0.846909
0.846909
0.846302
0.846302
0.846302
0.846304
0.846304
0.846304
0.846913
0.846913
0.846913
0.847499
0.847499
0.847499
0.847501
0.847501
0.847501
0.850639
0.850639
0.850639
0.850161
0.850161
0.850161
0.850177
0.850177
0.850177
0.849675
0.849675
0.849675
0.853527
0.853527
0.853527
0.850696
0.850696
0.850696
0.846965
0.846965
0.846965
0.846967
0.846967
0.846967
0.850218
0.850218
0.850218
0.849723
0.849723
0.849723
0.849209
0.849209
0.849209
0.804072
0.804072
0.804072
0.805598
0.805598
0.805598
0.805584
0.805584
0.805584
0.810032
0.810032
0.810032
0.807104
0.807104
0.807104
0.808579
0.808579
0.808579
0.807065
0.807065
0.807065
0.80857
0.80857
0.80857
0.807081
0.807081
0.807081
0.811456
0.811456
0.811456
0.790315
0.790315
0.790315
0.79032
0.79032
0.79032
0.791987
0.791987
0.791987
0.79199
0.79199
0.79199
0.843638
0.843638
0.843638
0.84364
0.84364
0.84364
0.846903
0.846903
0.846903
0.846907
0.846907
0.846907
0.8469
0.8469
0.8469
0.837432
0.837432
0.837432
0.83743
0.83743
0.83743
0.836558
0.836558
0.836558
0.841472
0.841472
0.841472
0.842217
0.842217
0.842217
0.842936
0.842936
0.842936
0.841468
0.841468
0.841468
0.842939
0.842939
0.842939
0.842214
0.842214
0.842214
0.842207
0.842207
0.842207
0.84221
0.84221
0.84221
0.841465
0.841465
0.841465
0.843633
0.843633
0.843633
0.8491
0.8491
0.8491
0.849103
0.849103
0.849103
0.848574
0.848574
0.848574
0.848571
0.848571
0.848571
0.848024
0.848024
0.848024
0.844329
0.844329
0.844329
0.845639
0.845639
0.845639
0.844991
0.844991
0.844991
0.844327
0.844327
0.844327
0.844334
0.844334
0.844334
0.846269
0.846269
0.846269
0.845641
0.845641
0.845641
0.844996
0.844996
0.844996
0.844998
0.844998
0.844998
0.816926
0.816926
0.816926
0.820759
0.820759
0.820759
0.835612
0.835612
0.835612
0.836506
0.836506
0.836506
0.834699
0.834699
0.834699
0.837402
0.837402
0.837402
0.837405
0.837405
0.837405
0.839061
0.839061
0.839061
0.838234
0.838234
0.838234
0.834709
0.834709
0.834709
0.833773
0.833773
0.833773
0.829807
0.829807
0.829807
0.82768
0.82768
0.82768
0.828756
0.828756
0.828756
0.832817
0.832817
0.832817
0.831838
0.831838
0.831838
0.832819
0.832819
0.832819
0.839901
0.839901
0.839901
0.828768
0.828768
0.828768
0.828769
0.828769
0.828769
0.824312
0.824312
0.824312
0.830838
0.830838
0.830838
0.80065
0.80065
0.80065
0.802267
0.802267
0.802267
0.800645
0.800645
0.800645
0.818184
0.818184
0.818184
0.819461
0.819461
0.819461
0.820712
0.820712
0.820712
0.823132
0.823132
0.823132
0.823127
0.823127
0.823127
0.827694
0.827694
0.827694
0.815559
0.815559
0.815559
0.856669
0.856669
0.856669
0.856639
0.856639
0.856639
0.856611
0.856611
0.856611
0.856245
0.856245
0.856245
0.856386
0.856386
0.856386
0.854318
0.854318
0.854318
0.855931
0.855931
0.855931
0.855751
0.855751
0.855751
0.854617
0.854617
0.854617
0.850539
0.850539
0.850539
0.850545
0.850545
0.850545
0.839053
0.839053
0.839053
0.839861
0.839861
0.839861
0.838226
0.838226
0.838226
0.839864
0.839864
0.839864
0.839058
0.839058
0.839058
0.838229
0.838229
0.838229
0.845587
0.845587
0.845587
0.846209
0.846209
0.846209
0.845584
0.845584
0.845584
0.848523
0.848523
0.848523
0.843608
0.843608
0.843608
0.847992
0.847992
0.847992
0.847421
0.847421
0.847421
0.846217
0.846217
0.846217
0.846215
0.846215
0.846215
0.847983
0.847983
0.847983
0.846829
0.846829
0.846829
0.847412
0.847412
0.847412
0.846826
0.846826
0.846826
0.847986
0.847986
0.847986
0.847418
0.847418
0.847418
0.850577
0.850577
0.850577
0.850101
0.850101
0.850101
0.848003
0.848003
0.848003
0.848566
0.848566
0.848566
0.849092
0.849092
0.849092
0.848558
0.848558
0.848558
0.849095
0.849095
0.849095
0.848564
0.848564
0.848564
0.855414
0.855414
0.855414
0.856002
0.856002
0.856002
0.855427
0.855427
0.855427
0.855641
0.855641
0.855641
0.856164
0.856164
0.856164
0.856161
0.856161
0.856161
0.856315
0.856315
0.856315
0.856441
0.856441
0.856441
0.856309
0.856309
0.856309
0.856438
0.856438
0.856438
0.856748
0.856748
0.856748
0.856695
0.856695
0.856695
0.856608
0.856608
0.856608
0.856742
0.856742
0.856742
0.856693
0.856693
0.856693
0.856603
0.856603
0.856603
0.856735
0.856735
0.856735
0.856682
0.856682
0.856682
0.856729
0.856729
0.856729
0.856679
0.856679
0.856679
0.789245
0.789245
0.789245
0.790377
0.790377
0.790377
0.793894
0.793894
0.793894
0.793892
0.793892
0.793892
0.790371
0.790371
0.790371
0.792035
0.792035
0.792035
0.790369
0.790369
0.790369
0.792031
0.792031
0.792031
0.79902
0.79902
0.79902
0.792073
0.792073
0.792073
0.79041
0.79041
0.79041
0.789278
0.789278
0.789278
0.800717
0.800717
0.800717
0.792071
0.792071
0.792071
0.790464
0.790464
0.790464
0.790431
0.790431
0.790431
0.79744
0.79744
0.79744
0.831961
0.831961
0.831961
0.833904
0.833904
0.833904
0.832943
0.832943
0.832943
0.835742
0.835742
0.835742
0.835747
0.835747
0.835747
0.835745
0.835745
0.835745
0.830947
0.830947
0.830947
0.829917
0.829917
0.829917
0.823248
0.823248
0.823248
0.830955
0.830955
0.830955
0.823228
0.823228
0.823228
0.82556
0.82556
0.82556
0.820801
0.820801
0.820801
0.822027
0.822027
0.822027
0.815619
0.815619
0.815619
0.816954
0.816954
0.816954
0.819547
0.819547
0.819547
0.819545
0.819545
0.819545
0.807039
0.807039
0.807039
0.805503
0.805503
0.805503
0.843736
0.843736
0.843736
0.84303
0.84303
0.84303
0.84636
0.84636
0.84636
0.836641
0.836641
0.836641
0.848107
0.848107
0.848107
0.846949
0.846949
0.846949
0.847537
0.847537
0.847537
0.818259
0.818259
0.818259
0.826684
0.826684
0.826684
0.828862
0.828862
0.828862
0.827786
0.827786
0.827786
0.81142
0.81142
0.81142
0.81423
0.81423
0.81423
0.81284
0.81284
0.81284
0.812838
0.812838
0.812838
0.814226
0.814226
0.814226
0.848596
0.848596
0.848596
0.848593
0.848593
0.848593
0.849125
0.849125
0.849125
0.84964
0.84964
0.84964
0.854975
0.854975
0.854975
0.855673
0.855673
0.855673
0.855867
0.855867
0.855867
0.855869
0.855869
0.855869
0.855456
0.855456
0.855456
0.855247
0.855247
0.855247
0.855245
0.855245
0.855245
0.853451
0.853451
0.853451
0.853447
0.853447
0.853447
0.853097
0.853097
0.853097
0.853095
0.853095
0.853095
0.854105
0.854105
0.854105
0.854405
0.854405
0.854405
0.854403
0.854403
0.854403
0.8541
0.8541
0.8541
0.853783
0.853783
0.853783
0.853786
0.853786
0.853786
0.854108
0.854108
0.854108
0.854112
0.854112
0.854112
0.853458
0.853458
0.853458
0.853793
0.853793
0.853793
0.853791
0.853791
0.853791
0.853454
0.853454
0.853454
0.853102
0.853102
0.853102
0.853104
0.853104
0.853104
0.854692
0.854692
0.854692
0.85441
0.85441
0.85441
0.854412
0.854412
0.854412
0.854697
0.854697
0.854697
0.85496
0.85496
0.85496
0.854962
0.854962
0.854962
0.855201
0.855201
0.855201
0.854953
0.854953
0.854953
0.854955
0.854955
0.854955
0.855863
0.855863
0.855863
0.85586
0.85586
0.85586
0.852757
0.852757
0.852757
0.851961
0.851961
0.851961
0.851098
0.851098
0.851098
0.852359
0.852359
0.852359
0.852748
0.852748
0.852748
0.853806
0.853806
0.853806
0.853472
0.853472
0.853472
0.853118
0.853118
0.853118
0.853115
0.853115
0.853115
0.854126
0.854126
0.854126
0.854425
0.854425
0.854425
0.854712
0.854712
0.854712
0.85471
0.85471
0.85471
0.853128
0.853128
0.853128
0.85348
0.85348
0.85348
0.85235
0.85235
0.85235
0.851943
0.851943
0.851943
0.851521
0.851521
0.851521
0.850159
0.850159
0.850159
0.849145
0.849145
0.849145
0.849149
0.849149
0.849149
0.84966
0.84966
0.84966
0.849662
0.849662
0.849662
0.848065
0.848065
0.848065
0.848615
0.848615
0.848615
0.848613
0.848613
0.848613
0.848061
0.848061
0.848061
0.847492
0.847492
0.847492
0.847494
0.847494
0.847494
0.848059
0.848059
0.848059
0.847488
0.847488
0.847488
0.847486
0.847486
0.847486
0.85153
0.85153
0.85153
0.849115
0.849115
0.849115
0.848034
0.848034
0.848034
0.848586
0.848586
0.848586
0.849118
0.849118
0.849118
0.848579
0.848579
0.848579
0.848027
0.848027
0.848027
0.847458
0.847458
0.847458
0.847461
0.847461
0.847461
0.848032
0.848032
0.848032
0.848581
0.848581
0.848581
0.854945
0.854945
0.854945
0.855193
0.855193
0.855193
0.855191
0.855191
0.855191
0.85494
0.85494
0.85494
0.854678
0.854678
0.854678
0.854675
0.854675
0.854675
0.851936
0.851936
0.851936
0.851941
0.851941
0.851941
0.851514
0.851514
0.851514
0.851516
0.851516
0.851516
0.852346
0.852346
0.852346
0.852343
0.852343
0.852343
0.849129
0.849129
0.849129
0.849642
0.849642
0.849642
0.850139
0.850139
0.850139
0.850141
0.850141
0.850141
0.853175
0.853175
0.853175
0.852421
0.852421
0.852421
0.852015
0.852015
0.852015
0.852013
0.852013
0.852013
0.852418
0.852418
0.852418
0.855704
0.855704
0.855704
0.851571
0.851571
0.851571
0.851567
0.851567
0.851567
0.851993
0.851993
0.851993
0.851991
0.851991
0.851991
0.849698
0.849698
0.849698
0.85067
0.85067
0.85067
0.851128
0.851128
0.851128
0.851126
0.851126
0.851126
0.854151
0.854151
0.854151
0.850171
0.850171
0.850171
0.850173
0.850173
0.850173
0.854479
0.854479
0.854479
0.848626
0.848626
0.848626
0.848074
0.848074
0.848074
0.849666
0.849666
0.849666
0.849151
0.849151
0.849151
0.84862
0.84862
0.84862
0.848622
0.848622
0.848622
0.850642
0.850642
0.850642
0.850179
0.850179
0.850179
0.849161
0.849161
0.849161
0.848628
0.848628
0.848628
0.849681
0.849681
0.849681
0.849679
0.849679
0.849679
0.849164
0.849164
0.849164
0.849168
0.849168
0.849168
0.848634
0.848634
0.848634
0.848632
0.848632
0.848632
0.851148
0.851148
0.851148
0.851589
0.851589
0.851589
0.853526
0.853526
0.853526
0.853522
0.853522
0.853522
0.85386
0.85386
0.85386
0.853859
0.853859
0.853859
0.852797
0.852797
0.852797
0.851597
0.851597
0.851597
0.852019
0.852019
0.852019
0.852018
0.852018
0.852018
0.851155
0.851155
0.851155
0.848677
0.848677
0.848677
0.847556
0.847556
0.847556
0.848125
0.848125
0.848125
0.849202
0.849202
0.849202
0.849207
0.849207
0.849207
0.849203
0.849203
0.849203
0.804038
0.804038
0.804038
0.808543
0.808543
0.808543
0.811426
0.811426
0.811426
0.811434
0.811434
0.811434
0.810008
0.810008
0.810008
0.810018
0.810018
0.810018
0.81145
0.81145
0.81145
0.812842
0.812842
0.812842
0.812848
0.812848
0.812848
0.78918
0.78918
0.78918
0.789179
0.789179
0.789179
0.790328
0.790328
0.790328
0.790325
0.790325
0.790325
0.789195
0.789195
0.789195
0.789188
0.789188
0.789188
0.798978
0.798978
0.798978
0.802265
0.802265
0.802265
0.838279
0.838279
0.838279
0.838277
0.838277
0.838277
0.835661
0.835661
0.835661
0.836555
0.836555
0.836555
0.837426
0.837426
0.837426
0.844336
0.844336
0.844336
0.845003
0.845003
0.845003
0.845005
0.845005
0.845005
0.844341
0.844341
0.844341
0.844349
0.844349
0.844349
0.842959
0.842959
0.842959
0.843665
0.843665
0.843665
0.845668
0.845668
0.845668
0.845672
0.845672
0.845672
0.846298
0.846298
0.846298
0.846296
0.846296
0.846296
0.844354
0.844354
0.844354
0.843667
0.843667
0.843667
0.842963
0.842963
0.842963
0.846292
0.846292
0.846292
0.845666
0.845666
0.845666
0.845016
0.845016
0.845016
0.845019
0.845019
0.845019
0.842234
0.842234
0.842234
0.841488
0.841488
0.841488
0.840723
0.840723
0.840723
0.842237
0.842237
0.842237
0.840725
0.840725
0.840725
0.841492
0.841492
0.841492
0.841494
0.841494
0.841494
0.832856
0.832856
0.832856
0.831872
0.831872
0.831872
0.832858
0.832858
0.832858
0.831877
0.831877
0.831877
0.832863
0.832863
0.832863
0.831879
0.831879
0.831879
0.825493
0.825493
0.825493
0.826617
0.826617
0.826617
0.837437
0.837437
0.837437
0.837439
0.837439
0.837439
0.839118
0.839118
0.839118
0.83829
0.83829
0.83829
0.839122
0.839122
0.839122
0.838292
0.838292
0.838292
0.836562
0.836562
0.836562
0.836564
0.836564
0.836564
0.841461
0.841461
0.841461
0.839906
0.839906
0.839906
0.849612
0.849612
0.849612
0.850583
0.850583
0.850583
0.84961
0.84961
0.84961
0.850104
0.850104
0.850104
0.851046
0.851046
0.851046
0.850585
0.850585
0.850585
0.850109
0.850109
0.850109
0.84432
0.84432
0.84432
0.844989
0.844989
0.844989
0.844322
0.844322
0.844322
0.848019
0.848019
0.848019
0.848017
0.848017
0.848017
0.844307
0.844307
0.844307
0.846271
0.846271
0.846271
0.845646
0.845646
0.845646
0.84688
0.84688
0.84688
0.846883
0.846883
0.846883
0.846276
0.846276
0.846276
0.845648
0.845648
0.845648
0.821966
0.821966
0.821966
0.823167
0.823167
0.823167
0.824342
0.824342
0.824342
0.823155
0.823155
0.823155
0.835666
0.835666
0.835666
0.833815
0.833815
0.833815
0.834754
0.834754
0.834754
0.835668
0.835668
0.835668
0.83187
0.83187
0.83187
0.826597
0.826597
0.826597
0.827696
0.827696
0.827696
0.823151
0.823151
0.823151
0.820748
0.820748
0.820748
0.820746
0.820746
0.820746
0.82074
0.82074
0.82074
0.820742
0.820742
0.820742
0.837443
0.837443
0.837443
0.827732
0.827732
0.827732
0.82663
0.82663
0.82663
0.81822
0.81822
0.81822
0.818216
0.818216
0.818216
0.819499
0.819499
0.819499
0.819497
0.819497
0.819497
0.818223
0.818223
0.818223
0.819503
0.819503
0.819503
0.819505
0.819505
0.819505
0.816918
0.816918
0.816918
0.816924
0.816924
0.816924
0.815587
0.815587
0.815587
0.815589
0.815589
0.815589
0.81692
0.81692
0.81692
0.818229
0.818229
0.818229
0.818227
0.818227
0.818227
0.821984
0.821984
0.821984
0.821976
0.821976
0.821976
0.823176
0.823176
0.823176
0.824352
0.824352
0.824352
0.836513
0.836513
0.836513
0.837383
0.837383
0.837383
0.837381
0.837381
0.837381
0.836508
0.836508
0.836508
0.835627
0.835627
0.835627
0.836521
0.836521
0.836521
0.834713
0.834713
0.834713
0.836523
0.836523
0.836523
0.836535
0.836535
0.836535
0.834729
0.834729
0.834729
0.831845
0.831845
0.831845
0.83739
0.83739
0.83739
0.837388
0.837388
0.837388
0.838236
0.838236
0.838236
0.827678
0.827678
0.827678
0.844967
0.844967
0.844967
0.843618
0.843618
0.843618
0.844305
0.844305
0.844305
0.844969
0.844969
0.844969
0.844961
0.844961
0.844961
0.844959
0.844959
0.844959
0.842909
0.842909
0.842909
0.843616
0.843616
0.843616
0.8443
0.8443
0.8443
0.844297
0.844297
0.844297
0.843611
0.843611
0.843611
0.842907
0.842907
0.842907
0.843631
0.843631
0.843631
0.842924
0.842924
0.842924
0.840689
0.840689
0.840689
0.841454
0.841454
0.841454
0.8422
0.8422
0.8422
0.840691
0.840691
0.840691
0.842203
0.842203
0.842203
0.841458
0.841458
0.841458
0.839899
0.839899
0.839899
0.838256
0.838256
0.838256
0.839894
0.839894
0.839894
0.840682
0.840682
0.840682
0.841451
0.841451
0.841451
0.840684
0.840684
0.840684
0.841444
0.841444
0.841444
0.842188
0.842188
0.842188
0.842915
0.842915
0.842915
0.841446
0.841446
0.841446
0.831864
0.831864
0.831864
0.831866
0.831866
0.831866
0.829817
0.829817
0.829817
0.829819
0.829819
0.829819
0.829823
0.829823
0.829823
0.820712
0.820712
0.820712
0.821938
0.821938
0.821938
0.818185
0.818185
0.818185
0.828764
0.828764