<VTKFile type="UnstructuredGrid" version="1.0">
<UnstructuredGrid>
<Piece NumberOfPoints="11046" NumberOfCells="3682">
<Points>
<DataArray type="Float64" NumberOfComponents="3" format="ascii">
0.0582363 3.01 10.5418
0.05 3.01 10.5225
0.0717021 3.01 10.5225
0.95 3.01 10.9512
0.95 3.01 10.9902
0.942301 3.01 10.9707
0.0962623 3.01 11.4225
0.086422 3.01 11.4022
0.107711 3.01 11.4023
0.466226 3.01 11.1661
0.454968 3.01 11.1857
0.443707 3.01 11.1661
0.353567 3.01 11.0878
0.364839 3.01 11.0683
0.376113 3.01 11.0878
0.376113 3.01 11.0878
0.364843 3.01 11.1074
0.353567 3.01 11.0878
0.353567 3.01 11.0878
0.364843 3.01 11.1074
0.342292 3.01 11.1074
0.37611 3.01 11.0488
0.364837 3.01 11.0292
0.387379 3.01 11.0292
0.376113 3.01 11.0878
0.364839 3.01 11.0683
0.387381 3.01 11.0683
0.364839 3.01 11.0683
0.37611 3.01 11.0488
0.387381 3.01 11.0683
0.066417 3.01 11.4045
0.05 3.01 11.4225
0.05 3.01 11.3987
0.0582363 3.01 10.5418
0.0717021 3.01 10.5225
0.0817675 3.01 10.542
0.0817675 3.01 10.542
0.0711754 3.01 10.5614
0.0582363 3.01 10.5418
0.11641 3.01 10.5225
0.138968 3.01 10.5225
0.127475 3.01 10.542
0.127475 3.01 10.542
0.104722 3.01 10.542
0.11641 3.01 10.5225
0.0711754 3.01 10.5614
0.0817675 3.01 10.542
0.0934889 3.01 10.5615
0.0934889 3.01 10.5615
0.0817675 3.01 10.542
0.104722 3.01 10.542
0.116091 3.01 10.5615
0.104722 3.01 10.542
0.127475 3.01 10.542
0.116091 3.01 10.5615
0.0934889 3.01 10.5615
0.104722 3.01 10.542
0.116091 3.01 10.5615
0.127244 3.01 10.581
0.104394 3.01 10.581
0.104394 3.01 10.581
0.0934889 3.01 10.5615
0.116091 3.01 10.5615
0.941764 3.01 10.5418
0.928298 3.01 10.5225
0.95 3.01 10.5225
0.387379 3.01 11.0292
0.364837 3.01 11.0292
0.376108 3.01 11.0097
0.161282 3.01 10.9512
0.138583 3.01 10.9512
0.149908 3.01 10.9317
0.0933091 3.01 11.0292
0.0813038 3.01 11.0097
0.104333 3.01 11.0097
0.104333 3.01 11.0097
0.0813038 3.01 11.0097
0.0933065 3.01 10.9902
0.331016 3.01 11.1269
0.319739 3.01 11.1465
0.308447 3.01 11.1269
0.308447 3.01 11.1269
0.319729 3.01 11.1074
0.331016 3.01 11.1269
0.331016 3.01 11.1269
0.319729 3.01 11.1074
0.342292 3.01 11.1074
0.138613 3.01 11.1464
0.12718 3.01 11.1269
0.149933 3.01 11.1269
0.138613 3.01 11.1464
0.149933 3.01 11.1269
0.161316 3.01 11.1464
0.161316 3.01 11.1464
0.149933 3.01 11.1269
0.172648 3.01 11.1269
0.206681 3.01 11.1464
0.195336 3.01 11.1269
0.217999 3.01 11.1269
0.263262 3.01 11.1269
0.285863 3.01 11.1269
0.274572 3.01 11.1465
0.274559 3.01 11.1073
0.285863 3.01 11.1269
0.263262 3.01 11.1269
0.240697 3.01 10.542
0.229409 3.01 10.5225
0.252012 3.01 10.5225
0.138758 3.01 10.5615
0.116091 3.01 10.5615
0.127475 3.01 10.542
0.127244 3.01 10.581
0.116091 3.01 10.5615
0.138758 3.01 10.5615
0.229332 3.01 10.6005
0.206685 3.01 10.6005
0.218031 3.01 10.581
0.184016 3.01 10.6005
0.161325 3.01 10.6005
0.172705 3.01 10.581
0.184093 3.01 10.5615
0.172705 3.01 10.581
0.161431 3.01 10.5615
0.218082 3.01 10.542
0.229409 3.01 10.5225
0.240697 3.01 10.542
0.218082 3.01 10.542
0.206798 3.01 10.5225
0.229409 3.01 10.5225
0.138617 3.01 10.6005
0.161325 3.01 10.6005
0.149916 3.01 10.62
0.376107 3.01 10.9317
0.353559 3.01 10.9317
0.364834 3.01 10.9122
0.942264 3.01 11.166
0.95 3.01 11.1464
0.95 3.01 11.1856
0.466226 3.01 11.1661
0.443707 3.01 11.1661
0.454966 3.01 11.1465
0.466223 3.01 11.0878
0.477482 3.01 11.0683
0.488741 3.01 11.0878
0.466223 3.01 11.0878
0.454964 3.01 11.1074
0.443703 3.01 11.0878
0.511259 3.01 11.0878
0.522518 3.01 11.0683
0.533777 3.01 11.0878
0.533777 3.01 11.0878
0.522517 3.01 11.1074
0.511259 3.01 11.0878
0.488741 3.01 11.0878
0.477482 3.01 11.0683
0.5 3.01 11.0683
0.511259 3.01 11.0878
0.488741 3.01 11.0878
0.5 3.01 11.0683
0.5 3.01 11.0683
0.522518 3.01 11.0683
0.511259 3.01 11.0878
0.387388 3.01 11.1465
0.398653 3.01 11.1269
0.40992 3.01 11.1465
0.376117 3.01 11.1269
0.398653 3.01 11.1269
0.387388 3.01 11.1465
0.443703 3.01 11.0878
0.454964 3.01 11.1074
0.432443 3.01 11.1074
0.432443 3.01 11.1074
0.454964 3.01 11.1074
0.443705 3.01 11.1269
0.274559 3.01 11.1073
0.26325 3.01 11.0878
0.285853 3.01 11.0878
0.387384 3.01 11.1074
0.398653 3.01 11.1269
0.376117 3.01 11.1269
0.376117 3.01 11.1269
0.364843 3.01 11.1074
0.387384 3.01 11.1074
0.387384 3.01 11.1074
0.364843 3.01 11.1074
0.376113 3.01 11.0878
0.342292 3.01 11.1074
0.319729 3.01 11.1074
0.331009 3.01 11.0878
0.331009 3.01 11.0878
0.353567 3.01 11.0878
0.342292 3.01 11.1074
0.545011 3.01 11.4225
0.522505 3.01 11.4225
0.533759 3.01 11.4027
0.533762 3.01 11.3631
0.545018 3.01 11.3433
0.55627 3.01 11.3631
0.55627 3.01 11.3631
0.545018 3.01 11.3433
0.567528 3.01 11.3433
0.567528 3.01 11.3433
0.578788 3.01 11.3236
0.59004 3.01 11.3433
0.466232 3.01 11.2841
0.454974 3.01 11.2644
0.477488 3.01 11.2644
0.567516 3.01 11.4225
0.578772 3.01 11.4027
0.590022 3.01 11.4225
0.601316 3.01 11.2841
0.61257 3.01 11.3038
0.590051 3.01 11.3038
0.62384 3.01 11.2841
0.61257 3.01 11.3038
0.601316 3.01 11.2841
0.680198 3.01 11.2643
0.691494 3.01 11.2446
0.702757 3.01 11.2643
0.086422 3.01 11.4022
0.0962623 3.01 11.4225
0.073896 3.01 11.4225
0.073896 3.01 11.4225
0.066417 3.01 11.4045
0.086422 3.01 11.4022
0.05 3.01 11.4225
0.066417 3.01 11.4045
0.073896 3.01 11.4225
0.0721919 3.01 11.3829
0.066417 3.01 11.4045
0.05 3.01 11.3987
0.086422 3.01 11.4022
0.066417 3.01 11.4045
0.0721919 3.01 11.3829
0.118481 3.01 11.4225
0.0962623 3.01 11.4225
0.107711 3.01 11.4023
0.5 3.01 11.4225
0.477495 3.01 11.4225
0.488747 3.01 11.4027
0.432484 3.01 11.4225
0.409978 3.01 11.4225
0.421228 3.01 11.4027
0.443725 3.01 11.3236
0.421212 3.01 11.3236
0.432465 3.01 11.3038
0.319802 3.01 11.2643
0.331063 3.01 11.2446
0.342348 3.01 11.2643
0.353629 3.01 11.284
0.342348 3.01 11.2643
0.364886 3.01 11.2643
0.10433 3.01 10.9707
0.0933065 3.01 10.9902
0.0813011 3.01 10.9707
0.0939466 3.01 10.5225
0.11641 3.01 10.5225
0.104722 3.01 10.542
0.0939466 3.01 10.5225
0.0817675 3.01 10.542
0.0717021 3.01 10.5225
0.104722 3.01 10.542
0.0817675 3.01 10.542
0.0939466 3.01 10.5225
0.0933065 3.01 10.9902
0.0813038 3.01 11.0097
0.0710513 3.01 10.9902
0.0710513 3.01 10.9902
0.0813011 3.01 10.9707
0.0933065 3.01 10.9902
0.115908 3.01 11.0682
0.0933131 3.01 11.0682
0.104337 3.01 11.0487
0.104337 3.01 11.0487
0.127165 3.01 11.0487
0.115908 3.01 11.0682
0.104343 3.01 11.0878
0.0933131 3.01 11.0682
0.115908 3.01 11.0682
0.104343 3.01 11.0878
0.115915 3.01 11.1073
0.0933188 3.01 11.1073
0.942303 3.01 10.9317
0.95 3.01 10.9122
0.95 3.01 10.9512
0.92895 3.01 10.9122
0.95 3.01 10.9122
0.942303 3.01 10.9317
0.9187 3.01 10.9317
0.906695 3.01 10.9512
0.895671 3.01 10.9317
0.92895 3.01 10.9122
0.942303 3.01 10.9317
0.9187 3.01 10.9317
0.942316 3.01 10.6979
0.928965 3.01 10.6784
0.95 3.01 10.6784
0.95 3.01 10.7563
0.942309 3.01 10.7368
0.95 3.01 10.7173
0.942316 3.01 10.6979
0.95 3.01 10.6784
0.95 3.01 10.7173
0.95 3.01 10.5611
0.941764 3.01 10.5418
0.95 3.01 10.5225
0.95 3.01 10.5611
0.95 3.01 10.6003
0.942358 3.01 10.5807
0.612617 3.01 10.6004
0.635157 3.01 10.6004
0.623887 3.01 10.6199
0.895671 3.01 10.9317
0.884102 3.01 10.9122
0.906696 3.01 10.9122
0.906696 3.01 10.9122
0.9187 3.01 10.9317
0.895671 3.01 10.9317
0.92895 3.01 10.9122
0.9187 3.01 10.9317
0.906696 3.01 10.9122
0.353563 3.01 11.0488
0.37611 3.01 11.0488
0.364839 3.01 11.0683
0.364837 3.01 11.0292
0.37611 3.01 11.0488
0.353563 3.01 11.0488
0.297145 3.01 11.0683
0.319723 3.01 11.0683
0.308439 3.01 11.0878
0.308439 3.01 11.0878
0.285853 3.01 11.0878
0.297145 3.01 11.0683
0.308439 3.01 11.0878
0.331009 3.01 11.0878
0.319729 3.01 11.1074
0.319723 3.01 11.0683
0.331009 3.01 11.0878
0.308439 3.01 11.0878
0.17262 3.01 10.9317
0.161282 3.01 10.9512
0.149908 3.01 10.9317
0.138583 3.01 10.9512
0.161282 3.01 10.9512
0.149909 3.01 10.9707
0.149909 3.01 10.9707
0.127158 3.01 10.9707
0.138583 3.01 10.9512
0.149909 3.01 10.9707
0.172622 3.01 10.9707
0.161284 3.01 10.9902
0.161282 3.01 10.9512
0.172622 3.01 10.9707
0.149909 3.01 10.9707
0.240621 3.01 11.0487
0.217979 3.01 11.0487
0.229301 3.01 11.0292
0.229301 3.01 11.0292
0.217979 3.01 11.0487
0.206649 3.01 11.0292
0.195316 3.01 11.0487
0.206649 3.01 11.0292
0.217979 3.01 11.0487
0.115908 3.01 11.0682
0.127165 3.01 11.0487
0.138594 3.01 11.0682
0.0933091 3.01 11.0292
0.104333 3.01 11.0097
0.115904 3.01 11.0292
0.115904 3.01 11.0292
0.104333 3.01 11.0097
0.127161 3.01 11.0097
0.115904 3.01 11.0292
0.104337 3.01 11.0487
0.0933091 3.01 11.0292
0.127165 3.01 11.0487
0.104337 3.01 11.0487
0.115904 3.01 11.0292
0.115901 3.01 10.9902
0.104333 3.01 11.0097
0.0933065 3.01 10.9902
0.127161 3.01 11.0097
0.104333 3.01 11.0097
0.115901 3.01 10.9902
0.115901 3.01 10.9902
0.0933065 3.01 10.9902
0.10433 3.01 10.9707
0.10433 3.01 10.9707
0.127158 3.01 10.9707
0.115901 3.01 10.9902
0.183972 3.01 10.9512
0.17262 3.01 10.9317
0.195307 3.01 10.9317
0.161282 3.01 10.9512
0.17262 3.01 10.9317
0.183972 3.01 10.9512
0.183972 3.01 10.9512
0.172622 3.01 10.9707
0.161282 3.01 10.9512
0.263244 3.01 11.0487
0.240621 3.01 11.0487
0.251933 3.01 11.0292
0.229301 3.01 11.0292
0.240617 3.01 11.0097
0.251933 3.01 11.0292
0.251933 3.01 11.0292
0.240621 3.01 11.0487
0.229301 3.01 11.0292
0.274543 3.01 10.9902
0.263237 3.01 10.9707
0.285842 3.01 10.9707
0.285842 3.01 10.9707
0.263237 3.01 10.9707
0.274541 3.01 10.9512
0.319739 3.01 11.1465
0.331016 3.01 11.1269
0.3423 3.01 11.1465
0.297163 3.01 11.1465
0.285878 3.01 11.1661
0.274572 3.01 11.1465
0.308447 3.01 11.1269
0.319739 3.01 11.1465
0.297163 3.01 11.1465
0.297163 3.01 11.1465
0.285863 3.01 11.1269
0.308447 3.01 11.1269
0.274572 3.01 11.1465
0.285863 3.01 11.1269
0.297163 3.01 11.1465
0.183992 3.01 11.1073
0.195336 3.01 11.1269
0.172648 3.01 11.1269
0.183992 3.01 11.1073
0.172636 3.01 11.0878
0.195323 3.01 11.0878
0.184008 3.01 11.1464
0.161316 3.01 11.1464
0.172648 3.01 11.1269
0.172648 3.01 11.1269
0.195336 3.01 11.1269
0.184008 3.01 11.1464
0.184008 3.01 11.1464
0.206681 3.01 11.1464
0.195356 3.01 11.166
0.195336 3.01 11.1269
0.206681 3.01 11.1464
0.184008 3.01 11.1464
0.308434 3.01 11.0487
0.319723 3.01 11.0683
0.297145 3.01 11.0683
0.297145 3.01 11.0683
[...]
<PointData Scalars="View Factor" >
<DataArray type="Float64" Name="View Factor" NumberOfComponents="1" format="ascii">
0.8563
0.8563
0.8563
0.788683
0.788683
0.788683
0.855552
0.855552
0.855552
0.842318
0.842318
0.842318
0.847453
0.847453
0.847453
0.847448
0.847448
0.847448
0.847996
0.847996
0.847996
0.846904
0.846904
0.846904
0.846887
0.846887
0.846887
0.846892
0.846892
0.846892
0.855963
0.855963
0.855963
0.856207
0.856207
0.856207
0.856204
0.856204
0.856204
0.85547
0.85547
0.85547
0.85565
0.85565
0.85565
0.856085
0.856085
0.856085
0.855959
0.855959
0.855959
0.855647
0.855647
0.855647
0.855809
0.855809
0.855809
0.855641
0.855641
0.855641
0.855806
0.855806
0.855806
0.790043
0.790043
0.790043
0.846909
0.846909
0.846909
0.854909
0.854909
0.854909
0.855785
0.855785
0.855785
0.85579
0.85579
0.85579
0.849523
0.849523
0.849523
0.849529
0.849529
0.849529
0.849036
0.849036
0.849036
0.855042
0.855042
0.855042
0.854824
0.854824
0.854824
0.854595
0.854595
0.854595
0.853495
0.853495
0.853495
0.851324
0.851324
0.851324
0.85133
0.85133
0.85133
0.852723
0.852723
0.852723
0.855464
0.855464
0.855464
0.855461
0.855461
0.855461
0.853391
0.853391
0.853391
0.85456
0.85456
0.85456
0.854567
0.854567
0.854567
0.853074
0.853074
0.853074
0.853411
0.853411
0.853411
0.855037
0.855037
0.855037
0.84752
0.84752
0.84752
0.788602
0.788602
0.788602
0.842324
0.842324
0.842324
0.840888
0.840888
0.840888
0.842353
0.842353
0.842353
0.8377
0.8377
0.8377
0.837694
0.837694
0.837694
0.840125
0.840125
0.840125
0.839336
0.839336
0.839336
0.838531
0.838531
0.838531
0.845661
0.845661
0.845661
0.846272
0.846272
0.846272
0.843055
0.843055
0.843055
0.84305
0.84305
0.84305
0.851342
0.851342
0.851342
0.846278
0.846278
0.846278
0.846869
0.846869
0.846869
0.846875
0.846875
0.846875
0.849042
0.849042
0.849042
0.848531
0.848531
0.848531
0.836692
0.836692
0.836692
0.835851
0.835851
0.835851
0.834962
0.834962
0.834962
0.833118
0.833118
0.833118
0.841546
0.841546
0.841546
0.833079
0.833079
0.833079
0.831195
0.831195
0.831195
0.830193
0.830193
0.830193
0.822506
0.822506
0.822506
0.855683
0.855683
0.855683
0.85579
0.85579
0.85579
0.855897
0.855897
0.855897
0.855912
0.855912
0.855912
0.855803
0.855803
0.855803
0.855406
0.855406
0.855406
0.839962
0.839962
0.839962
0.844252
0.844252
0.844252
0.843638
0.843638
0.843638
0.848967
0.848967
0.848967
0.847914
0.847914
0.847914
0.855801
0.855801
0.855801
0.855814
0.855814
0.855814
0.85609
0.85609
0.85609
0.855962
0.855962
0.855962
0.85592
0.85592
0.85592
0.855925
0.855925
0.855925
0.855616
0.855616
0.855616
0.855456
0.855456
0.855456
0.85561
0.85561
0.85561
0.855599
0.855599
0.855599
0.788699
0.788699
0.788699
0.789838
0.789838
0.789838
0.79506
0.79506
0.79506
0.791499
0.791499
0.791499
0.789925
0.789925
0.789925
0.788773
0.788773
0.788773
0.788787
0.788787
0.788787
0.78887
0.78887
0.78887
0.788825
0.788825
0.788825
0.829442
0.829442
0.829442
0.79681
0.79681
0.79681
0.795065
0.795065
0.795065
0.793361
0.793361
0.793361
0.847465
0.847465
0.847465
0.847471
0.847471
0.847471
0.850027
0.850027
0.850027
0.850483
0.850483
0.850483
0.84954
0.84954
0.84954
0.849546
0.849546
0.849546
0.85468
0.85468
0.85468
0.854904
0.854904
0.854904
0.855116
0.855116
0.855116
0.854664
0.854664
0.854664
0.854669
0.854669
0.854669
0.852882
0.852882
0.852882
0.853221
0.853221
0.853221
0.853536
0.853536
0.853536
0.855272
0.855272
0.855272
0.855633
0.855633
0.855633
0.855473
0.855473
0.855473
0.855627
0.855627
0.855627
0.855462
0.855462
0.855462
0.855644
0.855644
0.855644
0.855479
0.855479
0.855479
0.85565
0.85565
0.85565
0.85549
0.85549
0.85549
0.854164
0.854164
0.854164
0.854428
0.854428
0.854428
0.854423
0.854423
0.854423
0.852159
0.852159
0.852159
0.852538
0.852538
0.852538
0.852532
0.852532
0.852532
0.851393
0.851393
0.851393
0.851398
0.851398
0.851398
0.849024
0.849024
0.849024
0.850891
0.850891
0.850891
0.849997
0.849997
0.849997
0.850459
0.850459
0.850459
0.850898
0.850898
0.850898
0.854085
0.854085
0.854085
0.854097
0.854097
0.854097
0.854343
0.854343
0.854343
0.854079
0.854079
0.854079
0.853787
0.853787
0.853787
0.853793
0.853793
0.853793
0.850032
0.850032
0.850032
0.850495
0.850495
0.850495
0.8505
0.8505
0.8505
0.850044
0.850044
0.850044
0.850009
0.850009
0.850009
0.850465
0.850465
0.850465
0.850015
0.850015
0.850015
0.850477
0.850477
0.850477
0.85091
0.85091
0.85091
0.850916
0.850916
0.850916
0.852142
0.852142
0.852142
0.852153
0.852153
0.852153
0.852124
0.852124
0.852124
0.852136
0.852136
0.852136
0.851745
0.851745
0.851745
0.851739
0.851739
0.851739
0.851965
0.851965
0.851965
0.852351
0.852351
0.852351
0.855058
0.855058
0.855058
0.855052
0.855052
0.855052
0.855272
0.855272
0.855272
0.855268
0.855268
0.855268
0.855048
0.855048
0.855048
0.854815
0.854815
0.854815
0.854811
0.854811
0.854811
0.855041
0.855041
0.855041
0.855258
0.855258
0.855258
0.855262
0.855262
0.855262
0.852347
0.852347
0.852347
0.851957
0.851957
0.851957
0.854578
0.854578
0.854578
0.854571
0.854571
0.854571
0.854822
0.854822
0.854822
0.854825
0.854825
0.854825
0.854018
0.854018
0.854018
0.853715
0.853715
0.853715
0.853711
0.853711
0.853711
0.85401
0.85401
0.85401
0.854295
0.854295
0.854295
0.854299
0.854299
0.854299
0.854029
0.854029
0.854029
0.854021
0.854021
0.854021
0.853723
0.853723
0.853723
0.853727
0.853727
0.853727
0.85431
0.85431
0.85431
0.854307
0.854307
0.854307
0.85307
0.85307
0.85307
0.852715
0.852715
0.852715
0.853399
0.853399
0.853399
0.853403
0.853403
0.853403
0.852298
0.852298
0.852298
0.852294
0.852294
0.852294
0.851074
0.851074
0.851074
0.8515
0.8515
0.8515
0.851899
0.851899
0.851899
0.851903
0.851903
0.851903
0.853387
0.853387
0.853387
0.854006
0.854006
0.854006
0.853703
0.853703
0.853703
0.853698
0.853698
0.853698
0.845127
0.845127
0.845127
0.84753
0.84753
0.84753
0.846362
0.846362
0.846362
0.845757
0.845757
0.845757
0.845762
0.845762
0.845762
0.846372
0.846372
0.846372
0.846953
0.846953
0.846953
0.846958
0.846958
0.846958
0.850093
0.850093
0.850093
0.849613
0.849613
0.849613
0.849654
0.849654
0.849654
0.849141
0.849141
0.849141
0.853049
0.853049
0.853049
0.850236
0.850236
0.850236
0.846501
0.846501
0.846501
0.846506
0.846506
0.846506
0.849756
0.849756
0.849756
0.849263
0.849263
0.849263
0.848747
0.848747
0.848747
0.803397
0.803397
0.803397
0.804924
0.804924
0.804924
0.804915
0.804915
0.804915
0.809355
0.809355
0.809355
0.806428
0.806428
0.806428
0.807904
0.807904
0.807904
0.806401
0.806401
0.806401
0.807899
0.807899
0.807899
0.806413
0.806413
0.806413
0.810781
0.810781
0.810781
0.789686
0.789686
0.789686
0.789694
0.789694
0.789694
0.791363
0.791363
0.791363
0.79137
0.79137
0.79137
0.843032
0.843032
0.843032
0.843038
0.843038
0.843038
0.846346
0.846346
0.846346
0.846356
0.846356
0.846356
0.84634
0.84634
0.84634
0.836842
0.836842
0.836842
0.836836
0.836836
0.836836
0.835962
0.835962
0.835962
0.840883
0.840883
0.840883
0.841625
0.841625
0.841625
0.842336
0.842336
0.842336
0.840871
0.840871
0.840871
0.842342
0.842342
0.842342
0.841619
0.841619
0.841619
0.841602
0.841602
0.841602
0.841608
0.841608
0.841608
0.840865
0.840865
0.840865
0.84302
0.84302
0.84302
0.848476
0.848476
0.848476
0.848482
0.848482
0.848482
0.847959
0.847959
0.847959
0.847953
0.847953
0.847953
0.847412
0.847412
0.847412
0.843732
0.843732
0.843732
0.845038
0.845038
0.845038
0.844389
0.844389
0.844389
0.843726
0.843726
0.843726
0.843744
0.843744
0.843744
0.845673
0.845673
0.845673
0.845043
0.845043
0.845043
0.8444
0.8444
0.8444
0.844406
0.844406
0.844406
0.816393
0.816393
0.816393
0.820217
0.820217
0.820217
0.834929
0.834929
0.834929
0.835825
0.835825
0.835825
0.834018
0.834018
0.834018
0.836764
0.836764
0.836764
0.83677
0.83677
0.83677
0.83839
0.83839
0.83839
0.837565
0.837565
0.837565
0.834045
0.834045
0.834045
0.833111
0.833111
0.833111
0.829162
0.829162
0.829162
0.827035
0.827035
0.827035
0.828114
0.828114
0.828114
0.832162
0.832162
0.832162
0.831189
0.831189
0.831189
0.832168
0.832168
0.832168
0.839283
0.839283
0.839283
0.828148
0.828148
0.828148
0.828154
0.828154
0.828154
0.823682
0.823682
0.823682
0.830199
0.830199
0.830199
0.800019
0.800019
0.800019
0.801641
0.801641
0.801641
0.800018
0.800018
0.800018
0.817549
0.817549
0.817549
0.818824
0.818824
0.818824
0.820077
0.820077
0.820077
0.822472
0.822472
0.822472
0.822447
0.822447
0.822447
0.82708
0.82708
0.82708
0.814973
0.814973
0.814973
0.855998
0.855998
0.855998
0.85596
0.85596
0.85596
0.855936
0.855936
0.855936
0.855563
0.855563
0.855563
0.855706
0.855706
0.855706
0.85363
0.85363
0.85363
0.855245
0.855245
0.855245
0.855063
0.855063
0.855063
0.853944
0.853944
0.853944
0.849852
0.849852
0.849852
0.849867
0.849867
0.849867
0.838369
0.838369
0.838369
0.83918
0.83918
0.83918
0.837545
0.837545
0.837545
0.839186
0.839186
0.839186
0.838383
0.838383
0.838383
0.837551
0.837551
0.837551
0.844908
0.844908
0.844908
0.845523
0.845523
0.845523
0.844901
0.844901
0.844901
0.847837
0.847837
0.847837
0.842956
0.842956
0.842956
0.847333
0.847333
0.847333
0.84676
0.84676
0.84676
0.845544
0.845544
0.845544
0.845537
0.845537
0.845537
0.847312
0.847312
0.847312
0.846162
0.846162
0.846162
0.846739
0.846739
0.846739
0.846155
0.846155
0.846155
0.847319
0.847319
0.847319
0.846753
0.846753
0.846753
0.849939
0.849939
0.849939
0.849465
0.849465
0.849465
0.84736
0.84736
0.84736
0.84794
0.84794
0.84794
0.848456
0.848456
0.848456
0.847921
0.847921
0.847921
0.848463
0.848463
0.848463
0.847934
0.847934
0.847934
0.854787
0.854787
0.854787
0.855365
0.855365
0.855365
0.854818
0.854818
0.854818
0.85503
0.85503
0.85503
0.855525
0.855525
0.855525
0.855518
0.855518
0.855518
0.855678
0.855678
0.855678
0.855801
0.855801
0.855801
0.855664
0.855664
0.855664
0.855795
0.855795
0.855795
0.856188
0.856188
0.856188
0.856131
0.856131
0.856131
0.856046
0.856046
0.856046
0.856171
0.856171
0.856171
0.856126
0.856126
0.856126
0.856035
0.856035
0.856035
0.856155
0.856155
0.856155
0.856098
0.856098
0.856098
0.856137
0.856137
0.856137
0.856092
0.856092
0.856092
0.788714
0.788714
0.788714
0.789843
0.789843
0.789843
0.793351
0.793351
0.793351
0.793345
0.793345
0.793345
0.789828
0.789828
0.789828
0.791494
0.791494
0.791494
0.789823
0.789823
0.789823
0.791483
0.791483
0.791483
0.798481
0.798481
0.798481
0.791592
0.791592
0.791592
0.789928
0.789928
0.789928
0.7888
0.7888
0.7888
0.800232
0.800232
0.800232
0.791585
0.791585
0.791585
0.790007
0.790007
0.790007
0.78997
0.78997
0.78997
0.796981
0.796981
0.796981
0.831504
0.831504
0.831504
0.833446
0.833446
0.833446
0.832484
0.832484
0.832484
0.835262
0.835262
0.835262
0.835276
0.835276
0.835276
0.835271
0.835271
0.835271
0.830478
0.830478
0.830478
0.829447
0.829447
0.829447
0.822791
0.822791
0.822791
0.830496
0.830496
0.830496
0.822748
0.822748
0.822748
0.825087
0.825087
0.825087
0.820321
0.820321
0.820321
0.821545
0.821545
0.821545
0.815126
0.815126
0.815126
0.816462
0.816462
0.816462
0.819066
0.819066
0.819066
0.819061
0.819061
0.819061
0.806561
0.806561
0.806561
0.805023
0.805023
0.805023
0.843276
0.843276
0.843276
0.842569
0.842569
0.842569
0.8459
0.8459
0.8459
0.836171
0.836171
0.836171
0.847619
0.847619
0.847619
0.846461
0.846461
0.846461
0.847047
0.847047
0.847047
0.817765
0.817765
0.817765
0.82621
0.82621
0.82621
0.828387
0.828387
0.828387
0.827313
0.827313
0.827313
0.810879
0.810879
0.810879
0.813694
0.813694
0.813694
0.812303
0.812303
0.812303
0.812298
0.812298
0.812298
0.813684
0.813684
0.813684
0.848013
0.848013
0.848013
0.848007
0.848007
0.848007
0.848537
0.848537
0.848537
0.849054
0.849054
0.849054
0.854412
0.854412
0.854412
0.855111
0.855111
0.855111
0.8553
0.8553
0.8553
0.855305
0.855305
0.855305
0.854893
0.854893
0.854893
0.854717
0.854717
0.854717
0.854711
0.854711
0.854711
0.852859
0.852859
0.852859
0.852847
0.852847
0.852847
0.852503
0.852503
0.852503
0.852497
0.852497
0.852497
0.853513
0.853513
0.853513
0.853811
0.853811
0.853811
0.853805
0.853805
0.853805
0.853501
0.853501
0.853501
0.853186
0.853186
0.853186
0.853192
0.853192
0.853192
0.853519
0.853519
0.853519
0.85353
0.85353
0.85353
0.852877
0.852877
0.852877
0.853209
0.853209
0.853209
0.853204
0.853204
0.853204
0.852865
0.852865
0.852865
0.852515
0.852515
0.852515
0.852521
0.852521
0.852521
0.854103
0.854103
0.854103
0.853822
0.853822
0.853822
0.853828
0.853828
0.853828
0.854115
0.854115
0.854115
0.854372
0.854372
0.854372
0.854378
0.854378
0.854378
0.854601
0.854601
0.854601
0.854355
0.854355
0.854355
0.854361
0.854361
0.854361
0.855289
0.855289
0.855289
0.855283
0.855283
0.855283
0.852208
0.852208
0.852208
0.851409
0.851409
0.851409
0.85055
0.85055
0.85055
0.851796
0.851796
0.851796
0.852187
0.852187
0.852187
0.853243
0.853243
0.853243
0.85291
0.85291
0.85291
0.852555
0.852555
0.852555
0.852549
0.852549
0.852549
0.853564
0.853564
0.853564
0.853862
0.853862
0.853862
0.854154
0.854154
0.854154
0.854148
0.854148
0.854148
0.852581
0.852581
0.852581
0.852932
0.852932
0.852932
0.851774
0.851774
0.851774
0.851365
0.851365
0.851365
0.850945
0.850945
0.850945
0.849608
0.849608
0.849608
0.848587
0.848587
0.848587
0.848598
0.848598
0.848598
0.849104
0.849104
0.849104
0.849109
0.849109
0.849109
0.847515
0.847515
0.847515
0.848063
0.848063
0.848063
0.848057
0.848057
0.848057
0.847504
0.847504
0.847504
0.846937
0.846937
0.846937
0.846942
0.846942
0.846942
0.847498
0.847498
0.847498
0.846926
0.846926
0.846926
0.84692
0.84692
0.84692
0.850967
0.850967
0.850967
0.848513
0.848513
0.848513
0.847436
0.847436
0.847436
0.84799
0.84799
0.84799
0.848519
0.848519
0.848519
0.847972
0.847972
0.847972
0.847418
0.847418
0.847418
0.846851
0.846851
0.846851
0.846857
0.846857
0.846857
0.84743
0.84743
0.84743
0.847978
0.847978
0.847978
0.854337
0.854337
0.854337
0.854583
0.854583
0.854583
0.854577
0.854577
0.854577
0.854324
0.854324
0.854324
0.854067
0.854067
0.854067
0.854061
0.854061
0.854061
0.851348
0.851348
0.851348
0.851359
0.851359
0.851359
0.850927
0.850927
0.850927
0.850933
0.850933
0.850933
0.851762
0.851762
0.851762
0.851757
0.851757
0.851757
0.848548
0.848548
0.848548
0.849059
0.849059
0.849059
0.849558
0.849558
0.849558
0.849564
0.849564
0.849564
0.852698
0.852698
0.852698
0.851952
0.851952
0.851952
0.851545
0.851545
0.851545
0.85154
0.85154
0.85154
0.851944
0.851944
0.851944
0.855189
0.855189
0.855189
0.851069
0.851069
0.851069
0.85106
0.85106
0.85106
0.85149
0.85149
0.85149
0.851486
0.851486
0.851486
0.8492
0.8492
0.8492
0.850168
0.850168
0.850168
0.850625
0.850625
0.850625
0.850621
0.850621
0.850621
0.853627
0.853627
0.853627
0.849639
0.849639
0.849639
0.849644
0.849644
0.849644
0.853997
0.853997
0.853997
0.848089
0.848089
0.848089
0.847536
0.847536
0.847536
0.84912
0.84912
0.84912
0.848603
0.848603
0.848603
0.848074
0.848074
0.848074
0.848079
0.848079
0.848079
0.850098
0.850098
0.850098
0.849659
0.849659
0.849659
0.848629
0.848629
0.848629
0.848094
0.848094
0.848094
0.849156
0.849156
0.849156
0.849151
0.849151
0.849151
0.848634
0.848634
0.848634
0.848645
0.848645
0.848645
0.84811
0.84811
0.84811
0.848105
0.848105
0.848105
0.850676
0.850676
0.850676
0.851115
0.851115
0.851115
0.853045
0.853045
0.853045
0.853036
0.853036
0.853036
0.853378
0.853378
0.853378
0.853374
0.853374
0.853374
0.852308
0.852308
0.852308
0.851136
0.851136
0.851136
0.851557
0.851557
0.851557
0.851553
0.851553
0.851553
0.850693
0.850693
0.850693
0.848217
0.848217
0.848217
0.847096
0.847096
0.847096
0.847664
0.847664
0.847664
0.84873
0.84873
0.84873
0.848743
0.848743
0.848743
0.848734
0.848734
0.848734
0.80337
0.80337
0.80337
0.807881
0.807881
0.807881
0.810767
0.810767
0.810767
0.810771
0.810771
0.810771
0.809343
0.809343
0.809343
0.809349
0.809349
0.809349
0.810779
0.810779
0.810779
0.812177
0.812177
0.812177
0.812179
0.812179
0.812179
0.788536
0.788536
0.788536
0.788546
0.788546
0.788546
0.789714
0.789714
0.789714
0.789707
0.789707
0.789707
0.788585
0.788585
0.788585
0.788566
0.788566
0.788566
0.798353
0.798353
0.798353
0.801643
0.801643
0.801643
0.837683
0.837683
0.837683
0.837677
0.837677
0.837677
0.83506
0.83506
0.83506
0.835956
0.835956
0.835956
0.836824
0.836824
0.836824
0.843749
0.843749
0.843749
0.844418
0.844418
0.844418
0.844423
0.844423
0.844423
0.843761
0.843761
0.843761
0.843783
0.843783
0.843783
0.842393
0.842393
0.842393
0.843101
0.843101
0.843101
0.845111
0.845111
0.845111
0.845122
0.845122
0.845122
0.845746
0.845746
0.845746
0.845741
0.845741
0.845741
0.843794
0.843794
0.843794
0.843106
0.843106
0.843106
0.842404
0.842404
0.842404
0.84573
0.84573
0.84573
0.845106
0.845106
0.845106
0.844451
0.844451
0.844451
0.844457
0.844457
0.844457
0.84167
0.84167
0.84167
0.840922
0.840922
0.840922
0.840159
0.840159
0.840159
0.841676
0.841676
0.841676
0.840164
0.840164
0.840164
0.840933
0.840933
0.840933
0.840938
0.840938
0.840938
0.832268
0.832268
0.832268
0.831283
0.831283
0.831283
0.832274
0.832274
0.832274
0.831294
0.831294
0.831294
0.832285
0.832285
0.832285
0.8313
0.8313
0.8313
0.824921
0.824921
0.824921
0.826044
0.826044
0.826044
0.836853
0.836853
0.836853
0.836859
0.836859
0.836859
0.838537
0.838537
0.838537
0.837711
0.837711
0.837711
0.838548
0.838548
0.838548
0.837717
0.837717
0.837717
0.835973
0.835973
0.835973
0.835979
0.835979
0.835979
0.840853
0.840853
0.840853
0.839295
0.839295
0.839295
0.848986
0.848986
0.848986
0.849953
0.849953
0.849953
0.84898
0.84898
0.84898
0.849472
0.849472
0.849472
0.850422
0.850422
0.850422
0.849959
0.849959
0.849959
0.849485
0.849485
0.849485
0.843708
0.843708
0.843708
0.844383
0.844383
0.844383
0.843714
0.843714
0.843714
0.847399
0.847399
0.847399
0.847393
0.847393
0.847393
0.843677
0.843677
0.843677
0.845679
0.845679
0.845679
0.845055
0.845055
0.845055
0.846289
0.846289
0.846289
0.846295
0.846295
0.846295
0.845691
0.845691
0.845691
0.845061
0.845061
0.845061
0.821393
0.821393
0.821393
0.822596
0.822596
0.822596
0.823769
0.823769
0.823769
0.822564
0.822564
0.822564
0.835072
0.835072
0.835072
0.833225
0.833225
0.833225
0.834165
0.834165
0.834165
0.835077
0.835077
0.835077
0.831277
0.831277
0.831277
0.825988
0.825988
0.825988
0.827086
0.827086
0.827086
0.822553
0.822553
0.822553
0.820191
0.820191
0.820191
0.820186
0.820186
0.820186
0.82017
0.82017
0.82017
0.820175
0.820175
0.820175
0.83687
0.83687
0.83687
0.82718
0.82718
0.82718
0.826076
0.826076
0.826076
0.81767
0.81767
0.81767
0.81766
0.81766
0.81766
0.818946
0.818946
0.818946
0.818941
0.818941
0.818941
0.817675
0.817675
0.817675
0.818957
0.818957
0.818957
0.818962
0.818962
0.818962
0.816372
0.816372
0.816372
0.816388
0.816388
0.816388
0.815047
0.815047
0.815047
0.815052
0.815052
0.815052
0.816377
0.816377
0.816377
0.817691
0.817691
0.817691
0.817686
0.817686
0.817686
0.821441
0.821441
0.821441
0.82142
0.82142
0.82142
0.822618
0.822618
0.822618
0.823796
0.823796
0.823796
0.835845
0.835845
0.835845
0.836712
0.836712
0.836712
0.836706
0.836706
0.836706
0.835832
0.835832
0.835832
0.834969
0.834969
0.834969
0.835864
0.835864
0.835864
0.834057
0.834057
0.834057
0.835871
0.835871
0.835871
0.835902
0.835902
0.835902
0.834101
0.834101
0.834101
0.831207
0.831207
0.831207
0.836732
0.836732
0.836732
0.836725
0.836725
0.836725
0.837571
0.837571
0.837571
0.82703
0.82703
0.82703
0.844326
0.844326
0.844326
0.842982
0.842982
0.842982
0.843671
0.843671
0.843671
0.844333
0.844333
0.844333
0.844313
0.844313
0.844313
0.844306
0.844306
0.844306
0.842268
0.842268
0.842268
0.842976
0.842976
0.842976
0.843658
0.843658
0.843658
0.843651
0.843651
0.843651
0.842963
0.842963
0.842963
0.842261
0.842261
0.842261
0.843014
0.843014
0.843014
0.842305
0.842305
0.842305
0.840072
0.840072
0.840072
0.840835
0.840835
0.840835
0.841583
0.841583
0.841583
0.840078
0.840078
0.840078
0.84159
0.84159
0.84159
0.840847
0.840847
0.840847
0.839277
0.839277
0.839277
0.837623
0.837623
0.837623
0.839264
0.839264
0.839264
0.840054
0.840054
0.840054
0.840829
0.840829
0.840829
0.84006
0.84006
0.84006
0.84081
0.84081
0.84081
0.841552
0.841552
0.841552
0.84228
0.84228
0.84228
0.840816
0.840816
0.840816
0.83126
0.83126
0.83126
0.831266
0.831266
0.831266
0.829191
0.829191
0.829191
0.829197
0.829197
0.829197
0.829209
0.829209
0.829209
0.820081
0.820081
0.820081
0.821309
0.821309
0.821309
0.817566
0.817566
0.817566
0.828136
0.828136
0.828136
0.825939
0.825939
0.825939
0.817531
0.817531
0.817531