<VTKFile type="UnstructuredGrid" version="1.0">
<UnstructuredGrid>
<Piece NumberOfPoints="11046" NumberOfCells="3682">
<Points>
<DataArray type="Float64" NumberOfComponents="3" format="ascii">
1.77647 2.48053 17.8452
1.76268 2.49432 17.8375
1.79026 2.46674 17.8375
1.46971 2.78729 17.8539
1.457 2.8 17.8375
1.47379 2.78321 17.8375
1.46971 2.78729 17.8539
1.457 2.8 17.8614
1.457 2.8 17.8375
1.79026 2.46674 18.7375
1.76268 2.49432 18.7375
1.77647 2.48053 18.7298
1.95562 2.30138 18.7165
1.95562 2.30138 18.7375
1.94184 2.31516 18.7298
1.7213 2.5357 18.6149
1.73509 2.52191 18.6035
1.7351 2.5219 18.6262
1.94184 2.31516 17.8452
1.95562 2.30138 17.8375
1.95562 2.30138 17.8585
1.76268 2.49432 17.8808
1.77647 2.48053 17.8688
1.77647 2.48053 17.8918
1.77647 2.48053 17.8918
1.77647 2.48053 17.8688
1.79025 2.46675 17.8808
1.79025 2.46675 18.265
1.80403 2.45297 18.2762
1.79025 2.46675 18.2875
1.457 2.8 18.31
1.457 2.8 18.2875
1.471 2.786 18.2988
2.0934 2.1636 18.5129
2.07961 2.17739 18.5242
2.07961 2.17739 18.5016
1.95561 2.30139 18.513
1.96939 2.28761 18.5017
1.96938 2.28762 18.5243
1.96938 2.28762 18.5243
1.96939 2.28761 18.5017
1.98316 2.27384 18.513
1.94184 2.31516 18.7298
1.95562 2.30138 18.7375
1.92806 2.32894 18.7375
1.84538 2.41162 18.6942
1.85916 2.39784 18.7062
1.84538 2.41162 18.7165
1.87294 2.38406 18.6942
1.85916 2.39784 18.7062
1.85916 2.39784 18.6832
1.85916 2.39784 18.6832
1.85916 2.39784 18.7062
1.84538 2.41162 18.6942
1.79025 2.46675 18.3776
1.77646 2.48054 18.3889
1.77646 2.48054 18.3663
1.79025 2.46675 18.2875
1.80403 2.45297 18.2762
1.80403 2.45297 18.2988
1.77646 2.48054 18.4565
1.79025 2.46675 18.4678
1.77646 2.48054 18.4791
1.77647 2.48053 18.7298
1.76268 2.49432 18.7375
1.76268 2.49432 18.7164
2.07959 2.17741 17.9603
2.0934 2.1636 17.9717
2.0796 2.1774 17.983
1.92805 2.32895 18.265
1.94183 2.31517 18.2537
1.94183 2.31517 18.2762
1.74889 2.50811 17.8452
1.7351 2.5219 17.8375
1.76268 2.49432 17.8375
1.76268 2.49432 17.8808
1.74889 2.50811 17.8688
1.76268 2.49432 17.8586
1.76268 2.49432 17.8586
1.77647 2.48053 17.8688
1.76268 2.49432 17.8808
1.76268 2.49432 17.8586
1.74889 2.50811 17.8452
1.76268 2.49432 17.8375
1.74889 2.50811 17.8688
1.74889 2.50811 17.8452
1.76268 2.49432 17.8586
1.76268 2.49432 17.8586
1.76268 2.49432 17.8375
1.77647 2.48053 17.8452
1.77647 2.48053 17.8452
1.77647 2.48053 17.8688
1.76268 2.49432 17.8586
1.79025 2.46675 17.8808
1.77647 2.48053 17.8688
1.79025 2.46675 17.8586
1.79025 2.46675 17.8586
1.80404 2.45296 17.8688
1.79025 2.46675 17.8808
1.77647 2.48053 17.8452
1.79026 2.46674 17.8375
1.79025 2.46675 17.8586
1.79025 2.46675 17.8586
1.77647 2.48053 17.8688
1.77647 2.48053 17.8452
1.77647 2.48053 17.9147
1.77647 2.48053 17.8918
1.79025 2.46675 17.9034
1.79025 2.46675 17.9034
1.77647 2.48053 17.8918
1.79025 2.46675 17.8808
1.81782 2.43918 18.1072
1.81782 2.43918 18.0846
1.8316 2.4254 18.0959
1.80403 2.45297 18.0959
1.81782 2.43918 18.0846
1.81782 2.43918 18.1072
1.92806 2.32894 17.8375
1.95562 2.30138 17.8375
1.94184 2.31516 17.8452
1.79026 2.46674 17.8375
1.81782 2.43918 17.8375
1.80404 2.45296 17.8452
1.80404 2.45296 17.8452
1.79025 2.46675 17.8586
1.79026 2.46674 17.8375
1.80404 2.45296 17.8688
1.79025 2.46675 17.8586
1.80404 2.45296 17.8452
1.80403 2.45297 18.2537
1.79025 2.46675 18.265
1.79025 2.46675 18.2425
1.80403 2.45297 18.2762
1.79025 2.46675 18.265
1.80403 2.45297 18.2537
1.80403 2.45297 18.2537
1.81782 2.43918 18.265
1.80403 2.45297 18.2762
2.07962 2.17738 18.2312
2.0934 2.1636 18.2199
2.0934 2.1636 18.2425
2.0934 2.1636 18.1073
2.07961 2.17739 18.096
2.0934 2.1636 18.0847
2.0934 2.1636 18.4001
2.0934 2.1636 18.4226
2.07962 2.17738 18.4114
2.07962 2.17738 18.4339
2.06584 2.19116 18.4452
2.06584 2.19116 18.4227
2.07962 2.17738 18.4339
2.0934 2.1636 18.4226
2.0934 2.1636 18.4452
2.06584 2.19116 18.4227
2.07962 2.17738 18.4114
2.07962 2.17738 18.4339
2.07962 2.17738 18.4339
2.07962 2.17738 18.4114
2.0934 2.1636 18.4226
2.07962 2.17738 18.4565
2.0934 2.1636 18.4452
2.0934 2.1636 18.4678
2.07962 2.17738 18.4565
2.07962 2.17738 18.4339
2.0934 2.1636 18.4452
2.06584 2.19116 18.4452
2.07962 2.17738 18.4339
2.07962 2.17738 18.4565
2.0934 2.1636 18.5129
2.07961 2.17739 18.5016
2.0934 2.1636 18.4903
2.05205 2.20495 18.5242
2.03827 2.21873 18.5129
2.05205 2.20495 18.5016
2.05205 2.20495 18.479
2.05205 2.20495 18.5016
2.03827 2.21873 18.4903
2.03827 2.21873 18.4903
2.03827 2.21873 18.5129
2.02449 2.23251 18.5016
2.03827 2.21873 18.4903
2.05205 2.20495 18.5016
2.03827 2.21873 18.5129
2.0934 2.1636 18.3325
2.07962 2.17738 18.3213
2.0934 2.1636 18.31
2.07962 2.17738 18.3888
2.0934 2.1636 18.3776
2.0934 2.1636 18.4001
2.0934 2.1636 18.4001
2.07962 2.17738 18.4114
2.07962 2.17738 18.3888
2.07962 2.17738 18.3888
2.07962 2.17738 18.3663
2.0934 2.1636 18.3776
2.06584 2.19116 18.3776
2.07962 2.17738 18.3663
2.07962 2.17738 18.3888
1.98316 2.27384 18.6262
1.96939 2.28761 18.6376
1.96939 2.28761 18.6149
1.9694 2.2876 18.6832
1.95562 2.30138 18.6942
1.95562 2.30138 18.6716
1.94184 2.31516 18.7062
1.95562 2.30138 18.7165
1.94184 2.31516 18.7298
1.94184 2.31516 18.7062
1.95562 2.30138 18.6942
1.95562 2.30138 18.7165
1.98319 2.27381 18.7165
1.98319 2.27381 18.6942
1.99698 2.26002 18.7062
1.98316 2.27384 18.513
1.96939 2.28761 18.5017
1.98316 2.27384 18.4904
1.96939 2.28761 18.5017
1.96939 2.28761 18.4791
1.98316 2.27384 18.4904
1.98316 2.27384 18.4678
1.99694 2.26006 18.4791
1.98316 2.27384 18.4904
1.98316 2.27384 18.4904
1.96939 2.28761 18.4791
1.98316 2.27384 18.4678
1.98316 2.27384 18.5356
1.96938 2.28762 18.5243
1.98316 2.27384 18.513
1.98316 2.27384 18.5356
1.99694 2.26006 18.5469
1.98316 2.27384 18.5582
2.0934 2.1636 18.5355
2.07961 2.17739 18.5242
2.0934 2.1636 18.5129
1.79025 2.46675 18.7164
1.79026 2.46674 18.7375
1.77647 2.48053 18.7298
1.81782 2.43918 18.7164
1.81782 2.43918 18.7375
1.80404 2.45296 18.7298
1.80404 2.45296 18.7298
1.80404 2.45296 18.7062
1.81782 2.43918 18.7164
1.80404 2.45296 18.7298
1.81782 2.43918 18.7375
1.79026 2.46674 18.7375
1.79026 2.46674 18.7375
1.79025 2.46675 18.7164
1.80404 2.45296 18.7298
1.80404 2.45296 18.7298
1.79025 2.46675 18.7164
1.80404 2.45296 18.7062
1.80404 2.45296 18.7062
1.79025 2.46675 18.7164
1.79025 2.46675 18.6942
1.85916 2.39784 18.7298
1.87294 2.38406 18.7375
1.84538 2.41162 18.7375
1.84538 2.41162 18.7375
1.84538 2.41162 18.7165
1.85916 2.39784 18.7298
1.85916 2.39784 18.7298
1.84538 2.41162 18.7165
1.85916 2.39784 18.7062
1.8316 2.4254 18.7298
1.81782 2.43918 18.7375
1.81782 2.43918 18.7164
1.84538 2.41162 18.7375
1.81782 2.43918 18.7375
1.8316 2.4254 18.7298
1.8316 2.4254 18.7298
1.84538 2.41162 18.7165
1.84538 2.41162 18.7375
1.84538 2.41162 18.6942
1.84538 2.41162 18.7165
1.8316 2.4254 18.7062
1.8316 2.4254 18.7062
1.8316 2.4254 18.6832
1.84538 2.41162 18.6942
1.8316 2.4254 18.7062
1.8316 2.4254 18.7298
1.81782 2.43918 18.7164
1.84538 2.41162 18.7165
1.8316 2.4254 18.7298
1.8316 2.4254 18.7062
1.84538 2.41162 18.6716
1.85916 2.39784 18.6832
1.84538 2.41162 18.6942
1.84538 2.41162 18.6716
1.8316 2.4254 18.6832
1.8316 2.4254 18.6603
1.84538 2.41162 18.6942
1.8316 2.4254 18.6832
1.84538 2.41162 18.6716
1.76267 2.49433 18.4001
1.77646 2.48054 18.3889
1.77646 2.48054 18.4114
1.77646 2.48054 18.4114
1.76267 2.49433 18.4227
1.76267 2.49433 18.4001
1.79025 2.46675 18.4452
1.79025 2.46675 18.4678
1.77646 2.48054 18.4565
1.76267 2.49433 18.3325
1.77646 2.48054 18.3213
1.77646 2.48054 18.3438
1.77646 2.48054 18.3438
1.77646 2.48054 18.3213
1.79025 2.46675 18.3325
1.76267 2.49433 18.3776
1.77646 2.48054 18.3889
1.76267 2.49433 18.4001
1.76267 2.49433 18.3776
1.77646 2.48054 18.3663
1.77646 2.48054 18.3889
1.80403 2.45297 18.2762
1.81782 2.43918 18.265
1.81782 2.43918 18.2875
1.81782 2.43918 18.2875
1.80403 2.45297 18.2988
1.80403 2.45297 18.2762
1.79025 2.46675 18.3325
1.77646 2.48054 18.3213
1.79025 2.46675 18.31
1.79025 2.46675 18.2875
1.80403 2.45297 18.2988
1.79025 2.46675 18.31
1.79025 2.46675 18.513
1.79025 2.46675 18.5356
1.77646 2.48054 18.5243
1.72129 2.53571 18.5922
1.73509 2.52191 18.6035
1.7213 2.5357 18.6149
1.63839 2.61861 18.7298
1.65223 2.60477 18.7375
1.62454 2.63246 18.7375
1.70749 2.54951 18.6035
1.72129 2.53571 18.5922
1.7213 2.5357 18.6149
1.70749 2.54951 18.5808
1.72129 2.53571 18.5922
1.70749 2.54951 18.6035
1.74889 2.50811 18.6603
1.76268 2.49432 18.6716
1.74889 2.50811 18.6832
1.74889 2.50811 18.6832
1.76268 2.49432 18.6716
1.76268 2.49432 18.6942
1.7213 2.5357 18.6832
1.7213 2.5357 18.6603
1.7351 2.5219 18.6716
1.7351 2.5219 18.6716
1.7351 2.5219 18.6942
1.7213 2.5357 18.6832
1.7351 2.5219 18.6716
1.7351 2.5219 18.6489
1.74889 2.50811 18.6603
1.7213 2.5357 18.6603
1.7351 2.5219 18.6489
1.7351 2.5219 18.6716
1.74889 2.50811 18.6603
1.74889 2.50811 18.6832
1.7351 2.5219 18.6716
1.7351 2.5219 18.6716
1.74889 2.50811 18.6832
1.7351 2.5219 18.6942
1.76268 2.49432 18.7375
1.7351 2.5219 18.7375
1.74889 2.50811 18.7298
1.74889 2.50811 18.7298
1.76268 2.49432 18.7164
1.76268 2.49432 18.7375
1.7213 2.5357 18.6832
1.7351 2.5219 18.6942
1.7213 2.5357 18.7062
1.457 2.8 18.7375
1.46971 2.78729 18.7211
1.47379 2.78321 18.7375
1.47379 2.78321 18.7375
1.46971 2.78729 18.7211
1.48501 2.77199 18.7153
1.48501 2.77199 18.7153
1.48882 2.76818 18.7375
1.47379 2.78321 18.7375
2.07978 2.17722 17.8457
2.06614 2.19086 17.8375
2.0934 2.1636 17.8375
2.06582 2.19118 17.881
2.07962 2.17738 17.8693
2.07959 2.17741 17.8922
2.0934 2.1636 17.9491
2.0934 2.1636 17.9717
2.07959 2.17741 17.9603
2.07959 2.17741 17.8922
2.07962 2.17738 17.8693
2.0934 2.1636 17.8814
2.0934 2.1636 17.8814
2.0934 2.1636 17.9039
2.07959 2.17741 17.8922
2.07959 2.17741 17.8922
2.0934 2.1636 17.9039
2.07958 2.17742 17.915
2.0934 2.1636 18.0621
2.07961 2.17739 18.0508
2.0934 2.1636 18.0395
2.07961 2.17739 18.0282
2.0934 2.1636 18.0169
2.0934 2.1636 18.0395
2.0934 2.1636 18.0395
2.07961 2.17739 18.0508
2.07961 2.17739 18.0282
2.0934 2.1636 17.9943
2.0796 2.1774 17.983
2.0934 2.1636 17.9717
1.95562 2.30138 17.8375
1.98319 2.27381 17.8375
1.9694 2.2876 17.8452
1.9694 2.2876 17.8452
[...]
<PointData Scalars="View Factor" >
<DataArray type="Float64" Name="View Factor" NumberOfComponents="1" format="ascii">
0.653181
0.653181
0.653181
0.616105
0.616105
0.616105
0.614012
0.614012
0.614012
0.401608
0.401608
0.401608
0.384916
0.384916
0.384916
0.458178
0.458178
0.458178
0.618813
0.618813
0.618813
0.64883
0.64883
0.64883
0.648868
0.648868
0.648868
0.582081
0.582081
0.582081
0.528288
0.528288
0.528288
0.506646
0.506646
0.506646
0.491586
0.491586
0.491586
0.493011
0.493011
0.493011
0.383176
0.383176
0.383176
0.414081
0.414081
0.414081
0.41903
0.41903
0.41903
0.419755
0.419755
0.419755
0.552936
0.552936
0.552936
0.579429
0.579429
0.579429
0.522294
0.522294
0.522294
0.405309
0.405309
0.405309
0.611281
0.611281
0.611281
0.570612
0.570612
0.570612
0.652735
0.652735
0.652735
0.649813
0.649813
0.649813
0.650003
0.650003
0.650003
0.652246
0.652246
0.652246
0.650993
0.650993
0.650993
0.652406
0.652406
0.652406
0.651341
0.651341
0.651341
0.650047
0.650047
0.650047
0.649886
0.649886
0.649886
0.652389
0.652389
0.652389
0.651348
0.651348
0.651348
0.646291
0.646291
0.646291
0.647563
0.647563
0.647563
0.619171
0.619171
0.619171
0.61938
0.61938
0.61938
0.623577
0.623577
0.623577
0.652566
0.652566
0.652566
0.652198
0.652198
0.652198
0.650991
0.650991
0.650991
0.587578
0.587578
0.587578
0.585045
0.585045
0.585045
0.585321
0.585321
0.585321
0.580833
0.580833
0.580833
0.599262
0.599262
0.599262
0.541413
0.541413
0.541413
0.533223
0.533223
0.533223
0.534707
0.534707
0.534707
0.537052
0.537052
0.537052
0.537783
0.537783
0.537783
0.527497
0.527497
0.527497
0.530819
0.530819
0.530819
0.530066
0.530066
0.530066
0.511414
0.511414
0.511414
0.503018
0.503018
0.503018
0.511704
0.511704
0.511704
0.505806
0.505806
0.505806
0.506908
0.506908
0.506908
0.563887
0.563887
0.563887
0.547652
0.547652
0.547652
0.544262
0.544262
0.544262
0.550292
0.550292
0.550292
0.549609
0.549609
0.549609
0.441102
0.441102
0.441102
0.408547
0.408547
0.408547
0.392342
0.392342
0.392342
0.398068
0.398068
0.398068
0.397989
0.397989
0.397989
0.498136
0.498136
0.498136
0.501721
0.501721
0.501721
0.507965
0.507965
0.507965
0.506584
0.506584
0.506584
0.489152
0.489152
0.489152
0.480972
0.480972
0.480972
0.502464
0.502464
0.502464
0.405046
0.405046
0.405046
0.404167
0.404167
0.404167
0.409868
0.409868
0.409868
0.400826
0.400826
0.400826
0.404822
0.404822
0.404822
0.410143
0.410143
0.410143
0.41639
0.41639
0.41639
0.397122
0.397122
0.397122
0.401863
0.401863
0.401863
0.407233
0.407233
0.407233
0.403724
0.403724
0.403724
0.399378
0.399378
0.399378
0.402578
0.402578
0.402578
0.41469
0.41469
0.41469
0.420877
0.420877
0.420877
0.409085
0.409085
0.409085
0.408565
0.408565
0.408565
0.426241
0.426241
0.426241
0.43286
0.43286
0.43286
0.426751
0.426751
0.426751
0.545089
0.545089
0.545089
0.541017
0.541017
0.541017
0.526724
0.526724
0.526724
0.565651
0.565651
0.565651
0.56631
0.56631
0.56631
0.548341
0.548341
0.548341
0.552255
0.552255
0.552255
0.582665
0.582665
0.582665
0.579737
0.579737
0.579737
0.56975
0.56975
0.56975
0.576316
0.576316
0.576316
0.500616
0.500616
0.500616
0.462873
0.462873
0.462873
0.399206
0.399206
0.399206
0.462193
0.462193
0.462193
0.466722
0.466722
0.466722
0.432954
0.432954
0.432954
0.427607
0.427607
0.427607
0.431945
0.431945
0.431945
0.426814
0.426814
0.426814
0.437889
0.437889
0.437889
0.437483
0.437483
0.437483
0.432662
0.432662
0.432662
0.427123
0.427123
0.427123
0.401857
0.401857
0.401857
0.405357
0.405357
0.405357
0.421183
0.421183
0.421183
0.389873
0.389873
0.389873
0.393315
0.393315
0.393315
0.391752
0.391752
0.391752
0.620787
0.620787
0.620787
0.617989
0.617989
0.617989
0.612333
0.612333
0.612333
0.61819
0.61819
0.61819
0.617479
0.617479
0.617479
0.616586
0.616586
0.616586
0.604098
0.604098
0.604098
0.606323
0.606323
0.606323
0.605087
0.605087
0.605087
0.610434
0.610434
0.610434
0.615507
0.615507
0.615507
0.614307
0.614307
0.614307
0.609127
0.609127
0.609127
0.612673
0.612673
0.612673
0.609535
0.609535
0.609535
0.605425
0.605425
0.605425
0.612085
0.612085
0.612085
0.614195
0.614195
0.614195
0.620179
0.620179
0.620179
0.617103
0.617103
0.617103
0.618357
0.618357
0.618357
0.584159
0.584159
0.584159
0.580371
0.580371
0.580371
0.569571
0.569571
0.569571
0.648421
0.648421
0.648421
0.617629
0.617629
0.617629
0.647902
0.647902
0.647902
0.637058
0.637058
0.637058
0.598251
0.598251
0.598251
0.600142
0.600142
0.600142
0.604315
0.604315
0.604315
0.603157
0.603157
0.603157
0.619384
0.619384
0.619384
0.619195
0.619195
0.619195
0.617147
0.617147
0.617147
0.615376
0.615376
0.615376
0.6129
0.6129
0.6129
0.613278
0.613278
0.613278
0.610674
0.610674
0.610674
0.60888
0.60888
0.60888
0.607543
0.607543
0.607543
0.647198
0.647198
0.647198
0.639242
0.639242
0.639242
0.639092
0.639092
0.639092
0.640797
0.640797
0.640797
0.637153
0.637153
0.637153
0.648576
0.648576
0.648576
0.648228
0.648228
0.648228
0.646771
0.646771
0.646771
0.647436
0.647436
0.647436
0.587146
0.587146
0.587146
0.599057
0.599057
0.599057
0.606007
0.606007
0.606007
0.606573
0.606573
0.606573
0.597233
0.597233
0.597233
0.594601
0.594601
0.594601
0.589081
0.589081
0.589081
0.6005
0.6005
0.6005
0.602844
0.602844
0.602844
0.600586
0.600586
0.600586
0.601222
0.601222
0.601222
0.59912
0.59912
0.59912
0.590568
0.590568
0.590568
0.589755
0.589755
0.589755
0.592918
0.592918
0.592918
0.59249
0.59249
0.59249
0.58749
0.58749
0.58749
0.587872
0.587872
0.587872
0.590392
0.590392
0.590392
0.577059
0.577059
0.577059
0.572365
0.572365
0.572365
0.575865
0.575865
0.575865
0.574868
0.574868
0.574868
0.573067
0.573067
0.573067
0.574676
0.574676
0.574676
0.577837
0.577837
0.577837
0.573878
0.573878
0.573878
0.576264
0.576264
0.576264
0.572192
0.572192
0.572192
0.57293
0.57293
0.57293
0.572943
0.572943
0.572943
0.584401
0.584401
0.584401
0.581929
0.581929
0.581929
0.582422
0.582422
0.582422
0.57872
0.57872
0.57872
0.577021
0.577021
0.577021
0.574767
0.574767
0.574767
0.574218
0.574218
0.574218
0.597429
0.597429
0.597429
0.597801
0.597801
0.597801
0.59089
0.59089
0.59089
0.592203
0.592203
0.592203
0.646673
0.646673
0.646673
0.616803
0.616803
0.616803
0.532011
0.532011
0.532011
0.520799
0.520799
0.520799
0.525972
0.525972
0.525972
0.5251
0.5251
0.5251
0.497913
0.497913
0.497913
0.497369
0.497369
0.497369
0.492858
0.492858
0.492858
0.512704
0.512704
0.512704
0.517295
0.517295
0.517295
0.505845
0.505845
0.505845
0.504029
0.504029
0.504029
0.509824
0.509824
0.509824
0.50892
0.50892
0.50892
0.55107
0.55107
0.55107
0.55403
0.55403
0.55403
0.554431
0.554431
0.554431
0.556702
0.556702
0.556702
0.557244
0.557244
0.557244
0.559776
0.559776
0.559776
0.56338
0.56338
0.56338
0.576956
0.576956
0.576956
0.582218
0.582218
0.582218
0.584644
0.584644
0.584644
0.560798
0.560798
0.560798
0.563678
0.563678
0.563678
0.54655
0.54655
0.54655
0.570536
0.570536
0.570536
0.569623
0.569623
0.569623
0.542587
0.542587
0.542587
0.549506
0.549506
0.549506
0.521964
0.521964
0.521964
0.519144
0.519144
0.519144
0.543132
0.543132
0.543132
0.54739
0.54739
0.54739
0.514519
0.514519
0.514519
0.509912
0.509912
0.509912
0.517605
0.517605
0.517605
0.516187
0.516187
0.516187
0.53681
0.53681
0.53681
0.52332
0.52332
0.52332
0.515891
0.515891
0.515891
0.512665
0.512665
0.512665
0.520333
0.520333
0.520333
0.521637
0.521637
0.521637
0.503432
0.503432
0.503432
0.525252
0.525252
0.525252
0.5241
0.5241
0.5241
0.532373
0.532373
0.532373
0.528344
0.528344
0.528344
0.527378
0.527378
0.527378
0.568203
0.568203
0.568203
0.566573
0.566573
0.566573
0.567639
0.567639
0.567639
0.570849
0.570849
0.570849
0.578239
0.578239
0.578239
0.576279
0.576279
0.576279
0.562652
0.562652
0.562652
0.560497
0.560497
0.560497
0.561128
0.561128
0.561128
0.552114
0.552114
0.552114
0.557569
0.557569
0.557569
0.555244
0.555244
0.555244
0.447549
0.447549
0.447549
0.411059
0.411059
0.411059
0.405698
0.405698
0.405698
0.415404
0.415404
0.415404
0.383701
0.383701
0.383701
0.382321
0.382321
0.382321
0.378751
0.378751
0.378751
0.435718
0.435718
0.435718
0.429025
0.429025
0.429025
0.40505
0.40505
0.40505
0.471071
0.471071
0.471071
0.50029
0.50029
0.50029
0.503545
0.503545
0.503545
0.497953
0.497953
0.497953
0.495278
0.495278
0.495278
0.486493
0.486493
0.486493
0.490528
0.490528
0.490528
0.528548
0.528548
0.528548
0.410566
0.410566
0.410566
0.410487
0.410487
0.410487
0.416503
0.416503
0.416503
0.416545
0.416545
0.416545
0.417211
0.417211
0.417211
0.416093
0.416093
0.416093
0.431931
0.431931
0.431931
0.411577
0.411577
0.411577
0.412533
0.412533
0.412533
0.400107
0.400107
0.400107
0.406406
0.406406
0.406406
0.393847
0.393847
0.393847
0.399052
0.399052
0.399052
0.404386
0.404386
0.404386
0.409253
0.409253
0.409253
0.40786
0.40786
0.40786
0.396537
0.396537
0.396537
0.403175
0.403175
0.403175
0.389301
0.389301
0.389301
0.395056
0.395056
0.395056
0.400298
0.400298
0.400298
0.389573
0.389573
0.389573
0.39464
0.39464
0.39464
0.391587
0.391587
0.391587
0.398604
0.398604
0.398604
0.534728
0.534728
0.534728
0.538287
0.538287
0.538287
0.537604
0.537604
0.537604
0.530459
0.530459
0.530459
0.527275
0.527275
0.527275
0.536119
0.536119
0.536119
0.535286
0.535286
0.535286
0.531987
0.531987
0.531987
0.531569
0.531569
0.531569
0.55535
0.55535
0.55535
0.56205
0.56205
0.56205
0.559103
0.559103
0.559103
0.582769
0.582769
0.582769
0.582557
0.582557
0.582557
0.585493
0.585493
0.585493
0.585369
0.585369
0.585369
0.504912
0.504912
0.504912
0.433174
0.433174
0.433174
0.444521
0.444521
0.444521
0.44376
0.44376
0.44376
0.438579
0.438579
0.438579
0.438159
0.438159
0.438159
0.455999
0.455999
0.455999
0.449664
0.449664
0.449664
0.444407
0.444407
0.444407
0.438568
0.438568
0.438568
0.438834
0.438834
0.438834
0.459788
0.459788
0.459788
0.45876
0.45876
0.45876
0.464112
0.464112
0.464112
0.464665
0.464665
0.464665
0.461517
0.461517
0.461517
0.455156
0.455156
0.455156
0.460228
0.460228
0.460228
0.46562
0.46562
0.46562
0.466013
0.466013
0.466013
0.515221
0.515221
0.515221
0.523378
0.523378
0.523378
0.471356
0.471356
0.471356
0.496618
0.496618
0.496618
0.501097
0.501097
0.501097
0.505903
0.505903
0.505903
0.442492
0.442492
0.442492
0.452806
0.452806
0.452806
0.447947
0.447947
0.447947
0.431529
0.431529
0.431529
0.421694
0.421694
0.421694
0.41056
0.41056
0.41056
0.416483
0.416483
0.416483
0.421883
0.421883
0.421883
0.401677
0.401677
0.401677
0.396423
0.396423
0.396423
0.398781
0.398781
0.398781
0.394779
0.394779
0.394779
0.397008
0.397008
0.397008
0.398202
0.398202
0.398202
0.393006
0.393006
0.393006
0.40028
0.40028
0.40028
0.396408
0.396408
0.396408
0.393876
0.393876
0.393876
0.391728
0.391728
0.391728
0.397751
0.397751
0.397751
0.401741
0.401741
0.401741
0.618636
0.618636
0.618636
0.620122
0.620122
0.620122
0.619541
0.619541
0.619541
0.61585
0.61585
0.61585
0.619026
0.619026
0.619026
0.620498
0.620498
0.620498
0.619729
0.619729
0.619729
0.617059
0.617059
0.617059
0.616369
0.616369
0.616369
0.596524
0.596524
0.596524
0.59599
0.59599
0.59599
0.602792
0.602792
0.602792
0.601747
0.601747
0.601747
0.600366
0.600366
0.600366
0.609324
0.609324
0.609324
0.607262
0.607262
0.607262
0.608433
0.608433
0.608433
0.613891
0.613891
0.613891
0.612141
0.612141
0.612141
0.612636
0.612636
0.612636
0.617368
0.617368
0.617368
0.617433
0.617433
0.617433
0.616429
0.616429
0.616429
0.61546
0.61546
0.61546
0.614289
0.614289
0.614289
0.615228
0.615228
0.615228
0.613538
0.613538
0.613538
0.610958
0.610958
0.610958
0.610188
0.610188
0.610188
0.611826
0.611826
0.611826
0.61727
0.61727
0.61727
0.620801
0.620801
0.620801
0.616718
0.616718
0.616718
0.618458
0.618458
0.618458
0.61798
0.61798
0.61798
0.618136
0.618136
0.618136
0.61511
0.61511
0.61511
0.609903
0.609903
0.609903
0.612738
0.612738
0.612738
0.615364
0.615364
0.615364
0.612444
0.612444
0.612444
0.609871
0.609871
0.609871
0.626685
0.626685
0.626685
0.633597
0.633597
0.633597
0.630955
0.630955
0.630955
0.632989
0.632989
0.632989
0.602176
0.602176
0.602176
0.607155
0.607155
0.607155
0.614465
0.614465
0.614465
0.608396
0.608396
0.608396
0.610313
0.610313
0.610313
0.610857
0.610857
0.610857
0.60898
0.60898
0.60898
0.613367
0.613367
0.613367
0.615284
0.615284
0.615284
0.616457
0.616457
0.616457
0.626895
0.626895
0.626895
0.624199
0.624199
0.624199
0.585711
0.585711
0.585711
0.584792
0.584792
0.584792
0.595266
0.595266
0.595266
0.588998
0.588998
0.588998
0.584152
0.584152
0.584152
0.58052
0.58052
0.58052
0.572036
0.572036
0.572036
0.555094
0.555094
0.555094
0.571284
0.571284
0.571284
0.586958
0.586958
0.586958
0.585691
0.585691
0.585691
0.575195
0.575195
0.575195
0.574329
0.574329
0.574329
0.578814
0.578814
0.578814
0.581416
0.581416
0.581416
0.647235
0.647235
0.647235
0.646222
0.646222
0.646222
0.647456
0.647456
0.647456
0.644786
0.644786
0.644786
0.651618
0.651618
0.651618
0.650665
0.650665
0.650665
0.629831
0.629831
0.629831
0.621061
0.621061
0.621061
0.618987
0.618987
0.618987
0.615598
0.615598
0.615598
0.617898
0.617898
0.617898
0.61891
0.61891
0.61891
0.614398
0.614398
0.614398
0.639373
0.639373
0.639373
0.640794
0.640794
0.640794
0.643501
0.643501
0.643501
0.650668
0.650668
0.650668
0.649044
0.649044
0.649044
0.636846
0.636846
0.636846
0.643543
0.643543
0.643543
0.636108
0.636108
0.636108
0.633384
0.633384
0.633384
0.634223
0.634223
0.634223
0.601995
0.601995
0.601995
0.599084
0.599084
0.599084
0.596733
0.596733
0.596733
0.58772
0.58772
0.58772
0.591075
0.591075
0.591075
0.615665
0.615665
0.615665
0.62296
0.62296
0.62296
0.620971
0.620971
0.620971
0.626222
0.626222
0.626222
0.625165
0.625165
0.625165
0.623033
0.623033
0.623033
0.623113
0.623113
0.623113
0.621289
0.621289
0.621289
0.621309
0.621309
0.621309
0.621808
0.621808
0.621808
0.623824
0.623824
0.623824
0.624331
0.624331
0.624331
0.622782
0.622782
0.622782
0.620827
0.620827
0.620827
0.620362
0.620362
0.620362
0.615545
0.615545
0.615545
0.617527
0.617527
0.617527
0.617509
0.617509
0.617509
0.606654
0.606654
0.606654
0.603943
0.603943
0.603943
0.604461
0.604461
0.604461
0.602929
0.602929
0.602929
0.61163
0.61163
0.61163
0.610063
0.610063
0.610063
0.606832
0.606832
0.606832
0.607699
0.607699
0.607699
0.641819
0.641819
0.641819
0.646289
0.646289
0.646289
0.642693
0.642693
0.642693
0.644084
0.644084
0.644084
0.645789
0.645789
0.645789
0.641227
0.641227
0.641227
0.641339
0.641339
0.641339
0.643236
0.643236
0.643236
0.642969
0.642969
0.642969
0.645012
0.645012
0.645012
0.644862
0.644862
0.644862
0.568455
0.568455
0.568455
0.567679
0.567679
0.567679
0.570368
0.570368
0.570368
0.598174
0.598174
0.598174
0.611392
0.611392
0.611392
0.609215
0.609215
0.609215
0.607201
0.607201
0.607201
0.59109
0.59109
0.59109
0.593879
0.593879
0.593879
0.594683
0.594683
0.594683
0.595736
0.595736
0.595736
0.586186
0.586186
0.586186
0.584018
0.584018
0.584018
0.598172
0.598172
0.598172
0.595688
0.595688
0.595688
0.602797
0.602797
0.602797
0.602255
0.602255
0.602255
0.604648
0.604648
0.604648
0.604938
0.604938
0.604938
0.605076
0.605076
0.605076
0.60494
0.60494
0.60494
0.60706
0.60706
0.60706
0.607289
0.607289
0.607289
0.601842
0.601842
0.601842
0.602594
0.602594
0.602594
0.599629
0.599629
0.599629
0.600327
0.600327
0.600327
0.60254
0.60254
0.60254
0.602208
0.602208
0.602208
0.590734
0.590734
0.590734
0.593292
0.593292
0.593292
0.593258
0.593258
0.593258
0.590634
0.590634
0.590634
0.588163
0.588163
0.588163
0.588093
0.588093
0.588093
0.589562
0.589562
0.589562
0.595479
0.595479
0.595479
0.597792
0.597792
0.597792
0.597426
0.597426
0.597426
0.594719
0.594719
0.594719
0.592811
0.592811
0.592811
0.592412
0.592412
0.592412
0.619638
0.619638
0.619638
0.617966
0.617966
0.617966
0.618478
0.618478
0.618478
0.620628
0.620628
0.620628
0.626513
0.626513
0.626513
0.628291
0.628291
0.628291
0.628387
0.628387
0.628387
0.62667
0.62667
0.62667
0.624933
0.624933
0.624933
0.624875
0.624875
0.624875
0.577713
0.577713
0.577713
0.578558
0.578558
0.578558
0.580804
0.580804
0.580804
0.579146
0.579146
0.579146
0.581391
0.581391
0.581391
0.582204
0.582204
0.582204
0.583441
0.583441
0.583441
0.578199
0.578199
0.578199
0.57697
0.57697
0.57697
0.575321
0.575321
0.575321
0.575951
0.575951
0.575951
0.579818
0.579818
0.579818
0.579218
0.579218
0.579218
0.596633
0.596633
0.596633
0.595084
0.595084
0.595084
0.593847
0.593847
0.593847
0.590782
0.590782
0.590782
0.591786
0.591786
0.591786
0.59469
0.59469
0.59469
0.593036
0.593036
0.593036
0.592547
0.592547
0.592547
0.593737
0.593737
0.593737
0.595868
0.595868
0.595868
0.595404
0.595404
0.595404
0.61643
0.61643
0.61643
0.624708
0.624708
0.624708
0.622406
0.622406
0.622406
0.586518
0.586518
0.586518
0.587768
0.587768
0.587768
0.577888
0.577888
0.577888
0.581946
0.581946
0.581946
0.583268
0.583268
0.583268
0.581252
0.581252
0.581252
0.576042
0.576042
0.576042
0.575767
0.575767
0.575767
0.577039
0.577039
0.577039
0.574836
0.574836
0.574836
0.601699
0.601699
0.601699
0.604517
0.604517
0.604517
0.605554
0.605554
0.605554
0.607937
0.607937
0.607937
0.611072
0.611072
0.611072
0.613229
0.613229
0.613229
0.610355
0.610355
0.610355
0.612138
0.612138
0.612138
0.615007
0.615007
0.615007
0.614631
0.614631
0.614631
0.600567
0.600567
0.600567
0.583887
0.583887
0.583887
0.496561
0.496561
0.496561
0.500854
0.500854
0.500854
0.499941
0.499941
0.499941
0.474162
0.474162
0.474162
0.518185
0.518185
0.518185
0.519745
0.519745
0.519745
0.515289
0.515289
0.515289
0.5145
0.5145
0.5145
0.523333
0.523333
0.523333
0.522562
0.522562
0.522562
0.561648
0.561648
0.561648
0.564847
0.564847
0.564847
0.558026
0.558026
0.558026
0.558246
0.558246
0.558246
0.547299
0.547299
0.547299
0.543773
0.543773
0.543773
0.539819
0.539819
0.539819
0.539401
0.539401
0.539401
0.545774
0.545774
0.545774
0.549705
0.549705
0.549705
0.550258
0.550258
0.550258
0.546886
0.546886
0.546886
0.542384
0.542384
0.542384
0.542942
0.542942
0.542942
0.577095
0.577095
0.577095
0.579893
0.579893
0.579893
0.579979
0.579979
0.579979
0.576958
0.576958
0.576958
0.570957
0.570957
0.570957
0.570259
0.570259
0.570259
0.573534
0.573534
0.573534
0.573869
0.573869
0.573869
0.571127
0.571127
0.571127
0.574176
0.574176
0.574176
0.574126
0.574126
0.574126
0.568071
0.568071
0.568071
0.561663
0.561663
0.561663
0.561249
0.561249
0.561249
0.56708
0.56708
0.56708
0.569772
0.569772
0.569772
0.542068
0.542068
0.542068
0.538956
0.538956
0.538956
0.529121
0.529121
0.529121
0.526166
0.526166
0.526166
0.523423
0.523423
0.523423
0.524825
0.524825
0.524825
0.528949
0.528949
0.528949
0.568972
0.568972
0.568972
0.566731
0.566731
0.566731
0.570239
0.570239
0.570239
0.571384
0.571384
0.571384
0.565253
0.565253
0.565253
0.549263
0.549263
0.549263
0.547427
0.547427
0.547427
0.549618
0.549618
0.549618
0.55347
0.55347
0.55347
0.565938
0.565938
0.565938
0.566948
0.566948
0.566948
0.56517
0.56517
0.56517
0.56233
0.56233
0.56233
0.569651
0.569651
0.569651
0.568807
0.568807
0.568807
0.567838
0.567838
0.567838
0.566117
0.566117
0.566117
0.565134
0.565134
0.565134
0.564257
0.564257
0.564257
0.561286
0.561286
0.561286
0.563117
0.563117
0.563117
0.543915
0.543915
0.543915
0.54164
0.54164
0.54164
0.548649
0.548649
0.548649
0.547397
0.547397
0.547397
0.527519
0.527519
0.527519
0.530285
0.530285
0.530285
0.534246
0.534246
0.534246
0.535505
0.535505
0.535505
0.52713
0.52713
0.52713
0.525908
0.525908
0.525908
0.528802
0.528802
0.528802
0.531222
0.531222
0.531222
0.534026
0.534026
0.534026
0.532827
0.532827
0.532827
0.502171
0.502171
0.502171
0.49952
0.49952
0.49952
0.504486
0.504486
0.504486
0.505812
0.505812
0.505812
0.495772
0.495772
0.495772
0.497098
0.497098
0.497098
0.509513
0.509513
0.509513
0.50833
0.50833
0.50833
0.535374
0.535374
0.535374
0.541008
0.541008
0.541008
0.543554
0.543554
0.543554
0.541926
0.541926
0.541926
0.546261
0.546261
0.546261
0.545459
0.545459
0.545459
0.539976
0.539976
0.539976
0.539149
0.539149
0.539149
0.573796
0.573796
0.573796
0.571881
0.571881
0.571881
0.571276
0.571276
0.571276
0.570301
0.570301
0.570301
0.575333
0.575333
0.575333
0.574392
0.574392
0.574392
0.582729
0.582729
0.582729
0.579611
0.579611
0.579611
0.578648
0.578648
0.578648
0.581855
0.581855
0.581855
0.583136
0.583136
0.583136
0.575232
0.575232
0.575232
0.57274
0.57274
0.57274
0.571613
0.571613
0.571613
0.573015
0.573015
0.573015
0.5768
0.5768
0.5768
0.575496
0.575496
0.575496
0.576588
0.576588