<VTKFile type="UnstructuredGrid" version="1.0">
<UnstructuredGrid>
<Piece NumberOfPoints="11046" NumberOfCells="3682">
<Points>
<DataArray type="Float64" NumberOfComponents="3" format="ascii">
1.77647 2.48053 5.3052
1.76268 2.49432 5.2975
1.79026 2.46674 5.2975
1.46971 2.78729 5.31392
1.457 2.8 5.2975
1.47379 2.78321 5.2975
1.46971 2.78729 5.31392
1.457 2.8 5.3214
1.457 2.8 5.2975
1.79026 2.46674 6.1975
1.76268 2.49432 6.1975
1.77647 2.48053 6.1898
1.95562 2.30138 6.17646
1.95562 2.30138 6.1975
1.94184 2.31516 6.18981
1.7213 2.5357 6.07487
1.73509 2.52191 6.06352
1.7351 2.5219 6.08621
1.94184 2.31516 5.30519
1.95562 2.30138 5.2975
1.95562 2.30138 5.31854
1.76268 2.49432 5.34081
1.77647 2.48053 5.3288
1.77647 2.48053 5.35183
1.77647 2.48053 5.35183
1.77647 2.48053 5.3288
1.79025 2.46675 5.34081
1.79025 2.46675 5.72498
1.80403 2.45297 5.73624
1.79025 2.46675 5.7475
1.457 2.8 5.77001
1.457 2.8 5.7475
1.471 2.786 5.75875
2.0934 2.1636 5.9729
2.07961 2.17739 5.9842
2.07961 2.17739 5.96161
1.95561 2.30139 5.97296
1.96939 2.28761 5.96166
1.96938 2.28762 5.98426
1.96938 2.28762 5.98426
1.96939 2.28761 5.96166
1.98316 2.27384 5.97296
1.94184 2.31516 6.18981
1.95562 2.30138 6.1975
1.92806 2.32894 6.1975
1.84538 2.41162 6.1542
1.85916 2.39784 6.1662
1.84538 2.41162 6.17645
1.87294 2.38406 6.1542
1.85916 2.39784 6.1662
1.85916 2.39784 6.14317
1.85916 2.39784 6.14317
1.85916 2.39784 6.1662
1.84538 2.41162 6.1542
1.79025 2.46675 5.83759
1.77646 2.48054 5.84885
1.77646 2.48054 5.82632
1.79025 2.46675 5.7475
1.80403 2.45297 5.73624
1.80403 2.45297 5.75876
1.77646 2.48054 5.9165
1.79025 2.46675 5.92778
1.77646 2.48054 5.93907
1.77647 2.48053 6.1898
1.76268 2.49432 6.1975
1.76268 2.49432 6.17645
2.07959 2.17741 5.42031
2.0934 2.1636 5.43168
2.0796 2.1774 5.44295
1.92805 2.32895 5.72498
1.94183 2.31517 5.71372
1.94183 2.31517 5.73624
1.74889 2.50811 5.3052
1.7351 2.5219 5.2975
1.76268 2.49432 5.2975
1.76268 2.49432 5.34081
1.74889 2.50811 5.3288
1.76268 2.49432 5.31855
1.76268 2.49432 5.31855
1.77647 2.48053 5.3288
1.76268 2.49432 5.34081
1.76268 2.49432 5.31855
1.74889 2.50811 5.3052
1.76268 2.49432 5.2975
1.74889 2.50811 5.3288
1.74889 2.50811 5.3052
1.76268 2.49432 5.31855
1.76268 2.49432 5.31855
1.76268 2.49432 5.2975
1.77647 2.48053 5.3052
1.77647 2.48053 5.3052
1.77647 2.48053 5.3288
1.76268 2.49432 5.31855
1.79025 2.46675 5.34081
1.77647 2.48053 5.3288
1.79025 2.46675 5.31855
1.79025 2.46675 5.31855
1.80404 2.45296 5.3288
1.79025 2.46675 5.34081
1.77647 2.48053 5.3052
1.79026 2.46674 5.2975
1.79025 2.46675 5.31855
1.79025 2.46675 5.31855
1.77647 2.48053 5.3288
1.77647 2.48053 5.3052
1.77647 2.48053 5.37466
1.77647 2.48053 5.35183
1.79025 2.46675 5.3634
1.79025 2.46675 5.3634
1.77647 2.48053 5.35183
1.79025 2.46675 5.34081
1.81782 2.43918 5.56722
1.81782 2.43918 5.54464
1.8316 2.4254 5.55593
1.80403 2.45297 5.55593
1.81782 2.43918 5.54464
1.81782 2.43918 5.56722
1.92806 2.32894 5.2975
1.95562 2.30138 5.2975
1.94184 2.31516 5.30519
1.79026 2.46674 5.2975
1.81782 2.43918 5.2975
1.80404 2.45296 5.3052
1.80404 2.45296 5.3052
1.79025 2.46675 5.31855
1.79026 2.46674 5.2975
1.80404 2.45296 5.3288
1.79025 2.46675 5.31855
1.80404 2.45296 5.3052
1.80403 2.45297 5.71372
1.79025 2.46675 5.72498
1.79025 2.46675 5.70246
1.80403 2.45297 5.73624
1.79025 2.46675 5.72498
1.80403 2.45297 5.71372
1.80403 2.45297 5.71372
1.81782 2.43918 5.72498
1.80403 2.45297 5.73624
2.07962 2.17738 5.69121
2.0934 2.1636 5.67994
2.0934 2.1636 5.70247
2.0934 2.1636 5.56725
2.07961 2.17739 5.55596
2.0934 2.1636 5.54468
2.0934 2.1636 5.86011
2.0934 2.1636 5.88265
2.07962 2.17738 5.87138
2.07962 2.17738 5.89392
2.06584 2.19116 5.9052
2.06584 2.19116 5.88265
2.07962 2.17738 5.89392
2.0934 2.1636 5.88265
2.0934 2.1636 5.90519
2.06584 2.19116 5.88265
2.07962 2.17738 5.87138
2.07962 2.17738 5.89392
2.07962 2.17738 5.89392
2.07962 2.17738 5.87138
2.0934 2.1636 5.88265
2.07962 2.17738 5.91647
2.0934 2.1636 5.90519
2.0934 2.1636 5.92775
2.07962 2.17738 5.91647
2.07962 2.17738 5.89392
2.0934 2.1636 5.90519
2.06584 2.19116 5.9052
2.07962 2.17738 5.89392
2.07962 2.17738 5.91647
2.0934 2.1636 5.9729
2.07961 2.17739 5.96161
2.0934 2.1636 5.95032
2.05205 2.20495 5.98423
2.03827 2.21873 5.97293
2.05205 2.20495 5.96163
2.05205 2.20495 5.93905
2.05205 2.20495 5.96163
2.03827 2.21873 5.95034
2.03827 2.21873 5.95034
2.03827 2.21873 5.97293
2.02449 2.23251 5.96164
2.03827 2.21873 5.95034
2.05205 2.20495 5.96163
2.03827 2.21873 5.97293
2.0934 2.1636 5.79253
2.07962 2.17738 5.78128
2.0934 2.1636 5.77002
2.07962 2.17738 5.84885
2.0934 2.1636 5.83758
2.0934 2.1636 5.86011
2.0934 2.1636 5.86011
2.07962 2.17738 5.87138
2.07962 2.17738 5.84885
2.07962 2.17738 5.84885
2.07962 2.17738 5.82632
2.0934 2.1636 5.83758
2.06584 2.19116 5.83758
2.07962 2.17738 5.82632
2.07962 2.17738 5.84885
1.98316 2.27384 6.08623
1.96939 2.28761 6.09761
1.96939 2.28761 6.07489
1.9694 2.2876 6.14319
1.95562 2.30138 6.15421
1.95562 2.30138 6.13161
1.94184 2.31516 6.16621
1.95562 2.30138 6.17646
1.94184 2.31516 6.18981
1.94184 2.31516 6.16621
1.95562 2.30138 6.15421
1.95562 2.30138 6.17646
1.98319 2.27381 6.17647
1.98319 2.27381 6.15422
1.99698 2.26002 6.16624
1.98316 2.27384 5.97296
1.96939 2.28761 5.96166
1.98316 2.27384 5.95036
1.96939 2.28761 5.96166
1.96939 2.28761 5.93907
1.98316 2.27384 5.95036
1.98316 2.27384 5.92778
1.99694 2.26006 5.93907
1.98316 2.27384 5.95036
1.98316 2.27384 5.95036
1.96939 2.28761 5.93907
1.98316 2.27384 5.92778
1.98316 2.27384 5.99557
1.96938 2.28762 5.98426
1.98316 2.27384 5.97296
1.98316 2.27384 5.99557
1.99694 2.26006 6.00688
1.98316 2.27384 6.0182
2.0934 2.1636 5.99549
2.07961 2.17739 5.9842
2.0934 2.1636 5.9729
1.79025 2.46675 6.17645
1.79026 2.46674 6.1975
1.77647 2.48053 6.1898
1.81782 2.43918 6.17645
1.81782 2.43918 6.1975
1.80404 2.45296 6.1898
1.80404 2.45296 6.1898
1.80404 2.45296 6.1662
1.81782 2.43918 6.17645
1.80404 2.45296 6.1898
1.81782 2.43918 6.1975
1.79026 2.46674 6.1975
1.79026 2.46674 6.1975
1.79025 2.46675 6.17645
1.80404 2.45296 6.1898
1.80404 2.45296 6.1898
1.79025 2.46675 6.17645
1.80404 2.45296 6.1662
1.80404 2.45296 6.1662
1.79025 2.46675 6.17645
1.79025 2.46675 6.15419
1.85916 2.39784 6.18981
1.87294 2.38406 6.1975
1.84538 2.41162 6.1975
1.84538 2.41162 6.1975
1.84538 2.41162 6.17645
1.85916 2.39784 6.18981
1.85916 2.39784 6.18981
1.84538 2.41162 6.17645
1.85916 2.39784 6.1662
1.8316 2.4254 6.1898
1.81782 2.43918 6.1975
1.81782 2.43918 6.17645
1.84538 2.41162 6.1975
1.81782 2.43918 6.1975
1.8316 2.4254 6.1898
1.8316 2.4254 6.1898
1.84538 2.41162 6.17645
1.84538 2.41162 6.1975
1.84538 2.41162 6.1542
1.84538 2.41162 6.17645
1.8316 2.4254 6.1662
1.8316 2.4254 6.1662
1.8316 2.4254 6.14317
1.84538 2.41162 6.1542
1.8316 2.4254 6.1662
1.8316 2.4254 6.1898
1.81782 2.43918 6.17645
1.84538 2.41162 6.17645
1.8316 2.4254 6.1898
1.8316 2.4254 6.1662
1.84538 2.41162 6.1316
1.85916 2.39784 6.14317
1.84538 2.41162 6.1542
1.84538 2.41162 6.1316
1.8316 2.4254 6.14317
1.8316 2.4254 6.12034
1.84538 2.41162 6.1542
1.8316 2.4254 6.14317
1.84538 2.41162 6.1316
1.76267 2.49433 5.86012
1.77646 2.48054 5.84885
1.77646 2.48054 5.87139
1.77646 2.48054 5.87139
1.76267 2.49433 5.88266
1.76267 2.49433 5.86012
1.79025 2.46675 5.90522
1.79025 2.46675 5.92778
1.77646 2.48054 5.9165
1.76267 2.49433 5.79254
1.77646 2.48054 5.78128
1.77646 2.48054 5.8038
1.77646 2.48054 5.8038
1.77646 2.48054 5.78128
1.79025 2.46675 5.79254
1.76267 2.49433 5.83759
1.77646 2.48054 5.84885
1.76267 2.49433 5.86012
1.76267 2.49433 5.83759
1.77646 2.48054 5.82632
1.77646 2.48054 5.84885
1.80403 2.45297 5.73624
1.81782 2.43918 5.72498
1.81782 2.43918 5.7475
1.81782 2.43918 5.7475
1.80403 2.45297 5.75876
1.80403 2.45297 5.73624
1.79025 2.46675 5.79254
1.77646 2.48054 5.78128
1.79025 2.46675 5.77002
1.79025 2.46675 5.7475
1.80403 2.45297 5.75876
1.79025 2.46675 5.77002
1.79025 2.46675 5.97296
1.79025 2.46675 5.99557
1.77646 2.48054 5.98426
1.72129 2.53571 6.05218
1.73509 2.52191 6.06352
1.7213 2.5357 6.07487
1.63839 2.61861 6.18976
1.65223 2.60477 6.1975
1.62454 2.63246 6.1975
1.70749 2.54951 6.06352
1.72129 2.53571 6.05218
1.7213 2.5357 6.07487
1.70749 2.54951 6.04084
1.72129 2.53571 6.05218
1.70749 2.54951 6.06352
1.74889 2.50811 6.12034
1.76268 2.49432 6.1316
1.74889 2.50811 6.14317
1.74889 2.50811 6.14317
1.76268 2.49432 6.1316
1.76268 2.49432 6.15419
1.7213 2.5357 6.14316
1.7213 2.5357 6.12034
1.7351 2.5219 6.1316
1.7351 2.5219 6.1316
1.7351 2.5219 6.15419
1.7213 2.5357 6.14316
1.7351 2.5219 6.1316
1.7351 2.5219 6.10891
1.74889 2.50811 6.12034
1.7213 2.5357 6.12034
1.7351 2.5219 6.10891
1.7351 2.5219 6.1316
1.74889 2.50811 6.12034
1.74889 2.50811 6.14317
1.7351 2.5219 6.1316
1.7351 2.5219 6.1316
1.74889 2.50811 6.14317
1.7351 2.5219 6.15419
1.76268 2.49432 6.1975
1.7351 2.5219 6.1975
1.74889 2.50811 6.1898
1.74889 2.50811 6.1898
1.76268 2.49432 6.17645
1.76268 2.49432 6.1975
1.7213 2.5357 6.14316
1.7351 2.5219 6.15419
1.7213 2.5357 6.16619
1.457 2.8 6.1975
1.46971 2.78729 6.18108
1.47379 2.78321 6.1975
1.47379 2.78321 6.1975
1.46971 2.78729 6.18108
1.48501 2.77199 6.17531
1.48501 2.77199 6.17531
1.48882 2.76818 6.1975
1.47379 2.78321 6.1975
2.07978 2.17722 5.30574
2.06614 2.19086 5.2975
2.0934 2.1636 5.2975
2.06582 2.19118 5.34099
2.07962 2.17738 5.32927
2.07959 2.17741 5.35222
2.0934 2.1636 5.40907
2.0934 2.1636 5.43168
2.07959 2.17741 5.42031
2.07959 2.17741 5.35222
2.07962 2.17738 5.32927
2.0934 2.1636 5.34145
2.0934 2.1636 5.34145
2.0934 2.1636 5.36391
2.07959 2.17741 5.35222
2.07959 2.17741 5.35222
2.0934 2.1636 5.36391
2.07958 2.17742 5.37497
2.0934 2.1636 5.5221
2.07961 2.17739 5.5108
2.0934 2.1636 5.49951
2.07961 2.17739 5.4882
2.0934 2.1636 5.47691
2.0934 2.1636 5.49951
2.0934 2.1636 5.49951
2.07961 2.17739 5.5108
2.07961 2.17739 5.4882
2.0934 2.1636 5.4543
2.0796 2.1774 5.44295
2.0934 2.1636 5.43168
1.95562 2.30138 5.2975
1.98319 2.27381 5.2975
1.9694 2.2876 5.30518
1.9694 2.2876 5.30518
1.95562 2.30138 5.31854
1.95562 2.30138 5.2975
1.94183 2.31517 5.46547
1.94183 2.31517 5.48811
[...]
<PointData Scalars="View Factor" >
<DataArray type="Float64" Name="View Factor" NumberOfComponents="1" format="ascii">
0.724842
0.724842
0.724842
0.721608
0.721608
0.721608
0.721095
0.721095
0.721095
0.724805
0.724805
0.724805
0.669096
0.669096
0.669096
0.729102
0.729102
0.729102
0.669122
0.669122
0.669122
0.725395
0.725395
0.725395
0.724256
0.724256
0.724256
0.722296
0.722296
0.722296
0.721112
0.721112
0.721112
0.664301
0.664301
0.664301
0.663543
0.663543
0.663543
0.66373
0.66373
0.66373
0.674499
0.674499
0.674499
0.711067
0.711067
0.711067
0.707232
0.707232
0.707232
0.709841
0.709841
0.709841
0.724238
0.724238
0.724238
0.721578
0.721578
0.721578
0.724234
0.724234
0.724234
0.725883
0.725883
0.725883
0.664315
0.664315
0.664315
0.677075
0.677075
0.677075
0.727734
0.727734
0.727734
0.72688
0.72688
0.72688
0.725918
0.725918
0.725918
0.726882
0.726882
0.726882
0.72732
0.72732
0.72732
0.725919
0.725919
0.725919
0.725395
0.725395
0.725395
0.723641
0.723641
0.723641
0.72231
0.72231
0.72231
0.723641
0.723641
0.723641
0.724257
0.724257
0.724257
0.724255
0.724255
0.724255
0.723639
0.723639
0.723639
0.717447
0.717447
0.717447
0.719217
0.719217
0.719217
0.674526
0.674526
0.674526
0.720842
0.720842
0.720842
0.722311
0.722311
0.722311
0.721594
0.721594
0.721594
0.722297
0.722297
0.722297
0.721581
0.721581
0.721581
0.720039
0.720039
0.720039
0.664262
0.664262
0.664262
0.664266
0.664266
0.664266
0.664257
0.664257
0.664257
0.664412
0.664412
0.664412
0.664256
0.664256
0.664256
0.664381
0.664381
0.664381
0.664303
0.664303
0.664303
0.664256
0.664256
0.664256
0.664302
0.664302
0.664302
0.664381
0.664381
0.664381
0.664254
0.664254
0.664254
0.664479
0.664479
0.664479
0.66448
0.66448
0.66448
0.66445
0.66445
0.66445
0.664476
0.664476
0.664476
0.664259
0.664259
0.664259
0.664258
0.664258
0.664258
0.664304
0.664304
0.664304
0.664304
0.664304
0.664304
0.664382
0.664382
0.664382
0.663727
0.663727
0.663727
0.663437
0.663437
0.663437
0.671847
0.671847
0.671847
0.669097
0.669097
0.669097
0.66397
0.66397
0.66397
0.663817
0.663817
0.663817
0.663731
0.663731
0.663731
0.663976
0.663976
0.663976
0.663818
0.663818
0.663818
0.663816
0.663816
0.663816
0.663974
0.663974
0.663974
0.664254
0.664254
0.664254
0.723605
0.723605
0.723605
0.719191
0.719191
0.719191
0.72002
0.72002
0.72002
0.720807
0.720807
0.720807
0.722277
0.722277
0.722277
0.72156
0.72156
0.72156
0.722277
0.722277
0.722277
0.708562
0.708562
0.708562
0.711066
0.711066
0.711066
0.70984
0.70984
0.70984
0.71742
0.71742
0.71742
0.715483
0.715483
0.715483
0.713369
0.713369
0.713369
0.71337
0.71337
0.71337
0.71445
0.71445
0.71445
0.716473
0.716473
0.716473
0.71445
0.71445
0.71445
0.711067
0.711067
0.711067
0.714451
0.714451
0.714451
0.71337
0.71337
0.71337
0.725375
0.725375
0.725375
0.725899
0.725899
0.725899
0.723618
0.723618
0.723618
0.725377
0.725377
0.725377
0.72424
0.72424
0.72424
0.725899
0.725899
0.725899
0.725376
0.725376
0.725376
0.719212
0.719212
0.719212
0.720039
0.720039
0.720039
0.723624
0.723624
0.723624
0.722295
0.722295
0.722295
0.723616
0.723616
0.723616
0.729393
0.729393
0.729393
0.73123
0.73123
0.73123
0.729907
0.729907
0.729907
0.730132
0.730132
0.730132
0.727286
0.727286
0.727286
0.726846
0.726846
0.726846
0.729389
0.729389
0.729389
0.729098
0.729098
0.729098
0.728449
0.728449
0.728449
0.7291
0.7291
0.7291
0.728087
0.728087
0.728087
0.728448
0.728448
0.728448
0.727696
0.727696
0.727696
0.726845
0.726845
0.726845
0.729388
0.729388
0.729388
0.721554
0.721554
0.721554
0.722389
0.722389
0.722389
0.722941
0.722941
0.722941
0.664359
0.664359
0.664359
0.664396
0.664396
0.664396
0.664269
0.664269
0.664269
0.664317
0.664317
0.664317
0.664271
0.664271
0.664271
0.664317
0.664317
0.664317
0.664267
0.664267
0.664267
0.664267
0.664267
0.664267
0.664314
0.664314
0.664314
0.664268
0.664268
0.664268
0.663658
0.663658
0.663658
0.663461
0.663461
0.663461
0.677084
0.677084
0.677084
0.684215
0.684215
0.684215
0.679549
0.679549
0.679549
0.671875
0.671875
0.671875
0.692563
0.692563
0.692563
0.696287
0.696287
0.696287
0.671872
0.671872
0.671872
0.669121
0.669121
0.669121
0.671872
0.671872
0.671872
0.66912
0.66912
0.66912
0.663453
0.663453
0.663453
0.679541
0.679541
0.679541
0.727319
0.727319
0.727319
0.702923
0.702923
0.702923
0.711097
0.711097
0.711097
0.701364
0.701364
0.701364
0.692561
0.692561
0.692561
0.696285
0.696285
0.696285
0.705866
0.705866
0.705866
0.70292
0.70292
0.70292
0.722303
0.722303
0.722303
0.723634
0.723634
0.723634
0.716498
0.716498
0.716498
0.717445
0.717445
0.717445
0.714471
0.714471
0.714471
0.716497
0.716497
0.716497
0.713391
0.713391
0.713391
0.714471
0.714471
0.714471
0.696286
0.696286
0.696286
0.708593
0.708593
0.708593
0.701365
0.701365
0.701365
0.702928
0.702928
0.702928
0.705874
0.705874
0.705874
0.698049
0.698049
0.698049
0.721593
0.721593
0.721593
0.720052
0.720052
0.720052
0.719224
0.719224
0.719224
0.72231
0.72231
0.72231
0.723626
0.723626
0.723626
0.728472
0.728472
0.728472
0.711086
0.711086
0.711086
0.713391
0.713391
0.713391
0.711085
0.711085
0.711085
0.709859
0.709859
0.709859
0.707249
0.707249
0.707249
0.720042
0.720042
0.720042
0.719215
0.719215
0.719215
0.726869
0.726869
0.726869
0.725907
0.725907
0.725907
0.725383
0.725383
0.725383
0.714467
0.714467
0.714467
0.709858
0.709858
0.709858
0.713388
0.713388
0.713388
0.711085
0.711085
0.711085
0.711084
0.711084
0.711084
0.713387
0.713387
0.713387
0.721581
0.721581
0.721581
0.664458
0.664458
0.664458
0.663984
0.663984
0.663984
0.664184
0.664184
0.664184
0.664056
0.664056
0.664056
0.664457
0.664457
0.664457
0.664436
0.664436
0.664436
0.664483
0.664483
0.664483
0.664483
0.664483
0.664483
0.664487
0.664487
0.664487
0.664487
0.664487
0.664487
0.664476
0.664476
0.664476
0.664261
0.664261
0.664261
0.664262
0.664262
0.664262
0.664387
0.664387
0.664387
0.664309
0.664309
0.664309
0.664308
0.664308
0.664308
0.664261
0.664261
0.664261
0.664307
0.664307
0.664307
0.664386
0.664386
0.664386
0.66439
0.66439
0.66439
0.664312
0.664312
0.664312
0.664264
0.664264
0.664264
0.664311
0.664311
0.664311
0.731359
0.731359
0.731359
0.722441
0.722441
0.722441
0.72154
0.72154
0.72154
0.66447
0.66447
0.66447
0.664411
0.664411
0.664411
0.664457
0.664457
0.664457
0.664475
0.664475
0.664475
0.6643
0.6643
0.6643
0.664253
0.664253
0.664253
0.66447
0.66447
0.66447
0.664456
0.664456
0.664456
0.664379
0.664379
0.664379
0.664469
0.664469
0.664469
0.66441
0.66441
0.66441
0.664455
0.664455
0.664455
0.719207
0.719207
0.719207
0.721575
0.721575
0.721575
0.720035
0.720035
0.720035
0.723623
0.723623
0.723623
0.722292
0.722292
0.722292
0.72424
0.72424
0.72424
0.723625
0.723625
0.723625
0.719211
0.719211
0.719211
0.711083
0.711083
0.711083
0.709858
0.709858
0.709858
0.707245
0.707245
0.707245
0.70586
0.70586
0.70586
0.671864
0.671864
0.671864
0.664435
0.664435
0.664435
0.664374
0.664374
0.664374
0.663548
0.663548
0.663548
0.663736
0.663736
0.663736
0.663819
0.663819
0.663819
0.663445
0.663445
0.663445
0.684203
0.684203
0.684203
0.68641
0.68641
0.68641
0.663819
0.663819
0.663819
0.663732
0.663732
0.663732
0.663732
0.663732
0.663732
0.663545
0.663545
0.663545
0.663979
0.663979
0.663979
0.663978
0.663978
0.663978
0.663977
0.663977
0.663977
0.664049
0.664049
0.664049
0.664049
0.664049
0.664049
0.664178
0.664178
0.664178
0.664327
0.664327
0.664327
0.66443
0.66443
0.66443
0.664369
0.664369
0.664369
0.664457
0.664457
0.664457
0.664471
0.664471
0.664471
0.664481
0.664481
0.664481
0.663983
0.663983
0.663983
0.664055
0.664055
0.664055
0.664183
0.664183
0.664183
0.664055
0.664055
0.664055
0.66424
0.66424
0.66424
0.663984
0.663984
0.663984
0.664415
0.664415
0.664415
0.664384
0.664384
0.664384
0.664306
0.664306
0.664306
0.664414
0.664414
0.664414
0.664415
0.664415
0.664415
0.664383
0.664383
0.664383
0.663813
0.663813
0.663813
0.669098
0.669098
0.669098
0.671848
0.671848
0.671848
0.663538
0.663538
0.663538
0.66381
0.66381
0.66381
0.663436
0.663436
0.663436
0.663632
0.663632
0.663632
0.663813
0.663813
0.663813
0.663726
0.663726
0.663726
0.664042
0.664042
0.664042
0.705851
0.705851
0.705851
0.663544
0.663544
0.663544
0.671861
0.671861
0.671861
0.669111
0.669111
0.669111
0.663443
0.663443
0.663443
0.664047
0.664047
0.664047
0.663975
0.663975
0.663975
0.71338
0.71338
0.71338
0.72536
0.72536
0.72536
0.724222
0.724222
0.724222
0.723607
0.723607
0.723607
0.725884
0.725884
0.725884
0.701338
0.701338
0.701338
0.698022
0.698022
0.698022
0.709842
0.709842
0.709842
0.7029
0.7029
0.7029
0.705845
0.705845
0.705845
0.705845
0.705845
0.705845
0.707231
0.707231
0.707231
0.699711
0.699711
0.699711
0.702899
0.702899
0.702899
0.701336
0.701336
0.701336
0.696265
0.696265
0.696265
0.692541
0.692541
0.692541
0.696263
0.696263
0.696263
0.698021
0.698021
0.698021
0.688522
0.688522
0.688522
0.69254
0.69254
0.69254
0.69057
0.69057
0.69057
0.679523
0.679523
0.679523
0.677057
0.677057
0.677057
0.68419
0.68419
0.68419
0.686397
0.686397
0.686397
0.72362
0.72362
0.72362
0.724237
0.724237
0.724237
0.725374
0.725374
0.725374
0.724234
0.724234
0.724234
0.72229
0.72229
0.72229
0.719205
0.719205
0.719205
0.72229
0.72229
0.72229
0.720032
0.720032
0.720032
0.721574
0.721574
0.721574
0.7259
0.7259
0.7259
0.7259
0.7259
0.7259
0.725376
0.725376
0.725376
0.71744
0.71744
0.71744
0.713386
0.713386
0.713386
0.716492
0.716492
0.716492
0.714467
0.714467
0.714467
0.724232
0.724232
0.724232
0.716476
0.716476
0.716476
0.714452
0.714452
0.714452
0.709843
0.709843
0.709843
0.713371
0.713371
0.713371
0.711068
0.711068
0.711068
0.716478
0.716478
0.716478
0.725888
0.725888
0.725888
0.725363
0.725363
0.725363
0.726848
0.726848
0.726848
0.725886
0.725886
0.725886
0.72685
0.72685
0.72685
0.728451
0.728451
0.728451
0.72809
0.72809
0.72809
0.72729
0.72729
0.72729
0.717426
0.717426
0.717426
0.725364
0.725364
0.725364
0.725888
0.725888
0.725888
0.725365
0.725365
0.725365
0.724229
0.724229
0.724229
0.720029
0.720029
0.720029
0.721572
0.721572
0.721572
0.723614
0.723614
0.723614
0.721569
0.721569
0.721569
0.722286
0.722286
0.722286
0.72157
0.72157
0.72157
0.729391
0.729391
0.729391
0.729392
0.729392
0.729392
0.729101
0.729101
0.729101
0.729904
0.729904
0.729904
0.728085
0.728085
0.728085
0.727284
0.727284
0.727284
0.726845
0.726845
0.726845
0.727285
0.727285
0.727285
0.729654
0.729654
0.729654
0.729603
0.729603
0.729603
0.729169
0.729169
0.729169
0.728173
0.728173
0.728173
0.727619
0.727619
0.727619
0.728693
0.728693
0.728693
0.726375
0.726375
0.726375
0.726723
0.726723
0.726723
0.727021
0.727021
0.727021
0.723673
0.723673
0.723673
0.724414
0.724414
0.724414
0.722319
0.722319
0.722319
0.722776
0.722776
0.722776
0.664427
0.664427
0.664427
0.664426
0.664426
0.664426
0.664396
0.664396
0.664396
0.66427
0.66427
0.66427
0.664271
0.664271
0.664271
0.664271
0.664271
0.664271
0.664317
0.664317
0.664317
0.664427
0.664427
0.664427
0.664395
0.664395
0.664395
0.66448
0.66448
0.66448
0.66449
0.66449
0.66449
0.664313
0.664313
0.664313
0.664266
0.664266
0.664266
0.664312
0.664312
0.664312
0.664315
0.664315
0.664315
0.664314
0.664314
0.664314
0.664268
0.664268
0.664268
0.663561
0.663561
0.663561
0.663561
0.663561
0.663561
0.663461
0.663461
0.663461
0.664133
0.664133
0.664133
0.66425
0.66425
0.66425
0.664194
0.664194
0.664194
0.686422
0.686422
0.686422
0.702923
0.702923
0.702923
0.70136
0.70136
0.70136
0.698044
0.698044
0.698044
0.696286
0.696286
0.696286
0.698043
0.698043
0.698043
0.701359
0.701359
0.701359
0.696288
0.696288
0.696288
0.702924
0.702924
0.702924
0.698044
0.698044
0.698044
0.701361
0.701361
0.701361
0.692565
0.692565
0.692565
0.690594
0.690594
0.690594
0.692564
0.692564
0.692564
0.684214
0.684214
0.684214
0.686421
0.686421
0.686421
0.690594
0.690594
0.690594
0.690593
0.690593
0.690593
0.686421
0.686421
0.686421
0.702925
0.702925
0.702925
0.705872
0.705872
0.705872
0.705872
0.705872
0.705872
0.707258
0.707258
0.707258
0.669125
0.669125
0.669125
0.663746
0.663746
0.663746
0.671873
0.671873
0.671873
0.663559
0.663559
0.663559
0.66356
0.66356
0.66356
0.66346
0.66346
0.66346
0.66346
0.66346
0.66346
0.669123
0.669123
0.669123
0.669121
0.669121
0.669121
0.671872
0.671872
0.671872
0.67955
0.67955
0.67955
0.677083
0.677083
0.677083
0.684209
0.684209
0.684209
0.686415
0.686415
0.686415
0.690589
0.690589
0.690589
0.686416
0.686416
0.686416
0.671869
0.671869
0.671869
0.669119
0.669119
0.669119
0.684207
0.684207
0.684207
0.677073
0.677073
0.677073
0.663825
0.663825
0.663825
0.690588
0.690588
0.690588
0.692558
0.692558
0.692558
0.677076
0.677076
0.677076
0.679541
0.679541
0.679541
0.679542
0.679542
0.679542
0.684208
0.684208
0.684208
0.726879
0.726879
0.726879
0.725394
0.725394
0.725394
0.725918
0.725918
0.725918
0.725917
0.725917
0.725917
0.728482
0.728482
0.728482
0.72812
0.72812
0.72812
0.719221
0.719221
0.719221
0.71109
0.71109
0.71109
0.705869
0.705869
0.705869
0.705868
0.705868
0.705868
0.707255
0.707255
0.707255
0.709863
0.709863
0.709863
0.707254
0.707254
0.707254
0.723638
0.723638
0.723638
0.724254
0.724254
0.724254
0.725393
0.725393
0.725393
0.715516
0.715516
0.715516
0.713401
0.713401
0.713401
0.702927
0.702927
0.702927
0.711095
0.711095
0.711095
0.711094
0.711094
0.711094
0.711092
0.711092
0.711092
0.709867
0.709867
0.709867
0.692562
0.692562
0.692562
0.69059
0.69059
0.69059
0.686417
0.686417
0.686417
0.67187
0.67187
0.67187
0.677079
0.677079
0.677079
0.727311
0.727311
0.727311
0.723634
0.723634
0.723634
0.72425
0.72425
0.72425
0.717447
0.717447
0.717447
0.713395
0.713395
0.713395
0.719219
0.719219
0.719219
0.722303
0.722303
0.722303
0.720045
0.720045
0.720045
0.721587
0.721587
0.721587
0.713394
0.713394
0.713394
0.714474
0.714474
0.714474
0.716499
0.716499
0.716499
0.717447
0.717447
0.717447
0.716499
0.716499
0.716499
0.714474
0.714474
0.714474
0.719217
0.719217
0.719217
0.720044
0.720044
0.720044
0.721586
0.721586
0.721586
0.698043
0.698043
0.698043
0.696285
0.696285
0.696285
0.701357
0.701357
0.701357
0.698042
0.698042
0.698042
0.709862
0.709862
0.709862
0.711087
0.711087
0.711087
0.707253
0.707253
0.707253
0.709861
0.709861
0.709861
0.699741
0.699741
0.699741
0.70987
0.70987
0.70987
0.707261
0.707261
0.707261
0.70987
0.70987
0.70987
0.711096
0.711096
0.711096
0.702928
0.702928
0.702928
0.701365
0.701365
0.701365
0.702929
0.702929
0.702929
0.705874
0.705874
0.705874
0.705875
0.705875
0.705875
0.707261
0.707261
0.707261
0.725903
0.725903
0.725903
0.726864
0.726864
0.726864
0.727303
0.727303
0.727303
0.729121
0.729121
0.729121
0.717445
0.717445
0.717445
0.716497
0.716497
0.716497
0.717443
0.717443
0.717443
0.705863
0.705863
0.705863
0.70725
0.70725
0.70725
0.702919
0.702919
0.702919
0.705864
0.705864
0.705864
0.705863
0.705863
0.705863
0.707249
0.707249
0.707249
0.719215
0.719215
0.719215
0.72004
0.72004
0.72004
0.717443
0.717443
0.717443
0.71339
0.71339
0.71339
0.714471
0.714471
0.714471
0.716495
0.716495
0.716495
0.720043
0.720043
0.720043
0.721583
0.721583
0.721583
0.7223
0.7223
0.7223
0.719216
0.719216
0.719216
0.72811
0.72811
0.72811
0.727309
0.727309
0.727309
0.724245
0.724245
0.724245
0.721582
0.721582
0.721582
0.722299
0.722299
0.722299
0.72363
0.72363
0.72363
0.716494
0.716494
0.716494
0.717442
0.717442
0.717442
0.719212
0.719212
0.719212
0.720039
0.720039
0.720039
0.717441
0.717441
0.717441
0.719212
0.719212
0.719212
0.724244
0.724244
0.724244
0.721581
0.721581
0.721581
0.722298
0.722298
0.722298
0.723629
0.723629
0.723629
0.724245
0.724245
0.724245
0.722298
0.722298
0.722298
0.723629
0.723629
0.723629
0.727313
0.727313
0.727313
0.726872
0.726872
0.726872
0.72591
0.72591
0.72591
0.725387
0.725387
0.725387
0.719219
0.719219
0.719219
0.720047
0.720047
0.720047
0.721588
0.721588
0.721588
0.722305
0.722305
0.722305
0.721588
0.721588
0.721588
0.720046
0.720046
0.720046
0.664375
0.664375
0.664375
0.664436
0.664436
0.664436
0.664458
0.664458
0.664458
0.664336
0.664336
0.664336
0.664376
0.664376
0.664376
0.664437
0.664437
0.664437
0.664418
0.664418
0.664418
0.664386
0.664386
0.664386
0.664477
0.664477
0.664477
0.664462
0.664462
0.664462
0.664417
0.664417
0.664417
0.664418
0.664418
0.664418
0.664463
0.664463
0.664463
0.664265
0.664265
0.664265
0.664311
0.664311
0.664311
0.664264
0.664264
0.664264
0.664479
0.664479
0.664479
0.664389
0.664389
0.664389
0.664389
0.664389
0.664389
0.66442
0.66442
0.66442
0.664465
0.664465
0.664465
0.66448
0.66448
0.66448
0.664421
0.664421
0.664421
0.664466
0.664466
0.664466
0.723614
0.723614
0.723614
0.727089
0.727089
0.727089
0.726788
0.726788
0.726788
0.731248
0.731248
0.731248
0.731084
0.731084
0.731084
0.731304
0.731304
0.731304
0.731367
0.731367
0.731367
0.731304
0.731304
0.731304
0.731248
0.731248
0.731248
0.730702
0.730702
0.730702
0.731246
0.731246
0.731246
0.731083
0.731083
0.731083
0.730975
0.730975
0.730975
0.730706
0.730706
0.730706
0.730542
0.730542
0.730542
0.730155
0.730155
0.730155
0.721141
0.721141
0.721141
0.721146
0.721146
0.721146
0.721534
0.721534
0.721534
0.72158
0.72158
0.72158
0.722427
0.722427
0.722427
0.72237
0.72237
0.72237
0.722826
0.722826
0.722826
0.730979
0.730979
0.730979
0.731375
0.731375
0.731375
0.664378
0.664378
0.664378
0.664409
0.664409
0.664409
0.664455
0.664455
0.664455
0.664467
0.664467
0.664467
0.664411
0.664411
0.664411
0.664255
0.664255
0.664255
0.664301
0.664301
0.664301
0.664379
0.664379
0.664379
0.664302
0.664302
0.664302
0.66438
0.66438
0.66438
0.716489
0.716489
0.716489
0.717438
0.717438
0.717438
0.719209
0.719209
0.719209
0.717436
0.717436
0.717436
0.720034
0.720034
0.720034
0.719207
0.719207
0.719207
0.720032
0.720032
0.720032
0.721573
0.721573
0.721573
0.724238
0.724238
0.724238
0.723622
0.723622
0.723622
0.722291
0.722291
0.722291
0.721574
0.721574
0.721574
0.723621
0.723621
0.723621
0.72229
0.72229
0.72229
0.717439
0.717439
0.717439
0.714466
0.714466
0.714466
0.716492
0.716492
0.716492
0.713385
0.713385
0.713385
0.71921
0.71921
0.71921
0.722295
0.722295
0.722295
0.721579
0.721579
0.721579
0.720038
0.720038
0.720038
0.717439
0.717439
0.717439
0.716491
0.716491
0.716491
0.714465
0.714465
0.714465
0.716491
0.716491
0.716491
0.714464
0.714464
0.714464
0.709854
0.709854
0.709854
0.707246
0.707246
0.707246
0.70586
0.70586
0.70586
0.669114
0.669114
0.669114
0.663447
0.663447
0.663447
0.669112
0.669112
0.669112
0.663446
0.663446
0.663446
0.663546
0.663546
0.663546
0.663733
0.663733
0.663733
0.66382
0.66382
0.66382
0.702914
0.702914
0.702914
0.69628
0.69628
0.69628
0.698037
0.698037
0.698037
0.701352
0.701352
0.701352
0.692556
0.692556
0.692556
0.677072
0.677072
0.677072
0.679538
0.679538
0.679538
0.684204
0.684204
0.684204
0.679538
0.679538
0.679538
0.664239
0.664239
0.664239
0.664334
0.664334
0.664334
0.664373
0.664373
0.664373
0.664333
0.664333
0.664333
0.664482
0.664482
0.664482
0.664457
0.664457
0.664457
0.664486
0.664486
0.664486
0.664434
0.664434
0.664434
0.664482
0.664482
0.664482
0.664456
0.664456
0.664456
0.664238
0.664238
0.664238
0.664182
0.664182
0.664182
0.663735
0.663735
0.663735
0.663821
0.663821
0.663821
0.663981
0.663981
0.663981
0.663822
0.663822
0.663822
0.66405
0.66405
0.66405
0.663979
0.663979
0.663979
0.664051
0.664051
0.664051
0.664179
0.664179
0.664179
0.66433
0.66433
0.66433
0.664234
0.664234
0.664234
0.664178
0.664178
0.664178
0.664369
0.664369
0.664369
0.66433
0.66433
0.66433
0.664234
0.664234
0.664234
0.664232
0.664232
0.664232
0.663976
0.663976
0.663976
0.664048
0.664048
0.664048
0.664176
0.664176
0.664176
0.664047
0.664047
0.664047
0.664176
0.664176
0.664176
0.664428
0.664428
0.664428
0.664367
0.664367
0.664367
0.664472
0.664472
0.664472
0.664483
0.664483
0.664483
0.664382
0.664382
0.664382
0.664473
0.664473
0.664473
0.664413
0.664413
0.664413
0.664459
0.664459
0.664459
0.664413
0.664413
0.664413
0.664458
0.664458
0.664458
0.664374
0.664374
0.664374
0.664184
0.664184
0.664184
0.664335
0.664335
0.664335
0.664239
0.664239
0.664239
0.664335
0.664335
0.664335
0.66424
0.66424
0.66424
0.664337
0.664337
0.664337
0.664185
0.664185
0.664185
0.664057
0.664057
0.664057
0.664241
0.664241
0.664241
0.664185
0.664185
0.664185
0.663826
0.663826
0.663826
0.663739
0.663739
0.663739
0.663551
0.663551
0.663551
0.663451
0.663451
0.663451
0.663452
0.663452
0.663452
0.663552
0.663552
0.663552
0.663739
0.663739
0.663739
0.663553
0.663553
0.663553
0.664307