<VTKFile type="UnstructuredGrid" version="1.0">
<UnstructuredGrid>
<Piece NumberOfPoints="11046" NumberOfCells="3682">
<Points>
<DataArray type="Float64" NumberOfComponents="3" format="ascii">
3.01 0.0582363 3.22676
3.01 0.0717021 3.2075
3.01 0.05 3.2075
3.01 0.95 3.63621
3.01 0.942301 3.6557
3.01 0.95 3.6752
3.01 0.0962623 4.1075
3.01 0.107711 4.08733
3.01 0.086422 4.08716
3.01 0.466226 3.85111
3.01 0.443707 3.85111
3.01 0.454968 3.87072
3.01 0.353567 3.77281
3.01 0.376113 3.77282
3.01 0.364839 3.75328
3.01 0.376113 3.77282
3.01 0.353567 3.77281
3.01 0.364843 3.79236
3.01 0.353567 3.77281
3.01 0.342292 3.79236
3.01 0.364843 3.79236
3.01 0.37611 3.73375
3.01 0.387379 3.71423
3.01 0.364837 3.71423
3.01 0.376113 3.77282
3.01 0.387381 3.75328
3.01 0.364839 3.75328
3.01 0.364839 3.75328
3.01 0.387381 3.75328
3.01 0.37611 3.73375
3.01 0.066417 4.08952
3.01 0.05 4.08375
3.01 0.05 4.1075
3.01 0.0582363 3.22676
3.01 0.0817675 3.22698
3.01 0.0717021 3.2075
3.01 0.0817675 3.22698
3.01 0.0582363 3.22676
3.01 0.0711754 3.24639
3.01 0.11641 3.2075
3.01 0.127475 3.22704
3.01 0.138968 3.2075
3.01 0.127475 3.22704
3.01 0.11641 3.2075
3.01 0.104722 3.22703
3.01 0.0711754 3.24639
3.01 0.0934889 3.2465
3.01 0.0817675 3.22698
3.01 0.0934889 3.2465
3.01 0.104722 3.22703
3.01 0.0817675 3.22698
3.01 0.116091 3.24653
3.01 0.127475 3.22704
3.01 0.104722 3.22703
3.01 0.116091 3.24653
3.01 0.104722 3.22703
3.01 0.0934889 3.2465
3.01 0.116091 3.24653
3.01 0.104394 3.26598
3.01 0.127244 3.26601
3.01 0.104394 3.26598
3.01 0.116091 3.24653
3.01 0.0934889 3.2465
3.01 0.941764 3.22676
3.01 0.95 3.2075
3.01 0.928298 3.2075
3.01 0.387379 3.71423
3.01 0.376108 3.69472
3.01 0.364837 3.71423
3.01 0.161282 3.63621
3.01 0.149908 3.61672
3.01 0.138583 3.63621
3.01 0.0933091 3.71421
3.01 0.104333 3.6947
3.01 0.0813038 3.6947
3.01 0.104333 3.6947
3.01 0.0933065 3.6752
3.01 0.0813038 3.6947
3.01 0.331016 3.81192
3.01 0.308447 3.81191
3.01 0.319739 3.83149
3.01 0.308447 3.81191
3.01 0.331016 3.81192
3.01 0.319729 3.79236
3.01 0.331016 3.81192
3.01 0.342292 3.79236
3.01 0.319729 3.79236
3.01 0.138613 3.83141
3.01 0.149933 3.81186
3.01 0.12718 3.81185
3.01 0.138613 3.83141
3.01 0.161316 3.83142
3.01 0.149933 3.81186
3.01 0.161316 3.83142
3.01 0.172648 3.81186
3.01 0.149933 3.81186
3.01 0.206681 3.83144
3.01 0.217999 3.81188
3.01 0.195336 3.81187
3.01 0.263262 3.8119
3.01 0.274572 3.83147
3.01 0.285863 3.81191
3.01 0.274559 3.79235
3.01 0.263262 3.8119
3.01 0.285863 3.81191
3.01 0.240697 3.227
3.01 0.252012 3.2075
3.01 0.229409 3.2075
3.01 0.138758 3.24653
3.01 0.127475 3.22704
3.01 0.116091 3.24653
3.01 0.127244 3.26601
3.01 0.138758 3.24653
3.01 0.116091 3.24653
3.01 0.229332 3.28547
3.01 0.218031 3.26599
3.01 0.206685 3.28548
3.01 0.184016 3.28549
3.01 0.172705 3.26601
3.01 0.161325 3.28549
3.01 0.184093 3.24651
3.01 0.161431 3.24653
3.01 0.172705 3.26601
3.01 0.218082 3.227
3.01 0.240697 3.227
3.01 0.229409 3.2075
3.01 0.218082 3.227
3.01 0.229409 3.2075
3.01 0.206798 3.2075
3.01 0.138617 3.28549
3.01 0.149916 3.30496
3.01 0.161325 3.28549
3.01 0.376107 3.61672
3.01 0.364834 3.59723
3.01 0.353559 3.61672
3.01 0.942264 3.85097
3.01 0.95 3.87056
3.01 0.95 3.8314
3.01 0.466226 3.85111
3.01 0.454966 3.83151
3.01 0.443707 3.85111
3.01 0.466223 3.77282
3.01 0.488741 3.77282
3.01 0.477482 3.75328
3.01 0.466223 3.77282
3.01 0.443703 3.77282
3.01 0.454964 3.79237
3.01 0.511259 3.77282
3.01 0.533777 3.77282
3.01 0.522518 3.75328
3.01 0.533777 3.77282
3.01 0.511259 3.77282
3.01 0.522517 3.79237
3.01 0.488741 3.77282
3.01 0.5 3.75328
3.01 0.477482 3.75328
3.01 0.511259 3.77282
3.01 0.5 3.75328
3.01 0.488741 3.77282
3.01 0.5 3.75328
3.01 0.511259 3.77282
3.01 0.522518 3.75328
3.01 0.387388 3.83151
3.01 0.40992 3.83151
3.01 0.398653 3.81193
3.01 0.376117 3.81193
3.01 0.387388 3.83151
3.01 0.398653 3.81193
3.01 0.443703 3.77282
3.01 0.432443 3.79237
3.01 0.454964 3.79237
3.01 0.432443 3.79237
3.01 0.443705 3.81193
3.01 0.454964 3.79237
3.01 0.274559 3.79235
3.01 0.285853 3.7728
3.01 0.26325 3.7728
3.01 0.387384 3.79237
3.01 0.376117 3.81193
3.01 0.398653 3.81193
3.01 0.376117 3.81193
3.01 0.387384 3.79237
3.01 0.364843 3.79236
3.01 0.387384 3.79237
3.01 0.376113 3.77282
3.01 0.364843 3.79236
3.01 0.342292 3.79236
3.01 0.331009 3.77281
3.01 0.319729 3.79236
3.01 0.331009 3.77281
3.01 0.342292 3.79236
3.01 0.353567 3.77281
3.01 0.545011 4.1075
3.01 0.533759 4.0877
3.01 0.522505 4.1075
3.01 0.533762 4.04811
3.01 0.55627 4.04811
3.01 0.545018 4.02833
3.01 0.55627 4.04811
3.01 0.567528 4.02832
3.01 0.545018 4.02833
3.01 0.567528 4.02832
3.01 0.59004 4.02832
3.01 0.578788 4.00856
3.01 0.466232 3.96908
3.01 0.477488 3.94937
3.01 0.454974 3.94936
3.01 0.567516 4.1075
3.01 0.590022 4.1075
3.01 0.578772 4.0877
3.01 0.601316 3.96907
3.01 0.590051 3.9888
3.01 0.61257 3.9888
3.01 0.62384 3.96906
3.01 0.601316 3.96907
3.01 0.61257 3.9888
3.01 0.680198 3.94931
3.01 0.702757 3.94929
3.01 0.691494 3.92962
3.01 0.086422 4.08716
3.01 0.073896 4.1075
3.01 0.0962623 4.1075
3.01 0.073896 4.1075
3.01 0.086422 4.08716
3.01 0.066417 4.08952
3.01 0.05 4.1075
3.01 0.073896 4.1075
3.01 0.066417 4.08952
3.01 0.0721919 4.06789
3.01 0.05 4.08375
3.01 0.066417 4.08952
3.01 0.086422 4.08716
3.01 0.0721919 4.06789
3.01 0.066417 4.08952
3.01 0.118481 4.1075
3.01 0.107711 4.08733
3.01 0.0962623 4.1075
3.01 0.5 4.1075
3.01 0.488747 4.0877
3.01 0.477495 4.1075
3.01 0.432484 4.1075
3.01 0.421228 4.0877
3.01 0.409978 4.1075
3.01 0.443725 4.00856
3.01 0.432465 3.98881
3.01 0.421212 4.00856
3.01 0.319802 3.94931
3.01 0.342348 3.94933
3.01 0.331063 3.92963
3.01 0.353629 3.96905
3.01 0.364886 3.94934
3.01 0.342348 3.94933
3.01 0.10433 3.6557
3.01 0.0813011 3.6557
3.01 0.0933065 3.6752
3.01 0.0939466 3.2075
3.01 0.104722 3.22703
3.01 0.11641 3.2075
3.01 0.0939466 3.2075
3.01 0.0717021 3.2075
3.01 0.0817675 3.22698
3.01 0.104722 3.22703
3.01 0.0939466 3.2075
3.01 0.0817675 3.22698
3.01 0.0933065 3.6752
3.01 0.0710513 3.6752
3.01 0.0813038 3.6947
3.01 0.0710513 3.6752
3.01 0.0933065 3.6752
3.01 0.0813011 3.6557
3.01 0.115908 3.75324
3.01 0.104337 3.73372
3.01 0.0933131 3.75324
3.01 0.104337 3.73372
3.01 0.115908 3.75324
3.01 0.127165 3.73372
3.01 0.104343 3.77276
3.01 0.115908 3.75324
3.01 0.0933131 3.75324
3.01 0.104343 3.77276
3.01 0.0933188 3.7923
3.01 0.115915 3.7923
3.01 0.942303 3.61671
3.01 0.95 3.63621
3.01 0.95 3.59722
3.01 0.92895 3.59722
3.01 0.942303 3.61671
3.01 0.95 3.59722
3.01 0.9187 3.61671
3.01 0.895671 3.61671
3.01 0.906695 3.63621
3.01 0.92895 3.59722
3.01 0.9187 3.61671
3.01 0.942303 3.61671
3.01 0.942316 3.38285
3.01 0.95 3.36336
3.01 0.928965 3.36335
3.01 0.95 3.44132
3.01 0.95 3.40234
3.01 0.942309 3.42183
3.01 0.942316 3.38285
3.01 0.95 3.40234
3.01 0.95 3.36336
3.01 0.95 3.24605
3.01 0.95 3.2075
3.01 0.941764 3.22676
3.01 0.95 3.24605
3.01 0.942358 3.26571
3.01 0.95 3.28525
3.01 0.612617 3.28545
3.01 0.623887 3.30493
3.01 0.635157 3.28545
3.01 0.895671 3.61671
3.01 0.906696 3.59722
3.01 0.884102 3.59722
3.01 0.906696 3.59722
3.01 0.895671 3.61671
3.01 0.9187 3.61671
3.01 0.92895 3.59722
3.01 0.906696 3.59722
3.01 0.9187 3.61671
3.01 0.353563 3.73375
3.01 0.364839 3.75328
3.01 0.37611 3.73375
3.01 0.364837 3.71423
3.01 0.353563 3.73375
3.01 0.37611 3.73375
3.01 0.297145 3.75327
3.01 0.308439 3.77281
3.01 0.319723 3.75327
3.01 0.308439 3.77281
3.01 0.297145 3.75327
3.01 0.285853 3.7728
3.01 0.308439 3.77281
3.01 0.319729 3.79236
3.01 0.331009 3.77281
3.01 0.319723 3.75327
3.01 0.308439 3.77281
3.01 0.331009 3.77281
3.01 0.17262 3.61672
3.01 0.149908 3.61672
3.01 0.161282 3.63621
3.01 0.138583 3.63621
3.01 0.149909 3.6557
3.01 0.161282 3.63621
3.01 0.149909 3.6557
3.01 0.138583 3.63621
3.01 0.127158 3.6557
3.01 0.149909 3.6557
3.01 0.161284 3.6752
3.01 0.172622 3.65571
3.01 0.161282 3.63621
3.01 0.149909 3.6557
3.01 0.172622 3.65571
3.01 0.240621 3.73374
3.01 0.229301 3.71422
3.01 0.217979 3.73373
3.01 0.229301 3.71422
3.01 0.206649 3.71422
3.01 0.217979 3.73373
3.01 0.195316 3.73373
3.01 0.217979 3.73373
3.01 0.206649 3.71422
3.01 0.115908 3.75324
3.01 0.138594 3.75324
3.01 0.127165 3.73372
3.01 0.0933091 3.71421
3.01 0.115904 3.71421
3.01 0.104333 3.6947
3.01 0.115904 3.71421
3.01 0.127161 3.6947
3.01 0.104333 3.6947
3.01 0.115904 3.71421
3.01 0.0933091 3.71421
3.01 0.104337 3.73372
3.01 0.127165 3.73372
3.01 0.115904 3.71421
3.01 0.104337 3.73372
3.01 0.115901 3.6752
3.01 0.0933065 3.6752
3.01 0.104333 3.6947
3.01 0.127161 3.6947
3.01 0.115901 3.6752
3.01 0.104333 3.6947
3.01 0.115901 3.6752
3.01 0.10433 3.6557
3.01 0.0933065 3.6752
3.01 0.10433 3.6557
3.01 0.115901 3.6752
3.01 0.127158 3.6557
3.01 0.183972 3.63621
3.01 0.195307 3.61672
3.01 0.17262 3.61672
3.01 0.161282 3.63621
3.01 0.183972 3.63621
3.01 0.17262 3.61672
3.01 0.183972 3.63621
3.01 0.161282 3.63621
3.01 0.172622 3.65571
3.01 0.263244 3.73374
3.01 0.251933 3.71422
3.01 0.240621 3.73374
3.01 0.229301 3.71422
3.01 0.251933 3.71422
3.01 0.240617 3.69471
3.01 0.251933 3.71422
3.01 0.229301 3.71422
3.01 0.240621 3.73374
3.01 0.274543 3.67521
3.01 0.285842 3.65571
3.01 0.263237 3.65571
3.01 0.285842 3.65571
3.01 0.274541 3.63621
3.01 0.263237 3.65571
3.01 0.319739 3.83149
3.01 0.3423 3.8315
3.01 0.331016 3.81192
3.01 0.297163 3.83148
3.01 0.274572 3.83147
3.01 0.285878 3.85106
3.01 0.308447 3.81191
3.01 0.297163 3.83148
3.01 0.319739 3.83149
3.01 0.297163 3.83148
3.01 0.308447 3.81191
3.01 0.285863 3.81191
3.01 0.274572 3.83147
3.01 0.297163 3.83148
3.01 0.285863 3.81191
3.01 0.183992 3.79232
3.01 0.172648 3.81186
3.01 0.195336 3.81187
3.01 0.183992 3.79232
3.01 0.195323 3.77278
3.01 0.172636 3.77278
3.01 0.184008 3.83143
3.01 0.172648 3.81186
3.01 0.161316 3.83142
3.01 0.172648 3.81186
3.01 0.184008 3.83143
3.01 0.195336 3.81187
3.01 0.184008 3.83143
3.01 0.195356 3.85101
3.01 0.206681 3.83144
3.01 0.195336 3.81187
3.01 0.184008 3.83143
3.01 0.206681 3.83144
3.01 0.308434 3.73375
3.01 0.297145 3.75327
3.01 0.319723 3.75327
3.01 0.297145 3.75327
3.01 0.308434 3.73375
3.01 0.285847 3.73374
3.01 0.308434 3.73375
[...]
<PointData Scalars="View Factor" >
<DataArray type="Float64" Name="View Factor" NumberOfComponents="1" format="ascii">
0.867456
0.867456
0.867456
0.790264
0.790264
0.790264
0.867023
0.867023
0.867023
0.852156
0.852156
0.852156
0.857861
0.857861
0.857861
0.857861
0.857861
0.857861
0.858475
0.858475
0.858475
0.857226
0.857226
0.857226
0.857225
0.857225
0.857225
0.857226
0.857226
0.857226
0.867476
0.867476
0.867476
0.867356
0.867356
0.867356
0.867358
0.867358
0.867358
0.86654
0.86654
0.86654
0.866741
0.866741
0.866741
0.867228
0.867228
0.867228
0.867087
0.867087
0.867087
0.866742
0.866742
0.866742
0.866923
0.866923
0.866923
0.866745
0.866745
0.866745
0.866925
0.866925
0.866925
0.791681
0.791681
0.791681
0.857226
0.857226
0.857226
0.866084
0.866084
0.866084
0.867083
0.867083
0.867083
0.867084
0.867084
0.867084
0.860193
0.860193
0.860193
0.860193
0.860193
0.860193
0.859641
0.859641
0.859641
0.866317
0.866317
0.866317
0.866079
0.866079
0.866079
0.865823
0.865823
0.865823
0.864605
0.864605
0.864605
0.862196
0.862196
0.862196
0.862197
0.862197
0.862197
0.863497
0.863497
0.863497
0.866542
0.866542
0.866542
0.866544
0.866544
0.866544
0.864262
0.864262
0.864262
0.865556
0.865556
0.865556
0.865555
0.865555
0.865555
0.863889
0.863889
0.863889
0.86426
0.86426
0.86426
0.866089
0.866089
0.866089
0.857864
0.857864
0.857864
0.790262
0.790262
0.790262
0.852156
0.852156
0.852156
0.850506
0.850506
0.850506
0.852158
0.852158
0.852158
0.846914
0.846914
0.846914
0.846914
0.846914
0.846914
0.849644
0.849644
0.849644
0.848758
0.848758
0.848758
0.847849
0.847849
0.847849
0.855887
0.855887
0.855887
0.856566
0.856566
0.856566
0.852949
0.852949
0.852949
0.852949
0.852949
0.852949
0.862198
0.862198
0.862198
0.856567
0.856567
0.856567
0.857224
0.857224
0.857224
0.857225
0.857225
0.857225
0.859642
0.859642
0.859642
0.859069
0.859069
0.859069
0.845949
0.845949
0.845949
0.844966
0.844966
0.844966
0.843957
0.843957
0.843957
0.84186
0.84186
0.84186
0.851339
0.851339
0.851339
0.84186
0.84186
0.84186
0.839657
0.839657
0.839657
0.838515
0.838515
0.838515
0.829721
0.829721
0.829721
0.867171
0.867171
0.867171
0.867287
0.867287
0.867287
0.867408
0.867408
0.867408
0.867414
0.867414
0.867414
0.867293
0.867293
0.867293
0.866865
0.866865
0.866865
0.849637
0.849637
0.849637
0.854453
0.854453
0.854453
0.853711
0.853711
0.853711
0.859635
0.859635
0.859635
0.858469
0.858469
0.858469
0.867084
0.867084
0.867084
0.86692
0.86692
0.86692
0.867225
0.867225
0.867225
0.867085
0.867085
0.867085
0.867224
0.867224
0.867224
0.867224
0.867224
0.867224
0.866918
0.866918
0.866918
0.866738
0.866738
0.866738
0.866918
0.866918
0.866918
0.866917
0.866917
0.866917
0.790264
0.790264
0.790264
0.791599
0.791599
0.791599
0.79774
0.79774
0.79774
0.793555
0.793555
0.793555
0.791602
0.791602
0.791602
0.790267
0.790267
0.790267
0.790267
0.790267
0.790267
0.790305
0.790305
0.790305
0.790267
0.790267
0.790267
0.837353
0.837353
0.837353
0.799782
0.799782
0.799782
0.79774
0.79774
0.79774
0.795739
0.795739
0.795739
0.857862
0.857862
0.857862
0.857862
0.857862
0.857862
0.860726
0.860726
0.860726
0.861237
0.861237
0.861237
0.860194
0.860194
0.860194
0.860194
0.860194
0.860194
0.865827
0.865827
0.865827
0.866083
0.866083
0.866083
0.866321
0.866321
0.866321
0.865827
0.865827
0.865827
0.865827
0.865827
0.865827
0.863883
0.863883
0.863883
0.864255
0.864255
0.864255
0.864607
0.864607
0.864607
0.866537
0.866537
0.866537
0.866919
0.866919
0.866919
0.866739
0.866739
0.866739
0.866918
0.866918
0.866918
0.866739
0.866739
0.866739
0.866919
0.866919
0.866919
0.866739
0.866739
0.866739
0.86692
0.86692
0.86692
0.86674
0.86674
0.86674
0.865257
0.865257
0.865257
0.865551
0.865551
0.865551
0.865551
0.865551
0.865551
0.86308
0.86308
0.86308
0.863492
0.863492
0.863492
0.863492
0.863492
0.863492
0.8622
0.8622
0.8622
0.862201
0.862201
0.862201
0.859641
0.859641
0.859641
0.861725
0.861725
0.861725
0.860724
0.860724
0.860724
0.861235
0.861235
0.861235
0.861725
0.861725
0.861725
0.865253
0.865253
0.865253
0.865253
0.865253
0.865253
0.865547
0.865547
0.865547
0.865252
0.865252
0.865252
0.864937
0.864937
0.864937
0.864938
0.864938
0.864938
0.860726
0.860726
0.860726
0.861237
0.861237
0.861237
0.861238
0.861238
0.861238
0.860727
0.860727
0.860727
0.860725
0.860725
0.860725
0.861235
0.861235
0.861235
0.860725
0.860725
0.860725
0.861236
0.861236
0.861236
0.861726
0.861726
0.861726
0.861727
0.861727
0.861727
0.863079
0.863079
0.863079
0.86308
0.86308
0.86308
0.863078
0.863078
0.863078
0.863079
0.863079
0.863079
0.862648
0.862648
0.862648
0.862648
0.862648
0.862648
0.862656
0.862656
0.862656
0.863087
0.863087
0.863087
0.866084
0.866084
0.866084
0.866086
0.866086
0.866086
0.866322
0.866322
0.866322
0.866324
0.866324
0.866324
0.866087
0.866087
0.866087
0.865831
0.865831
0.865831
0.865832
0.865832
0.865832
0.866089
0.866089
0.866089
0.866327
0.866327
0.866327
0.866326
0.866326
0.866326
0.863087
0.863087
0.863087
0.862656
0.862656
0.862656
0.865553
0.865553
0.865553
0.865554
0.865554
0.865554
0.865829
0.865829
0.865829
0.865829
0.865829
0.865829
0.864946
0.864946
0.864946
0.864614
0.864614
0.864614
0.864614
0.864614
0.864614
0.864947
0.864947
0.864947
0.865261
0.865261
0.865261
0.865261
0.865261
0.865261
0.864945
0.864945
0.864945
0.864946
0.864946
0.864946
0.864613
0.864613
0.864613
0.864612
0.864612
0.864612
0.865259
0.865259
0.865259
0.865259
0.865259
0.865259
0.863889
0.863889
0.863889
0.863498
0.863498
0.863498
0.864261
0.864261
0.864261
0.864261
0.864261
0.864261
0.863087
0.863087
0.863087
0.863087
0.863087
0.863087
0.861735
0.861735
0.861735
0.862205
0.862205
0.862205
0.862656
0.862656
0.862656
0.862656
0.862656
0.862656
0.864262
0.864262
0.864262
0.864948
0.864948
0.864948
0.864614
0.864614
0.864614
0.864614
0.864614
0.864614
0.85519
0.85519
0.85519
0.857865
0.857865
0.857865
0.856571
0.856571
0.856571
0.855892
0.855892
0.855892
0.855892
0.855892
0.855892
0.856571
0.856571
0.856571
0.857229
0.857229
0.857229
0.857229
0.857229
0.857229
0.860729
0.860729
0.860729
0.860198
0.860198
0.860198
0.8602
0.8602
0.8602
0.859647
0.859647
0.859647
0.86389
0.86389
0.86389
0.860734
0.860734
0.860734
0.856577
0.856577
0.856577
0.856577
0.856577
0.856577
0.860203
0.860203
0.860203
0.859651
0.859651
0.859651
0.859078
0.859078
0.859078
0.807726
0.807726
0.807726
0.809501
0.809501
0.809501
0.809482
0.809482
0.809482
0.814651
0.814651
0.814651
0.811253
0.811253
0.811253
0.812963
0.812963
0.812963
0.811199
0.811199
0.811199
0.81295
0.81295
0.81295
0.811221
0.811221
0.811221
0.816298
0.816298
0.816298
0.791593
0.791593
0.791593
0.791596
0.791596
0.791596
0.793554
0.793554
0.793554
0.793556
0.793556
0.793556
0.852948
0.852948
0.852948
0.852948
0.852948
0.852948
0.85657
0.85657
0.85657
0.856571
0.856571
0.856571
0.85657
0.85657
0.85657
0.845954
0.845954
0.845954
0.845954
0.845954
0.845954
0.84497
0.84497
0.84497
0.850505
0.850505
0.850505
0.851343
0.851343
0.851343
0.852157
0.852157
0.852157
0.850505
0.850505
0.850505
0.852157
0.852157
0.852157
0.851343
0.851343
0.851343
0.851342
0.851342
0.851342
0.851342
0.851342
0.851342
0.850505
0.850505
0.850505
0.852947
0.852947
0.852947
0.859065
0.859065
0.859065
0.859066
0.859066
0.859066
0.858473
0.858473
0.858473
0.858472
0.858472
0.858472
0.857859
0.857859
0.857859
0.853717
0.853717
0.853717
0.855186
0.855186
0.855186
0.854462
0.854462
0.854462
0.853717
0.853717
0.853717
0.853718
0.853718
0.853718
0.855887
0.855887
0.855887
0.855186
0.855186
0.855186
0.854463
0.854463
0.854463
0.854463
0.854463
0.854463
0.822519
0.822519
0.822519
0.826933
0.826933
0.826933
0.843956
0.843956
0.843956
0.844966
0.844966
0.844966
0.842921
0.842921
0.842921
0.845952
0.845952
0.845952
0.845952
0.845952
0.845952
0.847843
0.847843
0.847843
0.846909
0.846909
0.846909
0.842922
0.842922
0.842922
0.84186
0.84186
0.84186
0.837345
0.837345
0.837345
0.834922
0.834922
0.834922
0.836147
0.836147
0.836147
0.840772
0.840772
0.840772
0.839657
0.839657
0.839657
0.840772
0.840772
0.840772
0.848756
0.848756
0.848756
0.836145
0.836145
0.836145
0.836145
0.836145
0.836145
0.831065
0.831065
0.831065
0.838515
0.838515
0.838515
0.803706
0.803706
0.803706
0.80559
0.80559
0.80559
0.803698
0.803698
0.803698
0.824036
0.824036
0.824036
0.825506
0.825506
0.825506
0.826942
0.826942
0.826942
0.829733
0.829733
0.829733
0.829741
0.829741
0.829741
0.834918
0.834918
0.834918
0.820981
0.820981
0.820981
0.86749
0.86749
0.86749
0.867461
0.867461
0.867461
0.867428
0.867428
0.867428
0.867028
0.867028
0.867028
0.867183
0.867183
0.867183
0.864901
0.864901
0.864901
0.866684
0.866684
0.866684
0.866486
0.866486
0.866486
0.865223
0.865223
0.865223
0.860706
0.860706
0.860706
0.860708
0.860708
0.860708
0.847842
0.847842
0.847842
0.848752
0.848752
0.848752
0.846908
0.846908
0.846908
0.848752
0.848752
0.848752
0.847843
0.847843
0.847843
0.846909
0.846909
0.846909
0.855177
0.855177
0.855177
0.855877
0.855877
0.855877
0.855176
0.855176
0.855176
0.858461
0.858461
0.858461
0.852943
0.852943
0.852943
0.857852
0.857852
0.857852
0.857216
0.857216
0.857216
0.855878
0.855878
0.855878
0.855878
0.855878
0.855878
0.857849
0.857849
0.857849
0.856558
0.856558
0.856558
0.857214
0.857214
0.857214
0.856557
0.856557
0.856557
0.85785
0.85785
0.85785
0.857215
0.857215
0.857215
0.860718
0.860718
0.860718
0.860188
0.860188
0.860188
0.857854
0.857854
0.857854
0.858471
0.858471
0.858471
0.859063
0.859063
0.859063
0.85847
0.85847
0.85847
0.859064
0.859064
0.859064
0.858471
0.858471
0.858471
0.866076
0.866076
0.866076
0.866733
0.866733
0.866733
0.866079
0.866079
0.866079
0.866317
0.866317
0.866317
0.866913
0.866913
0.866913
0.866912
0.866912
0.866912
0.867078
0.867078
0.867078
0.867218
0.867218
0.867218
0.867077
0.867077
0.867077
0.867218
0.867218
0.867218
0.867508
0.867508
0.867508
0.867451
0.867451
0.867451
0.867354
0.867354
0.867354
0.867507
0.867507
0.867507
0.867451
0.867451
0.867451
0.867353
0.867353
0.867353
0.867507
0.867507
0.867507
0.86745
0.86745
0.86745
0.867506
0.867506
0.867506
0.867449
0.867449
0.867449
0.790265
0.790265
0.790265
0.791599
0.791599
0.791599
0.795738
0.795738
0.795738
0.795738
0.795738
0.795738
0.791599
0.791599
0.791599
0.793555
0.793555
0.793555
0.791599
0.791599
0.791599
0.793555
0.793555
0.793555
0.80174
0.80174
0.80174
0.793555
0.793555
0.793555
0.791601
0.791601
0.791601
0.790267
0.790267
0.790267
0.803684
0.803684
0.803684
0.793556
0.793556
0.793556
0.791647
0.791647
0.791647
0.79161
0.79161
0.79161
0.799833
0.799833
0.799833
0.839668
0.839668
0.839668
0.841872
0.841872
0.841872
0.840784
0.840784
0.840784
0.843968
0.843968
0.843968
0.843969
0.843969
0.843969
0.843969
0.843969
0.843969
0.838524
0.838524
0.838524
0.837353
0.837353
0.837353
0.829728
0.829728
0.829728
0.838525
0.838525
0.838525
0.829723
0.829723
0.829723
0.832385
0.832385
0.832385
0.826939
0.826939
0.826939
0.828347
0.828347
0.828347
0.820986
0.820986
0.820986
0.822523
0.822523
0.822523
0.8255
0.8255
0.8255
0.825499
0.825499
0.825499
0.811042
0.811042
0.811042
0.809257
0.809257
0.809257
0.852959
0.852959
0.852959
0.852168
0.852168
0.852168
0.855898
0.855898
0.855898
0.844979
0.844979
0.844979
0.857869
0.857869
0.857869
0.856575
0.856575
0.856575
0.857233
0.857233
0.857233
0.824027
0.824027
0.824027
0.833671
0.833671
0.833671
0.836154
0.836154
0.836154
0.834927
0.834927
0.834927
0.816167
0.816167
0.816167
0.819412
0.819412
0.819412
0.817807
0.817807
0.817807
0.817807
0.817807
0.817807
0.819411
0.819411
0.819411
0.858476
0.858476
0.858476
0.858476
0.858476
0.858476
0.85907
0.85907
0.85907
0.859642
0.859642
0.859642
0.865551
0.865551
0.865551
0.866321
0.866321
0.866321
0.866539
0.866539
0.866539
0.866539
0.866539
0.866539
0.866083
0.866083
0.866083
0.865829
0.865829
0.865829
0.865829
0.865829
0.865829
0.863881
0.863881
0.863881
0.863881
0.863881
0.863881
0.86349
0.86349
0.86349
0.863489
0.863489
0.863489
0.864606
0.864606
0.864606
0.864939
0.864939
0.864939
0.864939
0.864939
0.864939
0.864605
0.864605
0.864605
0.864253
0.864253
0.864253
0.864253
0.864253
0.864253
0.864606
0.864606
0.864606
0.864607
0.864607
0.864607
0.863883
0.863883
0.863883
0.864254
0.864254
0.864254
0.864254
0.864254
0.864254
0.863882
0.863882
0.863882
0.863491
0.863491
0.863491
0.863491
0.863491
0.863491
0.865254
0.865254
0.865254
0.86494
0.86494
0.86494
0.86494
0.86494
0.86494
0.865254
0.865254
0.865254
0.865549
0.865549
0.865549
0.865549
0.865549
0.865549
0.865823
0.865823
0.865823
0.865548
0.865548
0.865548
0.865548
0.865548
0.865548
0.866538
0.866538
0.866538
0.866538
0.866538
0.866538
0.863083
0.863083
0.863083
0.862201
0.862201
0.862201
0.86124
0.86124
0.86124
0.862651
0.862651
0.862651
0.863082
0.863082
0.863082
0.864256
0.864256
0.864256
0.863884
0.863884
0.863884
0.863493
0.863493
0.863493
0.863492
0.863492
0.863492
0.864609
0.864609
0.864609
0.864942
0.864942
0.864942
0.865256
0.865256
0.865256
0.865256
0.865256
0.865256
0.863494
0.863494
0.863494
0.863885
0.863885
0.863885
0.86265
0.86265
0.86265
0.862199
0.862199
0.862199
0.861728
0.861728
0.861728
0.860197
0.860197
0.860197
0.859072
0.859072
0.859072
0.859073
0.859073
0.859073
0.859645
0.859645
0.859645
0.859645
0.859645
0.859645
0.857864
0.857864
0.857864
0.858479
0.858479
0.858479
0.858479
0.858479
0.858479
0.857864
0.857864
0.857864
0.857228
0.857228
0.857228
0.857228
0.857228
0.857228
0.857863
0.857863
0.857863
0.857227
0.857227
0.857227
0.857227
0.857227
0.857227
0.86173
0.86173
0.86173
0.859068
0.859068
0.859068
0.85786
0.85786
0.85786
0.858475
0.858475
0.858475
0.859068
0.859068
0.859068
0.858474
0.858474
0.858474
0.857859
0.857859
0.857859
0.857223
0.857223
0.857223
0.857224
0.857224
0.857224
0.85786
0.85786
0.85786
0.858474
0.858474
0.858474
0.865546
0.865546
0.865546
0.865822
0.865822
0.865822
0.865822
0.865822
0.865822
0.865545
0.865545
0.865545
0.865251
0.865251
0.865251
0.865251
0.865251
0.865251
0.862198
0.862198
0.862198
0.862199
0.862199
0.862199
0.861727
0.861727
0.861727
0.861728
0.861728
0.861728
0.862649
0.862649
0.862649
0.862649
0.862649
0.862649
0.85907
0.85907
0.85907
0.859643
0.859643
0.859643
0.860195
0.860195
0.860195
0.860195
0.860195
0.860195
0.863498
0.863498
0.863498
0.862656
0.862656
0.862656
0.862206
0.862206
0.862206
0.862206
0.862206
0.862206
0.862657
0.862657
0.862657
0.866325
0.866325
0.866325
0.861734
0.861734
0.861734
0.861734
0.861734
0.861734
0.862205
0.862205
0.862205
0.862205
0.862205
0.862205
0.859649
0.859649
0.859649
0.860733
0.860733
0.860733
0.861243
0.861243
0.861243
0.861243
0.861243
0.861243
0.864612
0.864612
0.864612
0.860199
0.860199
0.860199
0.860199
0.860199
0.860199
0.864948
0.864948
0.864948
0.85848
0.85848
0.85848
0.857865
0.857865
0.857865
0.859646
0.859646
0.859646
0.859073
0.859073
0.859073
0.858479
0.858479
0.858479
0.85848
0.85848
0.85848
0.860729
0.860729
0.860729
0.8602
0.8602
0.8602
0.859074
0.859074
0.859074
0.85848
0.85848
0.85848
0.859647
0.859647
0.859647
0.859647
0.859647
0.859647
0.859074
0.859074
0.859074
0.859075
0.859075
0.859075
0.858481
0.858481
0.858481
0.858481
0.858481
0.858481
0.861245
0.861245
0.861245
0.861735
0.861735
0.861735
0.86389
0.86389
0.86389
0.86389
0.86389
0.86389
0.864262
0.864262
0.864262
0.864262
0.864262
0.864262
0.863087
0.863087
0.863087
0.861735
0.861735
0.861735
0.862206
0.862206
0.862206
0.862206
0.862206
0.862206
0.861245
0.861245
0.861245
0.858485
0.858485
0.858485
0.857234
0.857234
0.857234
0.85787
0.85787
0.85787
0.859078
0.859078
0.859078
0.859078
0.859078
0.859078
0.859078
0.859078
0.859078
0.80768
0.80768
0.80768
0.812914
0.812914
0.812914
0.816253
0.816253
0.816253
0.816265
0.816265
0.816265
0.814614
0.814614
0.814614
0.814629
0.814629
0.814629
0.816289
0.816289
0.816289
0.817896
0.817896
0.817896
0.817905
0.817905
0.817905
0.790268
0.790268
0.790268
0.790258
0.790258
0.790258
0.791598
0.791598
0.791598
0.791597
0.791597
0.791597
0.790262
0.790262
0.790262
0.790261
0.790261
0.790261
0.80175
0.80175
0.80175
0.805585
0.805585
0.805585
0.846913
0.846913
0.846913
0.846913
0.846913
0.846913
0.843959
0.843959
0.843959
0.844969
0.844969
0.844969
0.845954
0.845954
0.845954
0.853718
0.853718
0.853718
0.854464
0.854464
0.854464
0.854464
0.854464
0.854464
0.853718
0.853718
0.853718
0.853719
0.853719
0.853719
0.85216
0.85216
0.85216
0.852951
0.852951
0.852951
0.855189
0.855189
0.855189
0.85519
0.85519
0.85519
0.855891
0.855891
0.855891
0.855891
0.855891
0.855891
0.85372
0.85372
0.85372
0.852951
0.852951
0.852951
0.85216
0.85216
0.85216
0.85589
0.85589
0.85589
0.855189
0.855189
0.855189
0.854465
0.854465
0.854465
0.854466
0.854466
0.854466
0.851345
0.851345
0.851345
0.850507
0.850507
0.850507
0.849646
0.849646
0.849646
0.851346
0.851346
0.851346
0.849646
0.849646
0.849646
0.850508
0.850508
0.850508
0.850508
0.850508
0.850508
0.840773
0.840773
0.840773
0.839657
0.839657
0.839657
0.840773
0.840773
0.840773
0.839658
0.839658
0.839658
0.840774
0.840774
0.840774
0.839658
0.839658
0.839658
0.832377
0.832377
0.832377
0.833662
0.833662
0.833662
0.845955
0.845955
0.845955
0.845955
0.845955
0.845955
0.847849
0.847849
0.847849
0.846915
0.846915
0.846915
0.847849
0.847849
0.847849
0.846915
0.846915
0.846915
0.84497
0.84497
0.84497
0.84497
0.84497
0.84497
0.850504
0.850504
0.850504
0.848757
0.848757
0.848757
0.859637
0.859637
0.859637
0.86072
0.86072
0.86072
0.859637
0.859637
0.859637
0.860188
0.860188
0.860188
0.861232
0.861232
0.861232
0.860721
0.860721
0.860721
0.86019
0.86019
0.86019
0.853716
0.853716
0.853716
0.854462
0.854462
0.854462
0.853716
0.853716
0.853716
0.857858
0.857858
0.857858
0.857857
0.857857
0.857857
0.853714
0.853714
0.853714
0.855888
0.855888
0.855888
0.855187
0.855187
0.855187
0.856567
0.856567
0.856567
0.856568
0.856568
0.856568
0.855888
0.855888
0.855888
0.855187
0.855187
0.855187
0.828339
0.828339
0.828339
0.829716
0.829716
0.829716
0.831061
0.831061
0.831061
0.829715
0.829715
0.829715
0.84396
0.84396
0.84396
0.841862
0.841862
0.841862
0.842924
0.842924
0.842924
0.84396
0.84396
0.84396
0.839657
0.839657
0.839657
0.833662
0.833662
0.833662
0.834918
0.834918
0.834918
0.829716
0.829716
0.829716
0.826932
0.826932
0.826932
0.826932
0.826932
0.826932
0.826932
0.826932
0.826932
0.826932
0.826932
0.826932
0.845956
0.845956
0.845956
0.83492
0.83492
0.83492
0.833663
0.833663
0.833663
0.824022
0.824022
0.824022
0.824022
0.824022
0.824022
0.825493
0.825493
0.825493
0.825493
0.825493
0.825493
0.824022
0.824022
0.824022
0.825494
0.825494
0.825494
0.825494
0.825494
0.825494
0.822519
0.822519
0.822519
0.822519
0.822519
0.822519
0.820982
0.820982
0.820982
0.820982
0.820982
0.820982
0.822519
0.822519
0.822519
0.824023
0.824023
0.824023
0.824023
0.824023
0.824023
0.828341
0.828341
0.828341
0.82834
0.82834
0.82834
0.829716
0.829716
0.829716
0.831062
0.831062
0.831062
0.844966
0.844966
0.844966
0.84595
0.84595
0.84595
0.84595
0.84595
0.84595
0.844966
0.844966
0.844966
0.843957
0.843957
0.843957
0.844967
0.844967
0.844967
0.842922
0.842922
0.842922
0.844967
0.844967
0.844967
0.844968
0.844968
0.844968
0.842922
0.842922
0.842922
0.839657
0.839657
0.839657
0.845951
0.845951
0.845951
0.84595
0.84595
0.84595
0.846909
0.846909
0.846909
0.834922
0.834922
0.834922
0.854458
0.854458
0.854458
0.852945
0.852945
0.852945
0.853713
0.853713
0.853713
0.854459
0.854459
0.854459
0.854457
0.854457
0.854457
0.854457
0.854457
0.854457
0.852153
0.852153
0.852153
0.852945
0.852945
0.852945
0.853713
0.853713
0.853713
0.853712
0.853712
0.853712
0.852944
0.852944
0.852944
0.852153
0.852153
0.852153
0.852947
0.852947
0.852947
0.852155
0.852155
0.852155
0.849642
0.849642
0.849642
0.850503
0.850503
0.850503
0.851341
0.851341
0.851341
0.849642
0.849642
0.849642
0.851341
0.851341
0.851341
0.850504
0.850504
0.850504
0.848756
0.848756
0.848756
0.846911
0.846911
0.846911
0.848755
0.848755
0.848755
0.849641
0.849641
0.849641
0.850503
0.850503
0.850503
0.849641
0.849641
0.849641
0.850502
0.850502
0.850502
0.851339
0.851339
0.851339
0.852154
0.852154
0.852154
0.850502
0.850502
0.850502
0.839657
0.839657
0.839657
0.839657
0.839657
0.839657
0.837344
0.837344
0.837344
0.837344
0.837344
0.837344
0.837344
0.837344
0.837344
0.826941
0.826941
0.826941
0.828346
0.828346
0.828346
0.824028
0.824028
0.824028
0.836146
0.836146