<VTKFile type="UnstructuredGrid" version="1.0">
<UnstructuredGrid>
<Piece NumberOfPoints="11046" NumberOfCells="3682">
<Points>
<DataArray type="Float64" NumberOfComponents="3" format="ascii">
1.77647 2.48053 16.8002
1.76268 2.49432 16.7925
1.79026 2.46674 16.7925
1.46971 2.78729 16.8089
1.457 2.8 16.7925
1.47379 2.78321 16.7925
1.46971 2.78729 16.8089
1.457 2.8 16.8164
1.457 2.8 16.7925
1.79026 2.46674 17.6925
1.76268 2.49432 17.6925
1.77647 2.48053 17.6848
1.95562 2.30138 17.6715
1.95562 2.30138 17.6925
1.94184 2.31516 17.6848
1.7213 2.5357 17.5699
1.73509 2.52191 17.5585
1.7351 2.5219 17.5812
1.94184 2.31516 16.8002
1.95562 2.30138 16.7925
1.95562 2.30138 16.8135
1.76268 2.49432 16.8358
1.77647 2.48053 16.8238
1.77647 2.48053 16.8468
1.77647 2.48053 16.8468
1.77647 2.48053 16.8238
1.79025 2.46675 16.8358
1.79025 2.46675 17.22
1.80403 2.45297 17.2312
1.79025 2.46675 17.2425
1.457 2.8 17.265
1.457 2.8 17.2425
1.471 2.786 17.2538
2.0934 2.1636 17.4679
2.07961 2.17739 17.4792
2.07961 2.17739 17.4566
1.95561 2.30139 17.468
1.96939 2.28761 17.4567
1.96938 2.28762 17.4793
1.96938 2.28762 17.4793
1.96939 2.28761 17.4567
1.98316 2.27384 17.468
1.94184 2.31516 17.6848
1.95562 2.30138 17.6925
1.92806 2.32894 17.6925
1.84538 2.41162 17.6492
1.85916 2.39784 17.6612
1.84538 2.41162 17.6715
1.87294 2.38406 17.6492
1.85916 2.39784 17.6612
1.85916 2.39784 17.6382
1.85916 2.39784 17.6382
1.85916 2.39784 17.6612
1.84538 2.41162 17.6492
1.79025 2.46675 17.3326
1.77646 2.48054 17.3439
1.77646 2.48054 17.3213
1.79025 2.46675 17.2425
1.80403 2.45297 17.2312
1.80403 2.45297 17.2538
1.77646 2.48054 17.4115
1.79025 2.46675 17.4228
1.77646 2.48054 17.4341
1.77647 2.48053 17.6848
1.76268 2.49432 17.6925
1.76268 2.49432 17.6714
2.07959 2.17741 16.9153
2.0934 2.1636 16.9267
2.0796 2.1774 16.938
1.92805 2.32895 17.22
1.94183 2.31517 17.2087
1.94183 2.31517 17.2312
1.74889 2.50811 16.8002
1.7351 2.5219 16.7925
1.76268 2.49432 16.7925
1.76268 2.49432 16.8358
1.74889 2.50811 16.8238
1.76268 2.49432 16.8136
1.76268 2.49432 16.8136
1.77647 2.48053 16.8238
1.76268 2.49432 16.8358
1.76268 2.49432 16.8136
1.74889 2.50811 16.8002
1.76268 2.49432 16.7925
1.74889 2.50811 16.8238
1.74889 2.50811 16.8002
1.76268 2.49432 16.8136
1.76268 2.49432 16.8136
1.76268 2.49432 16.7925
1.77647 2.48053 16.8002
1.77647 2.48053 16.8002
1.77647 2.48053 16.8238
1.76268 2.49432 16.8136
1.79025 2.46675 16.8358
1.77647 2.48053 16.8238
1.79025 2.46675 16.8136
1.79025 2.46675 16.8136
1.80404 2.45296 16.8238
1.79025 2.46675 16.8358
1.77647 2.48053 16.8002
1.79026 2.46674 16.7925
1.79025 2.46675 16.8136
1.79025 2.46675 16.8136
1.77647 2.48053 16.8238
1.77647 2.48053 16.8002
1.77647 2.48053 16.8697
1.77647 2.48053 16.8468
1.79025 2.46675 16.8584
1.79025 2.46675 16.8584
1.77647 2.48053 16.8468
1.79025 2.46675 16.8358
1.81782 2.43918 17.0622
1.81782 2.43918 17.0396
1.8316 2.4254 17.0509
1.80403 2.45297 17.0509
1.81782 2.43918 17.0396
1.81782 2.43918 17.0622
1.92806 2.32894 16.7925
1.95562 2.30138 16.7925
1.94184 2.31516 16.8002
1.79026 2.46674 16.7925
1.81782 2.43918 16.7925
1.80404 2.45296 16.8002
1.80404 2.45296 16.8002
1.79025 2.46675 16.8136
1.79026 2.46674 16.7925
1.80404 2.45296 16.8238
1.79025 2.46675 16.8136
1.80404 2.45296 16.8002
1.80403 2.45297 17.2087
1.79025 2.46675 17.22
1.79025 2.46675 17.1975
1.80403 2.45297 17.2312
1.79025 2.46675 17.22
1.80403 2.45297 17.2087
1.80403 2.45297 17.2087
1.81782 2.43918 17.22
1.80403 2.45297 17.2312
2.07962 2.17738 17.1862
2.0934 2.1636 17.1749
2.0934 2.1636 17.1975
2.0934 2.1636 17.0623
2.07961 2.17739 17.051
2.0934 2.1636 17.0397
2.0934 2.1636 17.3551
2.0934 2.1636 17.3776
2.07962 2.17738 17.3664
2.07962 2.17738 17.3889
2.06584 2.19116 17.4002
2.06584 2.19116 17.3777
2.07962 2.17738 17.3889
2.0934 2.1636 17.3776
2.0934 2.1636 17.4002
2.06584 2.19116 17.3777
2.07962 2.17738 17.3664
2.07962 2.17738 17.3889
2.07962 2.17738 17.3889
2.07962 2.17738 17.3664
2.0934 2.1636 17.3776
2.07962 2.17738 17.4115
2.0934 2.1636 17.4002
2.0934 2.1636 17.4228
2.07962 2.17738 17.4115
2.07962 2.17738 17.3889
2.0934 2.1636 17.4002
2.06584 2.19116 17.4002
2.07962 2.17738 17.3889
2.07962 2.17738 17.4115
2.0934 2.1636 17.4679
2.07961 2.17739 17.4566
2.0934 2.1636 17.4453
2.05205 2.20495 17.4792
2.03827 2.21873 17.4679
2.05205 2.20495 17.4566
2.05205 2.20495 17.434
2.05205 2.20495 17.4566
2.03827 2.21873 17.4453
2.03827 2.21873 17.4453
2.03827 2.21873 17.4679
2.02449 2.23251 17.4566
2.03827 2.21873 17.4453
2.05205 2.20495 17.4566
2.03827 2.21873 17.4679
2.0934 2.1636 17.2875
2.07962 2.17738 17.2763
2.0934 2.1636 17.265
2.07962 2.17738 17.3438
2.0934 2.1636 17.3326
2.0934 2.1636 17.3551
2.0934 2.1636 17.3551
2.07962 2.17738 17.3664
2.07962 2.17738 17.3438
2.07962 2.17738 17.3438
2.07962 2.17738 17.3213
2.0934 2.1636 17.3326
2.06584 2.19116 17.3326
2.07962 2.17738 17.3213
2.07962 2.17738 17.3438
1.98316 2.27384 17.5812
1.96939 2.28761 17.5926
1.96939 2.28761 17.5699
1.9694 2.2876 17.6382
1.95562 2.30138 17.6492
1.95562 2.30138 17.6266
1.94184 2.31516 17.6612
1.95562 2.30138 17.6715
1.94184 2.31516 17.6848
1.94184 2.31516 17.6612
1.95562 2.30138 17.6492
1.95562 2.30138 17.6715
1.98319 2.27381 17.6715
1.98319 2.27381 17.6492
1.99698 2.26002 17.6612
1.98316 2.27384 17.468
1.96939 2.28761 17.4567
1.98316 2.27384 17.4454
1.96939 2.28761 17.4567
1.96939 2.28761 17.4341
1.98316 2.27384 17.4454
1.98316 2.27384 17.4228
1.99694 2.26006 17.4341
1.98316 2.27384 17.4454
1.98316 2.27384 17.4454
1.96939 2.28761 17.4341
1.98316 2.27384 17.4228
1.98316 2.27384 17.4906
1.96938 2.28762 17.4793
1.98316 2.27384 17.468
1.98316 2.27384 17.4906
1.99694 2.26006 17.5019
1.98316 2.27384 17.5132
2.0934 2.1636 17.4905
2.07961 2.17739 17.4792
2.0934 2.1636 17.4679
1.79025 2.46675 17.6714
1.79026 2.46674 17.6925
1.77647 2.48053 17.6848
1.81782 2.43918 17.6714
1.81782 2.43918 17.6925
1.80404 2.45296 17.6848
1.80404 2.45296 17.6848
1.80404 2.45296 17.6612
1.81782 2.43918 17.6714
1.80404 2.45296 17.6848
1.81782 2.43918 17.6925
1.79026 2.46674 17.6925
1.79026 2.46674 17.6925
1.79025 2.46675 17.6714
1.80404 2.45296 17.6848
1.80404 2.45296 17.6848
1.79025 2.46675 17.6714
1.80404 2.45296 17.6612
1.80404 2.45296 17.6612
1.79025 2.46675 17.6714
1.79025 2.46675 17.6492
1.85916 2.39784 17.6848
1.87294 2.38406 17.6925
1.84538 2.41162 17.6925
1.84538 2.41162 17.6925
1.84538 2.41162 17.6715
1.85916 2.39784 17.6848
1.85916 2.39784 17.6848
1.84538 2.41162 17.6715
1.85916 2.39784 17.6612
1.8316 2.4254 17.6848
1.81782 2.43918 17.6925
1.81782 2.43918 17.6714
1.84538 2.41162 17.6925
1.81782 2.43918 17.6925
1.8316 2.4254 17.6848
1.8316 2.4254 17.6848
1.84538 2.41162 17.6715
1.84538 2.41162 17.6925
1.84538 2.41162 17.6492
1.84538 2.41162 17.6715
1.8316 2.4254 17.6612
1.8316 2.4254 17.6612
1.8316 2.4254 17.6382
1.84538 2.41162 17.6492
1.8316 2.4254 17.6612
1.8316 2.4254 17.6848
1.81782 2.43918 17.6714
1.84538 2.41162 17.6715
1.8316 2.4254 17.6848
1.8316 2.4254 17.6612
1.84538 2.41162 17.6266
1.85916 2.39784 17.6382
1.84538 2.41162 17.6492
1.84538 2.41162 17.6266
1.8316 2.4254 17.6382
1.8316 2.4254 17.6153
1.84538 2.41162 17.6492
1.8316 2.4254 17.6382
1.84538 2.41162 17.6266
1.76267 2.49433 17.3551
1.77646 2.48054 17.3439
1.77646 2.48054 17.3664
1.77646 2.48054 17.3664
1.76267 2.49433 17.3777
1.76267 2.49433 17.3551
1.79025 2.46675 17.4002
1.79025 2.46675 17.4228
1.77646 2.48054 17.4115
1.76267 2.49433 17.2875
1.77646 2.48054 17.2763
1.77646 2.48054 17.2988
1.77646 2.48054 17.2988
1.77646 2.48054 17.2763
1.79025 2.46675 17.2875
1.76267 2.49433 17.3326
1.77646 2.48054 17.3439
1.76267 2.49433 17.3551
1.76267 2.49433 17.3326
1.77646 2.48054 17.3213
1.77646 2.48054 17.3439
1.80403 2.45297 17.2312
1.81782 2.43918 17.22
1.81782 2.43918 17.2425
1.81782 2.43918 17.2425
1.80403 2.45297 17.2538
1.80403 2.45297 17.2312
1.79025 2.46675 17.2875
1.77646 2.48054 17.2763
1.79025 2.46675 17.265
1.79025 2.46675 17.2425
1.80403 2.45297 17.2538
1.79025 2.46675 17.265
1.79025 2.46675 17.468
1.79025 2.46675 17.4906
1.77646 2.48054 17.4793
1.72129 2.53571 17.5472
1.73509 2.52191 17.5585
1.7213 2.5357 17.5699
1.63839 2.61861 17.6848
1.65223 2.60477 17.6925
1.62454 2.63246 17.6925
1.70749 2.54951 17.5585
1.72129 2.53571 17.5472
1.7213 2.5357 17.5699
1.70749 2.54951 17.5358
1.72129 2.53571 17.5472
1.70749 2.54951 17.5585
1.74889 2.50811 17.6153
1.76268 2.49432 17.6266
1.74889 2.50811 17.6382
1.74889 2.50811 17.6382
1.76268 2.49432 17.6266
1.76268 2.49432 17.6492
1.7213 2.5357 17.6382
1.7213 2.5357 17.6153
1.7351 2.5219 17.6266
1.7351 2.5219 17.6266
1.7351 2.5219 17.6492
1.7213 2.5357 17.6382
1.7351 2.5219 17.6266
1.7351 2.5219 17.6039
1.74889 2.50811 17.6153
1.7213 2.5357 17.6153
1.7351 2.5219 17.6039
1.7351 2.5219 17.6266
1.74889 2.50811 17.6153
1.74889 2.50811 17.6382
1.7351 2.5219 17.6266
1.7351 2.5219 17.6266
1.74889 2.50811 17.6382
1.7351 2.5219 17.6492
1.76268 2.49432 17.6925
1.7351 2.5219 17.6925
1.74889 2.50811 17.6848
1.74889 2.50811 17.6848
1.76268 2.49432 17.6714
1.76268 2.49432 17.6925
1.7213 2.5357 17.6382
1.7351 2.5219 17.6492
1.7213 2.5357 17.6612
1.457 2.8 17.6925
1.46971 2.78729 17.6761
1.47379 2.78321 17.6925
1.47379 2.78321 17.6925
1.46971 2.78729 17.6761
1.48501 2.77199 17.6703
1.48501 2.77199 17.6703
1.48882 2.76818 17.6925
1.47379 2.78321 17.6925
2.07978 2.17722 16.8007
2.06614 2.19086 16.7925
2.0934 2.1636 16.7925
2.06582 2.19118 16.836
2.07962 2.17738 16.8243
2.07959 2.17741 16.8472
2.0934 2.1636 16.9041
2.0934 2.1636 16.9267
2.07959 2.17741 16.9153
2.07959 2.17741 16.8472
2.07962 2.17738 16.8243
2.0934 2.1636 16.8364
2.0934 2.1636 16.8364
2.0934 2.1636 16.8589
2.07959 2.17741 16.8472
2.07959 2.17741 16.8472
2.0934 2.1636 16.8589
2.07958 2.17742 16.87
2.0934 2.1636 17.0171
2.07961 2.17739 17.0058
2.0934 2.1636 16.9945
2.07961 2.17739 16.9832
2.0934 2.1636 16.9719
2.0934 2.1636 16.9945
2.0934 2.1636 16.9945
2.07961 2.17739 17.0058
2.07961 2.17739 16.9832
2.0934 2.1636 16.9493
2.0796 2.1774 16.938
2.0934 2.1636 16.9267
1.95562 2.30138 16.7925
1.98319 2.27381 16.7925
1.9694 2.2876 16.8002
1.9694 2.2876 16.8002
[...]
<PointData Scalars="View Factor" >
<DataArray type="Float64" Name="View Factor" NumberOfComponents="1" format="ascii">
0.703416
0.703416
0.703416
0.688152
0.688152
0.688152
0.687173
0.687173
0.687173
0.666613
0.666613
0.666613
0.629257
0.629257
0.629257
0.67525
0.67525
0.67525
0.654177
0.654177
0.654177
0.702941
0.702941
0.702941
0.70217
0.70217
0.70217
0.689968
0.689968
0.689968
0.667871
0.667871
0.667871
0.637587
0.637587
0.637587
0.634104
0.634104
0.634104
0.634559
0.634559
0.634559
0.633339
0.633339
0.633339
0.662379
0.662379
0.662379
0.660608
0.660608
0.660608
0.662315
0.662315
0.662315
0.687091
0.687091
0.687091
0.689128
0.689128
0.689128
0.682975
0.682975
0.682975
0.667303
0.667303
0.667303
0.649224
0.649224
0.649224
0.653506
0.653506
0.653506
0.705245
0.705245
0.705245
0.704117
0.704117
0.704117
0.70352
0.70352
0.70352
0.704599
0.704599
0.704599
0.704634
0.704634
0.704634
0.703994
0.703994
0.703994
0.70343
0.70343
0.70343
0.701971
0.701971
0.701971
0.701004
0.701004
0.701004
0.702428
0.702428
0.702428
0.702652
0.702652
0.702652
0.701678
0.701678
0.701678
0.701493
0.701493
0.701493
0.692131
0.692131
0.692131
0.693447
0.693447
0.693447
0.659342
0.659342
0.659342
0.700475
0.700475
0.700475
0.701454
0.701454
0.701454
0.700708
0.700708
0.700708
0.690758
0.690758
0.690758
0.689924
0.689924
0.689924
0.688929
0.688929
0.688929
0.644761
0.644761
0.644761
0.647273
0.647273
0.647273
0.640553
0.640553
0.640553
0.639831
0.639831
0.639831
0.63994
0.63994
0.63994
0.640182
0.640182
0.640182
0.640234
0.640234
0.640234
0.639305
0.639305
0.639305
0.639608
0.639608
0.639608
0.639552
0.639552
0.639552
0.637963
0.637963
0.637963
0.637109
0.637109
0.637109
0.637829
0.637829
0.637829
0.637158
0.637158
0.637158
0.637377
0.637377
0.637377
0.642799
0.642799
0.642799
0.641144
0.641144
0.641144
0.640838
0.640838
0.640838
0.641421
0.641421
0.641421
0.641377
0.641377
0.641377
0.630156
0.630156
0.630156
0.626779
0.626779
0.626779
0.632104
0.632104
0.632104
0.630433
0.630433
0.630433
0.62726
0.62726
0.62726
0.635169
0.635169
0.635169
0.63534
0.63534
0.63534
0.636331
0.636331
0.636331
0.63593
0.63593
0.63593
0.634376
0.634376
0.634376
0.63398
0.63398
0.63398
0.637253
0.637253
0.637253
0.666885
0.666885
0.666885
0.665276
0.665276
0.665276
0.666385
0.666385
0.666385
0.665438
0.665438
0.665438
0.666489
0.666489
0.666489
0.667002
0.667002
0.667002
0.668115
0.668115
0.668115
0.658876
0.658876
0.658876
0.660906
0.660906
0.660906
0.660841
0.660841
0.660841
0.664442
0.664442
0.664442
0.66295
0.66295
0.66295
0.662269
0.662269
0.662269
0.663768
0.663768
0.663768
0.665121
0.665121
0.665121
0.664691
0.664691
0.664691
0.663595
0.663595
0.663595
0.663814
0.663814
0.663814
0.666577
0.666577
0.666577
0.665229
0.665229
0.665229
0.686617
0.686617
0.686617
0.686311
0.686311
0.686311
0.683244
0.683244
0.683244
0.689489
0.689489
0.689489
0.688942
0.688942
0.688942
0.687327
0.687327
0.687327
0.687608
0.687608
0.687608
0.687992
0.687992
0.687992
0.688148
0.688148
0.688148
0.689058
0.689058
0.689058
0.689155
0.689155
0.689155
0.67983
0.67983
0.67983
0.675902
0.675902
0.675902
0.659348
0.659348
0.659348
0.675622
0.675622
0.675622
0.676215
0.676215
0.676215
0.671564
0.671564
0.671564
0.670744
0.670744
0.670744
0.671081
0.671081
0.671081
0.670372
0.670372
0.670372
0.672261
0.672261
0.672261
0.672063
0.672063
0.672063
0.671501
0.671501
0.671501
0.670594
0.670594
0.670594
0.666702
0.666702
0.666702
0.667339
0.667339
0.667339
0.669339
0.669339
0.669339
0.634673
0.634673
0.634673
0.63705
0.63705
0.63705
0.63756
0.63756
0.63756
0.650979
0.650979
0.650979
0.650473
0.650473
0.650473
0.649373
0.649373
0.649373
0.650458
0.650458
0.650458
0.650293
0.650293
0.650293
0.650162
0.650162
0.650162
0.648014
0.648014
0.648014
0.648369
0.648369
0.648369
0.648202
0.648202
0.648202
0.649048
0.649048
0.649048
0.649252
0.649252
0.649252
0.648849
0.648849
0.648849
0.658875
0.658875
0.658875
0.665184
0.665184
0.665184
0.660929
0.660929
0.660929
0.654068
0.654068
0.654068
0.671781
0.671781
0.671781
0.67507
0.67507
0.67507
0.656609
0.656609
0.656609
0.653859
0.653859
0.653859
0.656273
0.656273
0.656273
0.648674
0.648674
0.648674
0.643469
0.643469
0.643469
0.655412
0.655412
0.655412
0.704127
0.704127
0.704127
0.680834
0.680834
0.680834
0.692358
0.692358
0.692358
0.682882
0.682882
0.682882
0.669747
0.669747
0.669747
0.672992
0.672992
0.672992
0.681131
0.681131
0.681131
0.678667
0.678667
0.678667
0.695621
0.695621
0.695621
0.696495
0.696495
0.696495
0.691116
0.691116
0.691116
0.691532
0.691532
0.691532
0.688957
0.688957
0.688957
0.690513
0.690513
0.690513
0.687812
0.687812
0.687812
0.688349
0.688349
0.688349
0.674063
0.674063
0.674063
0.690326
0.690326
0.690326
0.683282
0.683282
0.683282
0.684463
0.684463
0.684463
0.687045
0.687045
0.687045
0.680325
0.680325
0.680325
0.700243
0.700243
0.700243
0.699068
0.699068
0.699068
0.698191
0.698191
0.698191
0.700536
0.700536
0.700536
0.691546
0.691546
0.691546
0.696123
0.696123
0.696123
0.685381
0.685381
0.685381
0.6872
0.6872
0.6872
0.68412
0.68412
0.68412
0.682823
0.682823
0.682823
0.680076
0.680076
0.680076
0.691124
0.691124
0.691124
0.690893
0.690893
0.690893
0.69553
0.69553
0.69553
0.695072
0.695072
0.695072
0.69443
0.69443
0.69443
0.685707
0.685707
0.685707
0.682157
0.682157
0.682157
0.685238
0.685238
0.685238
0.683458
0.683458
0.683458
0.682774
0.682774
0.682774
0.68454
0.68454
0.68454
0.690693
0.690693
0.690693
0.644273
0.644273
0.644273
0.643047
0.643047
0.643047
0.643735
0.643735
0.643735
0.643449
0.643449
0.643449
0.643786
0.643786
0.643786
0.643941
0.643941
0.643941
0.64443
0.64443
0.64443
0.643947
0.643947
0.643947
0.644258
0.644258
0.644258
0.643769
0.643769
0.643769
0.643885
0.643885
0.643885
0.643812
0.643812
0.643812
0.645213
0.645213
0.645213
0.644968
0.644968
0.644968
0.644989
0.644989
0.644989
0.644527
0.644527
0.644527
0.644294
0.644294
0.644294
0.644052
0.644052
0.644052
0.644026
0.644026
0.644026
0.64708
0.64708
0.64708
0.647087
0.647087
0.647087
0.646075
0.646075
0.646075
0.646286
0.646286
0.646286
0.705655
0.705655
0.705655
0.689105
0.689105
0.689105
0.669199
0.669199
0.669199
0.638682
0.638682
0.638682
0.639187
0.639187
0.639187
0.639082
0.639082
0.639082
0.636638
0.636638
0.636638
0.636861
0.636861
0.636861
0.636515
0.636515
0.636515
0.637993
0.637993
0.637993
0.638409
0.638409
0.638409
0.637517
0.637517
0.637517
0.637279
0.637279
0.637279
0.637826
0.637826
0.637826
0.63771
0.63771
0.63771
0.683773
0.683773
0.683773
0.685667
0.685667
0.685667
0.684746
0.684746
0.684746
0.687256
0.687256
0.687256
0.686537
0.686537
0.686537
0.688032
0.688032
0.688032
0.688174
0.688174
0.688174
0.687205
0.687205
0.687205
0.682067
0.682067
0.682067
0.681468
0.681468
0.681468
0.676459
0.676459
0.676459
0.675758
0.675758
0.675758
0.646402
0.646402
0.646402
0.643443
0.643443
0.643443
0.643234
0.643234
0.643234
0.63906
0.63906
0.63906
0.640065
0.640065
0.640065
0.63737
0.63737
0.63737
0.63652
0.63652
0.63652
0.656221
0.656221
0.656221
0.658484
0.658484
0.658484
0.636664
0.636664
0.636664
0.636092
0.636092
0.636092
0.636816
0.636816
0.636816
0.636387
0.636387
0.636387
0.639079
0.639079
0.639079
0.637755
0.637755
0.637755
0.637056
0.637056
0.637056
0.636884
0.636884
0.636884
0.637592
0.637592
0.637592
0.637938
0.637938
0.637938
0.636621
0.636621
0.636621
0.638788
0.638788
0.638788
0.638536
0.638536
0.638536
0.63973
0.63973
0.63973
0.639345
0.639345
0.639345
0.639192
0.639192
0.639192
0.642536
0.642536
0.642536
0.642432
0.642432
0.642432
0.642728
0.642728
0.642728
0.642949
0.642949
0.642949
0.644108
0.644108
0.644108
0.643541
0.643541
0.643541
0.642728
0.642728
0.642728
0.64249
0.64249
0.64249
0.642527
0.642527
0.642527
0.641629
0.641629
0.641629
0.642188
0.642188
0.642188
0.641942
0.641942
0.641942
0.630876
0.630876
0.630876
0.631577
0.631577
0.631577
0.633306
0.633306
0.633306
0.627595
0.627595
0.627595
0.625636
0.625636
0.625636
0.624512
0.624512
0.624512
0.624721
0.624721
0.624721
0.629909
0.629909
0.629909
0.629161
0.629161
0.629161
0.62803
0.62803
0.62803
0.66539
0.66539
0.66539
0.634894
0.634894
0.634894
0.642061
0.642061
0.642061
0.639252
0.639252
0.639252
0.634267
0.634267
0.634267
0.63459
0.63459
0.63459
0.634794
0.634794
0.634794
0.677069
0.677069
0.677069
0.668041
0.668041
0.668041
0.667822
0.667822
0.667822
0.668537
0.668537
0.668537
0.669003
0.669003
0.669003
0.656517
0.656517
0.656517
0.654103
0.654103
0.654103
0.663721
0.663721
0.663721
0.656956
0.656956
0.656956
0.658987
0.658987
0.658987
0.657567
0.657567
0.657567
0.659161
0.659161
0.659161
0.652873
0.652873
0.652873
0.655563
0.655563
0.655563
0.655122
0.655122
0.655122
0.652149
0.652149
0.652149
0.649338
0.649338
0.649338
0.650808
0.650808
0.650808
0.652735
0.652735
0.652735
0.644528
0.644528
0.644528
0.648024
0.648024
0.648024
0.647138
0.647138
0.647138
0.637817
0.637817
0.637817
0.636395
0.636395
0.636395
0.641549
0.641549
0.641549
0.643889
0.643889
0.643889
0.684303
0.684303
0.684303
0.685107
0.685107
0.685107
0.685592
0.685592
0.685592
0.684059
0.684059
0.684059
0.682594
0.682594
0.682594
0.681868
0.681868
0.681868
0.683634
0.683634
0.683634
0.681863
0.681863
0.681863
0.682737
0.682737
0.682737
0.688308
0.688308
0.688308
0.689255
0.689255
0.689255
0.688564
0.688564
0.688564
0.686771
0.686771
0.686771
0.68382
0.68382
0.68382
0.686473
0.686473
0.686473
0.684992
0.684992
0.684992
0.680681
0.680681
0.680681
0.667726
0.667726
0.667726
0.667971
0.667971
0.667971
0.665065
0.665065
0.665065
0.666635
0.666635
0.666635
0.665196
0.665196
0.665196
0.670505
0.670505
0.670505
0.673798
0.673798
0.673798
0.672934
0.672934
0.672934
0.672366
0.672366
0.672366
0.67226
0.67226
0.67226
0.675424
0.675424
0.675424
0.675407
0.675407
0.675407
0.676192
0.676192
0.676192
0.676191
0.676191
0.676191
0.671704
0.671704
0.671704
0.674431
0.674431
0.674431
0.675275
0.675275
0.675275
0.675869
0.675869
0.675869
0.675536
0.675536
0.675536
0.67976
0.67976
0.67976
0.681686
0.681686
0.681686
0.676005
0.676005
0.676005
0.678291
0.678291
0.678291
0.679234
0.679234
0.679234
0.679465
0.679465
0.679465
0.672754
0.672754
0.672754
0.674359
0.674359
0.674359
0.673687
0.673687
0.673687
0.670739
0.670739
0.670739
0.669803
0.669803
0.669803
0.668137
0.668137
0.668137
0.669062
0.669062
0.669062
0.669889
0.669889
0.669889
0.665888
0.665888
0.665888
0.65252
0.65252
0.65252
0.651926
0.651926
0.651926
0.648558
0.648558
0.648558
0.647877
0.647877
0.647877
0.65061
0.65061
0.65061
0.644271
0.644271
0.644271
0.646833
0.646833
0.646833
0.646462
0.646462
0.646462
0.639429
0.639429
0.639429
0.640177
0.640177
0.640177
0.638165
0.638165
0.638165
0.640023
0.640023
0.640023
0.650614
0.650614
0.650614
0.650896
0.650896
0.650896
0.650765
0.650765
0.650765
0.649995
0.649995
0.649995
0.650582
0.650582
0.650582
0.650863
0.650863
0.650863
0.650748
0.650748
0.650748
0.65032
0.65032
0.65032
0.650174
0.650174
0.650174
0.646982
0.646982
0.646982
0.64689
0.64689
0.64689
0.647841
0.647841
0.647841
0.647649
0.647649
0.647649
0.64747
0.64747
0.64747
0.648893
0.648893
0.648893
0.648553
0.648553
0.648553
0.648713
0.648713
0.648713
0.648862
0.648862
0.648862
0.64854
0.64854
0.64854
0.648538
0.648538
0.648538
0.650036
0.650036
0.650036
0.650158
0.650158
0.650158
0.649916
0.649916
0.649916
0.667401
0.667401
0.667401
0.680317
0.680317
0.680317
0.679236
0.679236
0.679236
0.676361
0.676361
0.676361
0.674575
0.674575
0.674575
0.675852
0.675852
0.675852
0.678716
0.678716
0.678716
0.675551
0.675551
0.675551
0.681335
0.681335
0.681335
0.676855
0.676855
0.676855
0.679739
0.679739
0.679739
0.67271
0.67271
0.67271
0.671166
0.671166
0.671166
0.672253
0.672253
0.672253
0.664747
0.664747
0.664747
0.666965
0.666965
0.666965
0.670721
0.670721
0.670721
0.670262
0.670262
0.670262
0.666517
0.666517
0.666517
0.682294
0.682294
0.682294
0.685756
0.685756
0.685756
0.685301
0.685301
0.685301
0.686719
0.686719
0.686719
0.65132
0.65132
0.65132
0.647833
0.647833
0.647833
0.65558
0.65558
0.65558
0.647871
0.647871
0.647871
0.648209
0.648209
0.648209
0.648214
0.648214
0.648214
0.647879
0.647879
0.647879
0.653187
0.653187
0.653187
0.653528
0.653528
0.653528
0.655931
0.655931
0.655931
0.663926
0.663926
0.663926
0.661477
0.661477
0.661477
0.66128
0.66128
0.66128
0.662957
0.662957
0.662957
0.667745
0.667745
0.667745
0.663514
0.663514
0.663514
0.650943
0.650943
0.650943
0.648184
0.648184
0.648184
0.659541
0.659541
0.659541
0.651679
0.651679
0.651679
0.642718
0.642718
0.642718
0.666622
0.666622
0.666622
0.668044
0.668044
0.668044
0.654075
0.654075
0.654075
0.655997
0.655997
0.655997
0.656563
0.656563
0.656563
0.66072
0.66072
0.66072
0.703615
0.703615
0.703615
0.70244
0.70244
0.70244
0.703027
0.703027
0.703027
0.702517
0.702517
0.702517
0.705483
0.705483
0.705483
0.705072
0.705072
0.705072
0.69517
0.69517
0.69517
0.687682
0.687682
0.687682
0.683341
0.683341
0.683341
0.682813
0.682813
0.682813
0.684243
0.684243
0.684243
0.686406
0.686406
0.686406
0.683703
0.683703
0.683703
0.699971
0.699971
0.699971
0.700653
0.700653
0.700653
0.701926
0.701926
0.701926
0.696203
0.696203
0.696203
0.694311
0.694311
0.694311
0.684054
0.684054
0.684054
0.691535
0.691535
0.691535
0.690195
0.690195
0.690195
0.68972
0.68972
0.68972
0.688932
0.688932
0.688932
0.67028
0.67028
0.67028
0.66828
0.66828
0.66828
0.664577
0.664577
0.664577
0.651432
0.651432
0.651432
0.656176
0.656176
0.656176
0.698231
0.698231
0.698231
0.697117
0.697117
0.697117
0.697198
0.697198
0.697198
0.693275
0.693275
0.693275
0.690087
0.690087
0.690087
0.694039
0.694039
0.694039
0.696233
0.696233
0.696233
0.694347
0.694347
0.694347
0.695438
0.695438
0.695438
0.689544
0.689544
0.689544
0.690679
0.690679
0.690679
0.692267
0.692267
0.692267
0.692711
0.692711
0.692711
0.6917
0.6917
0.6917
0.690123
0.690123
0.690123
0.692838
0.692838
0.692838
0.693741
0.693741
0.693741
0.694822
0.694822
0.694822
0.675328
0.675328
0.675328
0.673536
0.673536
0.673536
0.677627
0.677627
0.677627
0.674787
0.674787
0.674787
0.685286
0.685286
0.685286
0.685983
0.685983
0.685983
0.68257
0.68257
0.68257
0.684698
0.684698
0.684698
0.682511
0.682511
0.682511
0.691122
0.691122
0.691122
0.688459
0.688459
0.688459
0.690706
0.690706
0.690706
0.691956
0.691956
0.691956
0.684858
0.684858
0.684858
0.683674
0.683674
0.683674
0.685238
0.685238
0.685238
0.687448
0.687448
0.687448
0.687836
0.687836
0.687836
0.688866
0.688866
0.688866
0.690172
0.690172
0.690172
0.69055
0.69055
0.69055
0.691155
0.691155
0.691155
0.696268
0.696268
0.696268
0.690915
0.690915
0.690915
0.689893
0.689893
0.689893
0.690278
0.690278
0.690278
0.679279
0.679279
0.679279
0.68073
0.68073
0.68073
0.677478
0.677478
0.677478
0.679916
0.679916
0.679916
0.678621
0.678621
0.678621
0.6794
0.6794
0.6794
0.690203
0.690203
0.690203
0.690415
0.690415
0.690415
0.689621
0.689621
0.689621
0.686567
0.686567
0.686567
0.68772
0.68772
0.68772
0.689251
0.689251
0.689251
0.69181
0.69181
0.69181
0.692854
0.692854
0.692854
0.693666
0.693666
0.693666
0.691562
0.691562
0.691562
0.696396
0.696396
0.696396
0.696093
0.696093
0.696093
0.693802
0.693802
0.693802
0.692157
0.692157
0.692157
0.692974
0.692974
0.692974
0.693802
0.693802
0.693802
0.687203
0.687203
0.687203
0.688244
0.688244
0.688244
0.689488
0.689488
0.689488
0.689683
0.689683
0.689683
0.687519
0.687519
0.687519
0.688752
0.688752
0.688752
0.692286
0.692286
0.692286
0.691435
0.691435
0.691435
0.692257
0.692257
0.692257
0.693074
0.693074
0.693074
0.693058
0.693058
0.693058
0.691521
0.691521
0.691521
0.692324
0.692324
0.692324
0.698902
0.698902
0.698902
0.698359
0.698359
0.698359
0.697855
0.697855
0.697855
0.697882
0.697882
0.697882
0.694613
0.694613
0.694613
0.695506
0.695506
0.695506
0.696617
0.696617
0.696617
0.696828
0.696828
0.696828
0.696037
0.696037
0.696037
0.694935
0.694935
0.694935
0.644223
0.644223
0.644223
0.644423
0.644423
0.644423
0.644746
0.644746
0.644746
0.64435
0.64435
0.64435
0.644694
0.644694
0.644694
0.644889
0.644889
0.644889
0.645174
0.645174
0.645174
0.644504
0.644504
0.644504
0.64437
0.64437
0.64437
0.644175
0.644175
0.644175
0.644244
0.644244
0.644244
0.644716
0.644716
0.644716
0.644651
0.644651
0.644651
0.646886
0.646886
0.646886
0.646693
0.646693
0.646693
0.646487
0.646487
0.646487
0.646165
0.646165
0.646165
0.646274
0.646274
0.646274
0.646683
0.646683
0.646683
0.646464
0.646464
0.646464
0.646411
0.646411
0.646411
0.64658
0.64658
0.64658
0.646868
0.646868
0.646868
0.646818
0.646818
0.646818
0.690147
0.690147
0.690147
0.695499
0.695499
0.695499
0.694673
0.694673
0.694673
0.694494
0.694494
0.694494
0.694846
0.694846
0.694846
0.692922
0.692922
0.692922
0.693383
0.693383
0.693383
0.693843
0.693843
0.693843
0.693594
0.693594
0.693594
0.693014
0.693014
0.693014
0.692665
0.692665
0.692665
0.693043
0.693043
0.693043
0.692739
0.692739
0.692739
0.697299
0.697299
0.697299
0.697769
0.697769
0.697769
0.697864
0.697864
0.697864
0.685785
0.685785
0.685785
0.686526
0.686526
0.686526
0.687402
0.687402
0.687402
0.686771
0.686771
0.686771
0.688001
0.688001
0.688001
0.688616
0.688616
0.688616
0.688966
0.688966
0.688966
0.697085
0.697085
0.697085
0.693589
0.693589
0.693589
0.636786
0.636786
0.636786
0.637106
0.637106
0.637106
0.636984
0.636984
0.636984
0.63496
0.63496
0.63496
0.63852
0.63852
0.63852
0.638646
0.638646
0.638646
0.638286
0.638286
0.638286
0.638221
0.638221
0.638221
0.63896
0.63896
0.63896
0.638899
0.638899
0.638899
0.683301
0.683301
0.683301
0.684372
0.684372
0.684372
0.684677
0.684677
0.684677
0.683514
0.683514
0.683514
0.68382
0.68382
0.68382
0.682839
0.682839
0.682839
0.682858
0.682858
0.682858
0.683747
0.683747
0.683747
0.686116
0.686116
0.686116
0.686306
0.686306
0.686306
0.685603
0.685603
0.685603
0.684724
0.684724
0.684724
0.685322
0.685322
0.685322
0.684635
0.684635
0.684635
0.685998
0.685998
0.685998
0.684252
0.684252
0.684252
0.68572
0.68572
0.68572
0.683075
0.683075
0.683075
0.686391
0.686391
0.686391
0.688312
0.688312
0.688312
0.688308
0.688308
0.688308
0.687341
0.687341
0.687341
0.6852
0.6852
0.6852
0.684941
0.684941
0.684941
0.683487
0.683487
0.683487
0.684136
0.684136
0.684136
0.681878
0.681878
0.681878
0.678468
0.678468
0.678468
0.677233
0.677233
0.677233
0.676511
0.676511
0.676511
0.643621
0.643621
0.643621
0.638535
0.638535
0.638535
0.64227
0.64227
0.64227
0.637216
0.637216
0.637216
0.637091
0.637091
0.637091
0.637513
0.637513
0.637513
0.638052
0.638052
0.638052
0.67414
0.67414
0.67414
0.66865
0.66865
0.66865
0.67047
0.67047
0.67047
0.673219
0.673219
0.673219
0.665497
0.665497
0.665497
0.651027
0.651027
0.651027
0.652861
0.652861
0.652861
0.656932
0.656932
0.656932
0.653532
0.653532
0.653532
0.642604
0.642604
0.642604
0.64286
0.64286
0.64286
0.642715
0.642715
0.642715
0.64233
0.64233
0.64233
0.643447
0.643447
0.643447
0.643282
0.643282
0.643282
0.643262
0.643262
0.643262
0.642929
0.642929
0.642929
0.64293
0.64293
0.64293
0.642761
0.642761
0.642761
0.642069
0.642069
0.642069
0.642199
0.642199
0.642199
0.639461
0.639461
0.639461
0.639342
0.639342
0.639342
0.640311
0.640311
0.640311
0.639954
0.639954
0.639954
0.638276
0.638276
0.638276
0.638429
0.638429
0.638429
0.638933
0.638933
0.638933
0.639264
0.639264
0.639264
0.638734
0.638734
0.638734
0.638438
0.638438
0.638438
0.638614
0.638614
0.638614
0.639199
0.639199
0.639199
0.639388
0.639388
0.639388
0.639098
0.639098
0.639098
0.636304
0.636304
0.636304
0.635578
0.635578
0.635578
0.636149
0.636149
0.636149
0.636509
0.636509
0.636509
0.635385
0.635385
0.635385
0.635753
0.635753
0.635753
0.6374
0.6374
0.6374
0.637135
0.637135
0.637135
0.639985
0.639985
0.639985
0.640459
0.640459
0.640459
0.640789
0.640789
0.640789
0.640602
0.640602
0.640602
0.641051
0.641051
0.641051
0.64096
0.64096
0.64096
0.640452
0.640452
0.640452
0.640356
0.640356
0.640356
0.643736
0.643736
0.643736
0.64324
0.64324
0.64324
0.643373
0.643373
0.643373
0.643122
0.643122
0.643122
0.643869
0.643869
0.643869
0.643623
0.643623
0.643623
0.644815
0.644815
0.644815
0.644215
0.644215
0.644215
0.643933
0.643933
0.643933
0.644578
0.644578
0.644578
0.644679
0.644679
0.644679
0.643217
0.643217
0.643217
0.642797
0.642797
0.642797
0.642434
0.642434
0.642434
0.642496
0.642496
0.642496
0.64299
0.64299
0.64299
0.642933
0.642933
0.642933
0.643291
0.643291
0.643291
0.643417