<VTKFile type="UnstructuredGrid" version="1.0">
<UnstructuredGrid>
<Piece NumberOfPoints="11046" NumberOfCells="3682">
<Points>
<DataArray type="Float64" NumberOfComponents="3" format="ascii">
3.01 0.0582363 7.40676
3.01 0.0717021 7.3875
3.01 0.05 7.3875
3.01 0.95 7.81621
3.01 0.942301 7.8357
3.01 0.95 7.8552
3.01 0.0962623 8.2875
3.01 0.107711 8.26733
3.01 0.086422 8.26716
3.01 0.466226 8.03111
3.01 0.443707 8.03111
3.01 0.454968 8.05072
3.01 0.353567 7.95281
3.01 0.376113 7.95282
3.01 0.364839 7.93328
3.01 0.376113 7.95282
3.01 0.353567 7.95281
3.01 0.364843 7.97236
3.01 0.353567 7.95281
3.01 0.342292 7.97236
3.01 0.364843 7.97236
3.01 0.37611 7.91375
3.01 0.387379 7.89423
3.01 0.364837 7.89423
3.01 0.376113 7.95282
3.01 0.387381 7.93328
3.01 0.364839 7.93328
3.01 0.364839 7.93328
3.01 0.387381 7.93328
3.01 0.37611 7.91375
3.01 0.066417 8.26952
3.01 0.05 8.26375
3.01 0.05 8.2875
3.01 0.0582363 7.40676
3.01 0.0817675 7.40698
3.01 0.0717021 7.3875
3.01 0.0817675 7.40698
3.01 0.0582363 7.40676
3.01 0.0711754 7.42639
3.01 0.11641 7.3875
3.01 0.127475 7.40703
3.01 0.138968 7.3875
3.01 0.127475 7.40703
3.01 0.11641 7.3875
3.01 0.104722 7.40703
3.01 0.0711754 7.42639
3.01 0.0934889 7.4265
3.01 0.0817675 7.40698
3.01 0.0934889 7.4265
3.01 0.104722 7.40703
3.01 0.0817675 7.40698
3.01 0.116091 7.42653
3.01 0.127475 7.40703
3.01 0.104722 7.40703
3.01 0.116091 7.42653
3.01 0.104722 7.40703
3.01 0.0934889 7.4265
3.01 0.116091 7.42653
3.01 0.104394 7.44598
3.01 0.127244 7.44601
3.01 0.104394 7.44598
3.01 0.116091 7.42653
3.01 0.0934889 7.4265
3.01 0.941764 7.40676
3.01 0.95 7.3875
3.01 0.928298 7.3875
3.01 0.387379 7.89423
3.01 0.376108 7.87472
3.01 0.364837 7.89423
3.01 0.161282 7.81621
3.01 0.149908 7.79672
3.01 0.138583 7.81621
3.01 0.0933091 7.89421
3.01 0.104333 7.8747
3.01 0.0813038 7.8747
3.01 0.104333 7.8747
3.01 0.0933065 7.8552
3.01 0.0813038 7.8747
3.01 0.331016 7.99192
3.01 0.308447 7.99191
3.01 0.319739 8.01149
3.01 0.308447 7.99191
3.01 0.331016 7.99192
3.01 0.319729 7.97236
3.01 0.331016 7.99192
3.01 0.342292 7.97236
3.01 0.319729 7.97236
3.01 0.138613 8.01141
3.01 0.149933 7.99186
3.01 0.12718 7.99185
3.01 0.138613 8.01141
3.01 0.161316 8.01142
3.01 0.149933 7.99186
3.01 0.161316 8.01142
3.01 0.172648 7.99186
3.01 0.149933 7.99186
3.01 0.206681 8.01144
3.01 0.217999 7.99188
3.01 0.195336 7.99187
3.01 0.263262 7.9919
3.01 0.274572 8.01147
3.01 0.285863 7.99191
3.01 0.274559 7.97235
3.01 0.263262 7.9919
3.01 0.285863 7.99191
3.01 0.240697 7.407
3.01 0.252012 7.3875
3.01 0.229409 7.3875
3.01 0.138758 7.42653
3.01 0.127475 7.40703
3.01 0.116091 7.42653
3.01 0.127244 7.44601
3.01 0.138758 7.42653
3.01 0.116091 7.42653
3.01 0.229332 7.46547
3.01 0.218031 7.44599
3.01 0.206685 7.46548
3.01 0.184016 7.46549
3.01 0.172705 7.44601
3.01 0.161325 7.46549
3.01 0.184093 7.42651
3.01 0.161431 7.42653
3.01 0.172705 7.44601
3.01 0.218082 7.407
3.01 0.240697 7.407
3.01 0.229409 7.3875
3.01 0.218082 7.407
3.01 0.229409 7.3875
3.01 0.206798 7.3875
3.01 0.138617 7.46549
3.01 0.149916 7.48496
3.01 0.161325 7.46549
3.01 0.376107 7.79672
3.01 0.364834 7.77723
3.01 0.353559 7.79672
3.01 0.942264 8.03097
3.01 0.95 8.05056
3.01 0.95 8.0114
3.01 0.466226 8.03111
3.01 0.454966 8.01151
3.01 0.443707 8.03111
3.01 0.466223 7.95282
3.01 0.488741 7.95282
3.01 0.477482 7.93328
3.01 0.466223 7.95282
3.01 0.443703 7.95282
3.01 0.454964 7.97237
3.01 0.511259 7.95282
3.01 0.533777 7.95282
3.01 0.522518 7.93328
3.01 0.533777 7.95282
3.01 0.511259 7.95282
3.01 0.522517 7.97237
3.01 0.488741 7.95282
3.01 0.5 7.93328
3.01 0.477482 7.93328
3.01 0.511259 7.95282
3.01 0.5 7.93328
3.01 0.488741 7.95282
3.01 0.5 7.93328
3.01 0.511259 7.95282
3.01 0.522518 7.93328
3.01 0.387388 8.01151
3.01 0.40992 8.01151
3.01 0.398653 7.99193
3.01 0.376117 7.99193
3.01 0.387388 8.01151
3.01 0.398653 7.99193
3.01 0.443703 7.95282
3.01 0.432443 7.97237
3.01 0.454964 7.97237
3.01 0.432443 7.97237
3.01 0.443705 7.99193
3.01 0.454964 7.97237
3.01 0.274559 7.97235
3.01 0.285853 7.9528
3.01 0.26325 7.9528
3.01 0.387384 7.97237
3.01 0.376117 7.99193
3.01 0.398653 7.99193
3.01 0.376117 7.99193
3.01 0.387384 7.97237
3.01 0.364843 7.97236
3.01 0.387384 7.97237
3.01 0.376113 7.95282
3.01 0.364843 7.97236
3.01 0.342292 7.97236
3.01 0.331009 7.95281
3.01 0.319729 7.97236
3.01 0.331009 7.95281
3.01 0.342292 7.97236
3.01 0.353567 7.95281
3.01 0.545011 8.2875
3.01 0.533759 8.2677
3.01 0.522505 8.2875
3.01 0.533762 8.22811
3.01 0.55627 8.22811
3.01 0.545018 8.20833
3.01 0.55627 8.22811
3.01 0.567528 8.20832
3.01 0.545018 8.20833
3.01 0.567528 8.20832
3.01 0.59004 8.20832
3.01 0.578788 8.18856
3.01 0.466232 8.14908
3.01 0.477488 8.12937
3.01 0.454974 8.12936
3.01 0.567516 8.2875
3.01 0.590022 8.2875
3.01 0.578772 8.2677
3.01 0.601316 8.14907
3.01 0.590051 8.1688
3.01 0.61257 8.1688
3.01 0.62384 8.14906
3.01 0.601316 8.14907
3.01 0.61257 8.1688
3.01 0.680198 8.12931
3.01 0.702757 8.12929
3.01 0.691494 8.10962
3.01 0.086422 8.26716
3.01 0.073896 8.2875
3.01 0.0962623 8.2875
3.01 0.073896 8.2875
3.01 0.086422 8.26716
3.01 0.066417 8.26952
3.01 0.05 8.2875
3.01 0.073896 8.2875
3.01 0.066417 8.26952
3.01 0.0721919 8.24789
3.01 0.05 8.26375
3.01 0.066417 8.26952
3.01 0.086422 8.26716
3.01 0.0721919 8.24789
3.01 0.066417 8.26952
3.01 0.118481 8.2875
3.01 0.107711 8.26733
3.01 0.0962623 8.2875
3.01 0.5 8.2875
3.01 0.488747 8.2677
3.01 0.477495 8.2875
3.01 0.432484 8.2875
3.01 0.421228 8.2677
3.01 0.409978 8.2875
3.01 0.443725 8.18856
3.01 0.432465 8.16881
3.01 0.421212 8.18856
3.01 0.319802 8.12931
3.01 0.342348 8.12933
3.01 0.331063 8.10963
3.01 0.353629 8.14905
3.01 0.364886 8.12934
3.01 0.342348 8.12933
3.01 0.10433 7.8357
3.01 0.0813011 7.8357
3.01 0.0933065 7.8552
3.01 0.0939466 7.3875
3.01 0.104722 7.40703
3.01 0.11641 7.3875
3.01 0.0939466 7.3875
3.01 0.0717021 7.3875
3.01 0.0817675 7.40698
3.01 0.104722 7.40703
3.01 0.0939466 7.3875
3.01 0.0817675 7.40698
3.01 0.0933065 7.8552
3.01 0.0710513 7.8552
3.01 0.0813038 7.8747
3.01 0.0710513 7.8552
3.01 0.0933065 7.8552
3.01 0.0813011 7.8357
3.01 0.115908 7.93324
3.01 0.104337 7.91372
3.01 0.0933131 7.93324
3.01 0.104337 7.91372
3.01 0.115908 7.93324
3.01 0.127165 7.91372
3.01 0.104343 7.95276
3.01 0.115908 7.93324
3.01 0.0933131 7.93324
3.01 0.104343 7.95276
3.01 0.0933188 7.9723
3.01 0.115915 7.9723
3.01 0.942303 7.79671
3.01 0.95 7.81621
3.01 0.95 7.77722
3.01 0.92895 7.77722
3.01 0.942303 7.79671
3.01 0.95 7.77722
3.01 0.9187 7.79671
3.01 0.895671 7.79671
3.01 0.906695 7.81621
3.01 0.92895 7.77722
3.01 0.9187 7.79671
3.01 0.942303 7.79671
3.01 0.942316 7.56285
3.01 0.95 7.54336
3.01 0.928965 7.54335
3.01 0.95 7.62132
3.01 0.95 7.58234
3.01 0.942309 7.60183
3.01 0.942316 7.56285
3.01 0.95 7.58234
3.01 0.95 7.54336
3.01 0.95 7.42605
3.01 0.95 7.3875
3.01 0.941764 7.40676
3.01 0.95 7.42605
3.01 0.942358 7.44571
3.01 0.95 7.46525
3.01 0.612617 7.46545
3.01 0.623887 7.48493
3.01 0.635157 7.46545
3.01 0.895671 7.79671
3.01 0.906696 7.77722
3.01 0.884102 7.77722
3.01 0.906696 7.77722
3.01 0.895671 7.79671
3.01 0.9187 7.79671
3.01 0.92895 7.77722
3.01 0.906696 7.77722
3.01 0.9187 7.79671
3.01 0.353563 7.91375
3.01 0.364839 7.93328
3.01 0.37611 7.91375
3.01 0.364837 7.89423
3.01 0.353563 7.91375
3.01 0.37611 7.91375
3.01 0.297145 7.93327
3.01 0.308439 7.95281
3.01 0.319723 7.93327
3.01 0.308439 7.95281
3.01 0.297145 7.93327
3.01 0.285853 7.9528
3.01 0.308439 7.95281
3.01 0.319729 7.97236
3.01 0.331009 7.95281
3.01 0.319723 7.93327
3.01 0.308439 7.95281
3.01 0.331009 7.95281
3.01 0.17262 7.79672
3.01 0.149908 7.79672
3.01 0.161282 7.81621
3.01 0.138583 7.81621
3.01 0.149909 7.8357
3.01 0.161282 7.81621
3.01 0.149909 7.8357
3.01 0.138583 7.81621
3.01 0.127158 7.8357
3.01 0.149909 7.8357
3.01 0.161284 7.8552
3.01 0.172622 7.83571
3.01 0.161282 7.81621
3.01 0.149909 7.8357
3.01 0.172622 7.83571
3.01 0.240621 7.91374
3.01 0.229301 7.89422
3.01 0.217979 7.91373
3.01 0.229301 7.89422
3.01 0.206649 7.89422
3.01 0.217979 7.91373
3.01 0.195316 7.91373
3.01 0.217979 7.91373
3.01 0.206649 7.89422
3.01 0.115908 7.93324
3.01 0.138594 7.93324
3.01 0.127165 7.91372
3.01 0.0933091 7.89421
3.01 0.115904 7.89421
3.01 0.104333 7.8747
3.01 0.115904 7.89421
3.01 0.127161 7.8747
3.01 0.104333 7.8747
3.01 0.115904 7.89421
3.01 0.0933091 7.89421
3.01 0.104337 7.91372
3.01 0.127165 7.91372
3.01 0.115904 7.89421
3.01 0.104337 7.91372
3.01 0.115901 7.8552
3.01 0.0933065 7.8552
3.01 0.104333 7.8747
3.01 0.127161 7.8747
3.01 0.115901 7.8552
3.01 0.104333 7.8747
3.01 0.115901 7.8552
3.01 0.10433 7.8357
3.01 0.0933065 7.8552
3.01 0.10433 7.8357
3.01 0.115901 7.8552
3.01 0.127158 7.8357
3.01 0.183972 7.81621
3.01 0.195307 7.79672
3.01 0.17262 7.79672
3.01 0.161282 7.81621
3.01 0.183972 7.81621
3.01 0.17262 7.79672
3.01 0.183972 7.81621
3.01 0.161282 7.81621
3.01 0.172622 7.83571
3.01 0.263244 7.91374
3.01 0.251933 7.89422
3.01 0.240621 7.91374
3.01 0.229301 7.89422
3.01 0.251933 7.89422
3.01 0.240617 7.87471
3.01 0.251933 7.89422
3.01 0.229301 7.89422
3.01 0.240621 7.91374
3.01 0.274543 7.85521
3.01 0.285842 7.83571
3.01 0.263237 7.83571
3.01 0.285842 7.83571
3.01 0.274541 7.81621
3.01 0.263237 7.83571
3.01 0.319739 8.01149
3.01 0.3423 8.0115
3.01 0.331016 7.99192
3.01 0.297163 8.01148
3.01 0.274572 8.01147
3.01 0.285878 8.03106
3.01 0.308447 7.99191
3.01 0.297163 8.01148
3.01 0.319739 8.01149
3.01 0.297163 8.01148
3.01 0.308447 7.99191
3.01 0.285863 7.99191
3.01 0.274572 8.01147
3.01 0.297163 8.01148
3.01 0.285863 7.99191
3.01 0.183992 7.97232
3.01 0.172648 7.99186
3.01 0.195336 7.99187
3.01 0.183992 7.97232
3.01 0.195323 7.95278
3.01 0.172636 7.95278
3.01 0.184008 8.01143
3.01 0.172648 7.99186
3.01 0.161316 8.01142
3.01 0.172648 7.99186
3.01 0.184008 8.01143
3.01 0.195336 7.99187
3.01 0.184008 8.01143
3.01 0.195356 8.03101
3.01 0.206681 8.01144
3.01 0.195336 7.99187
3.01 0.184008 8.01143
3.01 0.206681 8.01144
3.01 0.308434 7.91375
3.01 0.297145 7.93327
3.01 0.319723 7.93327
3.01 0.297145 7.93327
3.01 0.308434 7.91375
3.01 0.285847 7.91374
3.01 0.308434 7.91375
[...]
<PointData Scalars="View Factor" >
<DataArray type="Float64" Name="View Factor" NumberOfComponents="1" format="ascii">
0.867301
0.867301
0.867301
0.790085
0.790085
0.790085
0.866812
0.866812
0.866812
0.851962
0.851962
0.851962
0.857674
0.857674
0.857674
0.857672
0.857672
0.857672
0.858286
0.858286
0.858286
0.857042
0.857042
0.857042
0.857038
0.857038
0.857038
0.857039
0.857039
0.857039
0.867265
0.867265
0.867265
0.867201
0.867201
0.867201
0.867202
0.867202
0.867202
0.866385
0.866385
0.866385
0.866586
0.866586
0.866586
0.867072
0.867072
0.867072
0.866931
0.866931
0.866931
0.866587
0.866587
0.866587
0.866767
0.866767
0.866767
0.866588
0.866588
0.866588
0.866768
0.866768
0.866768
0.791528
0.791528
0.791528
0.857043
0.857043
0.857043
0.865905
0.865905
0.865905
0.8669
0.8669
0.8669
0.866901
0.866901
0.866901
0.860001
0.860001
0.860001
0.860003
0.860003
0.860003
0.859451
0.859451
0.859451
0.866126
0.866126
0.866126
0.865887
0.865887
0.865887
0.865631
0.865631
0.865631
0.864413
0.864413
0.864413
0.862005
0.862005
0.862005
0.862006
0.862006
0.862006
0.863343
0.863343
0.863343
0.866387
0.866387
0.866387
0.866387
0.866387
0.866387
0.864104
0.864104
0.864104
0.865398
0.865398
0.865398
0.865398
0.865398
0.865398
0.863734
0.863734
0.863734
0.864106
0.864106
0.864106
0.86593
0.86593
0.86593
0.857687
0.857687
0.857687
0.790071
0.790071
0.790071
0.851964
0.851964
0.851964
0.850318
0.850318
0.850318
0.851969
0.851969
0.851969
0.846727
0.846727
0.846727
0.846726
0.846726
0.846726
0.849457
0.849457
0.849457
0.848571
0.848571
0.848571
0.847662
0.847662
0.847662
0.855695
0.855695
0.855695
0.856375
0.856375
0.856375
0.85276
0.85276
0.85276
0.852759
0.852759
0.852759
0.862009
0.862009
0.862009
0.856376
0.856376
0.856376
0.857034
0.857034
0.857034
0.857036
0.857036
0.857036
0.859453
0.859453
0.859453
0.858881
0.858881
0.858881
0.845738
0.845738
0.845738
0.84476
0.84476
0.84476
0.843751
0.843751
0.843751
0.841655
0.841655
0.841655
0.851139
0.851139
0.851139
0.841649
0.841649
0.841649
0.839455
0.839455
0.839455
0.838313
0.838313
0.838313
0.829523
0.829523
0.829523
0.866959
0.866959
0.866959
0.867075
0.867075
0.867075
0.867196
0.867196
0.867196
0.867204
0.867204
0.867204
0.867083
0.867083
0.867083
0.866653
0.866653
0.866653
0.849425
0.849425
0.849425
0.854242
0.854242
0.854242
0.853507
0.853507
0.853507
0.859436
0.859436
0.859436
0.858268
0.858268
0.858268
0.866903
0.866903
0.866903
0.866765
0.866765
0.866765
0.86707
0.86707
0.86707
0.86693
0.86693
0.86693
0.867041
0.867041
0.867041
0.867042
0.867042
0.867042
0.866731
0.866731
0.866731
0.866552
0.866552
0.866552
0.86673
0.86673
0.86673
0.866728
0.866728
0.866728
0.790088
0.790088
0.790088
0.791424
0.791424
0.791424
0.797563
0.797563
0.797563
0.793379
0.793379
0.793379
0.79144
0.79144
0.79144
0.790103
0.790103
0.790103
0.790105
0.790105
0.790105
0.790152
0.790152
0.790152
0.790111
0.790111
0.790111
0.837195
0.837195
0.837195
0.799606
0.799606
0.799606
0.797564
0.797564
0.797564
0.795563
0.795563
0.795563
0.857676
0.857676
0.857676
0.857677
0.857677
0.857677
0.860538
0.860538
0.860538
0.861049
0.861049
0.861049
0.860005
0.860005
0.860005
0.860007
0.860007
0.860007
0.865649
0.865649
0.865649
0.865904
0.865904
0.865904
0.866141
0.866141
0.866141
0.865645
0.865645
0.865645
0.865647
0.865647
0.865647
0.863698
0.863698
0.863698
0.86407
0.86407
0.86407
0.864422
0.864422
0.864422
0.866351
0.866351
0.866351
0.866735
0.866735
0.866735
0.866556
0.866556
0.866556
0.866734
0.866734
0.866734
0.866553
0.866553
0.866553
0.866737
0.866737
0.866737
0.866557
0.866557
0.866557
0.866738
0.866738
0.866738
0.866559
0.866559
0.866559
0.865078
0.865078
0.865078
0.865372
0.865372
0.865372
0.865371
0.865371
0.865371
0.862895
0.862895
0.862895
0.863308
0.863308
0.863308
0.863307
0.863307
0.863307
0.862019
0.862019
0.862019
0.862021
0.862021
0.862021
0.859449
0.859449
0.859449
0.861532
0.861532
0.861532
0.860532
0.860532
0.860532
0.861044
0.861044
0.861044
0.861534
0.861534
0.861534
0.865062
0.865062
0.865062
0.865065
0.865065
0.865065
0.865355
0.865355
0.865355
0.865061
0.865061
0.865061
0.864745
0.864745
0.864745
0.864746
0.864746
0.864746
0.86054
0.86054
0.86054
0.861051
0.861051
0.861051
0.861052
0.861052
0.861052
0.860542
0.860542
0.860542
0.860535
0.860535
0.860535
0.861045
0.861045
0.861045
0.860536
0.860536
0.860536
0.861048
0.861048
0.861048
0.861536
0.861536
0.861536
0.861538
0.861538
0.861538
0.862892
0.862892
0.862892
0.862894
0.862894
0.862894
0.862888
0.862888
0.862888
0.86289
0.86289
0.86289
0.862459
0.862459
0.862459
0.862458
0.862458
0.862458
0.862502
0.862502
0.862502
0.862932
0.862932
0.862932
0.86593
0.86593
0.86593
0.86593
0.86593
0.86593
0.866168
0.866168
0.866168
0.866168
0.866168
0.866168
0.865931
0.865931
0.865931
0.865674
0.865674
0.865674
0.865674
0.865674
0.865674
0.86593
0.86593
0.86593
0.866169
0.866169
0.866169
0.866169
0.866169
0.866169
0.862931
0.862931
0.862931
0.8625
0.8625
0.8625
0.865398
0.865398
0.865398
0.865398
0.865398
0.865398
0.865674
0.865674
0.865674
0.865674
0.865674
0.865674
0.86479
0.86479
0.86479
0.864457
0.864457
0.864457
0.864456
0.864456
0.864456
0.864789
0.864789
0.864789
0.865103
0.865103
0.865103
0.865104
0.865104
0.865104
0.86479
0.86479
0.86479
0.86479
0.86479
0.86479
0.864457
0.864457
0.864457
0.864458
0.864458
0.864458
0.865104
0.865104
0.865104
0.865104
0.865104
0.865104
0.863733
0.863733
0.863733
0.863342
0.863342
0.863342
0.864104
0.864104
0.864104
0.864105
0.864105
0.864105
0.862923
0.862923
0.862923
0.862922
0.862922
0.862922
0.86157
0.86157
0.86157
0.862041
0.862041
0.862041
0.86249
0.86249
0.86249
0.862491
0.862491
0.862491
0.864103
0.864103
0.864103
0.864789
0.864789
0.864789
0.864455
0.864455
0.864455
0.864455
0.864455
0.864455
0.855013
0.855013
0.855013
0.857689
0.857689
0.857689
0.856393
0.856393
0.856393
0.855715
0.855715
0.855715
0.855716
0.855716
0.855716
0.856395
0.856395
0.856395
0.857051
0.857051
0.857051
0.857053
0.857053
0.857053
0.860552
0.860552
0.860552
0.86002
0.86002
0.86002
0.860028
0.860028
0.860028
0.859473
0.859473
0.859473
0.863731
0.863731
0.863731
0.86058
0.86058
0.86058
0.856421
0.856421
0.856421
0.856422
0.856422
0.856422
0.860048
0.860048
0.860048
0.859497
0.859497
0.859497
0.858924
0.858924
0.858924
0.807517
0.807517
0.807517
0.809292
0.809292
0.809292
0.809274
0.809274
0.809274
0.814441
0.814441
0.814441
0.811043
0.811043
0.811043
0.812754
0.812754
0.812754
0.810992
0.810992
0.810992
0.812742
0.812742
0.812742
0.811013
0.811013
0.811013
0.816089
0.816089
0.816089
0.791395
0.791395
0.791395
0.791398
0.791398
0.791398
0.793357
0.793357
0.793357
0.793359
0.793359
0.793359
0.852755
0.852755
0.852755
0.852757
0.852757
0.852757
0.85639
0.85639
0.85639
0.856392
0.856392
0.856392
0.856389
0.856389
0.856389
0.845766
0.845766
0.845766
0.845765
0.845765
0.845765
0.84478
0.84478
0.84478
0.850317
0.850317
0.850317
0.851154
0.851154
0.851154
0.851966
0.851966
0.851966
0.850315
0.850315
0.850315
0.851967
0.851967
0.851967
0.851153
0.851153
0.851153
0.85115
0.85115
0.85115
0.851151
0.851151
0.851151
0.850314
0.850314
0.850314
0.852753
0.852753
0.852753
0.858869
0.858869
0.858869
0.85887
0.85887
0.85887
0.858279
0.858279
0.858279
0.858277
0.858277
0.858277
0.857665
0.857665
0.857665
0.853527
0.853527
0.853527
0.854995
0.854995
0.854995
0.854271
0.854271
0.854271
0.853526
0.853526
0.853526
0.853529
0.853529
0.853529
0.855698
0.855698
0.855698
0.854996
0.854996
0.854996
0.854273
0.854273
0.854273
0.854274
0.854274
0.854274
0.822345
0.822345
0.822345
0.826757
0.826757
0.826757
0.843745
0.843745
0.843745
0.844755
0.844755
0.844755
0.842711
0.842711
0.842711
0.845751
0.845751
0.845751
0.845752
0.845752
0.845752
0.847635
0.847635
0.847635
0.846701
0.846701
0.846701
0.842715
0.842715
0.842715
0.841654
0.841654
0.841654
0.837143
0.837143
0.837143
0.83472
0.83472
0.83472
0.835946
0.835946
0.835946
0.840568
0.840568
0.840568
0.839454
0.839454
0.839454
0.840569
0.840569
0.840569
0.848561
0.848561
0.848561
0.83595
0.83595
0.83595
0.83595
0.83595
0.83595
0.830867
0.830867
0.830867
0.838314
0.838314
0.838314
0.803507
0.803507
0.803507
0.805392
0.805392
0.805392
0.8035
0.8035
0.8035
0.823836
0.823836
0.823836
0.825306
0.825306
0.825306
0.826743
0.826743
0.826743
0.829527
0.829527
0.829527
0.829531
0.829531
0.829531
0.834724
0.834724
0.834724
0.820793
0.820793
0.820793
0.867282
0.867282
0.867282
0.867252
0.867252
0.867252
0.867219
0.867219
0.867219
0.866818
0.866818
0.866818
0.866973
0.866973
0.866973
0.864689
0.864689
0.864689
0.866473
0.866473
0.866473
0.866274
0.866274
0.866274
0.865015
0.865015
0.865015
0.860494
0.860494
0.860494
0.860498
0.860498
0.860498
0.847631
0.847631
0.847631
0.848541
0.848541
0.848541
0.846698
0.846698
0.846698
0.848542
0.848542
0.848542
0.847634
0.847634
0.847634
0.846699
0.846699
0.846699
0.854967
0.854967
0.854967
0.855665
0.855665
0.855665
0.854966
0.854966
0.854966
0.85825
0.85825
0.85825
0.85274
0.85274
0.85274
0.857647
0.857647
0.857647
0.85701
0.85701
0.85701
0.85567
0.85567
0.85567
0.855668
0.855668
0.855668
0.857641
0.857641
0.857641
0.856351
0.856351
0.856351
0.857005
0.857005
0.857005
0.856349
0.856349
0.856349
0.857643
0.857643
0.857643
0.857009
0.857009
0.857009
0.860518
0.860518
0.860518
0.859988
0.859988
0.859988
0.857653
0.857653
0.857653
0.858274
0.858274
0.858274
0.858864
0.858864
0.858864
0.85827
0.85827
0.85827
0.858866
0.858866
0.858866
0.858273
0.858273
0.858273
0.865879
0.865879
0.865879
0.866533
0.866533
0.866533
0.865886
0.865886
0.865886
0.866124
0.866124
0.866124
0.866713
0.866713
0.866713
0.866711
0.866711
0.866711
0.866878
0.866878
0.866878
0.867018
0.867018
0.867018
0.866875
0.866875
0.866875
0.867017
0.867017
0.867017
0.867327
0.867327
0.867327
0.86727
0.86727
0.86727
0.867173
0.867173
0.867173
0.867324
0.867324
0.867324
0.867269
0.867269
0.867269
0.867171
0.867171
0.867171
0.867321
0.867321
0.867321
0.867263
0.867263
0.867263
0.867317
0.867317
0.867317
0.867262
0.867262
0.867262
0.790091
0.790091
0.790091
0.791425
0.791425
0.791425
0.795561
0.795561
0.795561
0.79556
0.79556
0.79556
0.791422
0.791422
0.791422
0.793378
0.793378
0.793378
0.791421
0.791421
0.791421
0.793376
0.793376
0.793376
0.801564
0.801564
0.801564
0.793394
0.793394
0.793394
0.79144
0.79144
0.79144
0.790107
0.790107
0.790107
0.803522
0.803522
0.803522
0.793395
0.793395
0.793395
0.791493
0.791493
0.791493
0.791455
0.791455
0.791455
0.799678
0.799678
0.799678
0.839514
0.839514
0.839514
0.841718
0.841718
0.841718
0.840629
0.840629
0.840629
0.843809
0.843809
0.843809
0.843811
0.843811
0.843811
0.843811
0.843811
0.843811
0.838367
0.838367
0.838367
0.837196
0.837196
0.837196
0.829575
0.829575
0.829575
0.838371
0.838371
0.838371
0.829563
0.829563
0.829563
0.832227
0.832227
0.832227
0.826779
0.826779
0.826779
0.828186
0.828186
0.828186
0.820822
0.820822
0.820822
0.822359
0.822359
0.822359
0.82534
0.82534
0.82534
0.825338
0.825338
0.825338
0.810882
0.810882
0.810882
0.809097
0.809097
0.809097
0.852805
0.852805
0.852805
0.852013
0.852013
0.852013
0.855743
0.855743
0.855743
0.844822
0.844822
0.844822
0.857707
0.857707
0.857707
0.856413
0.856413
0.856413
0.85707
0.85707
0.85707
0.823863
0.823863
0.823863
0.833512
0.833512
0.833512
0.835995
0.835995
0.835995
0.834769
0.834769
0.834769
0.815991
0.815991
0.815991
0.819237
0.819237
0.819237
0.817632
0.817632
0.817632
0.817631
0.817631
0.817631
0.819235
0.819235
0.819235
0.85829
0.85829
0.85829
0.858289
0.858289
0.858289
0.858882
0.858882
0.858882
0.859455
0.859455
0.859455
0.865369
0.865369
0.865369
0.86614
0.86614
0.86614
0.866357
0.866357
0.866357
0.866358
0.866358
0.866358
0.865901
0.865901
0.865901
0.865656
0.865656
0.865656
0.865655
0.865655
0.865655
0.863693
0.863693
0.863693
0.86369
0.86369
0.86369
0.863301
0.863301
0.863301
0.863299
0.863299
0.863299
0.864417
0.864417
0.864417
0.86475
0.86475
0.86475
0.864749
0.864749
0.864749
0.864415
0.864415
0.864415
0.864063
0.864063
0.864063
0.864064
0.864064
0.864064
0.864419
0.864419
0.864419
0.864421
0.864421
0.864421
0.863696
0.863696
0.863696
0.864068
0.864068
0.864068
0.864067
0.864067
0.864067
0.863694
0.863694
0.863694
0.863303
0.863303
0.863303
0.863304
0.863304
0.863304
0.865066
0.865066
0.865066
0.864752
0.864752
0.864752
0.864754
0.864754
0.864754
0.865068
0.865068
0.865068
0.865361
0.865361
0.865361
0.865362
0.865362
0.865362
0.865633
0.865633
0.865633
0.865357
0.865357
0.865357
0.865359
0.865359
0.865359
0.866354
0.866354
0.866354
0.866353
0.866353
0.866353
0.862905
0.862905
0.862905
0.862023
0.862023
0.862023
0.861062
0.861062
0.861062
0.862469
0.862469
0.862469
0.862901
0.862901
0.862901
0.864075
0.864075
0.864075
0.863703
0.863703
0.863703
0.863311
0.863311
0.863311
0.86331
0.86331
0.86331
0.864428
0.864428
0.864428
0.86476
0.86476
0.86476
0.865076
0.865076
0.865076
0.865075
0.865075
0.865075
0.863317
0.863317
0.863317
0.863708
0.863708
0.863708
0.862465
0.862465
0.862465
0.862014
0.862014
0.862014
0.861544
0.861544
0.861544
0.860019
0.860019
0.860019
0.858892
0.858892
0.858892
0.858894
0.858894
0.858894
0.859465
0.859465
0.859465
0.859466
0.859466
0.859466
0.857686
0.857686
0.857686
0.8583
0.8583
0.8583
0.858299
0.858299
0.858299
0.857684
0.857684
0.857684
0.857048
0.857048
0.857048
0.857049
0.857049
0.857049
0.857683
0.857683
0.857683
0.857046
0.857046
0.857046
0.857045
0.857045
0.857045
0.861548
0.861548
0.861548
0.858877
0.858877
0.858877
0.85767
0.85767
0.85767
0.858285
0.858285
0.858285
0.858878
0.858878
0.858878
0.858281
0.858281
0.858281
0.857666
0.857666
0.857666
0.857031
0.857031
0.857031
0.857032
0.857032
0.857032
0.857669
0.857669
0.857669
0.858283
0.858283
0.858283
0.865354
0.865354
0.865354
0.865629
0.865629
0.865629
0.865628
0.865628
0.865628
0.865351
0.865351
0.865351
0.865058
0.865058
0.865058
0.865057
0.865057
0.865057
0.86201
0.86201
0.86201
0.862013
0.862013
0.862013
0.86154
0.86154
0.86154
0.861541
0.861541
0.861541
0.862463
0.862463
0.862463
0.862461
0.862461
0.862461
0.858884
0.858884
0.858884
0.859456
0.859456
0.859456
0.860009
0.860009
0.860009
0.86001
0.86001
0.86001
0.86334
0.86334
0.86334
0.8625
0.8625
0.8625
0.862049
0.862049
0.862049
0.862048
0.862048
0.862048
0.862499
0.862499
0.862499
0.866156
0.866156
0.866156
0.861569
0.861569
0.861569
0.861567
0.861567
0.861567
0.862039
0.862039
0.862039
0.862038
0.862038
0.862038
0.859485
0.859485
0.859485
0.860567
0.860567
0.860567
0.861078
0.861078
0.861078
0.861077
0.861077
0.861077
0.86444
0.86444
0.86444
0.860025
0.860025
0.860025
0.860026
0.860026
0.860026
0.864787
0.864787
0.864787
0.858305
0.858305
0.858305
0.85769
0.85769
0.85769
0.859469
0.859469
0.859469
0.858895
0.858895
0.858895
0.858302
0.858302
0.858302
0.858303
0.858303
0.858303
0.860553
0.860553
0.860553
0.860029
0.860029
0.860029
0.858901
0.858901
0.858901
0.858306
0.858306
0.858306
0.859476
0.859476
0.859476
0.859475
0.859475
0.859475
0.858902
0.858902
0.858902
0.858904
0.858904
0.858904
0.85831
0.85831
0.85831
0.858309
0.858309
0.858309
0.861087
0.861087
0.861087
0.861578
0.861578
0.861578
0.86373
0.86373
0.86373
0.863729
0.863729
0.863729
0.864102
0.864102
0.864102
0.864101
0.864101
0.864101
0.862925
0.862925
0.862925
0.861581
0.861581
0.861581
0.862051
0.862051
0.862051
0.86205
0.86205
0.86205
0.86109
0.86109
0.86109
0.858331
0.858331
0.858331
0.85708
0.85708
0.85708
0.857716
0.857716
0.857716
0.858921
0.858921
0.858921
0.858923
0.858923
0.858923
0.858921
0.858921
0.858921
0.807473
0.807473
0.807473
0.812707
0.812707
0.812707
0.816047
0.816047
0.816047
0.816058
0.816058
0.816058
0.814407
0.814407
0.814407
0.814421
0.814421
0.814421
0.816081
0.816081
0.816081
0.817688
0.817688
0.817688
0.817697
0.817697
0.817697
0.790066
0.790066
0.790066
0.790059
0.790059
0.790059
0.791403
0.791403
0.791403
0.791401
0.791401
0.791401
0.790068
0.790068
0.790068
0.790064
0.790064
0.790064
0.801552
0.801552
0.801552
0.805388
0.805388
0.805388
0.846724
0.846724
0.846724
0.846722
0.846722
0.846722
0.843768
0.843768
0.843768
0.844779
0.844779
0.844779
0.845763
0.845763
0.845763
0.85353
0.85353
0.85353
0.854277
0.854277
0.854277
0.854278
0.854278
0.854278
0.853533
0.853533
0.853533
0.853537
0.853537
0.853537
0.851977
0.851977
0.851977
0.852769
0.852769
0.852769
0.85501
0.85501
0.85501
0.855012
0.855012
0.855012
0.855712
0.855712
0.855712
0.855711
0.855711
0.855711
0.853539
0.853539
0.853539
0.85277
0.85277
0.85277
0.85198
0.85198
0.85198
0.855709
0.855709
0.855709
0.855009
0.855009
0.855009
0.854283
0.854283
0.854283
0.854285
0.854285
0.854285
0.851163
0.851163
0.851163
0.850325
0.850325
0.850325
0.849464
0.849464
0.849464
0.851165
0.851165
0.851165
0.849465
0.849465
0.849465
0.850327
0.850327
0.850327
0.850328
0.850328
0.850328
0.840585
0.840585
0.840585
0.839469
0.839469
0.839469
0.840586
0.840586
0.840586
0.839471
0.839471
0.839471
0.840588
0.840588
0.840588
0.839472
0.839472
0.839472
0.832193
0.832193
0.832193
0.833478
0.833478
0.833478
0.845768
0.845768
0.845768
0.845769
0.845769
0.845769
0.847663
0.847663
0.847663
0.846729
0.846729
0.846729
0.847665
0.847665
0.847665
0.84673
0.84673
0.84673
0.844782
0.844782
0.844782
0.844783
0.844783
0.844783
0.850311
0.850311
0.850311
0.848563
0.848563
0.848563
0.85944
0.85944
0.85944
0.860522
0.860522
0.860522
0.859439
0.859439
0.859439
0.85999
0.85999
0.85999
0.861035
0.861035
0.861035
0.860523
0.860523
0.860523
0.859993
0.859993
0.859993
0.853522
0.853522
0.853522
0.85427
0.85427
0.85427
0.853523
0.853523
0.853523
0.857662
0.857662
0.857662
0.857661
0.857661
0.857661
0.853516
0.853516
0.853516
0.855699
0.855699
0.855699
0.854998
0.854998
0.854998
0.856379
0.856379
0.856379
0.85638
0.85638
0.85638
0.855701
0.855701
0.855701
0.855
0.855
0.855
0.828155
0.828155
0.828155
0.829532
0.829532
0.829532
0.830877
0.830877
0.830877
0.829527
0.829527
0.829527
0.84377
0.84377
0.84377
0.841673
0.841673
0.841673
0.842736
0.842736
0.842736
0.843771
0.843771
0.843771
0.839468
0.839468
0.839468
0.833469
0.833469
0.833469
0.834725
0.834725
0.834725
0.829525
0.829525
0.829525
0.826752
0.826752
0.826752
0.826751
0.826751
0.826751
0.826748
0.826748
0.826748
0.826749
0.826749
0.826749
0.845771
0.845771
0.845771
0.834741
0.834741
0.834741
0.833484
0.833484
0.833484
0.823844
0.823844
0.823844
0.823842
0.823842
0.823842
0.825314
0.825314
0.825314
0.825313
0.825313
0.825313
0.823845
0.823845
0.823845
0.825316
0.825316
0.825316
0.825317
0.825317
0.825317
0.822341
0.822341
0.822341
0.822344
0.822344
0.822344
0.820806
0.820806
0.820806
0.820807
0.820807
0.820807
0.822342
0.822342
0.822342
0.823848
0.823848
0.823848
0.823847
0.823847
0.823847
0.828164
0.828164
0.828164
0.82816
0.82816
0.82816
0.829536
0.829536
0.829536
0.830882
0.830882
0.830882
0.844759
0.844759
0.844759
0.845742
0.845742
0.845742
0.845741
0.845741
0.845741
0.844756
0.844756
0.844756
0.843752
0.843752
0.843752
0.844762
0.844762
0.844762
0.842717
0.842717
0.842717
0.844763
0.844763
0.844763
0.844769
0.844769
0.844769
0.842724
0.842724
0.842724
0.839457
0.839457
0.839457
0.845746
0.845746
0.845746
0.845744
0.845744
0.845744
0.846703
0.846703
0.846703
0.834719
0.834719
0.834719
0.854258
0.854258
0.854258
0.852745
0.852745
0.852745
0.853514
0.853514
0.853514
0.854259
0.854259
0.854259
0.854255
0.854255
0.854255
0.854254
0.854254
0.854254
0.851952
0.851952
0.851952
0.852744
0.852744
0.852744
0.853512
0.853512
0.853512
0.85351
0.85351
0.85351
0.852741
0.852741
0.852741
0.851951
0.851951
0.851951
0.852752
0.852752
0.852752
0.85196
0.85196
0.85196
0.849447
0.849447
0.849447
0.850308
0.850308
0.850308
0.851146
0.851146
0.851146
0.849448
0.849448
0.849448
0.851147
0.851147
0.851147
0.85031
0.85031
0.85031
0.84856
0.84856
0.84856
0.846712
0.846712
0.846712
0.848557
0.848557
0.848557
0.849443
0.849443
0.849443
0.850307
0.850307
0.850307
0.849444
0.849444
0.849444
0.850303
0.850303
0.850303
0.85114
0.85114
0.85114
0.851955
0.851955
0.851955
0.850304
0.850304
0.850304
0.839465
0.839465
0.839465
0.839466
0.839466
0.839466
0.837147
0.837147
0.837147
0.837148
0.837148
0.837148
0.837149
0.837149
0.837149
0.826742
0.826742
0.826742
0.828148
0.828148
0.828148
0.823832
0.823832
0.823832
0.835948
0.835948
0.835948
0.833465
0.833465
0.833465
0.823853
0.823853