<VTKFile type="UnstructuredGrid" version="1.0">
<UnstructuredGrid>
<Piece NumberOfPoints="11046" NumberOfCells="3682">
<Points>
<DataArray type="Float64" NumberOfComponents="3" format="ascii">
0.0582363 3.01 16.8118
0.05 3.01 16.7925
0.0717021 3.01 16.7925
0.95 3.01 17.2212
0.95 3.01 17.2602
0.942301 3.01 17.2407
0.0962623 3.01 17.6925
0.086422 3.01 17.6722
0.107711 3.01 17.6723
0.466226 3.01 17.4361
0.454968 3.01 17.4557
0.443707 3.01 17.4361
0.353567 3.01 17.3578
0.364839 3.01 17.3383
0.376113 3.01 17.3578
0.376113 3.01 17.3578
0.364843 3.01 17.3774
0.353567 3.01 17.3578
0.353567 3.01 17.3578
0.364843 3.01 17.3774
0.342292 3.01 17.3774
0.37611 3.01 17.3188
0.364837 3.01 17.2992
0.387379 3.01 17.2992
0.376113 3.01 17.3578
0.364839 3.01 17.3383
0.387381 3.01 17.3383
0.364839 3.01 17.3383
0.37611 3.01 17.3188
0.387381 3.01 17.3383
0.066417 3.01 17.6745
0.05 3.01 17.6925
0.05 3.01 17.6687
0.0582363 3.01 16.8118
0.0717021 3.01 16.7925
0.0817675 3.01 16.812
0.0817675 3.01 16.812
0.0711754 3.01 16.8314
0.0582363 3.01 16.8118
0.11641 3.01 16.7925
0.138968 3.01 16.7925
0.127475 3.01 16.812
0.127475 3.01 16.812
0.104722 3.01 16.812
0.11641 3.01 16.7925
0.0711754 3.01 16.8314
0.0817675 3.01 16.812
0.0934889 3.01 16.8315
0.0934889 3.01 16.8315
0.0817675 3.01 16.812
0.104722 3.01 16.812
0.116091 3.01 16.8315
0.104722 3.01 16.812
0.127475 3.01 16.812
0.116091 3.01 16.8315
0.0934889 3.01 16.8315
0.104722 3.01 16.812
0.116091 3.01 16.8315
0.127244 3.01 16.851
0.104394 3.01 16.851
0.104394 3.01 16.851
0.0934889 3.01 16.8315
0.116091 3.01 16.8315
0.941764 3.01 16.8118
0.928298 3.01 16.7925
0.95 3.01 16.7925
0.387379 3.01 17.2992
0.364837 3.01 17.2992
0.376108 3.01 17.2797
0.161282 3.01 17.2212
0.138583 3.01 17.2212
0.149908 3.01 17.2017
0.0933091 3.01 17.2992
0.0813038 3.01 17.2797
0.104333 3.01 17.2797
0.104333 3.01 17.2797
0.0813038 3.01 17.2797
0.0933065 3.01 17.2602
0.331016 3.01 17.3969
0.319739 3.01 17.4165
0.308447 3.01 17.3969
0.308447 3.01 17.3969
0.319729 3.01 17.3774
0.331016 3.01 17.3969
0.331016 3.01 17.3969
0.319729 3.01 17.3774
0.342292 3.01 17.3774
0.138613 3.01 17.4164
0.12718 3.01 17.3969
0.149933 3.01 17.3969
0.138613 3.01 17.4164
0.149933 3.01 17.3969
0.161316 3.01 17.4164
0.161316 3.01 17.4164
0.149933 3.01 17.3969
0.172648 3.01 17.3969
0.206681 3.01 17.4164
0.195336 3.01 17.3969
0.217999 3.01 17.3969
0.263262 3.01 17.3969
0.285863 3.01 17.3969
0.274572 3.01 17.4165
0.274559 3.01 17.3773
0.285863 3.01 17.3969
0.263262 3.01 17.3969
0.240697 3.01 16.812
0.229409 3.01 16.7925
0.252012 3.01 16.7925
0.138758 3.01 16.8315
0.116091 3.01 16.8315
0.127475 3.01 16.812
0.127244 3.01 16.851
0.116091 3.01 16.8315
0.138758 3.01 16.8315
0.229332 3.01 16.8705
0.206685 3.01 16.8705
0.218031 3.01 16.851
0.184016 3.01 16.8705
0.161325 3.01 16.8705
0.172705 3.01 16.851
0.184093 3.01 16.8315
0.172705 3.01 16.851
0.161431 3.01 16.8315
0.218082 3.01 16.812
0.229409 3.01 16.7925
0.240697 3.01 16.812
0.218082 3.01 16.812
0.206798 3.01 16.7925
0.229409 3.01 16.7925
0.138617 3.01 16.8705
0.161325 3.01 16.8705
0.149916 3.01 16.89
0.376107 3.01 17.2017
0.353559 3.01 17.2017
0.364834 3.01 17.1822
0.942264 3.01 17.436
0.95 3.01 17.4164
0.95 3.01 17.4556
0.466226 3.01 17.4361
0.443707 3.01 17.4361
0.454966 3.01 17.4165
0.466223 3.01 17.3578
0.477482 3.01 17.3383
0.488741 3.01 17.3578
0.466223 3.01 17.3578
0.454964 3.01 17.3774
0.443703 3.01 17.3578
0.511259 3.01 17.3578
0.522518 3.01 17.3383
0.533777 3.01 17.3578
0.533777 3.01 17.3578
0.522517 3.01 17.3774
0.511259 3.01 17.3578
0.488741 3.01 17.3578
0.477482 3.01 17.3383
0.5 3.01 17.3383
0.511259 3.01 17.3578
0.488741 3.01 17.3578
0.5 3.01 17.3383
0.5 3.01 17.3383
0.522518 3.01 17.3383
0.511259 3.01 17.3578
0.387388 3.01 17.4165
0.398653 3.01 17.3969
0.40992 3.01 17.4165
0.376117 3.01 17.3969
0.398653 3.01 17.3969
0.387388 3.01 17.4165
0.443703 3.01 17.3578
0.454964 3.01 17.3774
0.432443 3.01 17.3774
0.432443 3.01 17.3774
0.454964 3.01 17.3774
0.443705 3.01 17.3969
0.274559 3.01 17.3773
0.26325 3.01 17.3578
0.285853 3.01 17.3578
0.387384 3.01 17.3774
0.398653 3.01 17.3969
0.376117 3.01 17.3969
0.376117 3.01 17.3969
0.364843 3.01 17.3774
0.387384 3.01 17.3774
0.387384 3.01 17.3774
0.364843 3.01 17.3774
0.376113 3.01 17.3578
0.342292 3.01 17.3774
0.319729 3.01 17.3774
0.331009 3.01 17.3578
0.331009 3.01 17.3578
0.353567 3.01 17.3578
0.342292 3.01 17.3774
0.545011 3.01 17.6925
0.522505 3.01 17.6925
0.533759 3.01 17.6727
0.533762 3.01 17.6331
0.545018 3.01 17.6133
0.55627 3.01 17.6331
0.55627 3.01 17.6331
0.545018 3.01 17.6133
0.567528 3.01 17.6133
0.567528 3.01 17.6133
0.578788 3.01 17.5936
0.59004 3.01 17.6133
0.466232 3.01 17.5541
0.454974 3.01 17.5344
0.477488 3.01 17.5344
0.567516 3.01 17.6925
0.578772 3.01 17.6727
0.590022 3.01 17.6925
0.601316 3.01 17.5541
0.61257 3.01 17.5738
0.590051 3.01 17.5738
0.62384 3.01 17.5541
0.61257 3.01 17.5738
0.601316 3.01 17.5541
0.680198 3.01 17.5343
0.691494 3.01 17.5146
0.702757 3.01 17.5343
0.086422 3.01 17.6722
0.0962623 3.01 17.6925
0.073896 3.01 17.6925
0.073896 3.01 17.6925
0.066417 3.01 17.6745
0.086422 3.01 17.6722
0.05 3.01 17.6925
0.066417 3.01 17.6745
0.073896 3.01 17.6925
0.0721919 3.01 17.6529
0.066417 3.01 17.6745
0.05 3.01 17.6687
0.086422 3.01 17.6722
0.066417 3.01 17.6745
0.0721919 3.01 17.6529
0.118481 3.01 17.6925
0.0962623 3.01 17.6925
0.107711 3.01 17.6723
0.5 3.01 17.6925
0.477495 3.01 17.6925
0.488747 3.01 17.6727
0.432484 3.01 17.6925
0.409978 3.01 17.6925
0.421228 3.01 17.6727
0.443725 3.01 17.5936
0.421212 3.01 17.5936
0.432465 3.01 17.5738
0.319802 3.01 17.5343
0.331063 3.01 17.5146
0.342348 3.01 17.5343
0.353629 3.01 17.554
0.342348 3.01 17.5343
0.364886 3.01 17.5343
0.10433 3.01 17.2407
0.0933065 3.01 17.2602
0.0813011 3.01 17.2407
0.0939466 3.01 16.7925
0.11641 3.01 16.7925
0.104722 3.01 16.812
0.0939466 3.01 16.7925
0.0817675 3.01 16.812
0.0717021 3.01 16.7925
0.104722 3.01 16.812
0.0817675 3.01 16.812
0.0939466 3.01 16.7925
0.0933065 3.01 17.2602
0.0813038 3.01 17.2797
0.0710513 3.01 17.2602
0.0710513 3.01 17.2602
0.0813011 3.01 17.2407
0.0933065 3.01 17.2602
0.115908 3.01 17.3382
0.0933131 3.01 17.3382
0.104337 3.01 17.3187
0.104337 3.01 17.3187
0.127165 3.01 17.3187
0.115908 3.01 17.3382
0.104343 3.01 17.3578
0.0933131 3.01 17.3382
0.115908 3.01 17.3382
0.104343 3.01 17.3578
0.115915 3.01 17.3773
0.0933188 3.01 17.3773
0.942303 3.01 17.2017
0.95 3.01 17.1822
0.95 3.01 17.2212
0.92895 3.01 17.1822
0.95 3.01 17.1822
0.942303 3.01 17.2017
0.9187 3.01 17.2017
0.906695 3.01 17.2212
0.895671 3.01 17.2017
0.92895 3.01 17.1822
0.942303 3.01 17.2017
0.9187 3.01 17.2017
0.942316 3.01 16.9679
0.928965 3.01 16.9484
0.95 3.01 16.9484
0.95 3.01 17.0263
0.942309 3.01 17.0068
0.95 3.01 16.9873
0.942316 3.01 16.9679
0.95 3.01 16.9484
0.95 3.01 16.9873
0.95 3.01 16.8311
0.941764 3.01 16.8118
0.95 3.01 16.7925
0.95 3.01 16.8311
0.95 3.01 16.8703
0.942358 3.01 16.8507
0.612617 3.01 16.8704
0.635157 3.01 16.8704
0.623887 3.01 16.8899
0.895671 3.01 17.2017
0.884102 3.01 17.1822
0.906696 3.01 17.1822
0.906696 3.01 17.1822
0.9187 3.01 17.2017
0.895671 3.01 17.2017
0.92895 3.01 17.1822
0.9187 3.01 17.2017
0.906696 3.01 17.1822
0.353563 3.01 17.3188
0.37611 3.01 17.3188
0.364839 3.01 17.3383
0.364837 3.01 17.2992
0.37611 3.01 17.3188
0.353563 3.01 17.3188
0.297145 3.01 17.3383
0.319723 3.01 17.3383
0.308439 3.01 17.3578
0.308439 3.01 17.3578
0.285853 3.01 17.3578
0.297145 3.01 17.3383
0.308439 3.01 17.3578
0.331009 3.01 17.3578
0.319729 3.01 17.3774
0.319723 3.01 17.3383
0.331009 3.01 17.3578
0.308439 3.01 17.3578
0.17262 3.01 17.2017
0.161282 3.01 17.2212
0.149908 3.01 17.2017
0.138583 3.01 17.2212
0.161282 3.01 17.2212
0.149909 3.01 17.2407
0.149909 3.01 17.2407
0.127158 3.01 17.2407
0.138583 3.01 17.2212
0.149909 3.01 17.2407
0.172622 3.01 17.2407
0.161284 3.01 17.2602
0.161282 3.01 17.2212
0.172622 3.01 17.2407
0.149909 3.01 17.2407
0.240621 3.01 17.3187
0.217979 3.01 17.3187
0.229301 3.01 17.2992
0.229301 3.01 17.2992
0.217979 3.01 17.3187
0.206649 3.01 17.2992
0.195316 3.01 17.3187
0.206649 3.01 17.2992
0.217979 3.01 17.3187
0.115908 3.01 17.3382
0.127165 3.01 17.3187
0.138594 3.01 17.3382
0.0933091 3.01 17.2992
0.104333 3.01 17.2797
0.115904 3.01 17.2992
0.115904 3.01 17.2992
0.104333 3.01 17.2797
0.127161 3.01 17.2797
0.115904 3.01 17.2992
0.104337 3.01 17.3187
0.0933091 3.01 17.2992
0.127165 3.01 17.3187
0.104337 3.01 17.3187
0.115904 3.01 17.2992
0.115901 3.01 17.2602
0.104333 3.01 17.2797
0.0933065 3.01 17.2602
0.127161 3.01 17.2797
0.104333 3.01 17.2797
0.115901 3.01 17.2602
0.115901 3.01 17.2602
0.0933065 3.01 17.2602
0.10433 3.01 17.2407
0.10433 3.01 17.2407
0.127158 3.01 17.2407
0.115901 3.01 17.2602
0.183972 3.01 17.2212
0.17262 3.01 17.2017
0.195307 3.01 17.2017
0.161282 3.01 17.2212
0.17262 3.01 17.2017
0.183972 3.01 17.2212
0.183972 3.01 17.2212
0.172622 3.01 17.2407
0.161282 3.01 17.2212
0.263244 3.01 17.3187
0.240621 3.01 17.3187
0.251933 3.01 17.2992
0.229301 3.01 17.2992
0.240617 3.01 17.2797
0.251933 3.01 17.2992
0.251933 3.01 17.2992
0.240621 3.01 17.3187
0.229301 3.01 17.2992
0.274543 3.01 17.2602
0.263237 3.01 17.2407
0.285842 3.01 17.2407
0.285842 3.01 17.2407
0.263237 3.01 17.2407
0.274541 3.01 17.2212
0.319739 3.01 17.4165
0.331016 3.01 17.3969
0.3423 3.01 17.4165
0.297163 3.01 17.4165
0.285878 3.01 17.4361
0.274572 3.01 17.4165
0.308447 3.01 17.3969
0.319739 3.01 17.4165
0.297163 3.01 17.4165
0.297163 3.01 17.4165
0.285863 3.01 17.3969
0.308447 3.01 17.3969
0.274572 3.01 17.4165
0.285863 3.01 17.3969
0.297163 3.01 17.4165
0.183992 3.01 17.3773
0.195336 3.01 17.3969
0.172648 3.01 17.3969
0.183992 3.01 17.3773
0.172636 3.01 17.3578
0.195323 3.01 17.3578
0.184008 3.01 17.4164
0.161316 3.01 17.4164
0.172648 3.01 17.3969
0.172648 3.01 17.3969
0.195336 3.01 17.3969
0.184008 3.01 17.4164
0.184008 3.01 17.4164
0.206681 3.01 17.4164
0.195356 3.01 17.436
0.195336 3.01 17.3969
0.206681 3.01 17.4164
0.184008 3.01 17.4164
0.308434 3.01 17.3187
0.319723 3.01 17.3383
0.297145 3.01 17.3383
0.297145 3.01 17.3383
[...]
<PointData Scalars="View Factor" >
<DataArray type="Float64" Name="View Factor" NumberOfComponents="1" format="ascii">
0.817693
0.817693
0.817693
0.730733
0.730733
0.730733
0.747132
0.747132
0.747132
0.76317
0.76317
0.76317
0.776095
0.776095
0.776095
0.774961
0.774961
0.774961
0.774879
0.774879
0.774879
0.779389
0.779389
0.779389
0.776142
0.776142
0.776142
0.777244
0.777244
0.777244
0.747534
0.747534
0.747534
0.817338
0.817338
0.817338
0.816793
0.816793
0.816793
0.816904
0.816904
0.816904
0.816806
0.816806
0.816806
0.816401
0.816401
0.816401
0.816555
0.816555
0.816555
0.816259
0.816259
0.816259
0.816137
0.816137
0.816137
0.815139
0.815139
0.815139
0.815577
0.815577
0.815577
0.754421
0.754421
0.754421
0.780431
0.780431
0.780431
0.793578
0.793578
0.793578
0.788972
0.788972
0.788972
0.79
0.79
0.79
0.773292
0.773292
0.773292
0.774496
0.774496
0.774496
0.774646
0.774646
0.774646
0.778203
0.778203
0.778203
0.777397
0.777397
0.777397
0.777806
0.777806
0.777806
0.776828
0.776828
0.776828
0.774896
0.774896
0.774896
0.776103
0.776103
0.776103
0.814301
0.814301
0.814301
0.815811
0.815811
0.815811
0.815251
0.815251
0.815251
0.812156
0.812156
0.812156
0.813258
0.813258
0.813258
0.814406
0.814406
0.814406
0.814366
0.814366
0.814366
0.814953
0.814953
0.814953
0.813123
0.813123
0.813123
0.788197
0.788197
0.788197
0.715503
0.715503
0.715503
0.76443
0.76443
0.76443
0.770189
0.770189
0.770189
0.770388
0.770388
0.770388
0.767314
0.767314
0.767314
0.766196
0.766196
0.766196
0.770052
0.770052
0.770052
0.76879
0.76879
0.76879
0.768614
0.768614
0.768614
0.769246
0.769246
0.769246
0.770395
0.770395
0.770395
0.77045
0.77045
0.77045
0.769291
0.769291
0.769291
0.778449
0.778449
0.778449
0.771593
0.771593
0.771593
0.77271
0.77271
0.77271
0.773875
0.773875
0.773875
0.775816
0.775816
0.775816
0.775932
0.775932
0.775932
0.730233
0.730233
0.730233
0.737242
0.737242
0.737242
0.737293
0.737293
0.737293
0.737307
0.737307
0.737307
0.75227
0.75227
0.75227
0.727157
0.727157
0.727157
0.740268
0.740268
0.740268
0.740137
0.740137
0.740137
0.736974
0.736974
0.736974
0.746309
0.746309
0.746309
0.747232
0.747232
0.747232
0.746379
0.746379
0.746379
0.749297
0.749297
0.749297
0.74905
0.74905
0.74905
0.746069
0.746069
0.746069
0.733011
0.733011
0.733011
0.736646
0.736646
0.736646
0.748784
0.748784
0.748784
0.760206
0.760206
0.760206
0.757825
0.757825
0.757825
0.792001
0.792001
0.792001
0.81723
0.81723
0.81723
0.817492
0.817492
0.817492
0.817101
0.817101
0.817101
0.790622
0.790622
0.790622
0.791623
0.791623
0.791623
0.785089
0.785089
0.785089
0.785493
0.785493
0.785493
0.783972
0.783972
0.783972
0.781677
0.781677
0.781677
0.733307
0.733307
0.733307
0.735194
0.735194
0.735194
0.738819
0.738819
0.738819
0.736335
0.736335
0.736335
0.747857
0.747857
0.747857
0.744302
0.744302
0.744302
0.746174
0.746174
0.746174
0.752811
0.752811
0.752811
0.751256
0.751256
0.751256
0.788916
0.788916
0.788916
0.741703
0.741703
0.741703
0.739662
0.739662
0.739662
0.738485
0.738485
0.738485
0.778302
0.778302
0.778302
0.779375
0.779375
0.779375
0.778964
0.778964
0.778964
0.778815
0.778815
0.778815
0.776836
0.776836
0.776836
0.777974
0.777974
0.777974
0.793833
0.793833
0.793833
0.792631
0.792631
0.792631
0.792348
0.792348
0.792348
0.790969
0.790969
0.790969
0.791941
0.791941
0.791941
0.784256
0.784256
0.784256
0.785092
0.785092
0.785092
0.784845
0.784845
0.784845
0.78478
0.78478
0.78478
0.788317
0.788317
0.788317
0.788691
0.788691
0.788691
0.787261
0.787261
0.787261
0.786579
0.786579
0.786579
0.790373
0.790373
0.790373
0.789719
0.789719
0.789719
0.791373
0.791373
0.791373
0.791719
0.791719
0.791719
0.793363
0.793363
0.793363
0.793139
0.793139
0.793139
0.792194
0.792194
0.792194
0.783604
0.783604
0.783604
0.785523
0.785523
0.785523
0.784471
0.784471
0.784471
0.787998
0.787998
0.787998
0.788965
0.788965
0.788965
0.77224
0.77224
0.77224
0.772667
0.772667
0.772667
0.773106
0.773106
0.773106
0.774126
0.774126
0.774126
0.773907
0.773907
0.773907
0.778559
0.778559
0.778559
0.780914
0.780914
0.780914
0.77697
0.77697
0.77697
0.777348
0.777348
0.777348
0.775236
0.775236
0.775236
0.776481
0.776481
0.776481
0.780071
0.780071
0.780071
0.781031
0.781031
0.781031
0.782109
0.782109
0.782109
0.782226
0.782226
0.782226
0.775515
0.775515
0.775515
0.775331
0.775331
0.775331
0.776686
0.776686
0.776686
0.777675
0.777675
0.777675
0.77632
0.77632
0.77632
0.777492
0.777492
0.777492
0.780302
0.780302
0.780302
0.782524
0.782524
0.782524
0.77681
0.77681
0.77681
0.77916
0.77916
0.77916
0.778234
0.778234
0.778234
0.77706
0.77706
0.77706
0.813582
0.813582
0.813582
0.813681
0.813681
0.813681
0.816514
0.816514
0.816514
0.815421
0.815421
0.815421
0.816447
0.816447
0.816447
0.815901
0.815901
0.815901
0.814861
0.814861
0.814861
0.814358
0.814358
0.814358
0.813784
0.813784
0.813784
0.813712
0.813712
0.813712
0.814206
0.814206
0.814206
0.814781
0.814781
0.814781
0.813136
0.813136
0.813136
0.812494
0.812494
0.812494
0.816059
0.816059
0.816059
0.814966
0.814966
0.814966
0.815478
0.815478
0.815478
0.816025
0.816025
0.816025
0.813887
0.813887
0.813887
0.81332
0.81332
0.81332
0.812747
0.812747
0.812747
0.81274
0.81274
0.81274
0.813298
0.813298
0.813298
0.813872
0.813872
0.813872
0.815539
0.815539
0.815539
0.814447
0.814447
0.814447
0.814439
0.814439
0.814439
0.814984
0.814984
0.814984
0.815537
0.815537
0.815537
0.814991
0.814991
0.814991
0.813821
0.813821
0.813821
0.813211
0.813211
0.813211
0.813303
0.813303
0.813303
0.813862
0.813862
0.813862
0.806499
0.806499
0.806499
0.805831
0.805831
0.805831
0.804355
0.804355
0.804355
0.805089
0.805089
0.805089
0.804445
0.804445
0.804445
0.80513
0.80513
0.80513
0.811568
0.811568
0.811568
0.812151
0.812151
0.812151
0.81157
0.81157
0.81157
0.810967
0.810967
0.810967
0.786003
0.786003
0.786003
0.78997
0.78997
0.78997
0.787135
0.787135
0.787135
0.787026
0.787026
0.787026
0.78791
0.78791
0.78791
0.788905
0.788905
0.788905
0.788124
0.788124
0.788124
0.78901
0.78901
0.78901
0.791003
0.791003
0.791003
0.790114
0.790114
0.790114
0.796864
0.796864
0.796864
0.793572
0.793572
0.793572
0.810955
0.810955
0.810955
0.811941
0.811941
0.811941
0.807596
0.807596
0.807596
0.808136
0.808136
0.808136
0.811221
0.811221
0.811221
0.811018
0.811018
0.811018
0.810263
0.810263
0.810263
0.701674
0.701674
0.701674
0.703855
0.703855
0.703855
0.705544
0.705544
0.705544
0.706817
0.706817
0.706817
0.704292
0.704292
0.704292
0.706429
0.706429
0.706429
0.709312
0.709312
0.709312
0.708125
0.708125
0.708125
0.707676
0.707676
0.707676
0.70891
0.70891
0.70891
0.706432
0.706432
0.706432
0.707786
0.707786
0.707786
0.709945
0.709945
0.709945
0.71126
0.71126
0.71126
0.76568
0.76568
0.76568
0.766906
0.766906
0.766906
0.784358
0.784358
0.784358
0.786226
0.786226
0.786226
0.783398
0.783398
0.783398
0.764865
0.764865
0.764865
0.763717
0.763717
0.763717
0.762352
0.762352
0.762352
0.769066
0.769066
0.769066
0.769166
0.769166
0.769166
0.766881
0.766881
0.766881
0.766755
0.766755
0.766755
0.768072
0.768072
0.768072
0.768009
0.768009
0.768009
0.764406
0.764406
0.764406
0.76563
0.76563
0.76563
0.765567
0.765567
0.765567
0.763155
0.763155
0.763155
0.764682
0.764682
0.764682
0.766029
0.766029
0.766029
0.767531
0.767531
0.767531
0.766223
0.766223
0.766223
0.767688
0.767688
0.767688
0.769316
0.769316
0.769316
0.769293
0.769293
0.769293
0.768111
0.768111
0.768111
0.768123
0.768123
0.768123
0.771637
0.771637
0.771637
0.77164
0.77164
0.77164
0.770489
0.770489
0.770489
0.770501
0.770501
0.770501
0.771662
0.771662
0.771662
0.761997
0.761997
0.761997
0.763468
0.763468
0.763468
0.728733
0.728733
0.728733
0.730386
0.730386
0.730386
0.728846
0.728846
0.728846
0.748089
0.748089
0.748089
0.749533
0.749533
0.749533
0.736916
0.736916
0.736916
0.737054
0.737054
0.737054
0.735685
0.735685
0.735685
0.735695
0.735695
0.735695
0.738492
0.738492
0.738492
0.736631
0.736631
0.736631
0.738317
0.738317
0.738317
0.73727
0.73727
0.73727
0.73875
0.73875
0.73875
0.738835
0.738835
0.738835
0.7579
0.7579
0.7579
0.746712
0.746712
0.746712
0.748019
0.748019
0.748019
0.738708
0.738708
0.738708
0.741609
0.741609
0.741609
0.715671
0.715671
0.715671
0.719148
0.719148
0.719148
0.717029
0.717029
0.717029
0.731195
0.731195
0.731195
0.731609
0.731609
0.731609
0.733425
0.733425
0.733425
0.726482
0.726482
0.726482
0.718071
0.718071
0.718071
0.747705
0.747705
0.747705
0.74509
0.74509
0.74509
0.753907
0.753907
0.753907
0.75055
0.75055
0.75055
0.752167
0.752167
0.752167
0.748979
0.748979
0.748979
0.749974
0.749974
0.749974
0.744565
0.744565
0.744565
0.746862
0.746862
0.746862
0.745777
0.745777
0.745777
0.751085
0.751085
0.751085
0.741378
0.741378
0.741378
0.744978
0.744978
0.744978
0.731658
0.731658
0.731658
0.733241
0.733241
0.733241
0.731851
0.731851
0.731851
0.735012
0.735012
0.735012
0.735196
0.735196
0.735196
0.733618
0.733618
0.733618
0.739884
0.739884
0.739884
0.737722
0.737722
0.737722
0.738098
0.738098
0.738098
0.739678
0.739678
0.739678
0.748975
0.748975
0.748975
0.750384
0.750384
0.750384
0.749083
0.749083
0.749083
0.743035
0.743035
0.743035
0.741297
0.741297
0.741297
0.745399
0.745399
0.745399
0.746101
0.746101
0.746101
0.744054
0.744054
0.744054
0.74441
0.74441
0.74441
0.747092
0.747092
0.747092
0.747439
0.747439
0.747439
0.761056
0.761056
0.761056
0.761364
0.761364
0.761364
0.756601
0.756601
0.756601
0.763531
0.763531
0.763531
0.760482
0.760482
0.760482
0.759293
0.759293
0.759293
0.761909
0.761909
0.761909
0.762145
0.762145
0.762145
0.769552
0.769552
0.769552
0.76653
0.76653
0.76653
0.77615
0.77615
0.77615
0.775709
0.775709
0.775709
0.76594
0.76594
0.76594
0.764463
0.764463
0.764463
0.766796
0.766796
0.766796
0.766172
0.766172
0.766172
0.763836
0.763836
0.763836
0.76469
0.76469
0.76469
0.792839
0.792839
0.792839
0.79181
0.79181
0.79181
0.792223
0.792223
0.792223
0.789836
0.789836
0.789836
0.790809
0.790809
0.790809
0.790221
0.790221
0.790221
0.786663
0.786663
0.786663
0.785521
0.785521
0.785521
0.783312
0.783312
0.783312
0.784404
0.784404
0.784404
0.735746
0.735746
0.735746
0.736009
0.736009
0.736009
0.736804
0.736804
0.736804
0.73594
0.73594
0.73594
0.733522
0.733522
0.733522
0.735497
0.735497
0.735497
0.732662
0.732662
0.732662
0.733774
0.733774
0.733774
0.742847
0.742847
0.742847
0.750327
0.750327
0.750327
0.74845
0.74845
0.74845
0.747953
0.747953
0.747953
0.757661
0.757661
0.757661
0.749138
0.749138
0.749138
0.753406
0.753406
0.753406
0.752867
0.752867
0.752867
0.760085
0.760085
0.760085
0.794121
0.794121
0.794121
0.795973
0.795973
0.795973
0.794797
0.794797
0.794797
0.793272
0.793272
0.793272
0.795018
0.795018
0.795018
0.794446
0.794446
0.794446
0.790741
0.790741
0.790741
0.789484
0.789484
0.789484
0.785805
0.785805
0.785805
0.792902
0.792902
0.792902
0.780827
0.780827
0.780827
0.784781
0.784781
0.784781
0.778525
0.778525
0.778525
0.77939
0.77939
0.77939
0.770538
0.770538
0.770538
0.772119
0.772119
0.772119
0.777039
0.777039
0.777039
0.776435
0.776435
0.776435
0.765449
0.765449
0.765449
0.763697
0.763697
0.763697
0.805331
0.805331
0.805331
0.804396
0.804396
0.804396
0.807825
0.807825
0.807825
0.796148
0.796148
0.796148
0.803397
0.803397
0.803397
0.802308
0.802308
0.802308
0.802543
0.802543
0.802543
0.773032
0.773032
0.773032
0.785564
0.785564
0.785564
0.78763
0.78763
0.78763
0.786895
0.786895
0.786895
0.75438
0.75438
0.75438
0.758669
0.758669
0.758669
0.756962
0.756962
0.756962
0.756121
0.756121
0.756121
0.756983
0.756983
0.756983
0.778254
0.778254
0.778254
0.77715
0.77715
0.77715
0.777068
0.777068
0.777068
0.77809
0.77809
0.77809
0.79025
0.79025
0.79025
0.791375
0.791375
0.791375
0.790061
0.790061
0.790061
0.791061
0.791061
0.791061
0.790687
0.790687
0.790687
0.799946
0.799946
0.799946
0.799119
0.799119
0.799119
0.779807
0.779807
0.779807
0.777455
0.777455
0.777455
0.778912
0.778912
0.778912
0.777737
0.777737
0.777737
0.780392
0.780392
0.780392
0.78008
0.78008
0.78008
0.778903
0.778903
0.778903
0.778038
0.778038
0.778038
0.778351
0.778351
0.778351
0.779527
0.779527
0.779527
0.781536
0.781536
0.781536
0.783762
0.783762
0.783762
0.783174
0.783174
0.783174
0.782927
0.782927
0.782927
0.781815
0.781815
0.781815
0.78095
0.78095
0.78095
0.781197
0.781197
0.781197
0.782309
0.782309
0.782309
0.782059
0.782059
0.782059
0.78237
0.78237
0.78237
0.783483
0.783483
0.783483
0.784287
0.784287
0.784287
0.782863
0.782863
0.782863
0.783977
0.783977
0.783977
0.779018
0.779018
0.779018
0.779393
0.779393
0.779393
0.780571
0.780571
0.780571
0.788006
0.788006
0.788006
0.78695
0.78695
0.78695
0.79249
0.79249
0.79249
0.790847
0.790847
0.790847
0.790972
0.790972
0.790972
0.787876
0.787876
0.787876
0.788719
0.788719
0.788719
0.78919
0.78919
0.78919
0.789377
0.789377
0.789377
0.788565
0.788565
0.788565
0.787569
0.787569
0.787569
0.78997
0.78997
0.78997
0.789751
0.789751
0.789751
0.791472
0.791472
0.791472
0.790501
0.790501
0.790501
0.793281
0.793281
0.793281
0.793151
0.793151
0.793151
0.783787
0.783787
0.783787
0.782889
0.782889
0.782889
0.783039
0.783039
0.783039
0.789201
0.789201
0.789201
0.786403
0.786403
0.786403
0.788278
0.788278
0.788278
0.787347
0.787347
0.787347
0.788285
0.788285
0.788285
0.787286
0.787286
0.787286
0.787329
0.787329
0.787329
0.786392
0.786392
0.786392
0.785415
0.785415
0.785415
0.785369
0.785369
0.785369
0.786304
0.786304
0.786304
0.784454
0.784454
0.784454
0.783448
0.783448
0.783448
0.782461
0.782461
0.782461
0.787123
0.787123
0.787123
0.772393
0.772393
0.772393
0.772627
0.772627
0.772627
0.773711
0.773711
0.773711
0.773594
0.773594
0.773594
0.770074
0.770074
0.770074
0.768958
0.768958
0.768958
0.769078
0.769078
0.769078
0.770311
0.770311
0.770311
0.771427
0.771427
0.771427
0.771309
0.771309
0.771309
0.775724
0.775724
0.775724
0.775313
0.775313
0.775313
0.774031
0.774031
0.774031
0.77316
0.77316
0.77316
0.774856
0.774856
0.774856
0.773575
0.773575
0.773575
0.77959
0.77959
0.77959
0.781809
0.781809
0.781809
0.779773
0.779773
0.779773
0.780882
0.780882
0.780882
0.781627
0.781627
0.781627
0.780517
0.780517
0.780517
0.779278
0.779278
0.779278
0.779196
0.779196
0.779196
0.780187
0.780187
0.780187
0.781264
0.781264
0.781264
0.81092
0.81092
0.81092
0.811936
0.811936
0.811936
0.81127
0.81127
0.81127
0.810698
0.810698
0.810698
0.810792
0.810792
0.810792
0.804285
0.804285
0.804285
0.803671
0.803671
0.803671
0.802266
0.802266
0.802266
0.803719
0.803719
0.803719
0.803017
0.803017
0.803017
0.802601
0.802601
0.802601
0.802829
0.802829
0.802829
0.802912
0.802912
0.802912
0.80221
0.80221
0.80221
0.800541
0.800541
0.800541
0.794445
0.794445
0.794445
0.795266
0.795266
0.795266
0.810944
0.810944
0.810944
0.791766
0.791766
0.791766
0.790833
0.790833
0.790833
0.790111
0.790111
0.790111
0.78919
0.78919
0.78919
0.789152
0.789152
0.789152
0.790039
0.790039
0.790039
0.791893
0.791893
0.791893
0.797643
0.797643
0.797643
0.793514
0.793514
0.793514
0.792607
0.792607
0.792607
0.796011
0.796011
0.796011
0.795213
0.795213
0.795213
0.794333
0.794333
0.794333
0.795929
0.795929
0.795929
0.795042
0.795042
0.795042
0.794245
0.794245
0.794245
0.809882
0.809882
0.809882
0.810009
0.810009
0.810009
0.810352
0.810352
0.810352
0.809114
0.809114
0.809114
0.810362
0.810362
0.810362
0.809743
0.809743
0.809743
0.807801
0.807801
0.807801
0.812796
0.812796
0.812796
0.812929
0.812929
0.812929
0.812385
0.812385
0.812385
0.812109
0.812109
0.812109
0.810025
0.810025
0.810025
0.808961
0.808961
0.808961
0.809235
0.809235
0.809235
0.808042
0.808042
0.808042
0.809722
0.809722
0.809722
0.808612
0.808612
0.808612
0.705042
0.705042
0.705042
0.711408
0.711408
0.711408
0.715517
0.715517
0.715517
0.713916
0.713916
0.713916
0.711863
0.711863
0.711863
0.710217
0.710217
0.710217
0.710613
0.710613
0.710613
0.714319
0.714319
0.714319
0.712663
0.712663
0.712663
0.699715
0.699715
0.699715
0.704036
0.704036
0.704036
0.711683
0.711683
0.711683
0.71041
0.71041
0.71041
0.711906
0.711906
0.711906
0.708092
0.708092
0.708092
0.71621
0.71621
0.71621
0.720474
0.720474
0.720474
0.763897
0.763897
0.763897
0.762714
0.762714
0.762714
0.759775
0.759775
0.759775
0.761172
0.761172
0.761172
0.761354
0.761354
0.761354
0.772765
0.772765
0.772765
0.773921
0.773921
0.773921
0.775019
0.775019
0.775019
0.774959
0.774959
0.774959
0.779112
0.779112
0.779112
0.777847
0.777847
0.777847
0.778986
0.778986
0.778986
0.783231
0.783231
0.783231
0.785096
0.785096
0.785096
0.78521
0.78521
0.78521
0.784276
0.784276
0.784276
0.781077
0.781077
0.781077
0.779968
0.779968
0.779968
0.779808
0.779808
0.779808
0.782359
0.782359
0.782359
0.782273
0.782273
0.782273
0.780216
0.780216
0.780216
0.781199
0.781199
0.781199
0.777684
0.777684
0.777684
0.776509
0.776509
0.776509
0.776306
0.776306
0.776306
0.778663
0.778663
0.778663
0.777284
0.777284
0.777284
0.778465
0.778465
0.778465
0.779417
0.779417
0.779417
0.761304
0.761304
0.761304
0.759855
0.759855
0.759855
0.762413
0.762413
0.762413
0.76207
0.76207
0.76207
0.76457
0.76457
0.76457
0.763147
0.763147
0.763147
0.759418
0.759418
0.759418
0.759932
0.759932
0.759932
0.767098
0.767098
0.767098
0.768184
0.768184
0.768184
0.769702
0.769702
0.769702
0.769489
0.769489
0.769489
0.77182
0.77182
0.77182
0.770546
0.770546
0.770546
0.764646
0.764646
0.764646
0.765761
0.765761
0.765761
0.763121
0.763121
0.763121
0.760483
0.760483
0.760483
0.76445
0.76445
0.76445
0.763916
0.763916
0.763916
0.763063
0.763063
0.763063
0.762793
0.762793
0.762793
0.766394
0.766394
0.766394
0.765305
0.765305
0.765305
0.76557
0.76557
0.76557
0.764404
0.764404
0.764404
0.766882
0.766882
0.766882
0.765667
0.765667
0.765667
0.765074
0.765074
0.765074
0.763729
0.763729
0.763729
0.757712
0.757712
0.757712
0.772803
0.772803
0.772803
0.772815
0.772815
0.772815
0.773922
0.773922
0.773922
0.775055
0.775055
0.775055
0.775066
0.775066
0.775066
0.773945
0.773945
0.773945
0.755689
0.755689
0.755689
0.757295
0.757295
0.757295
0.757857
0.757857
0.757857
0.750855
0.750855
0.750855
0.762131
0.762131
0.762131
0.761607
0.761607
0.761607
0.763016
0.763016
0.763016
0.763276
0.763276
0.763276
0.758716
0.758716
0.758716
0.748614
0.748614
0.748614
0.748973
0.748973
0.748973
0.748542
0.748542
0.748542
0.758977
0.758977
0.758977
0.758028
0.758028
0.758028
0.755077
0.755077
0.755077
0.756079
0.756079
0.756079
0.770296
0.770296
0.770296
0.767253
0.767253
0.767253
0.76578
0.76578
0.76578
0.758485
0.758485
0.758485
0.756647
0.756647
0.756647
0.759212
0.759212
0.759212
0.758291
0.758291
0.758291
0.75938
0.75938
0.75938
0.761005
0.761005
0.761005
0.761877
0.761877
0.761877
0.758612
0.758612
0.758612
0.761173
0.761173
0.761173
0.758673
0.758673
0.758673
0.759518
0.759518
0.759518
0.759481
0.759481
0.759481
0.761969
0.761969
0.761969
0.761121
0.761121
0.761121
0.764172
0.764172
0.764172
0.760573
0.760573
0.760573
0.761208
0.761208
0.761208
0.762758
0.762758
0.762758
0.735576
0.735576
0.735576
0.735479
0.735479
0.735479
0.733763
0.733763
0.733763
0.732149
0.732149
0.732149
0.73891
0.73891
0.73891
0.74048
0.74048
0.74048
0.738914
0.738914
0.738914
0.742053
0.742053
0.742053
0.749479
0.749479
0.749479
0.749287
0.749287
0.749287
0.743217
0.743217
0.743217
0.740435
0.740435
0.740435
0.738814
0.738814
0.738814
0.738723
0.738723
0.738723
0.735123
0.735123
0.735123
0.754697
0.754697
0.754697
0.754976
0.754976
0.754976
0.756294
0.756294
0.756294
0.756157
0.756157
0.756157
0.751691
0.751691
0.751691
0.750144
0.750144
0.750144
0.752165
0.752165
0.752165
0.753519
0.753519
0.753519
0.753377
0.753377
0.753377
0.751875
0.751875
0.751875
0.750519
0.750519
0.750519
0.750666
0.750666
0.750666
0.761857
0.761857
0.761857
0.760575
0.760575
0.760575
0.759252
0.759252
0.759252
0.759274
0.759274
0.759274
0.760591
0.760591
0.760591
0.760545
0.760545
0.760545
0.761887
0.761887
0.761887
0.761863
0.761863
0.761863
0.756571
0.756571
0.756571
0.750991
0.750991
0.750991
0.753835
0.753835
0.753835
0.755221
0.755221
0.755221
0.757942
0.757942
0.757942
0.756591
0.756591
0.756591
0.753788
0.753788
0.753788
0.753725
0.753725
0.753725
0.755077
0.755077
0.755077
0.755199
0.755199
0.755199
0.755168
0.755168
0.755168
0.756373
0.756373
0.756373
0.745634
0.745634
0.745634
0.746982
0.746982
0.746982
0.749601
0.749601
0.749601
0.734833
0.734833
0.734833
0.73661
0.73661
0.73661
0.736644
0.736644
0.736644
0.744021
0.744021
0.744021
0.736411
0.736411