<VTKFile type="UnstructuredGrid" version="1.0">
<UnstructuredGrid>
<Piece NumberOfPoints="11046" NumberOfCells="3682">
<Points>
<DataArray type="Float64" NumberOfComponents="3" format="ascii">
2.48358 1.77342 14.7102
2.46979 1.78721 14.7025
2.49736 1.75964 14.7025
2.17682 2.08018 14.7189
2.16411 2.09289 14.7025
2.1809 2.0761 14.7025
2.17682 2.08018 14.7189
2.16411 2.09289 14.7264
2.16411 2.09289 14.7025
2.49736 1.75964 15.6025
2.46979 1.78721 15.6025
2.48358 1.77342 15.5948
2.66273 1.59427 15.5815
2.66273 1.59427 15.6025
2.64895 1.60805 15.5948
2.4284 1.8286 15.4799
2.4422 1.8148 15.4685
2.4422 1.8148 15.4912
2.64895 1.60805 14.7102
2.66273 1.59427 14.7025
2.66273 1.59427 14.7235
2.46979 1.78721 14.7458
2.48358 1.77342 14.7338
2.48358 1.77342 14.7568
2.48358 1.77342 14.7568
2.48358 1.77342 14.7338
2.49736 1.75964 14.7458
2.49735 1.75965 15.13
2.51114 1.74586 15.1412
2.49735 1.75965 15.1525
2.16411 2.09289 15.175
2.16411 2.09289 15.1525
2.17811 2.07889 15.1638
2.8005 1.4565 15.3779
2.78672 1.47028 15.3892
2.78672 1.47028 15.3666
2.66271 1.59429 15.378
2.67649 1.58051 15.3667
2.67649 1.58051 15.3893
2.67649 1.58051 15.3893
2.67649 1.58051 15.3667
2.69027 1.56673 15.378
2.64895 1.60805 15.5948
2.66273 1.59427 15.6025
2.63517 1.62183 15.6025
2.55249 1.70451 15.5592
2.56627 1.69073 15.5712
2.55249 1.70451 15.5815
2.58005 1.67695 15.5592
2.56627 1.69073 15.5712
2.56627 1.69073 15.5482
2.56627 1.69073 15.5482
2.56627 1.69073 15.5712
2.55249 1.70451 15.5592
2.49735 1.75965 15.2426
2.48357 1.77343 15.2539
2.48357 1.77343 15.2313
2.49735 1.75965 15.1525
2.51114 1.74586 15.1412
2.51114 1.74586 15.1638
2.48357 1.77343 15.3215
2.49736 1.75964 15.3328
2.48357 1.77343 15.3441
2.48358 1.77342 15.5948
2.46979 1.78721 15.6025
2.46979 1.78721 15.5814
2.7867 1.4703 14.8253
2.8005 1.4565 14.8367
2.78671 1.47029 14.848
2.63516 1.62184 15.13
2.64894 1.60806 15.1187
2.64894 1.60806 15.1412
2.456 1.801 14.7102
2.44221 1.81479 14.7025
2.46979 1.78721 14.7025
2.46979 1.78721 14.7458
2.456 1.801 14.7338
2.46979 1.78721 14.7236
2.46979 1.78721 14.7236
2.48358 1.77342 14.7338
2.46979 1.78721 14.7458
2.46979 1.78721 14.7236
2.456 1.801 14.7102
2.46979 1.78721 14.7025
2.456 1.801 14.7338
2.456 1.801 14.7102
2.46979 1.78721 14.7236
2.46979 1.78721 14.7236
2.46979 1.78721 14.7025
2.48358 1.77342 14.7102
2.48358 1.77342 14.7102
2.48358 1.77342 14.7338
2.46979 1.78721 14.7236
2.49736 1.75964 14.7458
2.48358 1.77342 14.7338
2.49736 1.75964 14.7235
2.49736 1.75964 14.7235
2.51114 1.74586 14.7338
2.49736 1.75964 14.7458
2.48358 1.77342 14.7102
2.49736 1.75964 14.7025
2.49736 1.75964 14.7235
2.49736 1.75964 14.7235
2.48358 1.77342 14.7338
2.48358 1.77342 14.7102
2.48358 1.77342 14.7797
2.48358 1.77342 14.7568
2.49736 1.75964 14.7684
2.49736 1.75964 14.7684
2.48358 1.77342 14.7568
2.49736 1.75964 14.7458
2.52492 1.73208 14.9722
2.52492 1.73208 14.9496
2.53871 1.71829 14.9609
2.51114 1.74586 14.9609
2.52492 1.73208 14.9496
2.52492 1.73208 14.9722
2.63517 1.62183 14.7025
2.66273 1.59427 14.7025
2.64895 1.60805 14.7102
2.49736 1.75964 14.7025
2.52493 1.73207 14.7025
2.51114 1.74586 14.7102
2.51114 1.74586 14.7102
2.49736 1.75964 14.7235
2.49736 1.75964 14.7025
2.51114 1.74586 14.7338
2.49736 1.75964 14.7235
2.51114 1.74586 14.7102
2.51114 1.74586 15.1187
2.49735 1.75965 15.13
2.49735 1.75965 15.1075
2.51114 1.74586 15.1412
2.49735 1.75965 15.13
2.51114 1.74586 15.1187
2.51114 1.74586 15.1187
2.52492 1.73208 15.13
2.51114 1.74586 15.1412
2.78672 1.47028 15.0962
2.8005 1.4565 15.0849
2.8005 1.4565 15.1075
2.8005 1.4565 14.9722
2.78672 1.47028 14.961
2.8005 1.4565 14.9497
2.8005 1.4565 15.2651
2.8005 1.4565 15.2876
2.78672 1.47028 15.2764
2.78672 1.47028 15.2989
2.77294 1.48406 15.3102
2.77294 1.48406 15.2877
2.78672 1.47028 15.2989
2.8005 1.4565 15.2876
2.8005 1.4565 15.3102
2.77294 1.48406 15.2877
2.78672 1.47028 15.2764
2.78672 1.47028 15.2989
2.78672 1.47028 15.2989
2.78672 1.47028 15.2764
2.8005 1.4565 15.2876
2.78672 1.47028 15.3215
2.8005 1.4565 15.3102
2.8005 1.4565 15.3328
2.78672 1.47028 15.3215
2.78672 1.47028 15.2989
2.8005 1.4565 15.3102
2.77294 1.48406 15.3102
2.78672 1.47028 15.2989
2.78672 1.47028 15.3215
2.8005 1.4565 15.3779
2.78672 1.47028 15.3666
2.8005 1.4565 15.3553
2.75915 1.49785 15.3892
2.74538 1.51162 15.3779
2.75916 1.49784 15.3666
2.75916 1.49784 15.344
2.75916 1.49784 15.3666
2.74538 1.51162 15.3553
2.74538 1.51162 15.3553
2.74538 1.51162 15.3779
2.7316 1.5254 15.3666
2.74538 1.51162 15.3553
2.75916 1.49784 15.3666
2.74538 1.51162 15.3779
2.8005 1.4565 15.1975
2.78672 1.47028 15.1863
2.8005 1.4565 15.175
2.78672 1.47028 15.2538
2.8005 1.4565 15.2426
2.8005 1.4565 15.2651
2.8005 1.4565 15.2651
2.78672 1.47028 15.2764
2.78672 1.47028 15.2538
2.78672 1.47028 15.2538
2.78672 1.47028 15.2313
2.8005 1.4565 15.2426
2.77294 1.48406 15.2426
2.78672 1.47028 15.2313
2.78672 1.47028 15.2538
2.69027 1.56673 15.4912
2.6765 1.5805 15.5026
2.67649 1.58051 15.4799
2.67651 1.58049 15.5482
2.66273 1.59427 15.5592
2.66273 1.59427 15.5366
2.64895 1.60805 15.5712
2.66273 1.59427 15.5815
2.64895 1.60805 15.5948
2.64895 1.60805 15.5712
2.66273 1.59427 15.5592
2.66273 1.59427 15.5815
2.6903 1.5667 15.5815
2.6903 1.5667 15.5592
2.70409 1.55291 15.5712
2.69027 1.56673 15.378
2.67649 1.58051 15.3667
2.69027 1.56673 15.3554
2.67649 1.58051 15.3667
2.67649 1.58051 15.3441
2.69027 1.56673 15.3554
2.69027 1.56673 15.3328
2.70405 1.55295 15.3441
2.69027 1.56673 15.3554
2.69027 1.56673 15.3554
2.67649 1.58051 15.3441
2.69027 1.56673 15.3328
2.69027 1.56673 15.4006
2.67649 1.58051 15.3893
2.69027 1.56673 15.378
2.69027 1.56673 15.4006
2.70404 1.55296 15.4119
2.69027 1.56673 15.4232
2.8005 1.4565 15.4005
2.78672 1.47028 15.3892
2.8005 1.4565 15.3779
2.49736 1.75964 15.5814
2.49736 1.75964 15.6025
2.48358 1.77342 15.5948
2.52493 1.73207 15.5815
2.52493 1.73207 15.6025
2.51114 1.74586 15.5948
2.51114 1.74586 15.5948
2.51114 1.74586 15.5712
2.52493 1.73207 15.5815
2.51114 1.74586 15.5948
2.52493 1.73207 15.6025
2.49736 1.75964 15.6025
2.49736 1.75964 15.6025
2.49736 1.75964 15.5814
2.51114 1.74586 15.5948
2.51114 1.74586 15.5948
2.49736 1.75964 15.5814
2.51114 1.74586 15.5712
2.51114 1.74586 15.5712
2.49736 1.75964 15.5814
2.49736 1.75964 15.5592
2.56627 1.69073 15.5948
2.58005 1.67695 15.6025
2.55249 1.70451 15.6025
2.55249 1.70451 15.6025
2.55249 1.70451 15.5815
2.56627 1.69073 15.5948
2.56627 1.69073 15.5948
2.55249 1.70451 15.5815
2.56627 1.69073 15.5712
2.53871 1.71829 15.5948
2.52493 1.73207 15.6025
2.52493 1.73207 15.5815
2.55249 1.70451 15.6025
2.52493 1.73207 15.6025
2.53871 1.71829 15.5948
2.53871 1.71829 15.5948
2.55249 1.70451 15.5815
2.55249 1.70451 15.6025
2.55249 1.70451 15.5592
2.55249 1.70451 15.5815
2.53871 1.71829 15.5712
2.53871 1.71829 15.5712
2.53871 1.71829 15.5482
2.55249 1.70451 15.5592
2.53871 1.71829 15.5712
2.53871 1.71829 15.5948
2.52493 1.73207 15.5815
2.55249 1.70451 15.5815
2.53871 1.71829 15.5948
2.53871 1.71829 15.5712
2.55249 1.70451 15.5366
2.56627 1.69073 15.5482
2.55249 1.70451 15.5592
2.55249 1.70451 15.5366
2.53871 1.71829 15.5482
2.53871 1.71829 15.5253
2.55249 1.70451 15.5592
2.53871 1.71829 15.5482
2.55249 1.70451 15.5366
2.46978 1.78722 15.2651
2.48357 1.77343 15.2539
2.48357 1.77343 15.2764
2.48357 1.77343 15.2764
2.46978 1.78722 15.2877
2.46978 1.78722 15.2651
2.49736 1.75964 15.3102
2.49736 1.75964 15.3328
2.48357 1.77343 15.3215
2.46978 1.78722 15.1975
2.48357 1.77343 15.1863
2.48357 1.77343 15.2088
2.48357 1.77343 15.2088
2.48357 1.77343 15.1863
2.49735 1.75965 15.1975
2.46978 1.78722 15.2426
2.48357 1.77343 15.2539
2.46978 1.78722 15.2651
2.46978 1.78722 15.2426
2.48357 1.77343 15.2313
2.48357 1.77343 15.2539
2.51114 1.74586 15.1412
2.52492 1.73208 15.13
2.52492 1.73208 15.1525
2.52492 1.73208 15.1525
2.51114 1.74586 15.1638
2.51114 1.74586 15.1412
2.49735 1.75965 15.1975
2.48357 1.77343 15.1863
2.49735 1.75965 15.175
2.49735 1.75965 15.1525
2.51114 1.74586 15.1638
2.49735 1.75965 15.175
2.49736 1.75964 15.378
2.49736 1.75964 15.4006
2.48357 1.77343 15.3893
2.4284 1.8286 15.4572
2.4422 1.8148 15.4685
2.4284 1.8286 15.4799
2.3455 1.9115 15.5948
2.35934 1.89766 15.6025
2.33165 1.92535 15.6025
2.4146 1.8424 15.4685
2.4284 1.8286 15.4572
2.4284 1.8286 15.4799
2.4146 1.8424 15.4458
2.4284 1.8286 15.4572
2.4146 1.8424 15.4685
2.456 1.801 15.5253
2.46979 1.78721 15.5366
2.456 1.801 15.5482
2.456 1.801 15.5482
2.46979 1.78721 15.5366
2.46979 1.78721 15.5592
2.42841 1.82859 15.5482
2.42841 1.82859 15.5253
2.44221 1.81479 15.5366
2.44221 1.81479 15.5366
2.44221 1.81479 15.5592
2.42841 1.82859 15.5482
2.44221 1.81479 15.5366
2.4422 1.8148 15.5139
2.456 1.801 15.5253
2.42841 1.82859 15.5253
2.4422 1.8148 15.5139
2.44221 1.81479 15.5366
2.456 1.801 15.5253
2.456 1.801 15.5482
2.44221 1.81479 15.5366
2.44221 1.81479 15.5366
2.456 1.801 15.5482
2.44221 1.81479 15.5592
2.46979 1.78721 15.6025
2.44221 1.81479 15.6025
2.456 1.801 15.5948
2.456 1.801 15.5948
2.46979 1.78721 15.5814
2.46979 1.78721 15.6025
2.42841 1.82859 15.5482
2.44221 1.81479 15.5592
2.42841 1.82859 15.5712
2.16411 2.09289 15.6025
2.17682 2.08018 15.5861
2.1809 2.0761 15.6025
2.1809 2.0761 15.6025
2.17682 2.08018 15.5861
2.19211 2.06489 15.5803
2.19211 2.06489 15.5803
2.19593 2.06107 15.6025
2.1809 2.0761 15.6025
2.78688 1.47012 14.7107
2.77324 1.48376 14.7025
2.8005 1.4565 14.7025
2.77293 1.48407 14.746
2.78673 1.47027 14.7343
2.78669 1.47031 14.7572
2.8005 1.4565 14.8141
2.8005 1.4565 14.8367
2.7867 1.4703 14.8253
2.78669 1.47031 14.7572
2.78673 1.47027 14.7343
2.8005 1.4565 14.7464
2.8005 1.4565 14.7464
2.8005 1.4565 14.7689
2.78669 1.47031 14.7572
2.78669 1.47031 14.7572
2.8005 1.4565 14.7689
2.78669 1.47031 14.78
2.8005 1.4565 14.9271
2.78672 1.47028 14.9158
2.8005 1.4565 14.9045
2.78672 1.47028 14.8932
2.8005 1.4565 14.8819
2.8005 1.4565 14.9045
2.8005 1.4565 14.9045
2.78672 1.47028 14.9158
2.78672 1.47028 14.8932
2.8005 1.4565 14.8593
2.78671 1.47029 14.848
2.8005 1.4565 14.8367
2.66273 1.59427 14.7025
2.69029 1.56671 14.7025
2.67651 1.58049 14.7102
[...]
<PointData Scalars="View Factor" >
<DataArray type="Float64" Name="View Factor" NumberOfComponents="1" format="ascii">
0.687939
0.687939
0.687939
0.660238
0.660238
0.660238
0.660285
0.660285
0.660285
0.685264
0.685264
0.685264
0.715826
0.715826
0.715826
0.664285
0.664285
0.664285
0.719484
0.719484
0.719484
0.686049
0.686049
0.686049
0.689591
0.689591
0.689591
0.693378
0.693378
0.693378
0.659362
0.659362
0.659362
0.714413
0.714413
0.714413
0.717402
0.717402
0.717402
0.717575
0.717575
0.717575
0.715415
0.715415
0.715415
0.705583
0.705583
0.705583
0.708013
0.708013
0.708013
0.70647
0.70647
0.70647
0.688298
0.688298
0.688298
0.694807
0.694807
0.694807
0.688002
0.688002
0.688002
0.68166
0.68166
0.68166
0.717004
0.717004
0.717004
0.717443
0.717443
0.717443
0.675945
0.675945
0.675945
0.680202
0.680202
0.680202
0.684192
0.684192
0.684192
0.680247
0.680247
0.680247
0.678111
0.678111
0.678111
0.684237
0.684237
0.684237
0.686097
0.686097
0.686097
0.691281
0.691281
0.691281
0.694416
0.694416
0.694416
0.691328
0.691328
0.691328
0.689639
0.689639
0.689639
0.689542
0.689542
0.689542
0.691232
0.691232
0.691232
0.701814
0.701814
0.701814
0.699394
0.699394
0.699394
0.719079
0.719079
0.719079
0.697365
0.697365
0.697365
0.694464
0.694464
0.694464
0.695914
0.695914
0.695914
0.693445
0.693445
0.693445
0.694875
0.694875
0.694875
0.697622
0.697622
0.697622
0.715617
0.715617
0.715617
0.716221
0.716221
0.716221
0.714698
0.714698
0.714698
0.715694
0.715694
0.715694
0.714572
0.714572
0.714572
0.715493
0.715493
0.715493
0.714933
0.714933
0.714933
0.714446
0.714446
0.714446
0.714807
0.714807
0.714807
0.715368
0.715368
0.715368
0.714181
0.714181
0.714181
0.716389
0.716389
0.716389
0.716515
0.716515
0.716515
0.716977
0.716977
0.716977
0.716641
0.716641
0.716641
0.715175
0.715175
0.715175
0.714822
0.714822
0.714822
0.715057
0.715057
0.715057
0.715177
0.715177
0.715177
0.715733
0.715733
0.715733
0.716966
0.716966
0.716966
0.716372
0.716372
0.716372
0.715715
0.715715
0.715715
0.715959
0.715959
0.715959
0.716586
0.716586
0.716586
0.717687
0.717687
0.717687
0.717688
0.717688
0.717688
0.717856
0.717856
0.717856
0.7178
0.7178
0.7178
0.717571
0.717571
0.717571
0.717501
0.717501
0.717501
0.714044
0.714044
0.714044
0.688644
0.688644
0.688644
0.697157
0.697157
0.697157
0.695935
0.695935
0.695935
0.694528
0.694528
0.694528
0.691728
0.691728
0.691728
0.693221
0.693221
0.693221
0.691825
0.691825
0.691825
0.707059
0.707059
0.707059
0.705474
0.705474
0.705474
0.706357
0.706357
0.706357
0.699534
0.699534
0.699534
0.701669
0.701669
0.701669
0.703678
0.703678
0.703678
0.703788
0.703788
0.703788
0.702874
0.702874
0.702874
0.700693
0.700693
0.700693
0.702766
0.702766
0.702766
0.705692
0.705692
0.705692
0.70298
0.70298
0.70298
0.703894
0.703894
0.703894
0.684711
0.684711
0.684711
0.682809
0.682809
0.682809
0.689692
0.689692
0.689692
0.684919
0.684919
0.684919
0.688438
0.688438
0.688438
0.682879
0.682879
0.682879
0.684782
0.684782
0.684782
0.698874
0.698874
0.698874
0.697552
0.697552
0.697552
0.690128
0.690128
0.690128
0.69331
0.69331
0.69331
0.689454
0.689454
0.689454
0.661685
0.661685
0.661685
0.657334
0.657334
0.657334
0.656103
0.656103
0.656103
0.655776
0.655776
0.655776
0.675853
0.675853
0.675853
0.677901
0.677901
0.677901
0.66145
0.66145
0.66145
0.664044
0.664044
0.664044
0.669107
0.669107
0.669107
0.664126
0.664126
0.664126
0.671416
0.671416
0.671416
0.669023
0.669023
0.669023
0.673431
0.673431
0.673431
0.677722
0.677722
0.677722
0.661368
0.661368
0.661368
0.658042
0.658042
0.658042
0.657985
0.657985
0.657985
0.65792
0.65792
0.65792
0.717735
0.717735
0.717735
0.717865
0.717865
0.717865
0.716761
0.716761
0.716761
0.717334
0.717334
0.717334
0.717011
0.717011
0.717011
0.717254
0.717254
0.717254
0.716407
0.716407
0.716407
0.716499
0.716499
0.716499
0.716739
0.716739
0.716739
0.716676
0.716676
0.716676
0.720087
0.720087
0.720087
0.719817
0.719817
0.719817
0.718311
0.718311
0.718311
0.717395
0.717395
0.717395
0.718006
0.718006
0.718006
0.718774
0.718774
0.718774
0.715705
0.715705
0.715705
0.714755
0.714755
0.714755
0.719254
0.719254
0.719254
0.719421
0.719421
0.719421
0.719189
0.719189
0.719189
0.718469
0.718469
0.718469
0.718788
0.718788
0.718788
0.717138
0.717138
0.717138
0.678065
0.678065
0.678065
0.712468
0.712468
0.712468
0.708531
0.708531
0.708531
0.713568
0.713568
0.713568
0.715412
0.715412
0.715412
0.714466
0.714466
0.714466
0.710841
0.710841
0.710841
0.71219
0.71219
0.71219
0.693881
0.693881
0.693881
0.690755
0.690755
0.690755
0.702913
0.702913
0.702913
0.701751
0.701751
0.701751
0.704964
0.704964
0.704964
0.70285
0.70285
0.70285
0.705915
0.705915
0.705915
0.704897
0.704897
0.704897
0.714614
0.714614
0.714614
0.710224
0.710224
0.710224
0.713627
0.713627
0.713627
0.71297
0.71297
0.71297
0.71161
0.71161
0.71161
0.714777
0.714777
0.714777
0.695865
0.695865
0.695865
0.698629
0.698629
0.698629
0.699899
0.699899
0.699899
0.694367
0.694367
0.694367
0.690329
0.690329
0.690329
0.670533
0.670533
0.670533
0.707681
0.707681
0.707681
0.705848
0.705848
0.705848
0.70754
0.70754
0.70754
0.708354
0.708354
0.708354
0.709856
0.709856
0.709856
0.697822
0.697822
0.697822
0.699143
0.699143
0.699143
0.67948
0.67948
0.67948
0.683457
0.683457
0.683457
0.6853
0.6853
0.6853
0.704622
0.704622
0.704622
0.708281
0.708281
0.708281
0.70564
0.70564
0.70564
0.707468
0.707468
0.707468
0.707395
0.707395
0.707395
0.705568
0.705568
0.705568
0.694943
0.694943
0.694943
0.718308
0.718308
0.718308
0.718981
0.718981
0.718981
0.718999
0.718999
0.718999
0.719035
0.719035
0.719035
0.718206
0.718206
0.718206
0.718397
0.718397
0.718397
0.717988
0.717988
0.717988
0.717889
0.717889
0.717889
0.717758
0.717758
0.717758
0.717656
0.717656
0.717656
0.717253
0.717253
0.717253
0.715401
0.715401
0.715401
0.715721
0.715721
0.715721
0.716508
0.716508
0.716508
0.71596
0.71596
0.71596
0.715855
0.715855
0.715855
0.71551
0.71551
0.71551
0.715748
0.715748
0.715748
0.716296
0.716296
0.716296
0.716999
0.716999
0.716999
0.716461
0.716461
0.716461
0.715927
0.715927
0.715927
0.716266
0.716266
0.716266
0.659001
0.659001
0.659001
0.660139
0.660139
0.660139
0.659339
0.659339
0.659339
0.716224
0.716224
0.716224
0.715568
0.715568
0.715568
0.716059
0.716059
0.716059
0.716514
0.716514
0.716514
0.714277
0.714277
0.714277
0.713907
0.713907
0.713907
0.716098
0.716098
0.716098
0.715935
0.715935
0.715935
0.714979
0.714979
0.714979
0.715969
0.715969
0.715969
0.715311
0.715311
0.715311
0.715805
0.715805
0.715805
0.698506
0.698506
0.698506
0.694522
0.694522
0.694522
0.697261
0.697261
0.697261
0.689988
0.689988
0.689988
0.693098
0.693098
0.693098
0.688369
0.688369
0.688369
0.690058
0.690058
0.690058
0.698803
0.698803
0.698803
0.70732
0.70732
0.70732
0.708206
0.708206
0.708206
0.709462
0.709462
0.709462
0.710229
0.710229
0.710229
0.717527
0.717527
0.717527
0.718295
0.718295
0.718295
0.718531
0.718531
0.718531
0.718143
0.718143
0.718143
0.718424
0.718424
0.718424
0.71802
0.71802
0.71802
0.717668
0.717668
0.717668
0.716088
0.716088
0.716088
0.715798
0.715798
0.715798
0.717911
0.717911
0.717911
0.717799
0.717799
0.717799
0.717909
0.717909
0.717909
0.717734
0.717734
0.717734
0.718294
0.718294
0.718294
0.71808
0.71808
0.71808
0.717969
0.717969
0.717969
0.717914
0.717914
0.717914
0.718026
0.718026
0.718026
0.717973
0.717973
0.717973
0.717476
0.717476
0.717476
0.717427
0.717427
0.717427
0.717671
0.717671
0.717671
0.716181
0.716181
0.716181
0.716347
0.716347
0.716347
0.716762
0.716762
0.716762
0.718889
0.718889
0.718889
0.718849
0.718849
0.718849
0.71881
0.71881
0.71881
0.718943
0.718943
0.718943
0.719002
0.719002
0.719002
0.719073
0.719073
0.719073
0.71628
0.71628
0.71628
0.715964
0.715964
0.715964
0.715412
0.715412
0.715412
0.716054
0.716054
0.716054
0.716167
0.716167
0.716167
0.715852
0.715852
0.715852
0.717081
0.717081
0.717081
0.716088
0.716088
0.716088
0.715848
0.715848
0.715848
0.716547
0.716547
0.716547
0.716412
0.716412
0.716412
0.716105
0.716105
0.716105
0.716256
0.716256
0.716256
0.716952
0.716952
0.716952
0.716836
0.716836
0.716836
0.716646
0.716646
0.716646
0.709213
0.709213
0.709213
0.717516
0.717516
0.717516
0.716917
0.716917
0.716917
0.717046
0.717046
0.717046
0.717343
0.717343
0.717343
0.717561
0.717561
0.717561
0.717622
0.717622
0.717622
0.704855
0.704855
0.704855
0.683558
0.683558
0.683558
0.687049
0.687049
0.687049
0.688741
0.688741
0.688741
0.681752
0.681752
0.681752
0.710639
0.710639
0.710639
0.711739
0.711739
0.711739
0.706579
0.706579
0.706579
0.709981
0.709981
0.709981
0.708669
0.708669
0.708669
0.708555
0.708555
0.708555
0.707897
0.707897
0.707897
0.710993
0.710993
0.710993
0.709864
0.709864
0.709864
0.71052
0.71052
0.71052
0.712181
0.712181
0.712181
0.71309
0.71309
0.71309
0.712062
0.712062
0.712062
0.711617
0.711617
0.711617
0.713714
0.713714
0.713714
0.712968
0.712968
0.712968
0.713433
0.713433
0.713433
0.714992
0.714992
0.714992
0.715297
0.715297
0.715297
0.714426
0.714426
0.714426
0.714161
0.714161
0.714161
0.689769
0.689769
0.689769
0.688153
0.688153
0.688153
0.684639
0.684639
0.684639
0.688079
0.688079
0.688079
0.692796
0.692796
0.692796
0.698349
0.698349
0.698349
0.692874
0.692874
0.692874
0.697028
0.697028
0.697028
0.694292
0.694292
0.694292
0.682948
0.682948
0.682948
0.683016
0.683016
0.683016
0.684851
0.684851
0.684851
0.701283
0.701283
0.701283
0.705495
0.705495
0.705495
0.702446
0.702446
0.702446
0.70455
0.70455
0.70455
0.687845
0.687845
0.687845
0.700903
0.700903
0.700903
0.703084
0.703084
0.703084
0.706687
0.706687
0.706687
0.704
0.704
0.704
0.705799
0.705799
0.705799
0.701105
0.701105
0.701105
0.682022
0.682022
0.682022
0.683835
0.683835
0.683835
0.677989
0.677989
0.677989
0.681934
0.681934
0.681934
0.67816
0.67816
0.67816
0.66927
0.66927
0.66927
0.671664
0.671664
0.671664
0.676106
0.676106
0.676106
0.700039
0.700039
0.700039
0.683923
0.683923
0.683923
0.682108
0.682108
0.682108
0.68401
0.68401
0.68401
0.68751
0.68751
0.68751
0.696864
0.696864
0.696864
0.694214
0.694214
0.694214
0.689199
0.689199
0.689199
0.693966
0.693966
0.693966
0.692553
0.692553
0.692553
0.69405
0.69405
0.69405
0.66153
0.66153
0.66153
0.661609
0.661609
0.661609
0.664206
0.664206
0.664206
0.655874
0.655874
0.655874
0.67133
0.67133
0.67133
0.675674
0.675674
0.675674
0.677812
0.677812
0.677812
0.675765
0.675765
0.675765
0.658483
0.658483
0.658483
0.657873
0.657873
0.657873
0.657912
0.657912
0.657912
0.657875
0.657875
0.657875
0.657881
0.657881
0.657881
0.657912
0.657912
0.657912
0.657819
0.657819
0.657819
0.657888
0.657888
0.657888
0.657861
0.657861
0.657861
0.657886
0.657886
0.657886
0.657829
0.657829
0.657829
0.658033
0.658033
0.658033
0.658026
0.658026
0.658026
0.718149
0.718149
0.718149
0.718216
0.718216
0.718216
0.717938
0.717938
0.717938
0.716929
0.716929
0.716929
0.71709
0.71709
0.71709
0.717166
0.717166
0.717166
0.71741
0.71741
0.71741
0.718074
0.718074
0.718074
0.717786
0.717786
0.717786
0.71794
0.71794
0.71794
0.718333
0.718333
0.718333
0.716647
0.716647
0.716647
0.716314
0.716314
0.716314
0.716555
0.716555
0.716555
0.716917
0.716917
0.716917
0.716829
0.716829
0.716829
0.716587
0.716587
0.716587
0.719923
0.719923
0.719923
0.719855
0.719855
0.719855
0.719755
0.719755
0.719755
0.720362
0.720362
0.720362
0.720289
0.720289
0.720289
0.720292
0.720292
0.720292
0.717083
0.717083
0.717083
0.712401
0.712401
0.712401
0.713057
0.713057
0.713057
0.714198
0.714198
0.714198
0.714684
0.714684
0.714684
0.714128
0.714128
0.714128
0.712988
0.712988
0.712988
0.714824
0.714824
0.714824
0.712535
0.712535
0.712535
0.714267
0.714267
0.714267
0.713125
0.713125
0.713125
0.715843
0.715843
0.715843
0.716308
0.716308
0.716308
0.715774
0.715774
0.715774
0.717324
0.717324
0.717324
0.717014
0.717014
0.717014
0.716239
0.716239
0.716239
0.716169
0.716169
0.716169
0.716942
0.716942
0.716942
0.712665
0.712665
0.712665
0.711432
0.711432
0.711432
0.711371
0.711371
0.711371
0.710666
0.710666
0.710666
0.718934
0.718934
0.718934
0.719851
0.719851
0.719851
0.719055
0.719055
0.719055
0.719719
0.719719
0.719719
0.719788
0.719788
0.719788
0.719687
0.719687
0.719687
0.71962
0.71962
0.71962
0.719288
0.719288
0.719288
0.719354
0.719354
0.719354
0.719121
0.719121
0.719121
0.718539
0.718539
0.718539
0.718783
0.718783
0.718783
0.716788
0.716788
0.716788
0.716408
0.716408
0.716408
0.7158
0.7158
0.7158
0.716488
0.716488
0.716488
0.718235
0.718235
0.718235
0.718386
0.718386
0.718386
0.716539
0.716539
0.716539
0.717175
0.717175
0.717175
0.71891
0.71891
0.71891
0.715642
0.715642
0.715642
0.715177
0.715177
0.715177
0.71753
0.71753
0.71753
0.717225
0.717225
0.717225
0.717309
0.717309
0.717309
0.716708
0.716708
0.716708
0.680156
0.680156
0.680156
0.686002
0.686002
0.686002
0.684146
0.684146
0.684146
0.684098
0.684098
0.684098
0.671272
0.671272
0.671272
0.673626
0.673626
0.673626
0.699572
0.699572
0.699572
0.707945
0.707945
0.707945
0.711116
0.711116
0.711116
0.711049
0.711049
0.711049
0.71035
0.71035
0.71035
0.708766
0.708766
0.708766
0.710283
0.710283
0.710283
0.691082
0.691082
0.691082
0.689442
0.689442
0.689442
0.685953
0.685953
0.685953
0.704669
0.704669
0.704669
0.706682
0.706682
0.706682
0.712913
0.712913
0.712913
0.708422
0.708422
0.708422
0.708251
0.708251
0.708251
0.708192
0.708192
0.708192
0.709078
0.709078
0.709078
0.715486
0.715486
0.715486
0.715877
0.715877
0.715877
0.716644
0.716644
0.716644
0.718317
0.718317
0.718317
0.71786
0.71786
0.71786
0.677566
0.677566
0.677566
0.690811
0.690811
0.690811
0.689121
0.689121
0.689121
0.701935
0.701935
0.701935
0.70617
0.70617
0.70617
0.699454
0.699454
0.699454
0.693938
0.693938
0.693938
0.698133
0.698133
0.698133
0.695378
0.695378
0.695378
0.706108
0.706108
0.706108
0.705153
0.705153
0.705153
0.703037
0.703037
0.703037
0.701875
0.701875
0.701875
0.702976
0.702976
0.702976
0.705091
0.705091
0.705091
0.699333
0.699333
0.699333
0.698073
0.698073
0.698073
0.695318
0.695318
0.695318
0.714058
0.714058
0.714058
0.714541
0.714541
0.714541
0.712847
0.712847
0.712847
0.713984
0.713984
0.713984
0.708634
0.708634
0.708634
0.707748
0.707748
0.707748
0.710145
0.710145
0.710145
0.708567
0.708567
0.708567
0.714322
0.714322
0.714322
0.709364
0.709364
0.709364
0.710901
0.710901
0.710901
0.709309
0.709309
0.709309
0.708477
0.708477
0.708477
0.713029
0.713029
0.713029
0.713686
0.713686
0.713686
0.713084
0.713084
0.713084
0.711666
0.711666
0.711666
0.71172
0.71172
0.71172
0.710957
0.710957
0.710957
0.683082
0.683082
0.683082
0.679113
0.679113
0.679113
0.67704
0.67704
0.67704
0.665518
0.665518
0.665518
0.701688
0.701688
0.701688
0.702787
0.702787
0.702787
0.701624
0.701624
0.701624
0.710622
0.710622
0.710622
0.709931
0.709931
0.709931
0.712043
0.712043
0.712043
0.710697
0.710697
0.710697
0.710547
0.710547
0.710547
0.709781
0.709781
0.709781
0.699078
0.699078
0.699078
0.697756
0.697756
0.697756
0.701558
0.701558
0.701558
0.70578
0.70578
0.70578
0.70483
0.70483
0.70483
0.70272
0.70272
0.70272
0.697887
0.697887
0.697887
0.695135
0.695135
0.695135
0.6937
0.6937
0.6937
0.699208
0.699208
0.699208
0.672928
0.672928
0.672928
0.6774
0.6774
0.6774
0.688827
0.688827
0.688827
0.695072
0.695072
0.695072
0.693639
0.693639
0.693639
0.690517
0.690517
0.690517
0.702516
0.702516
0.702516
0.701424
0.701424
0.701424
0.699011
0.699011
0.699011
0.69769
0.69769
0.69769
0.701354
0.701354
0.701354
0.698943
0.698943
0.698943
0.688702
0.688702
0.688702
0.695007
0.695007
0.695007
0.693575
0.693575
0.693575
0.690456
0.690456
0.690456
0.688766
0.688766
0.688766
0.693511
0.693511
0.693511
0.690392
0.690392
0.690392
0.67762
0.67762
0.67762
0.679704
0.679704
0.679704
0.683685
0.683685
0.683685
0.685588
0.685588
0.685588
0.699513
0.699513
0.699513
0.69825
0.69825
0.69825
0.695492
0.695492
0.695492
0.693995
0.693995
0.693995
0.695435
0.695435
0.695435
0.698192
0.698192
0.698192
0.718724
0.718724
0.718724
0.718493
0.718493
0.718493
0.718404
0.718404
0.718404
0.718864
0.718864
0.718864
0.718818
0.718818
0.718818
0.718591
0.718591
0.718591
0.716816
0.716816
0.716816
0.716401
0.716401
0.716401
0.717358
0.717358
0.717358
0.717084
0.717084
0.717084
0.716606
0.716606
0.716606
0.716712
0.716712
0.716712
0.717189
0.717189
0.717189
0.716125
0.716125
0.716125
0.716364
0.716364
0.716364
0.716026
0.716026
0.716026
0.717751
0.717751
0.717751
0.716809
0.716809
0.716809
0.716906
0.716906
0.716906
0.717112
0.717112
0.717112
0.717581
0.717581
0.717581
0.717846
0.717846
0.717846
0.717206
0.717206
0.717206
0.717676
0.717676
0.717676
0.660012
0.660012
0.660012
0.659986
0.659986
0.659986
0.659957
0.659957
0.659957
0.658024
0.658024
0.658024
0.65776
0.65776
0.65776
0.658068
0.658068
0.658068
0.658351
0.658351
0.658351
0.658121
0.658121
0.658121
0.657971
0.657971
0.657971
0.65719
0.65719
0.65719
0.657917
0.657917
0.657917
0.657653
0.657653
0.657653
0.657486
0.657486
0.657486
0.657454
0.657454
0.657454
0.657324
0.657324
0.657324
0.657
0.657
0.657
0.660202
0.660202
0.660202
0.66024
0.66024
0.66024
0.660212
0.660212
0.660212
0.660169
0.660169
0.660169
0.660082
0.660082
0.660082
0.660125
0.660125
0.660125
0.660067
0.660067
0.660067
0.657749
0.657749
0.657749
0.658483
0.658483
0.658483
0.714844
0.714844
0.714844
0.715178
0.715178
0.715178
0.715674
0.715674
0.715674
0.715566
0.715566
0.715566
0.71544
0.71544
0.71544
0.714315
0.714315
0.714315
0.714548
0.714548
0.714548
0.715111
0.715111
0.715111
0.714679
0.714679
0.714679
0.715239
0.715239
0.715239
0.70215
0.70215
0.70215
0.701063
0.701063
0.701063
0.698583
0.698583
0.698583
0.700988
0.700988
0.700988
0.697185
0.697185
0.697185
0.698429
0.698429
0.698429
0.697107
0.697107
0.697107
0.694371
0.694371
0.694371
0.688227
0.688227
0.688227
0.689916
0.689916
0.689916
0.693026
0.693026
0.693026
0.694447
0.694447
0.694447
0.689843
0.689843
0.689843
0.69295
0.69295
0.69295
0.701211
0.701211
0.701211
0.704477
0.704477
0.704477
0.702374
0.702374
0.702374
0.70542
0.70542
0.70542
0.698731
0.698731
0.698731
0.693241
0.693241
0.693241
0.694738
0.694738
0.694738
0.697482
0.697482
0.697482
0.701138
0.701138
0.701138
0.7023
0.7023
0.7023
0.704402
0.704402
0.704402
0.702225
0.702225
0.702225
0.704248
0.704248
0.704248
0.707894
0.707894
0.707894
0.709544
0.709544
0.709544
0.710311
0.710311
0.710311
0.717665
0.717665
0.717665
0.717973
0.717973
0.717973
0.717468
0.717468
0.717468
0.717771
0.717771
0.717771
0.717838
0.717838
0.717838
0.718016
0.718016
0.718016
0.718127
0.718127
0.718127
0.711651
0.711651
0.711651
0.713907
0.713907
0.713907
0.713435
0.713435
0.713435
0.712308
0.712308
0.712308
0.714845
0.714845
0.714845
0.717081
0.717081
0.717081
0.716775
0.716775
0.716775
0.71618
0.71618
0.71618
0.716868
0.716868
0.716868
0.718716
0.718716
0.718716
0.718575
0.718575
0.718575
0.71843
0.71843
0.71843
0.718474
0.718474
0.718474
0.717785
0.717785
0.717785
0.718106
0.718106
0.718106
0.717551
0.717551
0.717551
0.718194
0.718194
0.718194
0.717681
0.717681
0.717681
0.718003
0.718003
0.718003
0.718617
0.718617
0.718617
0.718713
0.718713
0.718713
0.718324
0.718324
0.718324
0.718334
0.718334
0.718334
0.718499
0.718499
0.718499
0.718435
0.718435
0.718435
0.718136
0.718136
0.718136
0.718188
0.718188
0.718188
0.718244
0.718244
0.718244
0.718194
0.718194
0.718194
0.717829
0.717829
0.717829
0.717979
0.717979
0.717979
0.718085
0.718085
0.718085
0.717786
0.717786
0.717786
0.717941
0.717941
0.717941
0.718091
0.718091
0.718091
0.717631
0.717631
0.717631
0.71774
0.71774
0.71774
0.717797
0.717797
0.717797
0.717743
0.717743
0.717743
0.717679
0.717679
0.717679
0.717624
0.717624
0.717624
0.717186
0.717186
0.717186
0.717435
0.717435
0.717435
0.716468
0.716468
0.716468
0.716999
0.716999
0.716999
0.715612
0.715612
0.715612
0.716589
0.716589
0.716589
0.715934
0.715934
0.715934
0.716422
0.716422
0.716422
0.715815
0.715815
0.715815
0.716303
0.716303
0.716303
0.718628
0.718628
0.718628
0.718906
0.718906
0.718906
0.718674
0.718674
0.718674
0.718813
0.718813
0.718813
0.718769
0.718769
0.718769
0.718908
0.718908
0.718908
0.718957
0.718957
0.718957
0.719092
0.719092
0.719092
0.719127
0.719127
0.719127
0.719094
0.719094
0.719094
0.71918
0.71918
0.71918
0.718999
0.718999
0.718999
0.71889
0.71889
0.71889
0.718701
0.718701
0.718701
0.718619
0.718619
0.718619
0.718704
0.718704
0.718704
0.718788
0.718788
0.718788
0.718978
0.718978