<VTKFile type="UnstructuredGrid" version="1.0">
<UnstructuredGrid>
<Piece NumberOfPoints="11046" NumberOfCells="3682">
<Points>
<DataArray type="Float64" NumberOfComponents="3" format="ascii">
2.48358 1.77342 16.8002
2.46979 1.78721 16.7925
2.49736 1.75964 16.7925
2.17682 2.08018 16.8089
2.16411 2.09289 16.7925
2.1809 2.0761 16.7925
2.17682 2.08018 16.8089
2.16411 2.09289 16.8164
2.16411 2.09289 16.7925
2.49736 1.75964 17.6925
2.46979 1.78721 17.6925
2.48358 1.77342 17.6848
2.66273 1.59427 17.6715
2.66273 1.59427 17.6925
2.64895 1.60805 17.6848
2.4284 1.8286 17.5699
2.4422 1.8148 17.5585
2.4422 1.8148 17.5812
2.64895 1.60805 16.8002
2.66273 1.59427 16.7925
2.66273 1.59427 16.8135
2.46979 1.78721 16.8358
2.48358 1.77342 16.8238
2.48358 1.77342 16.8468
2.48358 1.77342 16.8468
2.48358 1.77342 16.8238
2.49736 1.75964 16.8358
2.49735 1.75965 17.22
2.51114 1.74586 17.2312
2.49735 1.75965 17.2425
2.16411 2.09289 17.265
2.16411 2.09289 17.2425
2.17811 2.07889 17.2538
2.8005 1.4565 17.4679
2.78672 1.47028 17.4792
2.78672 1.47028 17.4566
2.66271 1.59429 17.468
2.67649 1.58051 17.4567
2.67649 1.58051 17.4793
2.67649 1.58051 17.4793
2.67649 1.58051 17.4567
2.69027 1.56673 17.468
2.64895 1.60805 17.6848
2.66273 1.59427 17.6925
2.63517 1.62183 17.6925
2.55249 1.70451 17.6492
2.56627 1.69073 17.6612
2.55249 1.70451 17.6715
2.58005 1.67695 17.6492
2.56627 1.69073 17.6612
2.56627 1.69073 17.6382
2.56627 1.69073 17.6382
2.56627 1.69073 17.6612
2.55249 1.70451 17.6492
2.49735 1.75965 17.3326
2.48357 1.77343 17.3439
2.48357 1.77343 17.3213
2.49735 1.75965 17.2425
2.51114 1.74586 17.2312
2.51114 1.74586 17.2538
2.48357 1.77343 17.4115
2.49736 1.75964 17.4228
2.48357 1.77343 17.4341
2.48358 1.77342 17.6848
2.46979 1.78721 17.6925
2.46979 1.78721 17.6714
2.7867 1.4703 16.9153
2.8005 1.4565 16.9267
2.78671 1.47029 16.938
2.63516 1.62184 17.22
2.64894 1.60806 17.2087
2.64894 1.60806 17.2312
2.456 1.801 16.8002
2.44221 1.81479 16.7925
2.46979 1.78721 16.7925
2.46979 1.78721 16.8358
2.456 1.801 16.8238
2.46979 1.78721 16.8136
2.46979 1.78721 16.8136
2.48358 1.77342 16.8238
2.46979 1.78721 16.8358
2.46979 1.78721 16.8136
2.456 1.801 16.8002
2.46979 1.78721 16.7925
2.456 1.801 16.8238
2.456 1.801 16.8002
2.46979 1.78721 16.8136
2.46979 1.78721 16.8136
2.46979 1.78721 16.7925
2.48358 1.77342 16.8002
2.48358 1.77342 16.8002
2.48358 1.77342 16.8238
2.46979 1.78721 16.8136
2.49736 1.75964 16.8358
2.48358 1.77342 16.8238
2.49736 1.75964 16.8136
2.49736 1.75964 16.8136
2.51114 1.74586 16.8238
2.49736 1.75964 16.8358
2.48358 1.77342 16.8002
2.49736 1.75964 16.7925
2.49736 1.75964 16.8136
2.49736 1.75964 16.8136
2.48358 1.77342 16.8238
2.48358 1.77342 16.8002
2.48358 1.77342 16.8697
2.48358 1.77342 16.8468
2.49736 1.75964 16.8584
2.49736 1.75964 16.8584
2.48358 1.77342 16.8468
2.49736 1.75964 16.8358
2.52492 1.73208 17.0622
2.52492 1.73208 17.0396
2.53871 1.71829 17.0509
2.51114 1.74586 17.0509
2.52492 1.73208 17.0396
2.52492 1.73208 17.0622
2.63517 1.62183 16.7925
2.66273 1.59427 16.7925
2.64895 1.60805 16.8002
2.49736 1.75964 16.7925
2.52493 1.73207 16.7925
2.51114 1.74586 16.8002
2.51114 1.74586 16.8002
2.49736 1.75964 16.8136
2.49736 1.75964 16.7925
2.51114 1.74586 16.8238
2.49736 1.75964 16.8136
2.51114 1.74586 16.8002
2.51114 1.74586 17.2087
2.49735 1.75965 17.22
2.49735 1.75965 17.1975
2.51114 1.74586 17.2312
2.49735 1.75965 17.22
2.51114 1.74586 17.2087
2.51114 1.74586 17.2087
2.52492 1.73208 17.22
2.51114 1.74586 17.2312
2.78672 1.47028 17.1862
2.8005 1.4565 17.1749
2.8005 1.4565 17.1975
2.8005 1.4565 17.0623
2.78672 1.47028 17.051
2.8005 1.4565 17.0397
2.8005 1.4565 17.3551
2.8005 1.4565 17.3776
2.78672 1.47028 17.3664
2.78672 1.47028 17.3889
2.77294 1.48406 17.4002
2.77294 1.48406 17.3777
2.78672 1.47028 17.3889
2.8005 1.4565 17.3776
2.8005 1.4565 17.4002
2.77294 1.48406 17.3777
2.78672 1.47028 17.3664
2.78672 1.47028 17.3889
2.78672 1.47028 17.3889
2.78672 1.47028 17.3664
2.8005 1.4565 17.3776
2.78672 1.47028 17.4115
2.8005 1.4565 17.4002
2.8005 1.4565 17.4228
2.78672 1.47028 17.4115
2.78672 1.47028 17.3889
2.8005 1.4565 17.4002
2.77294 1.48406 17.4002
2.78672 1.47028 17.3889
2.78672 1.47028 17.4115
2.8005 1.4565 17.4679
2.78672 1.47028 17.4566
2.8005 1.4565 17.4453
2.75915 1.49785 17.4792
2.74538 1.51162 17.4679
2.75916 1.49784 17.4566
2.75916 1.49784 17.434
2.75916 1.49784 17.4566
2.74538 1.51162 17.4453
2.74538 1.51162 17.4453
2.74538 1.51162 17.4679
2.7316 1.5254 17.4566
2.74538 1.51162 17.4453
2.75916 1.49784 17.4566
2.74538 1.51162 17.4679
2.8005 1.4565 17.2875
2.78672 1.47028 17.2763
2.8005 1.4565 17.265
2.78672 1.47028 17.3438
2.8005 1.4565 17.3326
2.8005 1.4565 17.3551
2.8005 1.4565 17.3551
2.78672 1.47028 17.3664
2.78672 1.47028 17.3438
2.78672 1.47028 17.3438
2.78672 1.47028 17.3213
2.8005 1.4565 17.3326
2.77294 1.48406 17.3326
2.78672 1.47028 17.3213
2.78672 1.47028 17.3438
2.69027 1.56673 17.5812
2.6765 1.5805 17.5926
2.67649 1.58051 17.5699
2.67651 1.58049 17.6382
2.66273 1.59427 17.6492
2.66273 1.59427 17.6266
2.64895 1.60805 17.6612
2.66273 1.59427 17.6715
2.64895 1.60805 17.6848
2.64895 1.60805 17.6612
2.66273 1.59427 17.6492
2.66273 1.59427 17.6715
2.6903 1.5667 17.6715
2.6903 1.5667 17.6492
2.70409 1.55291 17.6612
2.69027 1.56673 17.468
2.67649 1.58051 17.4567
2.69027 1.56673 17.4454
2.67649 1.58051 17.4567
2.67649 1.58051 17.4341
2.69027 1.56673 17.4454
2.69027 1.56673 17.4228
2.70405 1.55295 17.4341
2.69027 1.56673 17.4454
2.69027 1.56673 17.4454
2.67649 1.58051 17.4341
2.69027 1.56673 17.4228
2.69027 1.56673 17.4906
2.67649 1.58051 17.4793
2.69027 1.56673 17.468
2.69027 1.56673 17.4906
2.70404 1.55296 17.5019
2.69027 1.56673 17.5132
2.8005 1.4565 17.4905
2.78672 1.47028 17.4792
2.8005 1.4565 17.4679
2.49736 1.75964 17.6714
2.49736 1.75964 17.6925
2.48358 1.77342 17.6848
2.52493 1.73207 17.6714
2.52493 1.73207 17.6925
2.51114 1.74586 17.6848
2.51114 1.74586 17.6848
2.51114 1.74586 17.6612
2.52493 1.73207 17.6714
2.51114 1.74586 17.6848
2.52493 1.73207 17.6925
2.49736 1.75964 17.6925
2.49736 1.75964 17.6925
2.49736 1.75964 17.6714
2.51114 1.74586 17.6848
2.51114 1.74586 17.6848
2.49736 1.75964 17.6714
2.51114 1.74586 17.6612
2.51114 1.74586 17.6612
2.49736 1.75964 17.6714
2.49736 1.75964 17.6492
2.56627 1.69073 17.6848
2.58005 1.67695 17.6925
2.55249 1.70451 17.6925
2.55249 1.70451 17.6925
2.55249 1.70451 17.6715
2.56627 1.69073 17.6848
2.56627 1.69073 17.6848
2.55249 1.70451 17.6715
2.56627 1.69073 17.6612
2.53871 1.71829 17.6848
2.52493 1.73207 17.6925
2.52493 1.73207 17.6714
2.55249 1.70451 17.6925
2.52493 1.73207 17.6925
2.53871 1.71829 17.6848
2.53871 1.71829 17.6848
2.55249 1.70451 17.6715
2.55249 1.70451 17.6925
2.55249 1.70451 17.6492
2.55249 1.70451 17.6715
2.53871 1.71829 17.6612
2.53871 1.71829 17.6612
2.53871 1.71829 17.6382
2.55249 1.70451 17.6492
2.53871 1.71829 17.6612
2.53871 1.71829 17.6848
2.52493 1.73207 17.6714
2.55249 1.70451 17.6715
2.53871 1.71829 17.6848
2.53871 1.71829 17.6612
2.55249 1.70451 17.6266
2.56627 1.69073 17.6382
2.55249 1.70451 17.6492
2.55249 1.70451 17.6266
2.53871 1.71829 17.6382
2.53871 1.71829 17.6153
2.55249 1.70451 17.6492
2.53871 1.71829 17.6382
2.55249 1.70451 17.6266
2.46978 1.78722 17.3551
2.48357 1.77343 17.3439
2.48357 1.77343 17.3664
2.48357 1.77343 17.3664
2.46978 1.78722 17.3777
2.46978 1.78722 17.3551
2.49736 1.75964 17.4002
2.49736 1.75964 17.4228
2.48357 1.77343 17.4115
2.46978 1.78722 17.2875
2.48357 1.77343 17.2763
2.48357 1.77343 17.2988
2.48357 1.77343 17.2988
2.48357 1.77343 17.2763
2.49735 1.75965 17.2875
2.46978 1.78722 17.3326
2.48357 1.77343 17.3439
2.46978 1.78722 17.3551
2.46978 1.78722 17.3326
2.48357 1.77343 17.3213
2.48357 1.77343 17.3439
2.51114 1.74586 17.2312
2.52492 1.73208 17.22
2.52492 1.73208 17.2425
2.52492 1.73208 17.2425
2.51114 1.74586 17.2538
2.51114 1.74586 17.2312
2.49735 1.75965 17.2875
2.48357 1.77343 17.2763
2.49735 1.75965 17.265
2.49735 1.75965 17.2425
2.51114 1.74586 17.2538
2.49735 1.75965 17.265
2.49736 1.75964 17.468
2.49736 1.75964 17.4906
2.48357 1.77343 17.4793
2.4284 1.8286 17.5472
2.4422 1.8148 17.5585
2.4284 1.8286 17.5699
2.3455 1.9115 17.6848
2.35934 1.89766 17.6925
2.33165 1.92535 17.6925
2.4146 1.8424 17.5585
2.4284 1.8286 17.5472
2.4284 1.8286 17.5699
2.4146 1.8424 17.5358
2.4284 1.8286 17.5472
2.4146 1.8424 17.5585
2.456 1.801 17.6153
2.46979 1.78721 17.6266
2.456 1.801 17.6382
2.456 1.801 17.6382
2.46979 1.78721 17.6266
2.46979 1.78721 17.6492
2.42841 1.82859 17.6382
2.42841 1.82859 17.6153
2.44221 1.81479 17.6266
2.44221 1.81479 17.6266
2.44221 1.81479 17.6492
2.42841 1.82859 17.6382
2.44221 1.81479 17.6266
2.4422 1.8148 17.6039
2.456 1.801 17.6153
2.42841 1.82859 17.6153
2.4422 1.8148 17.6039
2.44221 1.81479 17.6266
2.456 1.801 17.6153
2.456 1.801 17.6382
2.44221 1.81479 17.6266
2.44221 1.81479 17.6266
2.456 1.801 17.6382
2.44221 1.81479 17.6492
2.46979 1.78721 17.6925
2.44221 1.81479 17.6925
2.456 1.801 17.6848
2.456 1.801 17.6848
2.46979 1.78721 17.6714
2.46979 1.78721 17.6925
2.42841 1.82859 17.6382
2.44221 1.81479 17.6492
2.42841 1.82859 17.6612
2.16411 2.09289 17.6925
2.17682 2.08018 17.6761
2.1809 2.0761 17.6925
2.1809 2.0761 17.6925
2.17682 2.08018 17.6761
2.19211 2.06489 17.6703
2.19211 2.06489 17.6703
2.19593 2.06107 17.6925
2.1809 2.0761 17.6925
2.78688 1.47012 16.8007
2.77324 1.48376 16.7925
2.8005 1.4565 16.7925
2.77293 1.48407 16.836
2.78673 1.47027 16.8243
2.78669 1.47031 16.8472
2.8005 1.4565 16.9041
2.8005 1.4565 16.9267
2.7867 1.4703 16.9153
2.78669 1.47031 16.8472
2.78673 1.47027 16.8243
2.8005 1.4565 16.8364
2.8005 1.4565 16.8364
2.8005 1.4565 16.8589
2.78669 1.47031 16.8472
2.78669 1.47031 16.8472
2.8005 1.4565 16.8589
2.78669 1.47031 16.87
2.8005 1.4565 17.0171
2.78672 1.47028 17.0058
2.8005 1.4565 16.9945
2.78672 1.47028 16.9832
2.8005 1.4565 16.9719
2.8005 1.4565 16.9945
2.8005 1.4565 16.9945
2.78672 1.47028 17.0058
2.78672 1.47028 16.9832
2.8005 1.4565 16.9493
2.78671 1.47029 16.938
2.8005 1.4565 16.9267
2.66273 1.59427 16.7925
2.69029 1.56671 16.7925
2.67651 1.58049 16.8002
[...]
<PointData Scalars="View Factor" >
<DataArray type="Float64" Name="View Factor" NumberOfComponents="1" format="ascii">
0.675196
0.675196
0.675196
0.650091
0.650091
0.650091
0.650046
0.650046
0.650046
0.646795
0.646795
0.646795
0.662784
0.662784
0.662784
0.635309
0.635309
0.635309
0.701473
0.701473
0.701473
0.672888
0.672888
0.672888
0.676153
0.676153
0.676153
0.671654
0.671654
0.671654
0.642776
0.642776
0.642776
0.666627
0.666627
0.666627
0.67703
0.67703
0.67703
0.676618
0.676618
0.676618
0.662609
0.662609
0.662609
0.662546
0.662546
0.662546
0.664522
0.664522
0.664522
0.663737
0.663737
0.663737
0.664418
0.664418
0.664418
0.672559
0.672559
0.672559
0.661186
0.661186
0.661186
0.644386
0.644386
0.644386
0.691849
0.691849
0.691849
0.689209
0.689209
0.689209
0.663991
0.663991
0.663991
0.667603
0.667603
0.667603
0.671321
0.671321
0.671321
0.667941
0.667941
0.667941
0.665802
0.665802
0.665802
0.671666
0.671666
0.671666
0.673251
0.673251
0.673251
0.677863
0.677863
0.677863
0.680724
0.680724
0.680724
0.678223
0.678223
0.678223
0.676524
0.676524
0.676524
0.675772
0.675772
0.675772
0.677487
0.677487
0.677487
0.683175
0.683175
0.683175
0.681112
0.681112
0.681112
0.701475
0.701475
0.701475
0.683825
0.683825
0.683825
0.681092
0.681092
0.681092
0.682258
0.682258
0.682258
0.672305
0.672305
0.672305
0.673227
0.673227
0.673227
0.675538
0.675538
0.675538
0.681628
0.681628
0.681628
0.687151
0.687151
0.687151
0.672424
0.672424
0.672424
0.67323
0.67323
0.67323
0.671092
0.671092
0.671092
0.673373
0.673373
0.673373
0.672311
0.672311
0.672311
0.669715
0.669715
0.669715
0.670963
0.670963
0.670963
0.672038
0.672038
0.672038
0.66681
0.66681
0.66681
0.670835
0.670835
0.670835
0.672269
0.672269
0.672269
0.672922
0.672922
0.672922
0.672026
0.672026
0.672026
0.677326
0.677326
0.677326
0.673712
0.673712
0.673712
0.673614
0.673614
0.673614
0.674872
0.674872
0.674872
0.675907
0.675907
0.675907
0.669295
0.669295
0.669295
0.665882
0.665882
0.665882
0.663835
0.663835
0.663835
0.664575
0.664575
0.664575
0.662259
0.662259
0.662259
0.677044
0.677044
0.677044
0.677923
0.677923
0.677923
0.67783
0.67783
0.67783
0.678334
0.678334
0.678334
0.675705
0.675705
0.675705
0.67376
0.67376
0.67376
0.66528
0.66528
0.66528
0.649772
0.649772
0.649772
0.655888
0.655888
0.655888
0.655685
0.655685
0.655685
0.653637
0.653637
0.653637
0.652056
0.652056
0.652056
0.653759
0.653759
0.653759
0.653428
0.653428
0.653428
0.661343
0.661343
0.661343
0.661018
0.661018
0.661018
0.662182
0.662182
0.662182
0.657467
0.657467
0.657467
0.65836
0.65836
0.65836
0.660018
0.660018
0.660018
0.661522
0.661522
0.661522
0.661661
0.661661
0.661661
0.658871
0.658871
0.658871
0.660158
0.660158
0.660158
0.664033
0.664033
0.664033
0.663093
0.663093
0.663093
0.662984
0.662984
0.662984
0.660651
0.660651
0.660651
0.65866
0.65866
0.65866
0.662991
0.662991
0.662991
0.662818
0.662818
0.662818
0.665867
0.665867
0.665867
0.659414
0.659414
0.659414
0.6614
0.6614
0.6614
0.676266
0.676266
0.676266
0.674856
0.674856
0.674856
0.667636
0.667636
0.667636
0.67098
0.67098
0.67098
0.660251
0.660251
0.660251
0.633496
0.633496
0.633496
0.626551
0.626551
0.626551
0.628577
0.628577
0.628577
0.628843
0.628843
0.628843
0.642611
0.642611
0.642611
0.643741
0.643741
0.643741
0.63041
0.63041
0.63041
0.632124
0.632124
0.632124
0.637489
0.637489
0.637489
0.63323
0.63323
0.63323
0.63891
0.63891
0.63891
0.636358
0.636358
0.636358
0.637382
0.637382
0.637382
0.641247
0.641247
0.641247
0.629287
0.629287
0.629287
0.629165
0.629165
0.629165
0.629443
0.629443
0.629443
0.62917
0.62917
0.62917
0.69603
0.69603
0.69603
0.695349
0.695349
0.695349
0.691763
0.691763
0.691763
0.694531
0.694531
0.694531
0.693781
0.693781
0.693781
0.693889
0.693889
0.693889
0.688779
0.688779
0.688779
0.689559
0.689559
0.689559
0.689624
0.689624
0.689624
0.69105
0.69105
0.69105
0.701662
0.701662
0.701662
0.701531
0.701531
0.701531
0.697142
0.697142
0.697142
0.69646
0.69646
0.69646
0.696736
0.696736
0.696736
0.697274
0.697274
0.697274
0.69438
0.69438
0.69438
0.693782
0.693782
0.693782
0.701182
0.701182
0.701182
0.700978
0.700978
0.700978
0.700668
0.700668
0.700668
0.692851
0.692851
0.692851
0.692779
0.692779
0.692779
0.688739
0.688739
0.688739
0.665453
0.665453
0.665453
0.6922
0.6922
0.6922
0.693538
0.693538
0.693538
0.696631
0.696631
0.696631
0.691749
0.691749
0.691749
0.691194
0.691194
0.691194
0.688741
0.688741
0.688741
0.6897
0.6897
0.6897
0.676311
0.676311
0.676311
0.67354
0.67354
0.67354
0.68385
0.68385
0.68385
0.682623
0.682623
0.682623
0.685026
0.685026
0.685026
0.683285
0.683285
0.683285
0.685526
0.685526
0.685526
0.684431
0.684431
0.684431
0.69253
0.69253
0.69253
0.695071
0.695071
0.695071
0.6971
0.6971
0.6971
0.696381
0.696381
0.696381
0.695308
0.695308
0.695308
0.697966
0.697966
0.697966
0.681871
0.681871
0.681871
0.684357
0.684357
0.684357
0.685308
0.685308
0.685308
0.680341
0.680341
0.680341
0.669617
0.669617
0.669617
0.653378
0.653378
0.653378
0.68636
0.68636
0.68636
0.684916
0.684916
0.684916
0.685057
0.685057
0.685057
0.685359
0.685359
0.685359
0.685806
0.685806
0.685806
0.677453
0.677453
0.677453
0.678845
0.678845
0.678845
0.661546
0.661546
0.661546
0.665131
0.665131
0.665131
0.666531
0.666531
0.666531
0.681854
0.681854
0.681854
0.684658
0.684658
0.684658
0.682966
0.682966
0.682966
0.684373
0.684373
0.684373
0.683666
0.683666
0.683666
0.682273
0.682273
0.682273
0.673875
0.673875
0.673875
0.686789
0.686789
0.686789
0.689551
0.689551
0.689551
0.689338
0.689338
0.689338
0.689789
0.689789
0.689789
0.685831
0.685831
0.685831
0.686663
0.686663
0.686663
0.686054
0.686054
0.686054
0.685088
0.685088
0.685088
0.685185
0.685185
0.685185
0.684196
0.684196
0.684196
0.683364
0.683364
0.683364
0.679547
0.679547
0.679547
0.68262
0.68262
0.68262
0.683572
0.683572
0.683572
0.682619
0.682619
0.682619
0.681618
0.681618
0.681618
0.680604
0.680604
0.680604
0.680583
0.680583
0.680583
0.681554
0.681554
0.681554
0.688091
0.688091
0.688091
0.687195
0.687195
0.687195
0.684516
0.684516
0.684516
0.685448
0.685448
0.685448
0.648368
0.648368
0.648368
0.64993
0.64993
0.64993
0.642982
0.642982
0.642982
0.672703
0.672703
0.672703
0.671879
0.671879
0.671879
0.672895
0.672895
0.672895
0.670573
0.670573
0.670573
0.665078
0.665078
0.665078
0.663696
0.663696
0.663696
0.671304
0.671304
0.671304
0.671513
0.671513
0.671513
0.667746
0.667746
0.667746
0.669852
0.669852
0.669852
0.669033
0.669033
0.669033
0.670079
0.670079
0.670079
0.672506
0.672506
0.672506
0.669642
0.669642
0.669642
0.67188
0.67188
0.67188
0.666198
0.666198
0.666198
0.668815
0.668815
0.668815
0.665155
0.665155
0.665155
0.66693
0.66693
0.66693
0.675565
0.675565
0.675565
0.682936
0.682936
0.682936
0.683933
0.683933
0.683933
0.681853
0.681853
0.681853
0.682762
0.682762
0.682762
0.685506
0.685506
0.685506
0.685696
0.685696
0.685696
0.686364
0.686364
0.686364
0.685147
0.685147
0.685147
0.685862
0.685862
0.685862
0.680778
0.680778
0.680778
0.681491
0.681491
0.681491
0.683955
0.683955
0.683955
0.684369
0.684369
0.684369
0.679578
0.679578
0.679578
0.679181
0.679181
0.679181
0.680395
0.680395
0.680395
0.68076
0.68076
0.68076
0.682613
0.682613
0.682613
0.680307
0.680307
0.680307
0.679091
0.679091
0.679091
0.678192
0.678192
0.678192
0.679437
0.679437
0.679437
0.678849
0.678849
0.678849
0.674548
0.674548
0.674548
0.676709
0.676709
0.676709
0.677482
0.677482
0.677482
0.67423
0.67423
0.67423
0.674054
0.674054
0.674054
0.674992
0.674992
0.674992
0.688656
0.688656
0.688656
0.687986
0.687986
0.687986
0.687511
0.687511
0.687511
0.688902
0.688902
0.688902
0.68953
0.68953
0.68953
0.690419
0.690419
0.690419
0.679332
0.679332
0.679332
0.678277
0.678277
0.678277
0.677269
0.677269
0.677269
0.677015
0.677015
0.677015
0.678191
0.678191
0.678191
0.677115
0.677115
0.677115
0.669815
0.669815
0.669815
0.66632
0.66632
0.66632
0.66563
0.66563
0.66563
0.666494
0.666494
0.666494
0.661098
0.661098
0.661098
0.662301
0.662301
0.662301
0.661147
0.661147
0.661147
0.668195
0.668195
0.668195
0.667653
0.667653
0.667653
0.662798
0.662798
0.662798
0.671212
0.671212
0.671212
0.678321
0.678321
0.678321
0.678865
0.678865
0.678865
0.678139
0.678139
0.678139
0.677856
0.677856
0.677856
0.67417
0.67417
0.67417
0.675166
0.675166
0.675166
0.674824
0.674824
0.674824
0.646458
0.646458
0.646458
0.649162
0.649162
0.649162
0.651118
0.651118
0.651118
0.645677
0.645677
0.645677
0.665638
0.665638
0.665638
0.665986
0.665986
0.665986
0.665219
0.665219
0.665219
0.66464
0.66464
0.66464
0.664094
0.664094
0.664094
0.662516
0.662516
0.662516
0.662941
0.662941
0.662941
0.662889
0.662889
0.662889
0.663036
0.663036
0.663036
0.664007
0.664007
0.664007
0.665313
0.665313
0.665313
0.665462
0.665462
0.665462
0.663662
0.663662
0.663662
0.664329
0.664329
0.664329
0.663245
0.663245
0.663245
0.663786
0.663786
0.663786
0.664602
0.664602
0.664602
0.663484
0.663484
0.663484
0.664174
0.664174
0.664174
0.663691
0.663691
0.663691
0.664563
0.664563
0.664563
0.663839
0.663839
0.663839
0.662862
0.662862
0.662862
0.659875
0.659875
0.659875
0.66204
0.66204
0.66204
0.665542
0.665542
0.665542
0.670805
0.670805
0.670805
0.666407
0.666407
0.666407
0.669352
0.669352
0.669352
0.667163
0.667163
0.667163
0.660141
0.660141
0.660141
0.660842
0.660842
0.660842
0.662121
0.662121
0.662121
0.678232
0.678232
0.678232
0.681555
0.681555
0.681555
0.679488
0.679488
0.679488
0.681155
0.681155
0.681155
0.659378
0.659378
0.659378
0.661755
0.661755
0.661755
0.664465
0.664465
0.664465
0.666638
0.666638
0.666638
0.664393
0.664393
0.664393
0.665466
0.665466
0.665466
0.664393
0.664393
0.664393
0.649303
0.649303
0.649303
0.650228
0.650228
0.650228
0.644924
0.644924
0.644924
0.648143
0.648143
0.648143
0.647149
0.647149
0.647149
0.639617
0.639617
0.639617
0.642142
0.642142
0.642142
0.645916
0.645916
0.645916
0.664247
0.664247
0.664247
0.651378
0.651378
0.651378
0.650416
0.650416
0.650416
0.652479
0.652479
0.652479
0.655308
0.655308
0.655308
0.667502
0.667502
0.667502
0.666275
0.666275
0.666275
0.657168
0.657168
0.657168
0.663395
0.663395
0.663395
0.662746
0.662746
0.662746
0.664392
0.664392
0.664392
0.631483
0.631483
0.631483
0.632511
0.632511
0.632511
0.634291
0.634291
0.634291
0.625565
0.625565
0.625565
0.637734
0.637734
0.637734
0.640147
0.640147
0.640147
0.64251
0.64251
0.64251
0.641409
0.641409
0.641409
0.624842
0.624842
0.624842
0.628222
0.628222
0.628222
0.628694
0.628694
0.628694
0.628594
0.628594
0.628594
0.628986
0.628986
0.628986
0.628816
0.628816
0.628816
0.628778
0.628778
0.628778
0.629537
0.629537
0.629537
0.629046
0.629046
0.629046
0.629305
0.629305
0.629305
0.62894
0.62894
0.62894
0.629974
0.629974
0.629974
0.630357
0.630357
0.630357
0.696039
0.696039
0.696039
0.69662
0.69662
0.69662
0.695963
0.695963
0.695963
0.693129
0.693129
0.693129
0.694414
0.694414
0.694414
0.695024
0.695024
0.695024
0.695156
0.695156
0.695156
0.695423
0.695423
0.695423
0.694714
0.694714
0.694714
0.689751
0.689751
0.689751
0.690505
0.690505
0.690505
0.688837
0.688837
0.688837
0.687976
0.687976
0.687976
0.688028
0.688028
0.688028
0.691129
0.691129
0.691129
0.690387
0.690387
0.690387
0.690314
0.690314
0.690314
0.701294
0.701294
0.701294
0.700762
0.700762
0.700762
0.701029
0.701029
0.701029
0.701116
0.701116
0.701116
0.700624
0.700624
0.700624
0.700547
0.700547
0.700547
0.696578
0.696578
0.696578
0.691605
0.691605
0.691605
0.692349
0.692349
0.692349
0.693133
0.693133
0.693133
0.693164
0.693164
0.693164
0.692511
0.692511
0.692511
0.691737
0.691737
0.691737
0.694381
0.694381
0.694381
0.692779
0.692779
0.692779
0.693736
0.693736
0.693736
0.692941
0.692941
0.692941
0.695579
0.695579
0.695579
0.696133
0.696133
0.696133
0.694988
0.694988
0.694988
0.695849
0.695849
0.695849
0.695981
0.695981
0.695981
0.695546
0.695546
0.695546
0.694942
0.694942
0.694942
0.695366
0.695366
0.695366
0.693885
0.693885
0.693885
0.693878
0.693878
0.693878
0.693374
0.693374
0.693374
0.693049
0.693049
0.693049
0.696993
0.696993
0.696993
0.698986
0.698986
0.698986
0.6996
0.6996
0.6996
0.699663
0.699663
0.699663
0.700221
0.700221
0.700221
0.700501
0.700501
0.700501
0.699958
0.699958
0.699958
0.699922
0.699922
0.699922
0.700457
0.700457
0.700457
0.700139
0.700139
0.700139
0.70108
0.70108
0.70108
0.700989
0.700989
0.700989
0.691012
0.691012
0.691012
0.690492
0.690492
0.690492
0.691625
0.691625
0.691625
0.691256
0.691256
0.691256
0.692475
0.692475
0.692475
0.692083
0.692083
0.692083
0.688586
0.688586
0.688586
0.686511
0.686511
0.686511
0.6899
0.6899
0.6899
0.690144
0.690144
0.690144
0.689545
0.689545
0.689545
0.690051
0.690051
0.690051
0.689589
0.689589
0.689589
0.690408
0.690408
0.690408
0.69023
0.69023
0.69023
0.66725
0.66725
0.66725
0.672515
0.672515
0.672515
0.670961
0.670961
0.670961
0.670588
0.670588
0.670588
0.659493
0.659493
0.659493
0.661584
0.661584
0.661584
0.682637
0.682637
0.682637
0.68873
0.68873
0.68873
0.691199
0.691199
0.691199
0.690613
0.690613
0.690613
0.690354
0.690354
0.690354
0.689125
0.689125
0.689125
0.689764
0.689764
0.689764
0.676287
0.676287
0.676287
0.674978
0.674978
0.674978
0.672132
0.672132
0.672132
0.690326
0.690326
0.690326
0.691961
0.691961
0.691961
0.695912
0.695912
0.695912
0.692693
0.692693
0.692693
0.691316
0.691316
0.691316
0.690828
0.690828
0.690828
0.691773
0.691773
0.691773
0.692437
0.692437
0.692437
0.69233
0.69233
0.69233
0.692712
0.692712
0.692712
0.693226
0.693226
0.693226
0.693155
0.693155
0.693155
0.661377
0.661377
0.661377
0.674032
0.674032
0.674032
0.6723
0.6723
0.6723
0.684226
0.684226
0.684226
0.687782
0.687782
0.687782
0.681636
0.681636
0.681636
0.676813
0.676813
0.676813
0.68026
0.68026
0.68026
0.677857
0.677857
0.677857
0.687244
0.687244
0.687244
0.6867
0.6867
0.6867
0.68493
0.68493
0.68493
0.683708
0.683708
0.683708
0.684399
0.684399
0.684399
0.68616
0.68616
0.68616
0.680572
0.680572
0.680572
0.679733
0.679733
0.679733
0.67734
0.67734
0.67734
0.691872
0.691872
0.691872
0.691873
0.691873
0.691873
0.690458
0.690458
0.690458
0.69121
0.69121
0.69121
0.687949
0.687949
0.687949
0.686981
0.686981
0.686981
0.688527
0.688527
0.688527
0.687333
0.687333
0.687333
0.698356
0.698356
0.698356
0.694066
0.694066
0.694066
0.694941
0.694941
0.694941
0.693631
0.693631
0.693631
0.693124
0.693124
0.693124
0.696837
0.696837
0.696837
0.697559
0.697559
0.697559
0.697272
0.697272
0.697272
0.695754
0.695754
0.695754
0.696181
0.696181
0.696181
0.695383
0.695383
0.695383
0.661519
0.661519
0.661519
0.658013
0.658013
0.658013
0.656457
0.656457
0.656457
0.648751
0.648751
0.648751
0.682055
0.682055
0.682055
0.682703
0.682703
0.682703
0.681469
0.681469
0.681469
0.686683
0.686683
0.686683
0.68652
0.68652
0.68652
0.688327
0.688327
0.688327
0.687392
0.687392
0.687392
0.685951
0.685951
0.685951
0.685068
0.685068
0.685068
0.678232
0.678232
0.678232
0.676836
0.676836
0.676836
0.680862
0.680862
0.680862
0.684288
0.684288
0.684288
0.683817
0.683817
0.683817
0.6821
0.6821
0.6821
0.678051
0.678051
0.678051
0.67569
0.67569
0.67569
0.674702
0.674702
0.674702
0.67944
0.67944
0.67944
0.655807
0.655807
0.655807
0.659894
0.659894
0.659894
0.66966
0.66966
0.66966
0.675105
0.675105
0.675105
0.674132
0.674132
0.674132
0.671406
0.671406
0.671406
0.680174
0.680174
0.680174
0.679591
0.679591
0.679591
0.677599
0.677599
0.677599
0.676198
0.676198
0.676198
0.678922
0.678922
0.678922
0.676943
0.676943
0.676943
0.668479
0.668479
0.668479
0.6745
0.6745
0.6745
0.673543
0.673543
0.673543
0.670829
0.670829
0.670829
0.66908
0.66908
0.66908
0.672934
0.672934
0.672934
0.670232
0.670232
0.670232
0.661841
0.661841
0.661841
0.663546
0.663546
0.663546
0.667176
0.667176
0.667176
0.669115
0.669115
0.669115
0.682144
0.682144
0.682144
0.681267
0.681267
0.681267
0.678843
0.678843
0.678843
0.677302
0.677302
0.677302
0.678357
0.678357
0.678357
0.680771
0.680771
0.680771
0.688238
0.688238
0.688238
0.687596
0.687596
0.687596
0.687712
0.687712
0.687712
0.688985
0.688985
0.688985
0.689132
0.689132
0.689132
0.688503
0.688503
0.688503
0.684512
0.684512
0.684512
0.682578
0.682578
0.682578
0.684367
0.684367
0.684367
0.683437
0.683437
0.683437
0.682537
0.682537
0.682537
0.683541
0.683541
0.683541
0.684429
0.684429
0.684429
0.686299
0.686299
0.686299
0.686335
0.686335
0.686335
0.68542
0.68542
0.68542
0.688064
0.688064
0.688064
0.686367
0.686367
0.686367
0.687243
0.687243
0.687243
0.687249
0.687249
0.687249
0.688091
0.688091
0.688091
0.68892
0.68892
0.68892
0.688104
0.688104
0.688104
0.688939
0.688939
0.688939
0.6496
0.6496
0.6496
0.649573
0.649573
0.649573
0.64943
0.64943
0.64943
0.641998
0.641998
0.641998
0.641616
0.641616
0.641616
0.641454
0.641454
0.641454
0.642282
0.642282
0.642282
0.641941
0.641941
0.641941
0.641517
0.641517
0.641517
0.63973
0.63973
0.63973
0.641019
0.641019
0.641019
0.640628
0.640628
0.640628
0.640164
0.640164
0.640164
0.642157
0.642157
0.642157
0.642165
0.642165
0.642165
0.64172
0.64172
0.64172
0.649499
0.649499
0.649499
0.649772
0.649772
0.649772
0.649856
0.649856
0.649856
0.64959
0.64959
0.64959
0.649521
0.649521
0.649521
0.649789
0.649789
0.649789
0.649637
0.649637
0.649637
0.642568
0.642568
0.642568
0.642677
0.642677
0.642677
0.666211
0.666211
0.666211
0.667533
0.667533
0.667533
0.668594
0.668594
0.668594
0.665173
0.665173
0.665173
0.67048
0.67048
0.67048
0.668288
0.668288
0.668288
0.668124
0.668124
0.668124
0.669227
0.669227
0.669227
0.669569
0.669569
0.669569
0.670656
0.670656
0.670656
0.676501
0.676501
0.676501
0.676013
0.676013
0.676013
0.673312
0.673312
0.673312
0.675222
0.675222
0.675222
0.671068
0.671068
0.671068
0.671671
0.671671
0.671671
0.670225
0.670225
0.670225
0.66802
0.66802
0.66802
0.663654
0.663654
0.663654
0.66544
0.66544
0.66544
0.668042
0.668042
0.668042
0.668845
0.668845
0.668845
0.664654
0.664654
0.664654
0.667239
0.667239
0.667239
0.677518
0.677518
0.677518
0.680432
0.680432
0.680432
0.678779
0.678779
0.678779
0.680813
0.680813
0.680813
0.67484
0.67484
0.67484
0.670284
0.670284
0.670284
0.671867
0.671867
0.671867
0.674151
0.674151
0.674151
0.676778
0.676778
0.676778
0.678045
0.678045
0.678045
0.679685
0.679685
0.679685
0.677285
0.677285
0.677285
0.67811
0.67811
0.67811
0.680774
0.680774
0.680774
0.682698
0.682698
0.682698
0.683601
0.683601
0.683601
0.684944
0.684944
0.684944
0.684757
0.684757
0.684757
0.682836
0.682836
0.682836
0.682618
0.682618
0.682618
0.681916
0.681916
0.681916
0.681567
0.681567
0.681567
0.681937
0.681937
0.681937
0.68447
0.68447
0.68447
0.685784
0.685784
0.685784
0.685931
0.685931
0.685931
0.685269
0.685269
0.685269
0.686251
0.686251
0.686251
0.685548
0.685548
0.685548
0.685044
0.685044
0.685044
0.684945
0.684945
0.684945
0.686016
0.686016
0.686016
0.68677
0.68677
0.68677
0.686189
0.686189
0.686189
0.68538
0.68538
0.68538
0.685195
0.685195
0.685195
0.684088
0.684088
0.684088
0.684845
0.684845
0.684845
0.683174
0.683174
0.683174
0.6847
0.6847
0.6847
0.683056
0.683056
0.683056
0.683825
0.683825
0.683825
0.685789
0.685789
0.685789
0.686553
0.686553
0.686553
0.684842
0.684842
0.684842
0.684133
0.684133
0.684133
0.684764
0.684764
0.684764
0.685178
0.685178
0.685178
0.680639
0.680639
0.680639
0.68148
0.68148
0.68148
0.6818
0.6818
0.6818
0.681242
0.681242
0.681242
0.678474
0.678474
0.678474
0.679149
0.679149
0.679149
0.680067
0.680067
0.680067
0.67873
0.67873
0.67873
0.679692
0.679692
0.679692
0.680353
0.680353
0.680353
0.675272
0.675272
0.675272
0.676523
0.676523
0.676523
0.676899
0.676899
0.676899
0.676281
0.676281
0.676281
0.675559
0.675559
0.675559
0.674925
0.674925
0.674925
0.674046
0.674046
0.674046
0.674852
0.674852
0.674852
0.67536
0.67536
0.67536
0.677531
0.677531
0.677531
0.67466
0.67466
0.67466
0.676624
0.676624
0.676624
0.675793
0.675793
0.675793
0.676769
0.676769
0.676769
0.674533
0.674533
0.674533
0.675521
0.675521
0.675521
0.687316
0.687316
0.687316
0.68844
0.68844
0.68844
0.687152
0.687152
0.687152
0.68772
0.68772
0.68772
0.688082
0.688082
0.688082
0.68864
0.68864
0.68864
0.689859
0.689859
0.689859
0.69021
0.69021
0.69021
0.690649
0.690649
0.690649
0.690393
0.690393
0.690393
0.691052
0.691052
0.691052
0.690755
0.690755
0.690755
0.690474
0.690474
0.690474
0.6907
0.6907
0.6907
0.691195
0.691195
0.691195
0.692
0.692
0.692
0.691524
0.691524
0.691524
0.691309
0.691309
0.691309
0.692322
0.692322
0.692322
0.679515
0.679515
0.679515
0.678455
0.678455