<VTKFile type="UnstructuredGrid" version="1.0">
<UnstructuredGrid>
<Piece NumberOfPoints="11046" NumberOfCells="3682">
<Points>
<DataArray type="Float64" NumberOfComponents="3" format="ascii">
2.48358 1.77342 17.8452
2.46979 1.78721 17.8375
2.49736 1.75964 17.8375
2.17682 2.08018 17.8539
2.16411 2.09289 17.8375
2.1809 2.0761 17.8375
2.17682 2.08018 17.8539
2.16411 2.09289 17.8614
2.16411 2.09289 17.8375
2.49736 1.75964 18.7375
2.46979 1.78721 18.7375
2.48358 1.77342 18.7298
2.66273 1.59427 18.7165
2.66273 1.59427 18.7375
2.64895 1.60805 18.7298
2.4284 1.8286 18.6149
2.4422 1.8148 18.6035
2.4422 1.8148 18.6262
2.64895 1.60805 17.8452
2.66273 1.59427 17.8375
2.66273 1.59427 17.8585
2.46979 1.78721 17.8808
2.48358 1.77342 17.8688
2.48358 1.77342 17.8918
2.48358 1.77342 17.8918
2.48358 1.77342 17.8688
2.49736 1.75964 17.8808
2.49735 1.75965 18.265
2.51114 1.74586 18.2762
2.49735 1.75965 18.2875
2.16411 2.09289 18.31
2.16411 2.09289 18.2875
2.17811 2.07889 18.2988
2.8005 1.4565 18.5129
2.78672 1.47028 18.5242
2.78672 1.47028 18.5016
2.66271 1.59429 18.513
2.67649 1.58051 18.5017
2.67649 1.58051 18.5243
2.67649 1.58051 18.5243
2.67649 1.58051 18.5017
2.69027 1.56673 18.513
2.64895 1.60805 18.7298
2.66273 1.59427 18.7375
2.63517 1.62183 18.7375
2.55249 1.70451 18.6942
2.56627 1.69073 18.7062
2.55249 1.70451 18.7165
2.58005 1.67695 18.6942
2.56627 1.69073 18.7062
2.56627 1.69073 18.6832
2.56627 1.69073 18.6832
2.56627 1.69073 18.7062
2.55249 1.70451 18.6942
2.49735 1.75965 18.3776
2.48357 1.77343 18.3889
2.48357 1.77343 18.3663
2.49735 1.75965 18.2875
2.51114 1.74586 18.2762
2.51114 1.74586 18.2988
2.48357 1.77343 18.4565
2.49736 1.75964 18.4678
2.48357 1.77343 18.4791
2.48358 1.77342 18.7298
2.46979 1.78721 18.7375
2.46979 1.78721 18.7164
2.7867 1.4703 17.9603
2.8005 1.4565 17.9717
2.78671 1.47029 17.983
2.63516 1.62184 18.265
2.64894 1.60806 18.2537
2.64894 1.60806 18.2762
2.456 1.801 17.8452
2.44221 1.81479 17.8375
2.46979 1.78721 17.8375
2.46979 1.78721 17.8808
2.456 1.801 17.8688
2.46979 1.78721 17.8586
2.46979 1.78721 17.8586
2.48358 1.77342 17.8688
2.46979 1.78721 17.8808
2.46979 1.78721 17.8586
2.456 1.801 17.8452
2.46979 1.78721 17.8375
2.456 1.801 17.8688
2.456 1.801 17.8452
2.46979 1.78721 17.8586
2.46979 1.78721 17.8586
2.46979 1.78721 17.8375
2.48358 1.77342 17.8452
2.48358 1.77342 17.8452
2.48358 1.77342 17.8688
2.46979 1.78721 17.8586
2.49736 1.75964 17.8808
2.48358 1.77342 17.8688
2.49736 1.75964 17.8586
2.49736 1.75964 17.8586
2.51114 1.74586 17.8688
2.49736 1.75964 17.8808
2.48358 1.77342 17.8452
2.49736 1.75964 17.8375
2.49736 1.75964 17.8586
2.49736 1.75964 17.8586
2.48358 1.77342 17.8688
2.48358 1.77342 17.8452
2.48358 1.77342 17.9147
2.48358 1.77342 17.8918
2.49736 1.75964 17.9034
2.49736 1.75964 17.9034
2.48358 1.77342 17.8918
2.49736 1.75964 17.8808
2.52492 1.73208 18.1072
2.52492 1.73208 18.0846
2.53871 1.71829 18.0959
2.51114 1.74586 18.0959
2.52492 1.73208 18.0846
2.52492 1.73208 18.1072
2.63517 1.62183 17.8375
2.66273 1.59427 17.8375
2.64895 1.60805 17.8452
2.49736 1.75964 17.8375
2.52493 1.73207 17.8375
2.51114 1.74586 17.8452
2.51114 1.74586 17.8452
2.49736 1.75964 17.8586
2.49736 1.75964 17.8375
2.51114 1.74586 17.8688
2.49736 1.75964 17.8586
2.51114 1.74586 17.8452
2.51114 1.74586 18.2537
2.49735 1.75965 18.265
2.49735 1.75965 18.2425
2.51114 1.74586 18.2762
2.49735 1.75965 18.265
2.51114 1.74586 18.2537
2.51114 1.74586 18.2537
2.52492 1.73208 18.265
2.51114 1.74586 18.2762
2.78672 1.47028 18.2312
2.8005 1.4565 18.2199
2.8005 1.4565 18.2425
2.8005 1.4565 18.1073
2.78672 1.47028 18.096
2.8005 1.4565 18.0847
2.8005 1.4565 18.4001
2.8005 1.4565 18.4226
2.78672 1.47028 18.4114
2.78672 1.47028 18.4339
2.77294 1.48406 18.4452
2.77294 1.48406 18.4227
2.78672 1.47028 18.4339
2.8005 1.4565 18.4226
2.8005 1.4565 18.4452
2.77294 1.48406 18.4227
2.78672 1.47028 18.4114
2.78672 1.47028 18.4339
2.78672 1.47028 18.4339
2.78672 1.47028 18.4114
2.8005 1.4565 18.4226
2.78672 1.47028 18.4565
2.8005 1.4565 18.4452
2.8005 1.4565 18.4678
2.78672 1.47028 18.4565
2.78672 1.47028 18.4339
2.8005 1.4565 18.4452
2.77294 1.48406 18.4452
2.78672 1.47028 18.4339
2.78672 1.47028 18.4565
2.8005 1.4565 18.5129
2.78672 1.47028 18.5016
2.8005 1.4565 18.4903
2.75915 1.49785 18.5242
2.74538 1.51162 18.5129
2.75916 1.49784 18.5016
2.75916 1.49784 18.479
2.75916 1.49784 18.5016
2.74538 1.51162 18.4903
2.74538 1.51162 18.4903
2.74538 1.51162 18.5129
2.7316 1.5254 18.5016
2.74538 1.51162 18.4903
2.75916 1.49784 18.5016
2.74538 1.51162 18.5129
2.8005 1.4565 18.3325
2.78672 1.47028 18.3213
2.8005 1.4565 18.31
2.78672 1.47028 18.3888
2.8005 1.4565 18.3776
2.8005 1.4565 18.4001
2.8005 1.4565 18.4001
2.78672 1.47028 18.4114
2.78672 1.47028 18.3888
2.78672 1.47028 18.3888
2.78672 1.47028 18.3663
2.8005 1.4565 18.3776
2.77294 1.48406 18.3776
2.78672 1.47028 18.3663
2.78672 1.47028 18.3888
2.69027 1.56673 18.6262
2.6765 1.5805 18.6376
2.67649 1.58051 18.6149
2.67651 1.58049 18.6832
2.66273 1.59427 18.6942
2.66273 1.59427 18.6716
2.64895 1.60805 18.7062
2.66273 1.59427 18.7165
2.64895 1.60805 18.7298
2.64895 1.60805 18.7062
2.66273 1.59427 18.6942
2.66273 1.59427 18.7165
2.6903 1.5667 18.7165
2.6903 1.5667 18.6942
2.70409 1.55291 18.7062
2.69027 1.56673 18.513
2.67649 1.58051 18.5017
2.69027 1.56673 18.4904
2.67649 1.58051 18.5017
2.67649 1.58051 18.4791
2.69027 1.56673 18.4904
2.69027 1.56673 18.4678
2.70405 1.55295 18.4791
2.69027 1.56673 18.4904
2.69027 1.56673 18.4904
2.67649 1.58051 18.4791
2.69027 1.56673 18.4678
2.69027 1.56673 18.5356
2.67649 1.58051 18.5243
2.69027 1.56673 18.513
2.69027 1.56673 18.5356
2.70404 1.55296 18.5469
2.69027 1.56673 18.5582
2.8005 1.4565 18.5355
2.78672 1.47028 18.5242
2.8005 1.4565 18.5129
2.49736 1.75964 18.7164
2.49736 1.75964 18.7375
2.48358 1.77342 18.7298
2.52493 1.73207 18.7164
2.52493 1.73207 18.7375
2.51114 1.74586 18.7298
2.51114 1.74586 18.7298
2.51114 1.74586 18.7062
2.52493 1.73207 18.7164
2.51114 1.74586 18.7298
2.52493 1.73207 18.7375
2.49736 1.75964 18.7375
2.49736 1.75964 18.7375
2.49736 1.75964 18.7164
2.51114 1.74586 18.7298
2.51114 1.74586 18.7298
2.49736 1.75964 18.7164
2.51114 1.74586 18.7062
2.51114 1.74586 18.7062
2.49736 1.75964 18.7164
2.49736 1.75964 18.6942
2.56627 1.69073 18.7298
2.58005 1.67695 18.7375
2.55249 1.70451 18.7375
2.55249 1.70451 18.7375
2.55249 1.70451 18.7165
2.56627 1.69073 18.7298
2.56627 1.69073 18.7298
2.55249 1.70451 18.7165
2.56627 1.69073 18.7062
2.53871 1.71829 18.7298
2.52493 1.73207 18.7375
2.52493 1.73207 18.7164
2.55249 1.70451 18.7375
2.52493 1.73207 18.7375
2.53871 1.71829 18.7298
2.53871 1.71829 18.7298
2.55249 1.70451 18.7165
2.55249 1.70451 18.7375
2.55249 1.70451 18.6942
2.55249 1.70451 18.7165
2.53871 1.71829 18.7062
2.53871 1.71829 18.7062
2.53871 1.71829 18.6832
2.55249 1.70451 18.6942
2.53871 1.71829 18.7062
2.53871 1.71829 18.7298
2.52493 1.73207 18.7164
2.55249 1.70451 18.7165
2.53871 1.71829 18.7298
2.53871 1.71829 18.7062
2.55249 1.70451 18.6716
2.56627 1.69073 18.6832
2.55249 1.70451 18.6942
2.55249 1.70451 18.6716
2.53871 1.71829 18.6832
2.53871 1.71829 18.6603
2.55249 1.70451 18.6942
2.53871 1.71829 18.6832
2.55249 1.70451 18.6716
2.46978 1.78722 18.4001
2.48357 1.77343 18.3889
2.48357 1.77343 18.4114
2.48357 1.77343 18.4114
2.46978 1.78722 18.4227
2.46978 1.78722 18.4001
2.49736 1.75964 18.4452
2.49736 1.75964 18.4678
2.48357 1.77343 18.4565
2.46978 1.78722 18.3325
2.48357 1.77343 18.3213
2.48357 1.77343 18.3438
2.48357 1.77343 18.3438
2.48357 1.77343 18.3213
2.49735 1.75965 18.3325
2.46978 1.78722 18.3776
2.48357 1.77343 18.3889
2.46978 1.78722 18.4001
2.46978 1.78722 18.3776
2.48357 1.77343 18.3663
2.48357 1.77343 18.3889
2.51114 1.74586 18.2762
2.52492 1.73208 18.265
2.52492 1.73208 18.2875
2.52492 1.73208 18.2875
2.51114 1.74586 18.2988
2.51114 1.74586 18.2762
2.49735 1.75965 18.3325
2.48357 1.77343 18.3213
2.49735 1.75965 18.31
2.49735 1.75965 18.2875
2.51114 1.74586 18.2988
2.49735 1.75965 18.31
2.49736 1.75964 18.513
2.49736 1.75964 18.5356
2.48357 1.77343 18.5243
2.4284 1.8286 18.5922
2.4422 1.8148 18.6035
2.4284 1.8286 18.6149
2.3455 1.9115 18.7298
2.35934 1.89766 18.7375
2.33165 1.92535 18.7375
2.4146 1.8424 18.6035
2.4284 1.8286 18.5922
2.4284 1.8286 18.6149
2.4146 1.8424 18.5808
2.4284 1.8286 18.5922
2.4146 1.8424 18.6035
2.456 1.801 18.6603
2.46979 1.78721 18.6716
2.456 1.801 18.6832
2.456 1.801 18.6832
2.46979 1.78721 18.6716
2.46979 1.78721 18.6942
2.42841 1.82859 18.6832
2.42841 1.82859 18.6603
2.44221 1.81479 18.6716
2.44221 1.81479 18.6716
2.44221 1.81479 18.6942
2.42841 1.82859 18.6832
2.44221 1.81479 18.6716
2.4422 1.8148 18.6489
2.456 1.801 18.6603
2.42841 1.82859 18.6603
2.4422 1.8148 18.6489
2.44221 1.81479 18.6716
2.456 1.801 18.6603
2.456 1.801 18.6832
2.44221 1.81479 18.6716
2.44221 1.81479 18.6716
2.456 1.801 18.6832
2.44221 1.81479 18.6942
2.46979 1.78721 18.7375
2.44221 1.81479 18.7375
2.456 1.801 18.7298
2.456 1.801 18.7298
2.46979 1.78721 18.7164
2.46979 1.78721 18.7375
2.42841 1.82859 18.6832
2.44221 1.81479 18.6942
2.42841 1.82859 18.7062
2.16411 2.09289 18.7375
2.17682 2.08018 18.7211
2.1809 2.0761 18.7375
2.1809 2.0761 18.7375
2.17682 2.08018 18.7211
2.19211 2.06489 18.7153
2.19211 2.06489 18.7153
2.19593 2.06107 18.7375
2.1809 2.0761 18.7375
2.78688 1.47012 17.8457
2.77324 1.48376 17.8375
2.8005 1.4565 17.8375
2.77293 1.48407 17.881
2.78673 1.47027 17.8693
2.78669 1.47031 17.8922
2.8005 1.4565 17.9491
2.8005 1.4565 17.9717
2.7867 1.4703 17.9603
2.78669 1.47031 17.8922
2.78673 1.47027 17.8693
2.8005 1.4565 17.8814
2.8005 1.4565 17.8814
2.8005 1.4565 17.9039
2.78669 1.47031 17.8922
2.78669 1.47031 17.8922
2.8005 1.4565 17.9039
2.78669 1.47031 17.915
2.8005 1.4565 18.0621
2.78672 1.47028 18.0508
2.8005 1.4565 18.0395
2.78672 1.47028 18.0282
2.8005 1.4565 18.0169
2.8005 1.4565 18.0395
2.8005 1.4565 18.0395
2.78672 1.47028 18.0508
2.78672 1.47028 18.0282
2.8005 1.4565 17.9943
2.78671 1.47029 17.983
2.8005 1.4565 17.9717
2.66273 1.59427 17.8375
2.69029 1.56671 17.8375
2.67651 1.58049 17.8452
[...]
<PointData Scalars="View Factor" >
<DataArray type="Float64" Name="View Factor" NumberOfComponents="1" format="ascii">
0.636112
0.636112
0.636112
0.621038
0.621038
0.621038
0.620571
0.620571
0.620571
0.390075
0.390075
0.390075
0.402275
0.402275
0.402275
0.44724
0.44724
0.44724
0.647143
0.647143
0.647143
0.631398
0.631398
0.631398
0.633803
0.633803
0.633803
0.577361
0.577361
0.577361
0.570883
0.570883
0.570883
0.480228
0.480228
0.480228
0.495729
0.495729
0.495729
0.494689
0.494689
0.494689
0.399025
0.399025
0.399025
0.413192
0.413192
0.413192
0.419405
0.419405
0.419405
0.419185
0.419185
0.419185
0.54914
0.54914
0.54914
0.575185
0.575185
0.575185
0.519367
0.519367
0.519367
0.392639
0.392639
0.392639
0.614199
0.614199
0.614199
0.577465
0.577465
0.577465
0.627336
0.627336
0.627336
0.628182
0.628182
0.628182
0.631052
0.631052
0.631052
0.630019
0.630019
0.630019
0.627606
0.627606
0.627606
0.632925
0.632925
0.632925
0.63339
0.63339
0.63339
0.635904
0.635904
0.635904
0.637924
0.637924
0.637924
0.63785
0.63785
0.63785
0.635833
0.635833
0.635833
0.631684
0.631684
0.631684
0.633834
0.633834
0.633834
0.614646
0.614646
0.614646
0.613736
0.613736
0.613736
0.648481
0.648481
0.648481
0.64233
0.64233
0.64233
0.639907
0.639907
0.639907
0.639915
0.639915
0.639915
0.582456
0.582456
0.582456
0.580447
0.580447
0.580447
0.581294
0.581294
0.581294
0.56306
0.56306
0.56306
0.592036
0.592036
0.592036
0.51346
0.51346
0.51346
0.509222
0.509222
0.509222
0.506303
0.506303
0.506303
0.512129
0.512129
0.512129
0.510652
0.510652
0.510652
0.498931
0.498931
0.498931
0.503368
0.503368
0.503368
0.504809
0.504809
0.504809
0.483548
0.483548
0.483548
0.485356
0.485356
0.485356
0.493486
0.493486
0.493486
0.491345
0.491345
0.491345
0.490086
0.490086
0.490086
0.539935
0.539935
0.539935
0.520403
0.520403
0.520403
0.517719
0.517719
0.517719
0.524563
0.524563
0.524563
0.526097
0.526097
0.526097
0.448059
0.448059
0.448059
0.423277
0.423277
0.423277
0.407423
0.407423
0.407423
0.412986
0.412986
0.412986
0.411461
0.411461
0.411461
0.498437
0.498437
0.498437
0.503204
0.503204
0.503204
0.505632
0.505632
0.505632
0.506789
0.506789
0.506789
0.489805
0.489805
0.489805
0.479892
0.479892
0.479892
0.475546
0.475546
0.475546
0.395467
0.395467
0.395467
0.398643
0.398643
0.398643
0.40402
0.40402
0.40402
0.393751
0.393751
0.393751
0.396658
0.396658
0.396658
0.403077
0.403077
0.403077
0.409203
0.409203
0.409203
0.397939
0.397939
0.397939
0.401271
0.401271
0.401271
0.407068
0.407068
0.407068
0.399455
0.399455
0.399455
0.396296
0.396296
0.396296
0.40076
0.40076
0.40076
0.41279
0.41279
0.41279
0.418481
0.418481
0.418481
0.405549
0.405549
0.405549
0.40615
0.40615
0.40615
0.425065
0.425065
0.425065
0.430479
0.430479
0.430479
0.424766
0.424766
0.424766
0.541089
0.541089
0.541089
0.536862
0.536862
0.536862
0.523927
0.523927
0.523927
0.560337
0.560337
0.560337
0.56171
0.56171
0.56171
0.543819
0.543819
0.543819
0.547876
0.547876
0.547876
0.57901
0.57901
0.57901
0.575982
0.575982
0.575982
0.565244
0.565244
0.565244
0.571979
0.571979
0.571979
0.497684
0.497684
0.497684
0.451728
0.451728
0.451728
0.382212
0.382212
0.382212
0.449223
0.449223
0.449223
0.455053
0.455053
0.455053
0.422069
0.422069
0.422069
0.416647
0.416647
0.416647
0.416033
0.416033
0.416033
0.410881
0.410881
0.410881
0.425567
0.425567
0.425567
0.423459
0.423459
0.423459
0.420286
0.420286
0.420286
0.413025
0.413025
0.413025
0.384996
0.384996
0.384996
0.390977
0.390977
0.390977
0.403158
0.403158
0.403158
0.389233
0.389233
0.389233
0.394484
0.394484
0.394484
0.390618
0.390618
0.390618
0.633023
0.633023
0.633023
0.628603
0.628603
0.628603
0.615164
0.615164
0.615164
0.627148
0.627148
0.627148
0.624873
0.624873
0.624873
0.624091
0.624091
0.624091
0.600338
0.600338
0.600338
0.60426
0.60426
0.60426
0.603105
0.603105
0.603105
0.611668
0.611668
0.611668
0.646528
0.646528
0.646528
0.646482
0.646482
0.646482
0.626162
0.626162
0.626162
0.625415
0.625415
0.625415
0.624781
0.624781
0.624781
0.625413
0.625413
0.625413
0.619292
0.619292
0.619292
0.619692
0.619692
0.619692
0.646285
0.646285
0.646285
0.644629
0.644629
0.644629
0.643658
0.643658
0.643658
0.598919
0.598919
0.598919
0.597884
0.597884
0.597884
0.575115
0.575115
0.575115
0.625691
0.625691
0.625691
0.620147
0.620147
0.620147
0.647547
0.647547
0.647547
0.643045
0.643045
0.643045
0.602943
0.602943
0.602943
0.603476
0.603476
0.603476
0.604409
0.604409
0.604409
0.604219
0.604219
0.604219
0.61128
0.61128
0.61128
0.609699
0.609699
0.609699
0.613222
0.613222
0.613222
0.611014
0.611014
0.611014
0.610032
0.610032
0.610032
0.609475
0.609475
0.609475
0.608262
0.608262
0.608262
0.60604
0.60604
0.60604
0.61197
0.61197
0.61197
0.648843
0.648843
0.648843
0.645559
0.645559
0.645559
0.644229
0.644229
0.644229
0.643981
0.643981
0.643981
0.645623
0.645623
0.645623
0.63781
0.63781
0.63781
0.639446
0.639446
0.639446
0.639054
0.639054
0.639054
0.635817
0.635817
0.635817
0.58125
0.58125
0.58125
0.583791
0.583791
0.583791
0.604383
0.604383
0.604383
0.604146
0.604146
0.604146
0.595407
0.595407
0.595407
0.593026
0.593026
0.593026
0.587915
0.587915
0.587915
0.595606
0.595606
0.595606
0.598208
0.598208
0.598208
0.589095
0.589095
0.589095
0.591272
0.591272
0.591272
0.590193
0.590193
0.590193
0.587855
0.587855
0.587855
0.588038
0.588038
0.588038
0.590454
0.590454
0.590454
0.590564
0.590564
0.590564
0.585468
0.585468
0.585468
0.585398
0.585398
0.585398
0.585428
0.585428
0.585428
0.572437
0.572437
0.572437
0.579377
0.579377
0.579377
0.580049
0.580049
0.580049
0.581373
0.581373
0.581373
0.566952
0.566952
0.566952
0.57046
0.57046
0.57046
0.570941
0.570941
0.570941
0.565457
0.565457
0.565457
0.567467
0.567467
0.567467
0.561874
0.561874
0.561874
0.560334
0.560334
0.560334
0.551905
0.551905
0.551905
0.568344
0.568344
0.568344
0.568154
0.568154
0.568154
0.56654
0.56654
0.56654
0.561159
0.561159
0.561159
0.557581
0.557581
0.557581
0.555578
0.555578
0.555578
0.557184
0.557184
0.557184
0.592247
0.592247
0.592247
0.590664
0.590664
0.590664
0.578352
0.578352
0.578352
0.581551
0.581551
0.581551
0.616474
0.616474
0.616474
0.620544
0.620544
0.620544
0.573048
0.573048
0.573048
0.500026
0.500026
0.500026
0.501772
0.501772
0.501772
0.503173
0.503173
0.503173
0.481816
0.481816
0.481816
0.472097
0.472097
0.472097
0.467346
0.467346
0.467346
0.492176
0.492176
0.492176
0.495457
0.495457
0.495457
0.48153
0.48153
0.48153
0.484095
0.484095
0.484095
0.486205
0.486205
0.486205
0.487514
0.487514
0.487514
0.548397
0.548397
0.548397
0.550988
0.550988
0.550988
0.551603
0.551603
0.551603
0.552972
0.552972
0.552972
0.553917
0.553917
0.553917
0.555602
0.555602
0.555602
0.559281
0.559281
0.559281
0.573528
0.573528
0.573528
0.580104
0.580104
0.580104
0.582791
0.582791
0.582791
0.558651
0.558651
0.558651
0.561737
0.561737
0.561737
0.55183
0.55183
0.55183
0.564868
0.564868
0.564868
0.566322
0.566322
0.566322
0.549549
0.549549
0.549549
0.554892
0.554892
0.554892
0.522645
0.522645
0.522645
0.524974
0.524974
0.524974
0.543983
0.543983
0.543983
0.547973
0.547973
0.547973
0.514857
0.514857
0.514857
0.511432
0.511432
0.511432
0.519376
0.519376
0.519376
0.520529
0.520529
0.520529
0.536121
0.536121
0.536121
0.521425
0.521425
0.521425
0.513665
0.513665
0.513665
0.509083
0.509083
0.509083
0.516964
0.516964
0.516964
0.515707
0.515707
0.515707
0.493808
0.493808
0.493808
0.511777
0.511777
0.511777
0.513111
0.513111
0.513111
0.510659
0.510659
0.510659
0.507648
0.507648
0.507648
0.509044
0.509044
0.509044
0.573927
0.573927
0.573927
0.570461
0.570461
0.570461
0.569121
0.569121
0.569121
0.57603
0.57603
0.57603
0.581968
0.581968
0.581968
0.584605
0.584605
0.584605
0.5431
0.5431
0.5431
0.53918
0.53918
0.53918
0.537607
0.537607
0.537607
0.530221
0.530221
0.530221
0.536768
0.536768
0.536768
0.532752
0.532752
0.532752
0.452619
0.452619
0.452619
0.423706
0.423706
0.423706
0.418434
0.418434
0.418434
0.428255
0.428255
0.428255
0.401504
0.401504
0.401504
0.402054
0.402054
0.402054
0.398474
0.398474
0.398474
0.442713
0.442713
0.442713
0.437997
0.437997
0.437997
0.416281
0.416281
0.416281
0.469516
0.469516
0.469516
0.504289
0.504289
0.504289
0.50634
0.50634
0.50634
0.501573
0.501573
0.501573
0.500566
0.500566
0.500566
0.483818
0.483818
0.483818
0.488739
0.488739
0.488739
0.526069
0.526069
0.526069
0.399415
0.399415
0.399415
0.400785
0.400785
0.400785
0.408107
0.408107
0.408107
0.405456
0.405456
0.405456
0.419615
0.419615
0.419615
0.419615
0.419615
0.419615
0.430985
0.430985
0.430985
0.413893
0.413893
0.413893
0.413736
0.413736
0.413736
0.402037
0.402037
0.402037
0.407398
0.407398
0.407398
0.398856
0.398856
0.398856
0.402304
0.402304
0.402304
0.407826
0.407826
0.407826
0.413999
0.413999
0.413999
0.413961
0.413961
0.413961
0.402633
0.402633
0.402633
0.407937
0.407937
0.407937
0.399183
0.399183
0.399183
0.402704
0.402704
0.402704
0.407975
0.407975
0.407975
0.402591
0.402591
0.402591
0.407631
0.407631
0.407631
0.40268
0.40268
0.40268
0.40791
0.40791
0.40791
0.531797
0.531797
0.531797
0.535074
0.535074
0.535074
0.533905
0.533905
0.533905
0.527437
0.527437
0.527437
0.524716
0.524716
0.524716
0.533683
0.533683
0.533683
0.532617
0.532617
0.532617
0.529566
0.529566
0.529566
0.529047
0.529047
0.529047
0.550387
0.550387
0.550387
0.556586
0.556586
0.556586
0.554285
0.554285
0.554285
0.579538
0.579538
0.579538
0.580072
0.580072
0.580072
0.5824
0.5824
0.5824
0.582687
0.582687
0.582687
0.501896
0.501896
0.501896
0.430078
0.430078
0.430078
0.442152
0.442152
0.442152
0.44248
0.44248
0.44248
0.436515
0.436515
0.436515
0.436721
0.436721
0.436721
0.45324
0.45324
0.45324
0.442542
0.442542
0.442542
0.437227
0.437227
0.437227
0.429094
0.429094
0.429094
0.430545
0.430545
0.430545
0.452731
0.452731
0.452731
0.449318
0.449318
0.449318
0.455888
0.455888
0.455888
0.457585
0.457585
0.457585
0.458658
0.458658
0.458658
0.448996
0.448996
0.448996
0.454104
0.454104
0.454104
0.460313
0.460313
0.460313
0.461376
0.461376
0.461376
0.512859
0.512859
0.512859
0.520926
0.520926
0.520926
0.467308
0.467308
0.467308
0.493958
0.493958
0.493958
0.498426
0.498426
0.498426
0.503391
0.503391
0.503391
0.42843
0.42843
0.42843
0.440338
0.440338
0.440338
0.435594
0.435594
0.435594
0.413525
0.413525
0.413525
0.407497
0.407497
0.407497
0.396164
0.396164
0.396164
0.403875
0.403875
0.403875
0.409336
0.409336
0.409336
0.378151
0.378151
0.378151
0.385175
0.385175
0.385175
0.390382
0.390382
0.390382
0.386149
0.386149
0.386149
0.39132
0.39132
0.39132
0.39073
0.39073
0.39073
0.386829
0.386829
0.386829
0.399074
0.399074
0.399074
0.391592
0.391592
0.391592
0.393382
0.393382
0.393382
0.388085
0.388085
0.388085
0.402932
0.402932
0.402932
0.409496
0.409496
0.409496
0.630749
0.630749
0.630749
0.633539
0.633539
0.633539
0.631539
0.631539
0.631539
0.621763
0.621763
0.621763
0.62786
0.62786
0.62786
0.630721
0.630721
0.630721
0.630106
0.630106
0.630106
0.627797
0.627797
0.627797
0.625559
0.625559
0.625559
0.595335
0.595335
0.595335
0.596829
0.596829
0.596829
0.599113
0.599113
0.599113
0.596265
0.596265
0.596265
0.594968
0.594968
0.594968
0.610643
0.610643
0.610643
0.606944
0.606944
0.606944
0.608034
0.608034
0.608034
0.644943
0.644943
0.644943
0.642258
0.642258
0.642258
0.643943
0.643943
0.643943
0.643909
0.643909
0.643909
0.642095
0.642095
0.642095
0.641381
0.641381
0.641381
0.627396
0.627396
0.627396
0.616449
0.616449
0.616449
0.618244
0.618244
0.618244
0.617996
0.617996
0.617996
0.615919
0.615919
0.615919
0.614151
0.614151
0.614151
0.614434
0.614434
0.614434
0.62329
0.62329
0.62329
0.623674
0.623674
0.623674
0.621661
0.621661
0.621661
0.621872
0.621872
0.621872
0.626393
0.626393
0.626393
0.62787
0.62787
0.62787
0.622923
0.622923
0.622923
0.62188
0.62188
0.62188
0.623957
0.623957
0.623957
0.624463
0.624463
0.624463
0.620898
0.620898
0.620898
0.620358
0.620358
0.620358
0.630243
0.630243
0.630243
0.636082
0.636082
0.636082
0.633197
0.633197
0.633197
0.634538
0.634538
0.634538
0.623257
0.623257
0.623257
0.632668
0.632668
0.632668
0.638087
0.638087
0.638087
0.63658
0.63658
0.63658
0.639478
0.639478
0.639478
0.641253
0.641253
0.641253
0.638439
0.638439
0.638439
0.639178
0.639178
0.639178
0.641965
0.641965
0.641965
0.640927
0.640927
0.640927
0.648209
0.648209
0.648209
0.646831
0.646831
0.646831
0.592067
0.592067
0.592067
0.589953
0.589953
0.589953
0.600362
0.600362
0.600362
0.594925
0.594925
0.594925
0.597081
0.597081
0.597081
0.594195
0.594195
0.594195
0.57604
0.57604
0.57604
0.559441
0.559441
0.559441
0.580637
0.580637
0.580637
0.590703
0.590703
0.590703
0.588491
0.588491
0.588491
0.582958
0.582958
0.582958
0.580724
0.580724
0.580724
0.586082
0.586082
0.586082
0.586968
0.586968
0.586968
0.626228
0.626228
0.626228
0.629319
0.629319
0.629319
0.629059
0.629059
0.629059
0.626959
0.626959
0.626959
0.623214
0.623214
0.623214
0.624224
0.624224
0.624224
0.623453
0.623453
0.623453
0.619839
0.619839
0.619839
0.620186
0.620186
0.620186
0.616526
0.616526
0.616526
0.618356
0.618356
0.618356
0.618203
0.618203
0.618203
0.614626
0.614626
0.614626
0.626961
0.626961
0.626961
0.627139
0.627139
0.627139
0.627141
0.627141
0.627141
0.646447
0.646447
0.646447
0.646761
0.646761
0.646761
0.641686
0.641686
0.641686
0.643035
0.643035
0.643035
0.635351
0.635351
0.635351
0.632537
0.632537
0.632537
0.634192
0.634192
0.634192
0.607322
0.607322
0.607322
0.604862
0.604862
0.604862
0.604196
0.604196
0.604196
0.601689
0.601689
0.601689
0.602604
0.602604
0.602604
0.60042
0.60042
0.60042
0.612956
0.612956
0.612956
0.61045
0.61045
0.61045
0.621376
0.621376
0.621376
0.622799
0.622799
0.622799
0.617141
0.617141
0.617141
0.614587
0.614587
0.614587
0.614918
0.614918
0.614918
0.613667
0.613667
0.613667
0.619433
0.619433
0.619433
0.620859
0.620859
0.620859
0.620171
0.620171
0.620171
0.618096
0.618096
0.618096
0.616785
0.616785
0.616785
0.61743
0.61743
0.61743
0.610153
0.610153
0.610153
0.611447
0.611447
0.611447
0.610245
0.610245
0.610245
0.610125
0.610125
0.610125
0.607824
0.607824
0.607824
0.606251
0.606251
0.606251
0.605896
0.605896
0.605896
0.610635
0.610635
0.610635
0.608541
0.608541
0.608541
0.60659
0.60659
0.60659
0.60656
0.60656
0.60656
0.649821
0.649821
0.649821
0.646856
0.646856
0.646856
0.645025
0.645025
0.645025
0.644536
0.644536
0.644536
0.645358
0.645358
0.645358
0.646654
0.646654
0.646654
0.647979
0.647979
0.647979
0.648937
0.648937
0.648937
0.646371
0.646371
0.646371
0.648622
0.648622
0.648622
0.647377
0.647377
0.647377
0.562437
0.562437
0.562437
0.560635
0.560635
0.560635
0.562378
0.562378
0.562378
0.580618
0.580618
0.580618
0.607193
0.607193
0.607193
0.605531
0.605531
0.605531
0.603169
0.603169
0.603169
0.590356
0.590356
0.590356
0.59294
0.59294
0.59294
0.595013
0.595013
0.595013
0.595275
0.595275
0.595275
0.585187
0.585187
0.585187
0.582632
0.582632
0.582632
0.593788
0.593788
0.593788
0.591091
0.591091
0.591091
0.598927
0.598927
0.598927
0.599816
0.599816
0.599816
0.60184
0.60184
0.60184
0.601375
0.601375
0.601375
0.599888
0.599888
0.599888
0.598835
0.598835
0.598835
0.600242
0.600242
0.600242
0.602402
0.602402
0.602402
0.587155
0.587155
0.587155
0.589835
0.589835
0.589835
0.591916
0.591916
0.591916
0.594605
0.594605
0.594605
0.596152
0.596152
0.596152
0.594781
0.594781
0.594781
0.587525
0.587525
0.587525
0.589748
0.589748
0.589748
0.589126
0.589126
0.589126
0.586326
0.586326
0.586326
0.584777
0.584777
0.584777
0.584203
0.584203
0.584203
0.582955
0.582955
0.582955
0.590142
0.590142
0.590142
0.591834
0.591834
0.591834
0.590519
0.590519
0.590519
0.587562
0.587562
0.587562
0.587273
0.587273
0.587273
0.586011
0.586011
0.586011
0.603577
0.603577
0.603577
0.603341
0.603341
0.603341
0.605748
0.605748
0.605748
0.608451
0.608451
0.608451
0.620376
0.620376
0.620376
0.621345
0.621345
0.621345
0.62
0.62
0.62
0.617729
0.617729
0.617729
0.616914
0.616914
0.616914
0.618212
0.618212
0.618212
0.577275
0.577275
0.577275
0.575831
0.575831
0.575831
0.577707
0.577707
0.577707
0.580585
0.580585
0.580585
0.582432
0.582432
0.582432
0.580999
0.580999
0.580999
0.57157
0.57157
0.57157
0.562769
0.562769
0.562769
0.565928
0.565928
0.565928
0.562376
0.562376
0.562376
0.560799
0.560799
0.560799
0.566286
0.566286
0.566286
0.567865
0.567865
0.567865
0.587645
0.587645
0.587645
0.586194
0.586194
0.586194
0.583084
0.583084
0.583084
0.586276
0.586276
0.586276
0.583153
0.583153
0.583153
0.587788
0.587788
0.587788
0.586282
0.586282
0.586282
0.587839
0.587839
0.587839
0.590893
0.590893
0.590893
0.590823
0.590823
0.590823
0.592371
0.592371
0.592371
0.619168
0.619168
0.619168
0.618982
0.618982
0.618982
0.618281
0.618281
0.618281
0.576023
0.576023
0.576023
0.574964
0.574964
0.574964
0.570669
0.570669
0.570669
0.57564
0.57564
0.57564
0.574639
0.574639
0.574639
0.572157
0.572157
0.572157
0.562947
0.562947
0.562947
0.568042
0.568042
0.568042
0.566917
0.566917
0.566917
0.564157
0.564157
0.564157
0.582188
0.582188
0.582188
0.583285
0.583285
0.583285
0.582195
0.582195
0.582195
0.617712
0.617712
0.617712
0.61917
0.61917
0.61917
0.619792
0.619792
0.619792
0.618412
0.618412
0.618412
0.618396
0.618396
0.618396
0.619788
0.619788
0.619788
0.619151
0.619151
0.619151
0.583233
0.583233
0.583233
0.577993
0.577993
0.577993
0.473341
0.473341
0.473341
0.478094
0.478094
0.478094
0.47935
0.47935
0.47935
0.45855
0.45855
0.45855
0.494098
0.494098
0.494098
0.491345
0.491345
0.491345
0.488155
0.488155
0.488155
0.489507
0.489507
0.489507
0.495869
0.495869
0.495869
0.497267
0.497267
0.497267
0.558965
0.558965
0.558965
0.562034
0.562034
0.562034
0.555193
0.555193
0.555193
0.555556
0.555556
0.555556
0.54464
0.54464
0.54464
0.541231
0.541231
0.541231
0.537301
0.537301
0.537301
0.536755
0.536755
0.536755
0.542304
0.542304
0.542304
0.546302
0.546302
0.546302
0.547201
0.547201
0.547201
0.544062
0.544062
0.544062
0.539248
0.539248
0.539248
0.540105
0.540105
0.540105
0.574011
0.574011
0.574011
0.577242
0.577242
0.577242
0.576997
0.576997
0.576997
0.574464
0.574464
0.574464
0.567743
0.567743
0.567743
0.566288
0.566288
0.566288
0.569625
0.569625
0.569625
0.570374
0.570374
0.570374
0.568182
0.568182
0.568182
0.5713
0.5713
0.5713
0.571505
0.571505
0.571505
0.565293
0.565293
0.565293
0.559098
0.559098
0.559098
0.55893
0.55893
0.55893
0.5651
0.5651
0.5651
0.56804
0.56804
0.56804
0.547895
0.547895
0.547895
0.546756
0.546756
0.546756
0.533643
0.533643
0.533643
0.532523
0.532523
0.532523
0.528213
0.528213
0.528213
0.527038
0.527038
0.527038
0.530153
0.530153
0.530153
0.567622
0.567622
0.567622
0.566469
0.566469
0.566469
0.56986
0.56986
0.56986
0.570429
0.570429
0.570429
0.565753
0.565753
0.565753
0.552887
0.552887
0.552887
0.550009
0.550009
0.550009
0.550973
0.550973
0.550973
0.556705
0.556705
0.556705
0.565561
0.565561
0.565561
0.564159
0.564159
0.564159
0.560512
0.560512
0.560512
0.558234
0.558234
0.558234
0.559758
0.559758
0.559758
0.561255
0.561255
0.561255
0.556069
0.556069
0.556069
0.55906
0.55906
0.55906
0.553841
0.553841
0.553841
0.555334
0.555334
0.555334
0.559636
0.559636
0.559636
0.563315
0.563315
0.563315
0.548336
0.548336
0.548336
0.544335
0.544335
0.544335
0.549741
0.549741
0.549741
0.551022
0.551022
0.551022
0.524572
0.524572
0.524572
0.528909
0.528909
0.528909
0.531908
0.531908
0.531908
0.530601
0.530601
0.530601
0.517571
0.517571
0.517571
0.518883
0.518883
0.518883
0.523288
0.523288
0.523288
0.520633
0.520633
0.520633
0.524978
0.524978
0.524978
0.526319
0.526319
0.526319
0.495005
0.495005
0.495005
0.497322
0.497322
0.497322
0.500931
0.500931
0.500931
0.49975
0.49975
0.49975
0.492508
0.492508
0.492508
0.491374
0.491374
0.491374
0.496055
0.496055
0.496055
0.497309
0.497309
0.497309
0.515037
0.515037
0.515037
0.523653
0.523653
0.523653
0.519225
0.519225
0.519225
0.522195
0.522195
0.522195
0.523444
0.523444
0.523444
0.524944
0.524944
0.524944
0.516444
0.516444
0.516444
0.517915
0.517915
0.517915
0.571909
0.571909
0.571909
0.574697
0.574697
0.574697
0.569855
0.569855
0.569855
0.571252
0.571252
0.571252
0.575328
0.575328
0.575328
0.576721
0.576721
0.576721
0.585635
0.585635
0.585635
0.585186
0.585186
0.585186
0.586498
0.586498
0.586498
0.587007
0.587007
0.587007
0.590113
0.590113
0.590113
0.58585
0.58585
0.58585
0.583878
0.583878
0.583878
0.585052
0.585052
0.585052
0.58818
0.58818
0.58818
0.59314
0.59314
0.59314
0.590131
0.590131
0.590131
0.588974