<VTKFile type="UnstructuredGrid" version="1.0">
<UnstructuredGrid>
<Piece NumberOfPoints="11046" NumberOfCells="3682">
<Points>
<DataArray type="Float64" NumberOfComponents="3" format="ascii">
1.77647 2.48053 3.2152
1.76268 2.49432 3.2075
1.79026 2.46674 3.2075
1.46971 2.78729 3.22392
1.457 2.8 3.2075
1.47379 2.78321 3.2075
1.46971 2.78729 3.22392
1.457 2.8 3.2314
1.457 2.8 3.2075
1.79026 2.46674 4.1075
1.76268 2.49432 4.1075
1.77647 2.48053 4.0998
1.95562 2.30138 4.08646
1.95562 2.30138 4.1075
1.94184 2.31516 4.09981
1.7213 2.5357 3.98487
1.73509 2.52191 3.97352
1.7351 2.5219 3.99621
1.94184 2.31516 3.21519
1.95562 2.30138 3.2075
1.95562 2.30138 3.22854
1.76268 2.49432 3.25081
1.77647 2.48053 3.2388
1.77647 2.48053 3.26183
1.77647 2.48053 3.26183
1.77647 2.48053 3.2388
1.79025 2.46675 3.2508
1.79025 2.46675 3.63498
1.80403 2.45297 3.64624
1.79025 2.46675 3.6575
1.457 2.8 3.68001
1.457 2.8 3.6575
1.471 2.786 3.66875
2.0934 2.1636 3.8829
2.07961 2.17739 3.8942
2.07961 2.17739 3.87161
1.95561 2.30139 3.88296
1.96939 2.28761 3.87166
1.96938 2.28762 3.89426
1.96938 2.28762 3.89426
1.96939 2.28761 3.87166
1.98316 2.27384 3.88296
1.94184 2.31516 4.09981
1.95562 2.30138 4.1075
1.92806 2.32894 4.1075
1.84538 2.41162 4.0642
1.85916 2.39784 4.0762
1.84538 2.41162 4.08645
1.87294 2.38406 4.0642
1.85916 2.39784 4.0762
1.85916 2.39784 4.05317
1.85916 2.39784 4.05317
1.85916 2.39784 4.0762
1.84538 2.41162 4.0642
1.79025 2.46675 3.74759
1.77646 2.48054 3.75885
1.77646 2.48054 3.73632
1.79025 2.46675 3.6575
1.80403 2.45297 3.64624
1.80403 2.45297 3.66876
1.77646 2.48054 3.8265
1.79025 2.46675 3.83778
1.77646 2.48054 3.84907
1.77647 2.48053 4.0998
1.76268 2.49432 4.1075
1.76268 2.49432 4.08645
2.07959 2.17741 3.33031
2.0934 2.1636 3.34168
2.0796 2.1774 3.35295
1.92805 2.32895 3.63498
1.94183 2.31517 3.62372
1.94183 2.31517 3.64624
1.74889 2.50811 3.2152
1.7351 2.5219 3.2075
1.76268 2.49432 3.2075
1.76268 2.49432 3.25081
1.74889 2.50811 3.2388
1.76268 2.49432 3.22855
1.76268 2.49432 3.22855
1.77647 2.48053 3.2388
1.76268 2.49432 3.25081
1.76268 2.49432 3.22855
1.74889 2.50811 3.2152
1.76268 2.49432 3.2075
1.74889 2.50811 3.2388
1.74889 2.50811 3.2152
1.76268 2.49432 3.22855
1.76268 2.49432 3.22855
1.76268 2.49432 3.2075
1.77647 2.48053 3.2152
1.77647 2.48053 3.2152
1.77647 2.48053 3.2388
1.76268 2.49432 3.22855
1.79025 2.46675 3.2508
1.77647 2.48053 3.2388
1.79025 2.46675 3.22855
1.79025 2.46675 3.22855
1.80404 2.45296 3.2388
1.79025 2.46675 3.2508
1.77647 2.48053 3.2152
1.79026 2.46674 3.2075
1.79025 2.46675 3.22855
1.79025 2.46675 3.22855
1.77647 2.48053 3.2388
1.77647 2.48053 3.2152
1.77647 2.48053 3.28466
1.77647 2.48053 3.26183
1.79025 2.46675 3.2734
1.79025 2.46675 3.2734
1.77647 2.48053 3.26183
1.79025 2.46675 3.2508
1.81782 2.43918 3.47722
1.81782 2.43918 3.45464
1.8316 2.4254 3.46593
1.80403 2.45297 3.46593
1.81782 2.43918 3.45464
1.81782 2.43918 3.47722
1.92806 2.32894 3.2075
1.95562 2.30138 3.2075
1.94184 2.31516 3.21519
1.79026 2.46674 3.2075
1.81782 2.43918 3.2075
1.80404 2.45296 3.2152
1.80404 2.45296 3.2152
1.79025 2.46675 3.22855
1.79026 2.46674 3.2075
1.80404 2.45296 3.2388
1.79025 2.46675 3.22855
1.80404 2.45296 3.2152
1.80403 2.45297 3.62372
1.79025 2.46675 3.63498
1.79025 2.46675 3.61246
1.80403 2.45297 3.64624
1.79025 2.46675 3.63498
1.80403 2.45297 3.62372
1.80403 2.45297 3.62372
1.81782 2.43918 3.63498
1.80403 2.45297 3.64624
2.07962 2.17738 3.60121
2.0934 2.1636 3.58995
2.0934 2.1636 3.61247
2.0934 2.1636 3.47725
2.07961 2.17739 3.46596
2.0934 2.1636 3.45468
2.0934 2.1636 3.77011
2.0934 2.1636 3.79265
2.07962 2.17738 3.78138
2.07962 2.17738 3.80392
2.06584 2.19116 3.8152
2.06584 2.19116 3.79265
2.07962 2.17738 3.80392
2.0934 2.1636 3.79265
2.0934 2.1636 3.81519
2.06584 2.19116 3.79265
2.07962 2.17738 3.78138
2.07962 2.17738 3.80392
2.07962 2.17738 3.80392
2.07962 2.17738 3.78138
2.0934 2.1636 3.79265
2.07962 2.17738 3.82647
2.0934 2.1636 3.81519
2.0934 2.1636 3.83775
2.07962 2.17738 3.82647
2.07962 2.17738 3.80392
2.0934 2.1636 3.81519
2.06584 2.19116 3.8152
2.07962 2.17738 3.80392
2.07962 2.17738 3.82647
2.0934 2.1636 3.8829
2.07961 2.17739 3.87161
2.0934 2.1636 3.86032
2.05205 2.20495 3.89423
2.03827 2.21873 3.88293
2.05205 2.20495 3.87163
2.05205 2.20495 3.84905
2.05205 2.20495 3.87163
2.03827 2.21873 3.86034
2.03827 2.21873 3.86034
2.03827 2.21873 3.88293
2.02449 2.23251 3.87164
2.03827 2.21873 3.86034
2.05205 2.20495 3.87163
2.03827 2.21873 3.88293
2.0934 2.1636 3.70253
2.07962 2.17738 3.69128
2.0934 2.1636 3.68002
2.07962 2.17738 3.75885
2.0934 2.1636 3.74758
2.0934 2.1636 3.77011
2.0934 2.1636 3.77011
2.07962 2.17738 3.78138
2.07962 2.17738 3.75885
2.07962 2.17738 3.75885
2.07962 2.17738 3.73632
2.0934 2.1636 3.74758
2.06584 2.19116 3.74758
2.07962 2.17738 3.73632
2.07962 2.17738 3.75885
1.98316 2.27384 3.99623
1.96939 2.28761 4.00761
1.96939 2.28761 3.98489
1.9694 2.2876 4.05319
1.95562 2.30138 4.06421
1.95562 2.30138 4.04161
1.94184 2.31516 4.07621
1.95562 2.30138 4.08646
1.94184 2.31516 4.09981
1.94184 2.31516 4.07621
1.95562 2.30138 4.06421
1.95562 2.30138 4.08646
1.98319 2.27381 4.08647
1.98319 2.27381 4.06422
1.99698 2.26002 4.07624
1.98316 2.27384 3.88296
1.96939 2.28761 3.87166
1.98316 2.27384 3.86036
1.96939 2.28761 3.87166
1.96939 2.28761 3.84907
1.98316 2.27384 3.86036
1.98316 2.27384 3.83778
1.99694 2.26006 3.84907
1.98316 2.27384 3.86036
1.98316 2.27384 3.86036
1.96939 2.28761 3.84907
1.98316 2.27384 3.83778
1.98316 2.27384 3.90557
1.96938 2.28762 3.89426
1.98316 2.27384 3.88296
1.98316 2.27384 3.90557
1.99694 2.26006 3.91688
1.98316 2.27384 3.9282
2.0934 2.1636 3.90549
2.07961 2.17739 3.8942
2.0934 2.1636 3.8829
1.79025 2.46675 4.08645
1.79026 2.46674 4.1075
1.77647 2.48053 4.0998
1.81782 2.43918 4.08645
1.81782 2.43918 4.1075
1.80404 2.45296 4.0998
1.80404 2.45296 4.0998
1.80404 2.45296 4.0762
1.81782 2.43918 4.08645
1.80404 2.45296 4.0998
1.81782 2.43918 4.1075
1.79026 2.46674 4.1075
1.79026 2.46674 4.1075
1.79025 2.46675 4.08645
1.80404 2.45296 4.0998
1.80404 2.45296 4.0998
1.79025 2.46675 4.08645
1.80404 2.45296 4.0762
1.80404 2.45296 4.0762
1.79025 2.46675 4.08645
1.79025 2.46675 4.0642
1.85916 2.39784 4.0998
1.87294 2.38406 4.1075
1.84538 2.41162 4.1075
1.84538 2.41162 4.1075
1.84538 2.41162 4.08645
1.85916 2.39784 4.0998
1.85916 2.39784 4.0998
1.84538 2.41162 4.08645
1.85916 2.39784 4.0762
1.8316 2.4254 4.0998
1.81782 2.43918 4.1075
1.81782 2.43918 4.08645
1.84538 2.41162 4.1075
1.81782 2.43918 4.1075
1.8316 2.4254 4.0998
1.8316 2.4254 4.0998
1.84538 2.41162 4.08645
1.84538 2.41162 4.1075
1.84538 2.41162 4.0642
1.84538 2.41162 4.08645
1.8316 2.4254 4.0762
1.8316 2.4254 4.0762
1.8316 2.4254 4.05317
1.84538 2.41162 4.0642
1.8316 2.4254 4.0762
1.8316 2.4254 4.0998
1.81782 2.43918 4.08645
1.84538 2.41162 4.08645
1.8316 2.4254 4.0998
1.8316 2.4254 4.0762
1.84538 2.41162 4.0416
1.85916 2.39784 4.05317
1.84538 2.41162 4.0642
1.84538 2.41162 4.0416
1.8316 2.4254 4.05317
1.8316 2.4254 4.03034
1.84538 2.41162 4.0642
1.8316 2.4254 4.05317
1.84538 2.41162 4.0416
1.76267 2.49433 3.77012
1.77646 2.48054 3.75885
1.77646 2.48054 3.78139
1.77646 2.48054 3.78139
1.76267 2.49433 3.79266
1.76267 2.49433 3.77012
1.79025 2.46675 3.81522
1.79025 2.46675 3.83778
1.77646 2.48054 3.8265
1.76267 2.49433 3.70254
1.77646 2.48054 3.69128
1.77646 2.48054 3.7138
1.77646 2.48054 3.7138
1.77646 2.48054 3.69128
1.79025 2.46675 3.70254
1.76267 2.49433 3.74759
1.77646 2.48054 3.75885
1.76267 2.49433 3.77012
1.76267 2.49433 3.74759
1.77646 2.48054 3.73632
1.77646 2.48054 3.75885
1.80403 2.45297 3.64624
1.81782 2.43918 3.63498
1.81782 2.43918 3.6575
1.81782 2.43918 3.6575
1.80403 2.45297 3.66876
1.80403 2.45297 3.64624
1.79025 2.46675 3.70254
1.77646 2.48054 3.69128
1.79025 2.46675 3.68002
1.79025 2.46675 3.6575
1.80403 2.45297 3.66876
1.79025 2.46675 3.68002
1.79025 2.46675 3.88296
1.79025 2.46675 3.90557
1.77646 2.48054 3.89426
1.72129 2.53571 3.96218
1.73509 2.52191 3.97352
1.7213 2.5357 3.98487
1.63839 2.61861 4.09976
1.65223 2.60477 4.1075
1.62454 2.63246 4.1075
1.70749 2.54951 3.97352
1.72129 2.53571 3.96218
1.7213 2.5357 3.98487
1.70749 2.54951 3.95085
1.72129 2.53571 3.96218
1.70749 2.54951 3.97352
1.74889 2.50811 4.03034
1.76268 2.49432 4.0416
1.74889 2.50811 4.05317
1.74889 2.50811 4.05317
1.76268 2.49432 4.0416
1.76268 2.49432 4.06419
1.7213 2.5357 4.05316
1.7213 2.5357 4.03033
1.7351 2.5219 4.0416
1.7351 2.5219 4.0416
1.7351 2.5219 4.06419
1.7213 2.5357 4.05316
1.7351 2.5219 4.0416
1.7351 2.5219 4.01891
1.74889 2.50811 4.03034
1.7213 2.5357 4.03033
1.7351 2.5219 4.01891
1.7351 2.5219 4.0416
1.74889 2.50811 4.03034
1.74889 2.50811 4.05317
1.7351 2.5219 4.0416
1.7351 2.5219 4.0416
1.74889 2.50811 4.05317
1.7351 2.5219 4.06419
1.76268 2.49432 4.1075
1.7351 2.5219 4.1075
1.74889 2.50811 4.0998
1.74889 2.50811 4.0998
1.76268 2.49432 4.08645
1.76268 2.49432 4.1075
1.7213 2.5357 4.05316
1.7351 2.5219 4.06419
1.7213 2.5357 4.07619
1.457 2.8 4.1075
1.46971 2.78729 4.09108
1.47379 2.78321 4.1075
1.47379 2.78321 4.1075
1.46971 2.78729 4.09108
1.48501 2.77199 4.08531
1.48501 2.77199 4.08531
1.48882 2.76818 4.1075
1.47379 2.78321 4.1075
2.07978 2.17722 3.21574
2.06614 2.19086 3.2075
2.0934 2.1636 3.2075
2.06582 2.19118 3.25099
2.07962 2.17738 3.23927
2.07959 2.17741 3.26222
2.0934 2.1636 3.31907
2.0934 2.1636 3.34168
2.07959 2.17741 3.33031
2.07959 2.17741 3.26222
2.07962 2.17738 3.23927
2.0934 2.1636 3.25145
2.0934 2.1636 3.25145
2.0934 2.1636 3.27391
2.07959 2.17741 3.26222
2.07959 2.17741 3.26222
2.0934 2.1636 3.27391
2.07958 2.17742 3.28497
2.0934 2.1636 3.4321
2.07961 2.17739 3.4208
2.0934 2.1636 3.40951
2.07961 2.17739 3.3982
2.0934 2.1636 3.38691
2.0934 2.1636 3.40951
2.0934 2.1636 3.40951
2.07961 2.17739 3.4208
2.07961 2.17739 3.3982
2.0934 2.1636 3.3643
2.0796 2.1774 3.35295
2.0934 2.1636 3.34168
1.95562 2.30138 3.2075
1.98319 2.27381 3.2075
1.9694 2.2876 3.21518
1.9694 2.2876 3.21518
1.95562 2.30138 3.22854
1.95562 2.30138 3.2075
1.94183 2.31517 3.37547
1.94183 2.31517 3.39811
1.92805 2.32895 3.38679
[...]
<PointData Scalars="View Factor" >
<DataArray type="Float64" Name="View Factor" NumberOfComponents="1" format="ascii">
0.724893
0.724893
0.724893
0.721684
0.721684
0.721684
0.721172
0.721172
0.721172
0.724876
0.724876
0.724876
0.669147
0.669147
0.669147
0.729174
0.729174
0.729174
0.66916
0.66916
0.66916
0.725447
0.725447
0.725447
0.724308
0.724308
0.724308
0.722354
0.722354
0.722354
0.721202
0.721202
0.721202
0.664345
0.664345
0.664345
0.663589
0.663589
0.663589
0.663776
0.663776
0.663776
0.674551
0.674551
0.674551
0.711128
0.711128
0.711128
0.707292
0.707292
0.707292
0.709902
0.709902
0.709902
0.7243
0.7243
0.7243
0.721636
0.721636
0.721636
0.724298
0.724298
0.724298
0.725954
0.725954
0.725954
0.664352
0.664352
0.664352
0.67712
0.67712
0.67712
0.727788
0.727788
0.727788
0.726933
0.726933
0.726933
0.725971
0.725971
0.725971
0.726935
0.726935
0.726935
0.727374
0.727374
0.727374
0.725972
0.725972
0.725972
0.725447
0.725447
0.725447
0.723692
0.723692
0.723692
0.72236
0.72236
0.72236
0.723691
0.723691
0.723691
0.724308
0.724308
0.724308
0.724307
0.724307
0.724307
0.723691
0.723691
0.723691
0.717499
0.717499
0.717499
0.71927
0.71927
0.71927
0.674564
0.674564
0.674564
0.720891
0.720891
0.720891
0.722361
0.722361
0.722361
0.721644
0.721644
0.721644
0.722355
0.722355
0.722355
0.721638
0.721638
0.721638
0.720096
0.720096
0.720096
0.664302
0.664302
0.664302
0.664304
0.664304
0.664304
0.6643
0.6643
0.6643
0.664456
0.664456
0.664456
0.6643
0.6643
0.6643
0.664425
0.664425
0.664425
0.664346
0.664346
0.664346
0.664299
0.664299
0.664299
0.664346
0.664346
0.664346
0.664424
0.664424
0.664424
0.664299
0.664299
0.664299
0.664524
0.664524
0.664524
0.664525
0.664525
0.664525
0.664495
0.664495
0.664495
0.664521
0.664521
0.664521
0.664301
0.664301
0.664301
0.6643
0.6643
0.6643
0.664347
0.664347
0.664347
0.664347
0.664347
0.664347
0.664425
0.664425
0.664425
0.663775
0.663775
0.663775
0.663486
0.663486
0.663486
0.671898
0.671898
0.671898
0.669147
0.669147
0.669147
0.664019
0.664019
0.664019
0.663863
0.663863
0.663863
0.663776
0.663776
0.663776
0.664022
0.664022
0.664022
0.663863
0.663863
0.663863
0.663862
0.663862
0.663862
0.664021
0.664021
0.664021
0.664298
0.664298
0.664298
0.723674
0.723674
0.723674
0.719257
0.719257
0.719257
0.720086
0.720086
0.720086
0.720874
0.720874
0.720874
0.722345
0.722345
0.722345
0.721628
0.721628
0.721628
0.722345
0.722345
0.722345
0.708623
0.708623
0.708623
0.711128
0.711128
0.711128
0.709901
0.709901
0.709901
0.717485
0.717485
0.717485
0.715547
0.715547
0.715547
0.713432
0.713432
0.713432
0.713432
0.713432
0.713432
0.714513
0.714513
0.714513
0.716537
0.716537
0.716537
0.714513
0.714513
0.714513
0.711128
0.711128
0.711128
0.714513
0.714513
0.714513
0.713432
0.713432
0.713432
0.725438
0.725438
0.725438
0.725962
0.725962
0.725962
0.723681
0.723681
0.723681
0.725439
0.725439
0.725439
0.724301
0.724301
0.724301
0.725962
0.725962
0.725962
0.725438
0.725438
0.725438
0.719269
0.719269
0.719269
0.720096
0.720096
0.720096
0.723684
0.723684
0.723684
0.722354
0.722354
0.722354
0.72368
0.72368
0.72368
0.729466
0.729466
0.729466
0.731316
0.731316
0.731316
0.72998
0.72998
0.72998
0.730205
0.730205
0.730205
0.727358
0.727358
0.727358
0.726917
0.726917
0.726917
0.729463
0.729463
0.729463
0.729172
0.729172
0.729172
0.728521
0.728521
0.728521
0.729173
0.729173
0.729173
0.728159
0.728159
0.728159
0.728521
0.728521
0.728521
0.72777
0.72777
0.72777
0.726917
0.726917
0.726917
0.729463
0.729463
0.729463
0.721659
0.721659
0.721659
0.722492
0.722492
0.722492
0.723044
0.723044
0.723044
0.664394
0.664394
0.664394
0.664432
0.664432
0.664432
0.664306
0.664306
0.664306
0.664353
0.664353
0.664353
0.664307
0.664307
0.664307
0.664353
0.664353
0.664353
0.664305
0.664305
0.664305
0.664305
0.664305
0.664305
0.664351
0.664351
0.664351
0.664306
0.664306
0.664306
0.663694
0.663694
0.663694
0.663498
0.663498
0.663498
0.677125
0.677125
0.677125
0.684257
0.684257
0.684257
0.679591
0.679591
0.679591
0.671915
0.671915
0.671915
0.692608
0.692608
0.692608
0.696333
0.696333
0.696333
0.67191
0.67191
0.67191
0.669159
0.669159
0.669159
0.67191
0.67191
0.67191
0.669162
0.669162
0.669162
0.663494
0.663494
0.663494
0.679586
0.679586
0.679586
0.727373
0.727373
0.727373
0.70297
0.70297
0.70297
0.711143
0.711143
0.711143
0.701408
0.701408
0.701408
0.692607
0.692607
0.692607
0.696332
0.696332
0.696332
0.705916
0.705916
0.705916
0.702968
0.702968
0.702968
0.722358
0.722358
0.722358
0.72369
0.72369
0.72369
0.71655
0.71655
0.71655
0.717498
0.717498
0.717498
0.714523
0.714523
0.714523
0.716549
0.716549
0.716549
0.713442
0.713442
0.713442
0.714524
0.714524
0.714524
0.696332
0.696332
0.696332
0.708638
0.708638
0.708638
0.701409
0.701409
0.701409
0.702972
0.702972
0.702972
0.705919
0.705919
0.705919
0.698092
0.698092
0.698092
0.721644
0.721644
0.721644
0.720102
0.720102
0.720102
0.719274
0.719274
0.719274
0.722361
0.722361
0.722361
0.723685
0.723685
0.723685
0.728533
0.728533
0.728533
0.711137
0.711137
0.711137
0.713443
0.713443
0.713443
0.711137
0.711137
0.711137
0.70991
0.70991
0.70991
0.707301
0.707301
0.707301
0.720097
0.720097
0.720097
0.71927
0.71927
0.71927
0.726929
0.726929
0.726929
0.725966
0.725966
0.725966
0.725442
0.725442
0.725442
0.714521
0.714521
0.714521
0.70991
0.70991
0.70991
0.713441
0.713441
0.713441
0.711137
0.711137
0.711137
0.711137
0.711137
0.711137
0.71344
0.71344
0.71344
0.721638
0.721638
0.721638
0.664499
0.664499
0.664499
0.664025
0.664025
0.664025
0.664225
0.664225
0.664225
0.664097
0.664097
0.664097
0.664499
0.664499
0.664499
0.664477
0.664477
0.664477
0.664524
0.664524
0.664524
0.664524
0.664524
0.664524
0.664528
0.664528
0.664528
0.664528
0.664528
0.664528
0.664517
0.664517
0.664517
0.664302
0.664302
0.664302
0.664303
0.664303
0.664303
0.664427
0.664427
0.664427
0.664349
0.664349
0.664349
0.664349
0.664349
0.664349
0.664302
0.664302
0.664302
0.664348
0.664348
0.664348
0.664427
0.664427
0.664427
0.664429
0.664429
0.664429
0.664351
0.664351
0.664351
0.664303
0.664303
0.664303
0.66435
0.66435
0.66435
0.73142
0.73142
0.73142
0.722517
0.722517
0.722517
0.721629
0.721629
0.721629
0.664515
0.664515
0.664515
0.664455
0.664455
0.664455
0.664501
0.664501
0.664501
0.66452
0.66452
0.66452
0.664345
0.664345
0.664345
0.664298
0.664298
0.664298
0.664514
0.664514
0.664514
0.6645
0.6645
0.6645
0.664423
0.664423
0.664423
0.664514
0.664514
0.664514
0.664455
0.664455
0.664455
0.6645
0.6645
0.6645
0.719266
0.719266
0.719266
0.721635
0.721635
0.721635
0.720094
0.720094
0.720094
0.723684
0.723684
0.723684
0.722352
0.722352
0.722352
0.724301
0.724301
0.724301
0.723685
0.723685
0.723685
0.719268
0.719268
0.719268
0.711136
0.711136
0.711136
0.70991
0.70991
0.70991
0.707299
0.707299
0.707299
0.705912
0.705912
0.705912
0.671909
0.671909
0.671909
0.664477
0.664477
0.664477
0.664415
0.664415
0.664415
0.663591
0.663591
0.663591
0.663779
0.663779
0.663779
0.663864
0.663864
0.663864
0.66349
0.66349
0.66349
0.684251
0.684251
0.684251
0.686458
0.686458
0.686458
0.663864
0.663864
0.663864
0.663777
0.663777
0.663777
0.663777
0.663777
0.663777
0.66359
0.66359
0.66359
0.664023
0.664023
0.664023
0.664022
0.664022
0.664022
0.664022
0.664022
0.664022
0.664094
0.664094
0.664094
0.664094
0.664094
0.664094
0.664222
0.664222
0.664222
0.664373
0.664373
0.664373
0.664474
0.664474
0.664474
0.664413
0.664413
0.664413
0.664501
0.664501
0.664501
0.664515
0.664515
0.664515
0.664525
0.664525
0.664525
0.664025
0.664025
0.664025
0.664097
0.664097
0.664097
0.664225
0.664225
0.664225
0.664097
0.664097
0.664097
0.664281
0.664281
0.664281
0.664026
0.664026
0.664026
0.664457
0.664457
0.664457
0.664426
0.664426
0.664426
0.664348
0.664348
0.664348
0.664457
0.664457
0.664457
0.664457
0.664457
0.664457
0.664426
0.664426
0.664426
0.663861
0.663861
0.663861
0.669148
0.669148
0.669148
0.671898
0.671898
0.671898
0.663587
0.663587
0.663587
0.66386
0.66386
0.66386
0.663485
0.663485
0.663485
0.663682
0.663682
0.663682
0.663861
0.663861
0.663861
0.663774
0.663774
0.663774
0.664091
0.664091
0.664091
0.705908
0.705908
0.705908
0.663589
0.663589
0.663589
0.671908
0.671908
0.671908
0.669158
0.669158
0.669158
0.663489
0.663489
0.663489
0.664093
0.664093
0.664093
0.664021
0.664021
0.664021
0.713437
0.713437
0.713437
0.72543
0.72543
0.72543
0.724291
0.724291
0.724291
0.723676
0.723676
0.723676
0.725954
0.725954
0.725954
0.701395
0.701395
0.701395
0.698079
0.698079
0.698079
0.709902
0.709902
0.709902
0.702958
0.702958
0.702958
0.705905
0.705905
0.705905
0.705904
0.705904
0.705904
0.707291
0.707291
0.707291
0.699769
0.699769
0.699769
0.702958
0.702958
0.702958
0.701395
0.701395
0.701395
0.696321
0.696321
0.696321
0.692597
0.692597
0.692597
0.69632
0.69632
0.69632
0.698078
0.698078
0.698078
0.688577
0.688577
0.688577
0.692596
0.692596
0.692596
0.690625
0.690625
0.690625
0.679576
0.679576
0.679576
0.677109
0.677109
0.677109
0.684244
0.684244
0.684244
0.686451
0.686451
0.686451
0.723682
0.723682
0.723682
0.724299
0.724299
0.724299
0.725437
0.725437
0.725437
0.724297
0.724297
0.724297
0.722352
0.722352
0.722352
0.719265
0.719265
0.719265
0.722352
0.722352
0.722352
0.720092
0.720092
0.720092
0.721635
0.721635
0.721635
0.725963
0.725963
0.725963
0.725962
0.725962
0.725962
0.725439
0.725439
0.725439
0.717495
0.717495
0.717495
0.71344
0.71344
0.71344
0.716547
0.716547
0.716547
0.714521
0.714521
0.714521
0.724297
0.724297
0.724297
0.716539
0.716539
0.716539
0.714514
0.714514
0.714514
0.709902
0.709902
0.709902
0.713433
0.713433
0.713433
0.711129
0.711129
0.711129
0.71654
0.71654
0.71654
0.725957
0.725957
0.725957
0.725432
0.725432
0.725432
0.726918
0.726918
0.726918
0.725956
0.725956
0.725956
0.726919
0.726919
0.726919
0.728523
0.728523
0.728523
0.72816
0.72816
0.72816
0.72736
0.72736
0.72736
0.717489
0.717489
0.717489
0.725432
0.725432
0.725432
0.725957
0.725957
0.725957
0.725433
0.725433
0.725433
0.724296
0.724296
0.724296
0.720091
0.720091
0.720091
0.721634
0.721634
0.721634
0.72368
0.72368
0.72368
0.721632
0.721632
0.721632
0.72235
0.72235
0.72235
0.721633
0.721633
0.721633
0.729465
0.729465
0.729465
0.729465
0.729465
0.729465
0.729174
0.729174
0.729174
0.729979
0.729979
0.729979
0.728158
0.728158
0.728158
0.727357
0.727357
0.727357
0.726917
0.726917
0.726917
0.727356
0.727356
0.727356
0.72973
0.72973
0.72973
0.729695
0.729695
0.729695
0.729261
0.729261
0.729261
0.728268
0.728268
0.728268
0.727714
0.727714
0.727714
0.728786
0.728786
0.728786
0.726473
0.726473
0.726473
0.726819
0.726819
0.726819
0.727118
0.727118
0.727118
0.723774
0.723774
0.723774
0.724515
0.724515
0.724515
0.722422
0.722422
0.722422
0.722878
0.722878
0.722878
0.664463
0.664463
0.664463
0.664462
0.664462
0.664462
0.664431
0.664431
0.664431
0.664306
0.664306
0.664306
0.664307
0.664307
0.664307
0.664307
0.664307
0.664307
0.664353
0.664353
0.664353
0.664463
0.664463
0.664463
0.664431
0.664431
0.664431
0.66452
0.66452
0.66452
0.66453
0.66453
0.66453
0.664351
0.664351
0.664351
0.664304
0.664304
0.664304
0.664351
0.664351
0.664351
0.664352
0.664352
0.664352
0.664352
0.664352
0.664352
0.664305
0.664305
0.664305
0.663598
0.663598
0.663598
0.663598
0.663598
0.663598
0.663498
0.663498
0.663498
0.664169
0.664169
0.664169
0.664286
0.664286
0.664286
0.66423
0.66423
0.66423
0.686464
0.686464
0.686464
0.70297
0.70297
0.70297
0.701407
0.701407
0.701407
0.69809
0.69809
0.69809
0.696332
0.696332
0.696332
0.69809
0.69809
0.69809
0.701407
0.701407
0.701407
0.696333
0.696333
0.696333
0.702971
0.702971
0.702971
0.69809
0.69809
0.69809
0.701407
0.701407
0.701407
0.692609
0.692609
0.692609
0.690638
0.690638
0.690638
0.692609
0.692609
0.692609
0.684257
0.684257
0.684257
0.686464
0.686464
0.686464
0.690638
0.690638
0.690638
0.690637
0.690637
0.690637
0.686464
0.686464
0.686464
0.702971
0.702971
0.702971
0.705918
0.705918
0.705918
0.705918
0.705918
0.705918
0.707304
0.707304
0.707304
0.669165
0.669165
0.669165
0.663784
0.663784
0.663784
0.671912
0.671912
0.671912
0.663597
0.663597
0.663597
0.663598
0.663598
0.663598
0.663497
0.663497
0.663497
0.663497
0.663497
0.663497
0.669161
0.669161
0.669161
0.669159
0.669159
0.669159
0.671911
0.671911
0.671911
0.679589
0.679589
0.679589
0.677122
0.677122
0.677122
0.684254
0.684254
0.684254
0.686461
0.686461
0.686461
0.690635
0.690635
0.690635
0.686461
0.686461
0.686461
0.671911
0.671911
0.671911
0.669161
0.669161
0.669161
0.684253
0.684253
0.684253
0.677119
0.677119
0.677119
0.663867
0.663867
0.663867
0.690634
0.690634
0.690634
0.692605
0.692605
0.692605
0.67712
0.67712
0.67712
0.679586
0.679586
0.679586
0.679586
0.679586
0.679586
0.684254
0.684254
0.684254
0.726933
0.726933
0.726933
0.725447
0.725447
0.725447
0.725971
0.725971
0.725971
0.725971
0.725971
0.725971
0.728537
0.728537
0.728537
0.728174
0.728174
0.728174
0.719273
0.719273
0.719273
0.711139
0.711139
0.711139
0.705917
0.705917
0.705917
0.705916
0.705916
0.705916
0.707303
0.707303
0.707303
0.709912
0.709912
0.709912
0.707303
0.707303
0.707303
0.723691
0.723691
0.723691
0.724307
0.724307
0.724307
0.725446
0.725446
0.725446
0.715563
0.715563
0.715563
0.713447
0.713447
0.713447
0.702971
0.702971
0.702971
0.711141
0.711141
0.711141
0.711141
0.711141
0.711141
0.71114
0.71114
0.71114
0.709914
0.709914
0.709914
0.692607
0.692607
0.692607
0.690636
0.690636
0.690636
0.686462
0.686462
0.686462
0.671912
0.671912
0.671912
0.677122
0.677122
0.677122
0.72737
0.72737
0.72737
0.723689
0.723689
0.723689
0.724306
0.724306
0.724306
0.717499
0.717499
0.717499
0.713444
0.713444
0.713444
0.719271
0.719271
0.719271
0.722358
0.722358
0.722358
0.720098
0.720098
0.720098
0.721641
0.721641
0.721641
0.713444
0.713444
0.713444
0.714525
0.714525
0.714525
0.716551
0.716551
0.716551
0.717499
0.717499
0.717499
0.716551
0.716551
0.716551
0.714525
0.714525
0.714525
0.71927
0.71927
0.71927
0.720098
0.720098
0.720098
0.721641
0.721641
0.721641
0.69809
0.69809
0.69809
0.696331
0.696331
0.696331
0.701405
0.701405
0.701405
0.698089
0.698089
0.698089
0.709912
0.709912
0.709912
0.711138
0.711138
0.711138
0.707303
0.707303
0.707303
0.709911
0.709911
0.709911
0.699783
0.699783
0.699783
0.709916
0.709916
0.709916
0.707306
0.707306
0.707306
0.709916
0.709916
0.709916
0.711142
0.711142
0.711142
0.702972
0.702972
0.702972
0.701409
0.701409
0.701409
0.702973
0.702973
0.702973
0.705919
0.705919
0.705919
0.705919
0.705919
0.705919
0.707306
0.707306
0.707306
0.725965
0.725965
0.725965
0.726926
0.726926
0.726926
0.727366
0.727366
0.727366
0.729184
0.729184
0.729184
0.717498
0.717498
0.717498
0.71655
0.71655
0.71655
0.717497
0.717497
0.717497
0.705914
0.705914
0.705914
0.707301
0.707301
0.707301
0.702968
0.702968
0.702968
0.705914
0.705914
0.705914
0.705914
0.705914
0.705914
0.7073
0.7073
0.7073
0.71927
0.71927
0.71927
0.720096
0.720096
0.720096
0.717496
0.717496
0.717496
0.713442
0.713442
0.713442
0.714523
0.714523
0.714523
0.716548
0.716548
0.716548
0.720098
0.720098
0.720098
0.721638
0.721638
0.721638
0.722356
0.722356
0.722356
0.71927
0.71927
0.71927
0.728171
0.728171
0.728171
0.727369
0.727369
0.727369
0.724303
0.724303
0.724303
0.721638
0.721638
0.721638
0.722356
0.722356
0.722356
0.723688
0.723688
0.723688
0.716549
0.716549
0.716549
0.717497
0.717497
0.717497
0.719268
0.719268
0.719268
0.720095
0.720095
0.720095
0.717496
0.717496
0.717496
0.719268
0.719268
0.719268
0.724303
0.724303
0.724303
0.721638
0.721638
0.721638
0.722355
0.722355
0.722355
0.723687
0.723687
0.723687
0.724304
0.724304
0.724304
0.722355
0.722355
0.722355
0.723688
0.723688
0.723688
0.727372
0.727372
0.727372
0.72693
0.72693
0.72693
0.725967
0.725967
0.725967
0.725443
0.725443
0.725443
0.719271
0.719271
0.719271
0.720099
0.720099
0.720099
0.721642
0.721642
0.721642
0.722359
0.722359
0.722359
0.721641
0.721641
0.721641
0.720099
0.720099
0.720099
0.664416
0.664416
0.664416
0.664477
0.664477
0.664477
0.664499
0.664499
0.664499
0.664377
0.664377
0.664377
0.664416
0.664416
0.664416
0.664478
0.664478
0.664478
0.664459
0.664459
0.664459
0.664427
0.664427
0.664427
0.664518
0.664518
0.664518
0.664503
0.664503
0.664503
0.664458
0.664458
0.664458
0.664458
0.664458
0.664458
0.664504
0.664504
0.664504
0.664304
0.664304
0.664304
0.66435
0.66435
0.66435
0.664304
0.664304
0.664304
0.664519
0.664519
0.664519
0.664428
0.664428
0.664428
0.664428
0.664428
0.664428
0.664459
0.664459
0.664459
0.664505
0.664505
0.664505
0.664519
0.664519
0.664519
0.66446
0.66446
0.66446
0.664505
0.664505
0.664505
0.72369
0.72369
0.72369
0.727161
0.727161
0.727161
0.72686
0.72686
0.72686
0.731316
0.731316
0.731316
0.731151
0.731151
0.731151
0.731373
0.731373
0.731373
0.731436
0.731436
0.731436
0.731373
0.731373
0.731373
0.731317
0.731317
0.731317
0.730769
0.730769
0.730769
0.731315
0.731315
0.731315
0.731151
0.731151
0.731151
0.731043
0.731043
0.731043
0.73077
0.73077
0.73077
0.730606
0.730606
0.730606
0.730218
0.730218
0.730218
0.72122
0.72122
0.72122
0.721224
0.721224
0.721224
0.721611
0.721611
0.721611
0.721658
0.721658
0.721658
0.722504
0.722504
0.722504
0.722446
0.722446
0.722446
0.722902
0.722902
0.722902
0.731045
0.731045
0.731045
0.731445
0.731445
0.731445
0.664423
0.664423
0.664423
0.664454
0.664454
0.664454
0.6645
0.6645
0.6645
0.664513
0.664513
0.664513
0.664455
0.664455
0.664455
0.664299
0.664299
0.664299
0.664345
0.664345
0.664345
0.664424
0.664424
0.664424
0.664346
0.664346
0.664346
0.664424
0.664424
0.664424
0.716546
0.716546
0.716546
0.717495
0.717495
0.717495
0.719267
0.719267
0.719267
0.717493
0.717493
0.717493
0.720094
0.720094
0.720094
0.719266
0.719266
0.719266
0.720092
0.720092
0.720092
0.721634
0.721634
0.721634
0.7243
0.7243
0.7243
0.723684
0.723684
0.723684
0.722352
0.722352
0.722352
0.721634
0.721634
0.721634
0.723683
0.723683
0.723683
0.722351
0.722351
0.722351
0.717495
0.717495
0.717495
0.71452
0.71452
0.71452
0.716547
0.716547
0.716547
0.713439
0.713439
0.713439
0.719267
0.719267
0.719267
0.722354
0.722354
0.722354
0.721637
0.721637
0.721637
0.720095
0.720095
0.720095
0.717495
0.717495
0.717495
0.716547
0.716547
0.716547
0.71452
0.71452
0.71452
0.716547
0.716547
0.716547
0.71452
0.71452
0.71452
0.709908
0.709908
0.709908
0.707299
0.707299
0.707299
0.705912
0.705912
0.705912
0.669158
0.669158
0.669158
0.663491
0.663491
0.663491
0.669158
0.669158
0.669158
0.66349
0.66349
0.66349
0.66359
0.66359
0.66359
0.663777
0.663777
0.663777
0.663864
0.663864
0.663864
0.702966
0.702966
0.702966
0.696329
0.696329
0.696329
0.698087
0.698087
0.698087
0.701403
0.701403
0.701403
0.692604
0.692604
0.692604
0.677118
0.677118
0.677118
0.679584
0.679584
0.679584
0.684252
0.684252
0.684252
0.679584
0.679584
0.679584
0.664281
0.664281
0.664281
0.664376
0.664376
0.664376
0.664415
0.664415
0.664415
0.664376
0.664376
0.664376
0.664524
0.664524
0.664524
0.664498
0.664498
0.664498
0.664527
0.664527
0.664527
0.664476
0.664476
0.664476
0.664524
0.664524
0.664524
0.664498
0.664498
0.664498
0.66428
0.66428
0.66428
0.664225
0.664225
0.664225
0.663779
0.663779
0.663779
0.663865
0.663865
0.663865
0.664024
0.664024
0.664024
0.663865
0.663865
0.663865
0.664094
0.664094
0.664094
0.664023
0.664023
0.664023
0.664095
0.664095
0.664095
0.664223
0.664223
0.664223
0.664374
0.664374
0.664374
0.664278
0.664278
0.664278
0.664223
0.664223
0.664223
0.664413
0.664413
0.664413
0.664374
0.664374
0.664374
0.664279
0.664279
0.664279
0.664277
0.664277
0.664277
0.664022
0.664022
0.664022
0.664094
0.664094
0.664094
0.664221
0.664221
0.664221
0.664093
0.664093
0.664093
0.664221
0.664221
0.664221
0.664473
0.664473
0.664473
0.664412
0.664412
0.664412
0.664515
0.664515
0.664515
0.664526
0.664526
0.664526
0.664425
0.664425
0.664425
0.664516
0.664516
0.664516
0.664456
0.664456
0.664456
0.664502
0.664502
0.664502
0.664456
0.664456
0.664456
0.664501
0.664501
0.664501
0.664416
0.664416
0.664416
0.664225
0.664225
0.664225
0.664376
0.664376
0.664376
0.664281
0.664281
0.664281
0.664377
0.664377
0.664377
0.664281
0.664281
0.664281
0.664377
0.664377
0.664377
0.664226
0.664226
0.664226
0.664098
0.664098
0.664098
0.664282
0.664282
0.664282
0.664226
0.664226
0.664226
0.663867
0.663867
0.663867
0.66378
0.66378
0.66378
0.663593
0.663593
0.663593
0.663493
0.663493
0.663493
0.663493
0.663493
0.663493
0.663593
0.663593
0.663593
0.663781
0.663781
0.663781