<VTKFile type="UnstructuredGrid" version="1.0">
<UnstructuredGrid>
<Piece NumberOfPoints="11046" NumberOfCells="3682">
<Points>
<DataArray type="Float64" NumberOfComponents="3" format="ascii">
0.0582363 3.01 2.18176
0.05 3.01 2.1625
0.0717021 3.01 2.1625
0.95 3.01 2.59121
0.95 3.01 2.6302
0.942301 3.01 2.6107
0.0962623 3.01 3.0625
0.086422 3.01 3.04216
0.107711 3.01 3.04233
0.466226 3.01 2.80611
0.454968 3.01 2.82572
0.443707 3.01 2.80611
0.353567 3.01 2.72781
0.364839 3.01 2.70828
0.376113 3.01 2.72782
0.376113 3.01 2.72782
0.364843 3.01 2.74736
0.353567 3.01 2.72781
0.353567 3.01 2.72781
0.364843 3.01 2.74736
0.342292 3.01 2.74736
0.37611 3.01 2.68875
0.364837 3.01 2.66923
0.387379 3.01 2.66923
0.376113 3.01 2.72782
0.364839 3.01 2.70828
0.387381 3.01 2.70828
0.364839 3.01 2.70828
0.37611 3.01 2.68875
0.387381 3.01 2.70828
0.066417 3.01 3.04452
0.05 3.01 3.0625
0.05 3.01 3.03875
0.0582363 3.01 2.18176
0.0717021 3.01 2.1625
0.0817675 3.01 2.18198
0.0817675 3.01 2.18198
0.0711754 3.01 2.20139
0.0582363 3.01 2.18176
0.11641 3.01 2.1625
0.138968 3.01 2.1625
0.127475 3.01 2.18203
0.127475 3.01 2.18203
0.104722 3.01 2.18203
0.11641 3.01 2.1625
0.0711754 3.01 2.20139
0.0817675 3.01 2.18198
0.0934889 3.01 2.2015
0.0934889 3.01 2.2015
0.0817675 3.01 2.18198
0.104722 3.01 2.18203
0.116091 3.01 2.20153
0.104722 3.01 2.18203
0.127475 3.01 2.18203
0.116091 3.01 2.20153
0.0934889 3.01 2.2015
0.104722 3.01 2.18203
0.116091 3.01 2.20153
0.127244 3.01 2.22101
0.104394 3.01 2.22098
0.104394 3.01 2.22098
0.0934889 3.01 2.2015
0.116091 3.01 2.20153
0.941764 3.01 2.18176
0.928298 3.01 2.1625
0.95 3.01 2.1625
0.387379 3.01 2.66923
0.364837 3.01 2.66923
0.376108 3.01 2.64972
0.161282 3.01 2.59121
0.138583 3.01 2.59121
0.149908 3.01 2.57172
0.0933091 3.01 2.66921
0.0813038 3.01 2.6497
0.104333 3.01 2.6497
0.104333 3.01 2.6497
0.0813038 3.01 2.6497
0.0933065 3.01 2.6302
0.331016 3.01 2.76692
0.319739 3.01 2.78649
0.308447 3.01 2.76691
0.308447 3.01 2.76691
0.319729 3.01 2.74736
0.331016 3.01 2.76692
0.331016 3.01 2.76692
0.319729 3.01 2.74736
0.342292 3.01 2.74736
0.138613 3.01 2.78641
0.12718 3.01 2.76685
0.149933 3.01 2.76686
0.138613 3.01 2.78641
0.149933 3.01 2.76686
0.161316 3.01 2.78642
0.161316 3.01 2.78642
0.149933 3.01 2.76686
0.172648 3.01 2.76686
0.206681 3.01 2.78644
0.195336 3.01 2.76687
0.217999 3.01 2.76688
0.263262 3.01 2.7669
0.285863 3.01 2.76691
0.274572 3.01 2.78647
0.274559 3.01 2.74735
0.285863 3.01 2.76691
0.263262 3.01 2.7669
0.240697 3.01 2.182
0.229409 3.01 2.1625
0.252012 3.01 2.1625
0.138758 3.01 2.20153
0.116091 3.01 2.20153
0.127475 3.01 2.18203
0.127244 3.01 2.22101
0.116091 3.01 2.20153
0.138758 3.01 2.20153
0.229332 3.01 2.24047
0.206685 3.01 2.24048
0.218031 3.01 2.22099
0.184016 3.01 2.24049
0.161325 3.01 2.24049
0.172705 3.01 2.22101
0.184093 3.01 2.20151
0.172705 3.01 2.22101
0.161431 3.01 2.20153
0.218082 3.01 2.182
0.229409 3.01 2.1625
0.240697 3.01 2.182
0.218082 3.01 2.182
0.206798 3.01 2.1625
0.229409 3.01 2.1625
0.138617 3.01 2.24049
0.161325 3.01 2.24049
0.149916 3.01 2.25996
0.376107 3.01 2.57172
0.353559 3.01 2.57172
0.364834 3.01 2.55223
0.942264 3.01 2.80597
0.95 3.01 2.7864
0.95 3.01 2.82556
0.466226 3.01 2.80611
0.443707 3.01 2.80611
0.454966 3.01 2.78651
0.466223 3.01 2.72782
0.477482 3.01 2.70828
0.488741 3.01 2.72782
0.466223 3.01 2.72782
0.454964 3.01 2.74737
0.443703 3.01 2.72782
0.511259 3.01 2.72782
0.522518 3.01 2.70828
0.533777 3.01 2.72782
0.533777 3.01 2.72782
0.522517 3.01 2.74737
0.511259 3.01 2.72782
0.488741 3.01 2.72782
0.477482 3.01 2.70828
0.5 3.01 2.70828
0.511259 3.01 2.72782
0.488741 3.01 2.72782
0.5 3.01 2.70828
0.5 3.01 2.70828
0.522518 3.01 2.70828
0.511259 3.01 2.72782
0.387388 3.01 2.78651
0.398653 3.01 2.76693
0.40992 3.01 2.78651
0.376117 3.01 2.76693
0.398653 3.01 2.76693
0.387388 3.01 2.78651
0.443703 3.01 2.72782
0.454964 3.01 2.74737
0.432443 3.01 2.74737
0.432443 3.01 2.74737
0.454964 3.01 2.74737
0.443705 3.01 2.76693
0.274559 3.01 2.74735
0.26325 3.01 2.7278
0.285853 3.01 2.7278
0.387384 3.01 2.74737
0.398653 3.01 2.76693
0.376117 3.01 2.76693
0.376117 3.01 2.76693
0.364843 3.01 2.74736
0.387384 3.01 2.74737
0.387384 3.01 2.74737
0.364843 3.01 2.74736
0.376113 3.01 2.72782
0.342292 3.01 2.74736
0.319729 3.01 2.74736
0.331009 3.01 2.72781
0.331009 3.01 2.72781
0.353567 3.01 2.72781
0.342292 3.01 2.74736
0.545011 3.01 3.0625
0.522505 3.01 3.0625
0.533759 3.01 3.0427
0.533762 3.01 3.00311
0.545018 3.01 2.98333
0.55627 3.01 3.00311
0.55627 3.01 3.00311
0.545018 3.01 2.98333
0.567528 3.01 2.98332
0.567528 3.01 2.98332
0.578788 3.01 2.96356
0.59004 3.01 2.98332
0.466232 3.01 2.92408
0.454974 3.01 2.90436
0.477488 3.01 2.90437
0.567516 3.01 3.0625
0.578772 3.01 3.0427
0.590022 3.01 3.0625
0.601316 3.01 2.92407
0.61257 3.01 2.9438
0.590051 3.01 2.9438
0.62384 3.01 2.92406
0.61257 3.01 2.9438
0.601316 3.01 2.92407
0.680198 3.01 2.90431
0.691494 3.01 2.88462
0.702757 3.01 2.90429
0.086422 3.01 3.04216
0.0962623 3.01 3.0625
0.073896 3.01 3.0625
0.073896 3.01 3.0625
0.066417 3.01 3.04452
0.086422 3.01 3.04216
0.05 3.01 3.0625
0.066417 3.01 3.04452
0.073896 3.01 3.0625
0.0721919 3.01 3.02289
0.066417 3.01 3.04452
0.05 3.01 3.03875
0.086422 3.01 3.04216
0.066417 3.01 3.04452
0.0721919 3.01 3.02289
0.118481 3.01 3.0625
0.0962623 3.01 3.0625
0.107711 3.01 3.04233
0.5 3.01 3.0625
0.477495 3.01 3.0625
0.488747 3.01 3.0427
0.432484 3.01 3.0625
0.409978 3.01 3.0625
0.421228 3.01 3.0427
0.443725 3.01 2.96356
0.421212 3.01 2.96356
0.432465 3.01 2.94381
0.319802 3.01 2.90431
0.331063 3.01 2.88463
0.342348 3.01 2.90433
0.353629 3.01 2.92405
0.342348 3.01 2.90433
0.364886 3.01 2.90434
0.10433 3.01 2.6107
0.0933065 3.01 2.6302
0.0813011 3.01 2.6107
0.0939466 3.01 2.1625
0.11641 3.01 2.1625
0.104722 3.01 2.18203
0.0939466 3.01 2.1625
0.0817675 3.01 2.18198
0.0717021 3.01 2.1625
0.104722 3.01 2.18203
0.0817675 3.01 2.18198
0.0939466 3.01 2.1625
0.0933065 3.01 2.6302
0.0813038 3.01 2.6497
0.0710513 3.01 2.6302
0.0710513 3.01 2.6302
0.0813011 3.01 2.6107
0.0933065 3.01 2.6302
0.115908 3.01 2.70824
0.0933131 3.01 2.70824
0.104337 3.01 2.68872
0.104337 3.01 2.68872
0.127165 3.01 2.68872
0.115908 3.01 2.70824
0.104343 3.01 2.72776
0.0933131 3.01 2.70824
0.115908 3.01 2.70824
0.104343 3.01 2.72776
0.115915 3.01 2.7473
0.0933188 3.01 2.7473
0.942303 3.01 2.57171
0.95 3.01 2.55222
0.95 3.01 2.59121
0.92895 3.01 2.55222
0.95 3.01 2.55222
0.942303 3.01 2.57171
0.9187 3.01 2.57171
0.906695 3.01 2.59121
0.895671 3.01 2.57171
0.92895 3.01 2.55222
0.942303 3.01 2.57171
0.9187 3.01 2.57171
0.942316 3.01 2.33785
0.928965 3.01 2.31835
0.95 3.01 2.31836
0.95 3.01 2.39632
0.942309 3.01 2.37683
0.95 3.01 2.35734
0.942316 3.01 2.33785
0.95 3.01 2.31836
0.95 3.01 2.35734
0.95 3.01 2.20105
0.941764 3.01 2.18176
0.95 3.01 2.1625
0.95 3.01 2.20105
0.95 3.01 2.24025
0.942358 3.01 2.22071
0.612617 3.01 2.24045
0.635157 3.01 2.24045
0.623887 3.01 2.25993
0.895671 3.01 2.57171
0.884102 3.01 2.55222
0.906696 3.01 2.55222
0.906696 3.01 2.55222
0.9187 3.01 2.57171
0.895671 3.01 2.57171
0.92895 3.01 2.55222
0.9187 3.01 2.57171
0.906696 3.01 2.55222
0.353563 3.01 2.68875
0.37611 3.01 2.68875
0.364839 3.01 2.70828
0.364837 3.01 2.66923
0.37611 3.01 2.68875
0.353563 3.01 2.68875
0.297145 3.01 2.70827
0.319723 3.01 2.70827
0.308439 3.01 2.72781
0.308439 3.01 2.72781
0.285853 3.01 2.7278
0.297145 3.01 2.70827
0.308439 3.01 2.72781
0.331009 3.01 2.72781
0.319729 3.01 2.74736
0.319723 3.01 2.70827
0.331009 3.01 2.72781
0.308439 3.01 2.72781
0.17262 3.01 2.57172
0.161282 3.01 2.59121
0.149908 3.01 2.57172
0.138583 3.01 2.59121
0.161282 3.01 2.59121
0.149909 3.01 2.6107
0.149909 3.01 2.6107
0.127158 3.01 2.6107
0.138583 3.01 2.59121
0.149909 3.01 2.6107
0.172622 3.01 2.61071
0.161284 3.01 2.6302
0.161282 3.01 2.59121
0.172622 3.01 2.61071
0.149909 3.01 2.6107
0.240621 3.01 2.68874
0.217979 3.01 2.68873
0.229301 3.01 2.66922
0.229301 3.01 2.66922
0.217979 3.01 2.68873
0.206649 3.01 2.66922
0.195316 3.01 2.68873
0.206649 3.01 2.66922
0.217979 3.01 2.68873
0.115908 3.01 2.70824
0.127165 3.01 2.68872
0.138594 3.01 2.70824
0.0933091 3.01 2.66921
0.104333 3.01 2.6497
0.115904 3.01 2.66921
0.115904 3.01 2.66921
0.104333 3.01 2.6497
0.127161 3.01 2.6497
0.115904 3.01 2.66921
0.104337 3.01 2.68872
0.0933091 3.01 2.66921
0.127165 3.01 2.68872
0.104337 3.01 2.68872
0.115904 3.01 2.66921
0.115901 3.01 2.6302
0.104333 3.01 2.6497
0.0933065 3.01 2.6302
0.127161 3.01 2.6497
0.104333 3.01 2.6497
0.115901 3.01 2.6302
0.115901 3.01 2.6302
0.0933065 3.01 2.6302
0.10433 3.01 2.6107
0.10433 3.01 2.6107
0.127158 3.01 2.6107
0.115901 3.01 2.6302
0.183972 3.01 2.59121
0.17262 3.01 2.57172
0.195307 3.01 2.57172
0.161282 3.01 2.59121
0.17262 3.01 2.57172
0.183972 3.01 2.59121
0.183972 3.01 2.59121
0.172622 3.01 2.61071
0.161282 3.01 2.59121
0.263244 3.01 2.68874
0.240621 3.01 2.68874
0.251933 3.01 2.66922
0.229301 3.01 2.66922
0.240617 3.01 2.64971
0.251933 3.01 2.66922
0.251933 3.01 2.66922
0.240621 3.01 2.68874
0.229301 3.01 2.66922
0.274543 3.01 2.63021
0.263237 3.01 2.61071
0.285842 3.01 2.61071
0.285842 3.01 2.61071
0.263237 3.01 2.61071
0.274541 3.01 2.59121
0.319739 3.01 2.78649
0.331016 3.01 2.76692
0.3423 3.01 2.7865
0.297163 3.01 2.78648
0.285878 3.01 2.80606
0.274572 3.01 2.78647
0.308447 3.01 2.76691
0.319739 3.01 2.78649
0.297163 3.01 2.78648
0.297163 3.01 2.78648
0.285863 3.01 2.76691
0.308447 3.01 2.76691
0.274572 3.01 2.78647
0.285863 3.01 2.76691
0.297163 3.01 2.78648
0.183992 3.01 2.74732
0.195336 3.01 2.76687
0.172648 3.01 2.76686
0.183992 3.01 2.74732
0.172636 3.01 2.72778
0.195323 3.01 2.72778
0.184008 3.01 2.78643
0.161316 3.01 2.78642
0.172648 3.01 2.76686
0.172648 3.01 2.76686
0.195336 3.01 2.76687
0.184008 3.01 2.78643
0.184008 3.01 2.78643
0.206681 3.01 2.78644
0.195356 3.01 2.80601
0.195336 3.01 2.76687
0.206681 3.01 2.78644
0.184008 3.01 2.78643
0.308434 3.01 2.68875
0.319723 3.01 2.70827
0.297145 3.01 2.70827
0.297145 3.01 2.70827
0.285847 3.01 2.68874
0.308434 3.01 2.68875
0.308434 3.01 2.68875
[...]
<PointData Scalars="View Factor" >
<DataArray type="Float64" Name="View Factor" NumberOfComponents="1" format="ascii">
0.857105
0.857105
0.857105
0.789632
0.789632
0.789632
0.856713
0.856713
0.856713
0.843364
0.843364
0.843364
0.848461
0.848461
0.848461
0.848461
0.848461
0.848461
0.849012
0.849012
0.849012
0.847893
0.847893
0.847893
0.847892
0.847892
0.847892
0.847892
0.847892
0.847892
0.857124
0.857124
0.857124
0.857015
0.857015
0.857015
0.857016
0.857016
0.857016
0.856275
0.856275
0.856275
0.856458
0.856458
0.856458
0.856899
0.856899
0.856899
0.856771
0.856771
0.856771
0.856459
0.856459
0.856459
0.856623
0.856623
0.856623
0.856461
0.856461
0.856461
0.856624
0.856624
0.856624
0.790836
0.790836
0.790836
0.847893
0.847893
0.847893
0.855863
0.855863
0.855863
0.856768
0.856768
0.856768
0.856768
0.856768
0.856768
0.850554
0.850554
0.850554
0.850554
0.850554
0.850554
0.850058
0.850058
0.850058
0.856075
0.856075
0.856075
0.855859
0.855859
0.855859
0.855628
0.855628
0.855628
0.854527
0.854527
0.854527
0.852356
0.852356
0.852356
0.852356
0.852356
0.852356
0.853527
0.853527
0.853527
0.856278
0.856278
0.856278
0.856279
0.856279
0.856279
0.854217
0.854217
0.854217
0.855386
0.855386
0.855386
0.855385
0.855385
0.855385
0.85388
0.85388
0.85388
0.854215
0.854215
0.854215
0.855868
0.855868
0.855868
0.848464
0.848464
0.848464
0.78963
0.78963
0.78963
0.843364
0.843364
0.843364
0.841894
0.841894
0.841894
0.843365
0.843365
0.843365
0.838705
0.838705
0.838705
0.838705
0.838705
0.838705
0.841128
0.841128
0.841128
0.840341
0.840341
0.840341
0.839534
0.839534
0.839534
0.846694
0.846694
0.846694
0.847302
0.847302
0.847302
0.84407
0.84407
0.84407
0.84407
0.84407
0.84407
0.852357
0.852357
0.852357
0.847302
0.847302
0.847302
0.847891
0.847891
0.847891
0.847891
0.847891
0.847891
0.850059
0.850059
0.850059
0.849545
0.849545
0.849545
0.83785
0.83785
0.83785
0.83698
0.83698
0.83698
0.836088
0.836088
0.836088
0.834236
0.834236
0.834236
0.842636
0.842636
0.842636
0.834236
0.834236
0.834236
0.832294
0.832294
0.832294
0.831289
0.831289
0.831289
0.823584
0.823584
0.823584
0.856848
0.856848
0.856848
0.856952
0.856952
0.856952
0.857062
0.857062
0.857062
0.857067
0.857067
0.857067
0.856958
0.856958
0.856958
0.856571
0.856571
0.856571
0.841122
0.841122
0.841122
0.845413
0.845413
0.845413
0.84475
0.84475
0.84475
0.850053
0.850053
0.850053
0.849006
0.849006
0.849006
0.856769
0.856769
0.856769
0.856619
0.856619
0.856619
0.856896
0.856896
0.856896
0.856769
0.856769
0.856769
0.856895
0.856895
0.856895
0.856895
0.856895
0.856895
0.856618
0.856618
0.856618
0.856456
0.856456
0.856456
0.856618
0.856618
0.856618
0.856617
0.856617
0.856617
0.789632
0.789632
0.789632
0.790767
0.790767
0.790767
0.795997
0.795997
0.795997
0.79243
0.79243
0.79243
0.790769
0.790769
0.790769
0.789635
0.789635
0.789635
0.789635
0.789635
0.789635
0.789667
0.789667
0.789667
0.789634
0.789634
0.789634
0.830267
0.830267
0.830267
0.79774
0.79774
0.79774
0.795997
0.795997
0.795997
0.79429
0.79429
0.79429
0.848462
0.848462
0.848462
0.848462
0.848462
0.848462
0.851033
0.851033
0.851033
0.851492
0.851492
0.851492
0.850555
0.850555
0.850555
0.850555
0.850555
0.850555
0.855631
0.855631
0.855631
0.855863
0.855863
0.855863
0.856078
0.856078
0.856078
0.855631
0.855631
0.855631
0.855631
0.855631
0.855631
0.853876
0.853876
0.853876
0.854211
0.854211
0.854211
0.854529
0.854529
0.854529
0.856274
0.856274
0.856274
0.856619
0.856619
0.856619
0.856456
0.856456
0.856456
0.856619
0.856619
0.856619
0.856456
0.856456
0.856456
0.856619
0.856619
0.856619
0.856457
0.856457
0.856457
0.85662
0.85662
0.85662
0.856457
0.856457
0.856457
0.855116
0.855116
0.855116
0.855382
0.855382
0.855382
0.855382
0.855382
0.855382
0.853152
0.853152
0.853152
0.853523
0.853523
0.853523
0.853523
0.853523
0.853523
0.852359
0.852359
0.852359
0.852359
0.852359
0.852359
0.850058
0.850058
0.850058
0.851931
0.851931
0.851931
0.851031
0.851031
0.851031
0.851491
0.851491
0.851491
0.851932
0.851932
0.851932
0.855112
0.855112
0.855112
0.855113
0.855113
0.855113
0.855378
0.855378
0.855378
0.855112
0.855112
0.855112
0.854827
0.854827
0.854827
0.854828
0.854828
0.854828
0.851033
0.851033
0.851033
0.851493
0.851493
0.851493
0.851493
0.851493
0.851493
0.851033
0.851033
0.851033
0.851032
0.851032
0.851032
0.851491
0.851491
0.851491
0.851032
0.851032
0.851032
0.851492
0.851492
0.851492
0.851933
0.851933
0.851933
0.851933
0.851933
0.851933
0.853151
0.853151
0.853151
0.853152
0.853152
0.853152
0.85315
0.85315
0.85315
0.853151
0.853151
0.853151
0.852762
0.852762
0.852762
0.852762
0.852762
0.852762
0.852769
0.852769
0.852769
0.853157
0.853157
0.853157
0.855863
0.855863
0.855863
0.855865
0.855865
0.855865
0.856079
0.856079
0.856079
0.85608
0.85608
0.85608
0.855866
0.855866
0.855866
0.855635
0.855635
0.855635
0.855635
0.855635
0.855635
0.855867
0.855867
0.855867
0.856083
0.856083
0.856083
0.856082
0.856082
0.856082
0.853157
0.853157
0.853157
0.852769
0.852769
0.852769
0.855383
0.855383
0.855383
0.855384
0.855384
0.855384
0.855633
0.855633
0.855633
0.855632
0.855632
0.855632
0.854835
0.854835
0.854835
0.854535
0.854535
0.854535
0.854535
0.854535
0.854535
0.854836
0.854836
0.854836
0.855119
0.855119
0.855119
0.855119
0.855119
0.855119
0.854834
0.854834
0.854834
0.854835
0.854835
0.854835
0.854534
0.854534
0.854534
0.854533
0.854533
0.854533
0.855117
0.855117
0.855117
0.855118
0.855118
0.855118
0.853881
0.853881
0.853881
0.853528
0.853528
0.853528
0.854216
0.854216
0.854216
0.854216
0.854216
0.854216
0.853158
0.853158
0.853158
0.853157
0.853157
0.853157
0.85194
0.85194
0.85194
0.852363
0.852363
0.852363
0.852769
0.852769
0.852769
0.852769
0.852769
0.852769
0.854217
0.854217
0.854217
0.854836
0.854836
0.854836
0.854535
0.854535
0.854535
0.854535
0.854535
0.854535
0.846071
0.846071
0.846071
0.848465
0.848465
0.848465
0.847306
0.847306
0.847306
0.846698
0.846698
0.846698
0.846698
0.846698
0.846698
0.847306
0.847306
0.847306
0.847895
0.847895
0.847895
0.847895
0.847895
0.847895
0.851036
0.851036
0.851036
0.850558
0.850558
0.850558
0.85056
0.85056
0.85056
0.850063
0.850063
0.850063
0.853882
0.853882
0.853882
0.85104
0.85104
0.85104
0.847311
0.847311
0.847311
0.847311
0.847311
0.847311
0.850562
0.850562
0.850562
0.850067
0.850067
0.850067
0.849553
0.849553
0.849553
0.804544
0.804544
0.804544
0.806069
0.806069
0.806069
0.806053
0.806053
0.806053
0.810505
0.810505
0.810505
0.807576
0.807576
0.807576
0.80905
0.80905
0.80905
0.80753
0.80753
0.80753
0.809038
0.809038
0.809038
0.807549
0.807549
0.807549
0.811927
0.811927
0.811927
0.790761
0.790761
0.790761
0.790764
0.790764
0.790764
0.792429
0.792429
0.792429
0.792431
0.792431
0.792431
0.844069
0.844069
0.844069
0.84407
0.84407
0.84407
0.847305
0.847305
0.847305
0.847306
0.847306
0.847306
0.847305
0.847305
0.847305
0.837855
0.837855
0.837855
0.837855
0.837855
0.837855
0.836983
0.836983
0.836983
0.841894
0.841894
0.841894
0.84264
0.84264
0.84264
0.843364
0.843364
0.843364
0.841894
0.841894
0.841894
0.843365
0.843365
0.843365
0.842639
0.842639
0.842639
0.842639
0.842639
0.842639
0.842639
0.842639
0.842639
0.841893
0.841893
0.841893
0.844069
0.844069
0.844069
0.849541
0.849541
0.849541
0.849542
0.849542
0.849542
0.84901
0.84901
0.84901
0.84901
0.84901
0.84901
0.848459
0.848459
0.848459
0.844755
0.844755
0.844755
0.846067
0.846067
0.846067
0.845421
0.845421
0.845421
0.844755
0.844755
0.844755
0.844756
0.844756
0.844756
0.846694
0.846694
0.846694
0.846067
0.846067
0.846067
0.845421
0.845421
0.845421
0.845422
0.845422
0.845422
0.817315
0.817315
0.817315
0.821152
0.821152
0.821152
0.836087
0.836087
0.836087
0.83698
0.83698
0.83698
0.835172
0.835172
0.835172
0.837852
0.837852
0.837852
0.837853
0.837853
0.837853
0.839529
0.839529
0.839529
0.838701
0.838701
0.838701
0.835173
0.835173
0.835173
0.834236
0.834236
0.834236
0.830261
0.830261
0.830261
0.828133
0.828133
0.828133
0.829209
0.829209
0.829209
0.833277
0.833277
0.833277
0.832294
0.832294
0.832294
0.833277
0.833277
0.833277
0.840339
0.840339
0.840339
0.829207
0.829207
0.829207
0.829207
0.829207
0.829207
0.824758
0.824758
0.824758
0.831289
0.831289
0.831289
0.801096
0.801096
0.801096
0.802711
0.802711
0.802711
0.80109
0.80109
0.80109
0.818632
0.818632
0.818632
0.81991
0.81991
0.81991
0.82116
0.82116
0.82116
0.823594
0.823594
0.823594
0.823601
0.823601
0.823601
0.82813
0.82813
0.82813
0.81598
0.81598
0.81598
0.857136
0.857136
0.857136
0.857111
0.857111
0.857111
0.85708
0.85708
0.85708
0.856718
0.856718
0.856718
0.856858
0.856858
0.856858
0.854794
0.854794
0.854794
0.856406
0.856406
0.856406
0.856228
0.856228
0.856228
0.855086
0.855086
0.855086
0.851015
0.851015
0.851015
0.851017
0.851017
0.851017
0.839528
0.839528
0.839528
0.840335
0.840335
0.840335
0.8387
0.8387
0.8387
0.840336
0.840336
0.840336
0.839529
0.839529
0.839529
0.8387
0.8387
0.8387
0.846059
0.846059
0.846059
0.846685
0.846685
0.846685
0.846059
0.846059
0.846059
0.848999
0.848999
0.848999
0.844065
0.844065
0.844065
0.848453
0.848453
0.848453
0.847883
0.847883
0.847883
0.846686
0.846686
0.846686
0.846686
0.846686
0.846686
0.848451
0.848451
0.848451
0.847294
0.847294
0.847294
0.847881
0.847881
0.847881
0.847294
0.847294
0.847294
0.848452
0.848452
0.848452
0.847883
0.847883
0.847883
0.851026
0.851026
0.851026
0.850549
0.850549
0.850549
0.848455
0.848455
0.848455
0.849009
0.849009
0.849009
0.84954
0.84954
0.84954
0.849007
0.849007
0.849007
0.84954
0.84954
0.84954
0.849008
0.849008
0.849008
0.855857
0.855857
0.855857
0.856451
0.856451
0.856451
0.855859
0.855859
0.855859
0.856074
0.856074
0.856074
0.856614
0.856614
0.856614
0.856613
0.856613
0.856613
0.856763
0.856763
0.856763
0.85689
0.85689
0.85689
0.856762
0.856762
0.856762
0.85689
0.85689
0.85689
0.857153
0.857153
0.857153
0.857101
0.857101
0.857101
0.857013
0.857013
0.857013
0.857152
0.857152
0.857152
0.857101
0.857101
0.857101
0.857013
0.857013
0.857013
0.857151
0.857151
0.857151
0.8571
0.8571
0.8571
0.857151
0.857151
0.857151
0.8571
0.8571
0.8571
0.789633
0.789633
0.789633
0.790767
0.790767
0.790767
0.79429
0.79429
0.79429
0.79429
0.79429
0.79429
0.790766
0.790766
0.790766
0.79243
0.79243
0.79243
0.790766
0.790766
0.790766
0.79243
0.79243
0.79243
0.799414
0.799414
0.799414
0.79243
0.79243
0.79243
0.790768
0.790768
0.790768
0.789634
0.789634
0.789634
0.801077
0.801077
0.801077
0.792431
0.792431
0.792431
0.790808
0.790808
0.790808
0.790776
0.790776
0.790776
0.797783
0.797783
0.797783
0.832304
0.832304
0.832304
0.834246
0.834246
0.834246
0.833286
0.833286
0.833286
0.836097
0.836097
0.836097
0.836098
0.836098
0.836098
0.836098
0.836098
0.836098
0.831297
0.831297
0.831297
0.830267
0.830267
0.830267
0.82359
0.82359
0.82359
0.831298
0.831298
0.831298
0.823585
0.823585
0.823585
0.825912
0.825912
0.825912
0.821158
0.821158
0.821158
0.822384
0.822384
0.822384
0.815984
0.815984
0.815984
0.817318
0.817318
0.817318
0.819905
0.819905
0.819905
0.819904
0.819904
0.819904
0.807395
0.807395
0.807395
0.805859
0.805859
0.805859
0.844079
0.844079
0.844079
0.843374
0.843374
0.843374
0.846703
0.846703
0.846703
0.836991
0.836991
0.836991
0.848468
0.848468
0.848468
0.84731
0.84731
0.84731
0.847898
0.847898
0.847898
0.818624
0.818624
0.818624
0.827037
0.827037
0.827037
0.829214
0.829214
0.829214
0.828138
0.828138
0.828138
0.811814
0.811814
0.811814
0.81462
0.81462
0.81462
0.813231
0.813231
0.813231
0.813231
0.813231
0.813231
0.81462
0.81462
0.81462
0.849013
0.849013
0.849013
0.849013
0.849013
0.849013
0.849545
0.849545
0.849545
0.850059
0.850059
0.850059
0.855381
0.855381
0.855381
0.856078
0.856078
0.856078
0.856275
0.856275
0.856275
0.856275
0.856275
0.856275
0.855863
0.855863
0.855863
0.855633
0.855633
0.855633
0.855633
0.855633
0.855633
0.853874
0.853874
0.853874
0.853874
0.853874
0.853874
0.853521
0.853521
0.853521
0.853521
0.853521
0.853521
0.854528
0.854528
0.854528
0.854829
0.854829
0.854829
0.854829
0.854829
0.854829
0.854527
0.854527
0.854527
0.854209
0.854209
0.854209
0.85421
0.85421
0.85421
0.854528
0.854528
0.854528
0.854529
0.854529
0.854529
0.853875
0.853875
0.853875
0.854211
0.854211
0.854211
0.85421
0.85421
0.85421
0.853875
0.853875
0.853875
0.853522
0.853522
0.853522
0.853522
0.853522
0.853522
0.855113
0.855113
0.855113
0.85483
0.85483
0.85483
0.85483
0.85483
0.85483
0.855114
0.855114
0.855114
0.85538
0.85538
0.85538
0.85538
0.85538
0.85538
0.855628
0.855628
0.855628
0.855379
0.855379
0.855379
0.855379
0.855379
0.855379
0.856275
0.856275
0.856275
0.856274
0.856274
0.856274
0.853154
0.853154
0.853154
0.85236
0.85236
0.85236
0.851495
0.851495
0.851495
0.852765
0.852765
0.852765
0.853153
0.853153
0.853153
0.854212
0.854212
0.854212
0.853877
0.853877
0.853877
0.853524
0.853524
0.853524
0.853523
0.853523
0.853523
0.854531
0.854531
0.854531
0.854831
0.854831
0.854831
0.855115
0.855115
0.855115
0.855115
0.855115
0.855115
0.853525
0.853525
0.853525
0.853878
0.853878
0.853878
0.852764
0.852764
0.852764
0.852358
0.852358
0.852358
0.851934
0.851934
0.851934
0.850558
0.850558
0.850558
0.849547
0.849547
0.849547
0.849548
0.849548
0.849548
0.850062
0.850062
0.850062
0.850062
0.850062
0.850062
0.848464
0.848464
0.848464
0.849015
0.849015
0.849015
0.849015
0.849015
0.849015
0.848464
0.848464
0.848464
0.847894
0.847894
0.847894
0.847894
0.847894
0.847894
0.848463
0.848463
0.848463
0.847893
0.847893
0.847893
0.847893
0.847893
0.847893
0.851935
0.851935
0.851935
0.849544
0.849544
0.849544
0.848461
0.848461
0.848461
0.849012
0.849012
0.849012
0.849544
0.849544
0.849544
0.849011
0.849011
0.849011
0.848459
0.848459
0.848459
0.84789
0.84789
0.84789
0.84789
0.84789
0.84789
0.84846
0.84846
0.84846
0.849011
0.849011
0.849011
0.855378
0.855378
0.855378
0.855627
0.855627
0.855627
0.855626
0.855626
0.855626
0.855377
0.855377
0.855377
0.855111
0.855111
0.855111
0.855111
0.855111
0.855111
0.852357
0.852357
0.852357
0.852358
0.852358
0.852358
0.851934
0.851934
0.851934
0.851934
0.851934
0.851934
0.852763
0.852763
0.852763
0.852763
0.852763
0.852763
0.849546
0.849546
0.849546
0.85006
0.85006
0.85006
0.850555
0.850555
0.850555
0.850556
0.850556
0.850556
0.853528
0.853528
0.853528
0.85277
0.85277
0.85277
0.852364
0.852364
0.852364
0.852364
0.852364
0.852364
0.85277
0.85277
0.85277
0.856081
0.856081
0.856081
0.85194
0.85194
0.85194
0.851939
0.851939
0.851939
0.852363
0.852363
0.852363
0.852363
0.852363
0.852363
0.850065
0.850065
0.850065
0.851039
0.851039
0.851039
0.851498
0.851498
0.851498
0.851498
0.851498
0.851498
0.854533
0.854533
0.854533
0.850559
0.850559
0.850559
0.850559
0.850559
0.850559
0.854836
0.854836
0.854836
0.849016
0.849016
0.849016
0.848465
0.848465
0.848465
0.850062
0.850062
0.850062
0.849548
0.849548
0.849548
0.849016
0.849016
0.849016
0.849016
0.849016
0.849016
0.851036
0.851036
0.851036
0.85056
0.85056
0.85056
0.849549
0.849549
0.849549
0.849016
0.849016
0.849016
0.850064
0.850064
0.850064
0.850063
0.850063
0.850063
0.849549
0.849549
0.849549
0.84955
0.84955
0.84955
0.849017
0.849017
0.849017
0.849017
0.849017
0.849017
0.851499
0.851499
0.851499
0.85194
0.85194
0.85194
0.853882
0.853882
0.853882
0.853882
0.853882
0.853882
0.854217
0.854217
0.854217
0.854217
0.854217
0.854217
0.853158
0.853158
0.853158
0.85194
0.85194
0.85194
0.852364
0.852364
0.852364
0.852364
0.852364
0.852364
0.851499
0.851499
0.851499
0.84902
0.84902
0.84902
0.8479
0.8479
0.8479
0.848469
0.848469
0.848469
0.849552
0.849552
0.849552
0.849553
0.849553
0.849553
0.849552
0.849552
0.849552
0.804505
0.804505
0.804505
0.809007
0.809007
0.809007
0.811888
0.811888
0.811888
0.811899
0.811899
0.811899
0.810473
0.810473
0.810473
0.810486
0.810486
0.810486
0.811919
0.811919
0.811919
0.813308
0.813308
0.813308
0.813316
0.813316
0.813316
0.789635
0.789635
0.789635
0.789627
0.789627
0.789627
0.790765
0.790765
0.790765
0.790765
0.790765
0.790765
0.78963
0.78963
0.78963
0.789629
0.789629
0.789629
0.799422
0.799422
0.799422
0.802707
0.802707
0.802707
0.838705
0.838705
0.838705
0.838704
0.838704
0.838704
0.83609
0.83609
0.83609
0.836983
0.836983
0.836983
0.837854
0.837854
0.837854
0.844756
0.844756
0.844756
0.845422
0.845422
0.845422
0.845422
0.845422
0.845422
0.844757
0.844757
0.844757
0.844758
0.844758
0.844758
0.843367
0.843367
0.843367
0.844072
0.844072
0.844072
0.84607
0.84607
0.84607
0.846071
0.846071
0.846071
0.846698
0.846698
0.846698
0.846697
0.846697
0.846697
0.844758
0.844758
0.844758
0.844072
0.844072
0.844072
0.843367
0.843367
0.843367
0.846697
0.846697
0.846697
0.84607
0.84607
0.84607
0.845424
0.845424
0.845424
0.845424
0.845424
0.845424
0.842641
0.842641
0.842641
0.841896
0.841896
0.841896
0.84113
0.84113
0.84113
0.842642
0.842642
0.842642
0.84113
0.84113
0.84113
0.841896
0.841896
0.841896
0.841896
0.841896
0.841896
0.833277
0.833277
0.833277
0.832294
0.832294
0.832294
0.833278
0.833278
0.833278
0.832295
0.832295
0.832295
0.833278
0.833278
0.833278
0.832295
0.832295
0.832295
0.825904
0.825904
0.825904
0.82703
0.82703
0.82703
0.837855
0.837855
0.837855
0.837856
0.837856
0.837856
0.839534
0.839534
0.839534
0.838706
0.838706
0.838706
0.839535
0.839535
0.839535
0.838706
0.838706
0.838706
0.836983
0.836983
0.836983
0.836984
0.836984
0.836984
0.841893
0.841893
0.841893
0.84034
0.84034
0.84034
0.850055
0.850055
0.850055
0.851027
0.851027
0.851027
0.850054
0.850054
0.850054
0.85055
0.85055
0.85055
0.851488
0.851488
0.851488
0.851028
0.851028
0.851028
0.850551
0.850551
0.850551
0.844754
0.844754
0.844754
0.84542
0.84542
0.84542
0.844755
0.844755
0.844755
0.848458
0.848458
0.848458
0.848458
0.848458
0.848458
0.844753
0.844753
0.844753
0.846695
0.846695
0.846695
0.846068
0.846068
0.846068
0.847303
0.847303
0.847303
0.847303
0.847303
0.847303
0.846695
0.846695
0.846695
0.846068
0.846068
0.846068
0.822378
0.822378
0.822378
0.823579
0.823579
0.823579
0.824754
0.824754
0.824754
0.823579
0.823579
0.823579
0.83609
0.83609
0.83609
0.834237
0.834237
0.834237
0.835175
0.835175
0.835175
0.83609
0.83609
0.83609
0.832294
0.832294
0.832294
0.82703
0.82703
0.82703
0.82813
0.82813
0.82813
0.823579
0.823579
0.823579
0.821152
0.821152
0.821152
0.821151
0.821151
0.821151
0.821151
0.821151
0.821151
0.821151
0.821151
0.821151
0.837856
0.837856
0.837856
0.828132
0.828132
0.828132
0.827031
0.827031
0.827031
0.81862
0.81862
0.81862
0.81862
0.81862
0.81862
0.819899
0.819899
0.819899
0.819899
0.819899
0.819899
0.81862
0.81862
0.81862
0.819899
0.819899
0.819899
0.8199
0.8199
0.8199
0.817314
0.817314
0.817314
0.817314
0.817314
0.817314
0.815981
0.815981
0.815981
0.815981
0.815981
0.815981
0.817314
0.817314
0.817314
0.81862
0.81862
0.81862
0.81862
0.81862
0.81862
0.822379
0.822379
0.822379
0.822378
0.822378
0.822378
0.823579
0.823579
0.823579
0.824755
0.824755
0.824755
0.83698
0.83698
0.83698
0.837851
0.837851
0.837851
0.837851
0.837851
0.837851
0.83698
0.83698
0.83698
0.836088
0.836088
0.836088
0.836981
0.836981
0.836981
0.835173
0.835173
0.835173
0.836981
0.836981
0.836981
0.836981
0.836981
0.836981
0.835173
0.835173
0.835173
0.832294
0.832294
0.832294
0.837852
0.837852
0.837852
0.837851
0.837851
0.837851
0.838701
0.838701
0.838701
0.828134
0.828134
0.828134
0.845417
0.845417
0.845417
0.844067
0.844067
0.844067
0.844752
0.844752
0.844752
0.845418
0.845418
0.845418
0.845416
0.845416
0.845416
0.845416
0.845416
0.845416
0.843361
0.843361
0.843361
0.844066
0.844066
0.844066
0.844751
0.844751
0.844751
0.844751
0.844751
0.844751
0.844066
0.844066
0.844066
0.843361
0.843361
0.843361
0.844068
0.844068
0.844068
0.843363
0.843363
0.843363
0.841126
0.841126
0.841126
0.841892
0.841892
0.841892
0.842638
0.842638
0.842638
0.841126
0.841126
0.841126
0.842638
0.842638
0.842638
0.841893
0.841893
0.841893
0.840339
0.840339
0.840339
0.838702
0.838702
0.838702
0.840339
0.840339
0.840339
0.841125
0.841125
0.841125
0.841892
0.841892
0.841892
0.841126
0.841126
0.841126
0.841891
0.841891
0.841891
0.842636
0.842636
0.842636
0.843362
0.843362
0.843362
0.841891
0.841891
0.841891
0.832294
0.832294
0.832294
0.832294
0.832294
0.832294
0.83026
0.83026
0.83026
0.830259
0.830259
0.830259
0.830259
0.830259
0.830259
0.821159
0.821159
0.821159
0.822384
0.822384
0.822384
0.818625
0.818625
0.818625
0.829207
0.829207
0.829207
0.827033
0.827033
0.827033
0.818651
0.818651
0.818651
0.821171
0.821171