<VTKFile type="UnstructuredGrid" version="1.0">
<UnstructuredGrid>
<Piece NumberOfPoints="11046" NumberOfCells="3682">
<Points>
<DataArray type="Float64" NumberOfComponents="3" format="ascii">
3.01 0.0582363 6.36176
3.01 0.0717021 6.3425
3.01 0.05 6.3425
3.01 0.95 6.77121
3.01 0.942301 6.7907
3.01 0.95 6.8102
3.01 0.0962623 7.2425
3.01 0.107711 7.22233
3.01 0.086422 7.22216
3.01 0.466226 6.98611
3.01 0.443707 6.9861
3.01 0.454968 7.00572
3.01 0.353567 6.90781
3.01 0.376113 6.90782
3.01 0.364839 6.88828
3.01 0.376113 6.90782
3.01 0.353567 6.90781
3.01 0.364843 6.92736
3.01 0.353567 6.90781
3.01 0.342292 6.92736
3.01 0.364843 6.92736
3.01 0.37611 6.86875
3.01 0.387379 6.84923
3.01 0.364837 6.84923
3.01 0.376113 6.90782
3.01 0.387381 6.88828
3.01 0.364839 6.88828
3.01 0.364839 6.88828
3.01 0.387381 6.88828
3.01 0.37611 6.86875
3.01 0.066417 7.22452
3.01 0.05 7.21875
3.01 0.05 7.2425
3.01 0.0582363 6.36176
3.01 0.0817675 6.36198
3.01 0.0717021 6.3425
3.01 0.0817675 6.36198
3.01 0.0582363 6.36176
3.01 0.0711754 6.38139
3.01 0.11641 6.3425
3.01 0.127475 6.36204
3.01 0.138968 6.3425
3.01 0.127475 6.36204
3.01 0.11641 6.3425
3.01 0.104722 6.36203
3.01 0.0711754 6.38139
3.01 0.0934889 6.3815
3.01 0.0817675 6.36198
3.01 0.0934889 6.3815
3.01 0.104722 6.36203
3.01 0.0817675 6.36198
3.01 0.116091 6.38153
3.01 0.127475 6.36204
3.01 0.104722 6.36203
3.01 0.116091 6.38153
3.01 0.104722 6.36203
3.01 0.0934889 6.3815
3.01 0.116091 6.38153
3.01 0.104394 6.40098
3.01 0.127244 6.40101
3.01 0.104394 6.40098
3.01 0.116091 6.38153
3.01 0.0934889 6.3815
3.01 0.941764 6.36176
3.01 0.95 6.3425
3.01 0.928298 6.3425
3.01 0.387379 6.84923
3.01 0.376108 6.82972
3.01 0.364837 6.84923
3.01 0.161282 6.77121
3.01 0.149908 6.75172
3.01 0.138583 6.77121
3.01 0.0933091 6.84921
3.01 0.104333 6.8297
3.01 0.0813038 6.8297
3.01 0.104333 6.8297
3.01 0.0933065 6.8102
3.01 0.0813038 6.8297
3.01 0.331016 6.94692
3.01 0.308447 6.94691
3.01 0.319739 6.96649
3.01 0.308447 6.94691
3.01 0.331016 6.94692
3.01 0.319729 6.92736
3.01 0.331016 6.94692
3.01 0.342292 6.92736
3.01 0.319729 6.92736
3.01 0.138613 6.96641
3.01 0.149933 6.94686
3.01 0.12718 6.94685
3.01 0.138613 6.96641
3.01 0.161316 6.96642
3.01 0.149933 6.94686
3.01 0.161316 6.96642
3.01 0.172648 6.94686
3.01 0.149933 6.94686
3.01 0.206681 6.96644
3.01 0.217999 6.94688
3.01 0.195336 6.94687
3.01 0.263262 6.9469
3.01 0.274572 6.96647
3.01 0.285863 6.94691
3.01 0.274559 6.92735
3.01 0.263262 6.9469
3.01 0.285863 6.94691
3.01 0.240697 6.362
3.01 0.252012 6.3425
3.01 0.229409 6.3425
3.01 0.138758 6.38153
3.01 0.127475 6.36204
3.01 0.116091 6.38153
3.01 0.127244 6.40101
3.01 0.138758 6.38153
3.01 0.116091 6.38153
3.01 0.229332 6.42047
3.01 0.218031 6.40099
3.01 0.206685 6.42048
3.01 0.184016 6.42049
3.01 0.172705 6.40101
3.01 0.161325 6.42049
3.01 0.184093 6.38151
3.01 0.161431 6.38153
3.01 0.172705 6.40101
3.01 0.218082 6.362
3.01 0.240697 6.362
3.01 0.229409 6.3425
3.01 0.218082 6.362
3.01 0.229409 6.3425
3.01 0.206798 6.3425
3.01 0.138617 6.42049
3.01 0.149916 6.43996
3.01 0.161325 6.42049
3.01 0.376107 6.75172
3.01 0.364834 6.73223
3.01 0.353559 6.75172
3.01 0.942264 6.98597
3.01 0.95 7.00556
3.01 0.95 6.9664
3.01 0.466226 6.98611
3.01 0.454966 6.96651
3.01 0.443707 6.9861
3.01 0.466223 6.90782
3.01 0.488741 6.90782
3.01 0.477482 6.88828
3.01 0.466223 6.90782
3.01 0.443703 6.90782
3.01 0.454964 6.92737
3.01 0.511259 6.90782
3.01 0.533777 6.90782
3.01 0.522518 6.88828
3.01 0.533777 6.90782
3.01 0.511259 6.90782
3.01 0.522517 6.92737
3.01 0.488741 6.90782
3.01 0.5 6.88828
3.01 0.477482 6.88828
3.01 0.511259 6.90782
3.01 0.5 6.88828
3.01 0.488741 6.90782
3.01 0.5 6.88828
3.01 0.511259 6.90782
3.01 0.522518 6.88828
3.01 0.387388 6.96651
3.01 0.40992 6.96651
3.01 0.398653 6.94693
3.01 0.376117 6.94693
3.01 0.387388 6.96651
3.01 0.398653 6.94693
3.01 0.443703 6.90782
3.01 0.432443 6.92737
3.01 0.454964 6.92737
3.01 0.432443 6.92737
3.01 0.443705 6.94693
3.01 0.454964 6.92737
3.01 0.274559 6.92735
3.01 0.285853 6.9078
3.01 0.26325 6.9078
3.01 0.387384 6.92737
3.01 0.376117 6.94693
3.01 0.398653 6.94693
3.01 0.376117 6.94693
3.01 0.387384 6.92737
3.01 0.364843 6.92736
3.01 0.387384 6.92737
3.01 0.376113 6.90782
3.01 0.364843 6.92736
3.01 0.342292 6.92736
3.01 0.331009 6.90781
3.01 0.319729 6.92736
3.01 0.331009 6.90781
3.01 0.342292 6.92736
3.01 0.353567 6.90781
3.01 0.545011 7.2425
3.01 0.533759 7.2227
3.01 0.522505 7.2425
3.01 0.533762 7.18311
3.01 0.55627 7.18311
3.01 0.545018 7.16333
3.01 0.55627 7.18311
3.01 0.567528 7.16332
3.01 0.545018 7.16333
3.01 0.567528 7.16332
3.01 0.59004 7.16332
3.01 0.578788 7.14356
3.01 0.466232 7.10408
3.01 0.477488 7.08437
3.01 0.454974 7.08436
3.01 0.567516 7.2425
3.01 0.590022 7.2425
3.01 0.578772 7.2227
3.01 0.601316 7.10407
3.01 0.590051 7.1238
3.01 0.61257 7.1238
3.01 0.62384 7.10406
3.01 0.601316 7.10407
3.01 0.61257 7.1238
3.01 0.680198 7.08431
3.01 0.702757 7.08429
3.01 0.691494 7.06462
3.01 0.086422 7.22216
3.01 0.073896 7.2425
3.01 0.0962623 7.2425
3.01 0.073896 7.2425
3.01 0.086422 7.22216
3.01 0.066417 7.22452
3.01 0.05 7.2425
3.01 0.073896 7.2425
3.01 0.066417 7.22452
3.01 0.0721919 7.20289
3.01 0.05 7.21875
3.01 0.066417 7.22452
3.01 0.086422 7.22216
3.01 0.0721919 7.20289
3.01 0.066417 7.22452
3.01 0.118481 7.2425
3.01 0.107711 7.22233
3.01 0.0962623 7.2425
3.01 0.5 7.2425
3.01 0.488747 7.2227
3.01 0.477495 7.2425
3.01 0.432484 7.2425
3.01 0.421228 7.2227
3.01 0.409978 7.2425
3.01 0.443725 7.14356
3.01 0.432465 7.12381
3.01 0.421212 7.14356
3.01 0.319802 7.08431
3.01 0.342348 7.08433
3.01 0.331063 7.06463
3.01 0.353629 7.10405
3.01 0.364886 7.08434
3.01 0.342348 7.08433
3.01 0.10433 6.7907
3.01 0.0813011 6.7907
3.01 0.0933065 6.8102
3.01 0.0939466 6.3425
3.01 0.104722 6.36203
3.01 0.11641 6.3425
3.01 0.0939466 6.3425
3.01 0.0717021 6.3425
3.01 0.0817675 6.36198
3.01 0.104722 6.36203
3.01 0.0939466 6.3425
3.01 0.0817675 6.36198
3.01 0.0933065 6.8102
3.01 0.0710513 6.8102
3.01 0.0813038 6.8297
3.01 0.0710513 6.8102
3.01 0.0933065 6.8102
3.01 0.0813011 6.7907
3.01 0.115908 6.88824
3.01 0.104337 6.86872
3.01 0.0933131 6.88824
3.01 0.104337 6.86872
3.01 0.115908 6.88824
3.01 0.127165 6.86872
3.01 0.104343 6.90776
3.01 0.115908 6.88824
3.01 0.0933131 6.88824
3.01 0.104343 6.90776
3.01 0.0933188 6.9273
3.01 0.115915 6.9273
3.01 0.942303 6.75171
3.01 0.95 6.77121
3.01 0.95 6.73222
3.01 0.92895 6.73222
3.01 0.942303 6.75171
3.01 0.95 6.73222
3.01 0.9187 6.75171
3.01 0.895671 6.75172
3.01 0.906695 6.77121
3.01 0.92895 6.73222
3.01 0.9187 6.75171
3.01 0.942303 6.75171
3.01 0.942316 6.51785
3.01 0.95 6.49836
3.01 0.928965 6.49835
3.01 0.95 6.57632
3.01 0.95 6.53734
3.01 0.942309 6.55683
3.01 0.942316 6.51785
3.01 0.95 6.53734
3.01 0.95 6.49836
3.01 0.95 6.38105
3.01 0.95 6.3425
3.01 0.941764 6.36176
3.01 0.95 6.38105
3.01 0.942358 6.40071
3.01 0.95 6.42025
3.01 0.612617 6.42045
3.01 0.623887 6.43993
3.01 0.635157 6.42045
3.01 0.895671 6.75172
3.01 0.906696 6.73222
3.01 0.884102 6.73222
3.01 0.906696 6.73222
3.01 0.895671 6.75172
3.01 0.9187 6.75171
3.01 0.92895 6.73222
3.01 0.906696 6.73222
3.01 0.9187 6.75171
3.01 0.353563 6.86875
3.01 0.364839 6.88828
3.01 0.37611 6.86875
3.01 0.364837 6.84923
3.01 0.353563 6.86875
3.01 0.37611 6.86875
3.01 0.297145 6.88827
3.01 0.308439 6.90781
3.01 0.319723 6.88827
3.01 0.308439 6.90781
3.01 0.297145 6.88827
3.01 0.285853 6.9078
3.01 0.308439 6.90781
3.01 0.319729 6.92736
3.01 0.331009 6.90781
3.01 0.319723 6.88827
3.01 0.308439 6.90781
3.01 0.331009 6.90781
3.01 0.17262 6.75172
3.01 0.149908 6.75172
3.01 0.161282 6.77121
3.01 0.138583 6.77121
3.01 0.149909 6.7907
3.01 0.161282 6.77121
3.01 0.149909 6.7907
3.01 0.138583 6.77121
3.01 0.127158 6.7907
3.01 0.149909 6.7907
3.01 0.161284 6.8102
3.01 0.172622 6.79071
3.01 0.161282 6.77121
3.01 0.149909 6.7907
3.01 0.172622 6.79071
3.01 0.240621 6.86874
3.01 0.229301 6.84922
3.01 0.217979 6.86873
3.01 0.229301 6.84922
3.01 0.206649 6.84922
3.01 0.217979 6.86873
3.01 0.195316 6.86873
3.01 0.217979 6.86873
3.01 0.206649 6.84922
3.01 0.115908 6.88824
3.01 0.138594 6.88824
3.01 0.127165 6.86872
3.01 0.0933091 6.84921
3.01 0.115904 6.84921
3.01 0.104333 6.8297
3.01 0.115904 6.84921
3.01 0.127161 6.8297
3.01 0.104333 6.8297
3.01 0.115904 6.84921
3.01 0.0933091 6.84921
3.01 0.104337 6.86872
3.01 0.127165 6.86872
3.01 0.115904 6.84921
3.01 0.104337 6.86872
3.01 0.115901 6.8102
3.01 0.0933065 6.8102
3.01 0.104333 6.8297
3.01 0.127161 6.8297
3.01 0.115901 6.8102
3.01 0.104333 6.8297
3.01 0.115901 6.8102
3.01 0.10433 6.7907
3.01 0.0933065 6.8102
3.01 0.10433 6.7907
3.01 0.115901 6.8102
3.01 0.127158 6.7907
3.01 0.183972 6.77121
3.01 0.195307 6.75172
3.01 0.17262 6.75172
3.01 0.161282 6.77121
3.01 0.183972 6.77121
3.01 0.17262 6.75172
3.01 0.183972 6.77121
3.01 0.161282 6.77121
3.01 0.172622 6.79071
3.01 0.263244 6.86874
3.01 0.251933 6.84922
3.01 0.240621 6.86874
3.01 0.229301 6.84922
3.01 0.251933 6.84922
3.01 0.240617 6.82971
3.01 0.251933 6.84922
3.01 0.229301 6.84922
3.01 0.240621 6.86874
3.01 0.274543 6.81021
3.01 0.285842 6.79071
3.01 0.263237 6.79071
3.01 0.285842 6.79071
3.01 0.274541 6.77121
3.01 0.263237 6.79071
3.01 0.319739 6.96649
3.01 0.3423 6.9665
3.01 0.331016 6.94692
3.01 0.297163 6.96648
3.01 0.274572 6.96647
3.01 0.285878 6.98606
3.01 0.308447 6.94691
3.01 0.297163 6.96648
3.01 0.319739 6.96649
3.01 0.297163 6.96648
3.01 0.308447 6.94691
3.01 0.285863 6.94691
3.01 0.274572 6.96647
3.01 0.297163 6.96648
3.01 0.285863 6.94691
3.01 0.183992 6.92732
3.01 0.172648 6.94686
3.01 0.195336 6.94687
3.01 0.183992 6.92732
3.01 0.195323 6.90778
3.01 0.172636 6.90778
3.01 0.184008 6.96643
3.01 0.172648 6.94686
3.01 0.161316 6.96642
3.01 0.172648 6.94686
3.01 0.184008 6.96643
3.01 0.195336 6.94687
3.01 0.184008 6.96643
3.01 0.195356 6.98601
3.01 0.206681 6.96644
3.01 0.195336 6.94687
3.01 0.184008 6.96643
3.01 0.206681 6.96644
3.01 0.308434 6.86875
3.01 0.297145 6.88827
3.01 0.319723 6.88827
3.01 0.297145 6.88827
3.01 0.308434 6.86875
3.01 0.285847 6.86874
3.01 0.308434 6.86875
[...]
<PointData Scalars="View Factor" >
<DataArray type="Float64" Name="View Factor" NumberOfComponents="1" format="ascii">
0.867363
0.867363
0.867363
0.790156
0.790156
0.790156
0.866896
0.866896
0.866896
0.85204
0.85204
0.85204
0.857748
0.857748
0.857748
0.857748
0.857748
0.857748
0.858362
0.858362
0.858362
0.857115
0.857115
0.857115
0.857113
0.857113
0.857113
0.857114
0.857114
0.857114
0.86735
0.86735
0.86735
0.867263
0.867263
0.867263
0.867264
0.867264
0.867264
0.866447
0.866447
0.866447
0.866648
0.866648
0.866648
0.867134
0.867134
0.867134
0.866993
0.866993
0.866993
0.866649
0.866649
0.866649
0.866829
0.866829
0.866829
0.866651
0.866651
0.866651
0.86683
0.86683
0.86683
0.791589
0.791589
0.791589
0.857116
0.857116
0.857116
0.865976
0.865976
0.865976
0.866973
0.866973
0.866973
0.866974
0.866974
0.866974
0.860078
0.860078
0.860078
0.860079
0.860079
0.860079
0.859527
0.859527
0.859527
0.866203
0.866203
0.866203
0.865964
0.865964
0.865964
0.865708
0.865708
0.865708
0.86449
0.86449
0.86449
0.862081
0.862081
0.862081
0.862082
0.862082
0.862082
0.863404
0.863404
0.863404
0.866449
0.866449
0.866449
0.866449
0.866449
0.866449
0.864166
0.864166
0.864166
0.865461
0.865461
0.865461
0.865461
0.865461
0.865461
0.863795
0.863795
0.863795
0.864167
0.864167
0.864167
0.865993
0.865993
0.865993
0.857758
0.857758
0.857758
0.790147
0.790147
0.790147
0.852041
0.852041
0.852041
0.850393
0.850393
0.850393
0.852045
0.852045
0.852045
0.846802
0.846802
0.846802
0.846801
0.846801
0.846801
0.849532
0.849532
0.849532
0.848646
0.848646
0.848646
0.847736
0.847736
0.847736
0.855772
0.855772
0.855772
0.856451
0.856451
0.856451
0.852836
0.852836
0.852836
0.852835
0.852835
0.852835
0.862084
0.862084
0.862084
0.856452
0.856452
0.856452
0.85711
0.85711
0.85711
0.857111
0.857111
0.857111
0.859528
0.859528
0.859528
0.858956
0.858956
0.858956
0.845823
0.845823
0.845823
0.844843
0.844843
0.844843
0.843833
0.843833
0.843833
0.841737
0.841737
0.841737
0.851219
0.851219
0.851219
0.841734
0.841734
0.841734
0.839536
0.839536
0.839536
0.838394
0.838394
0.838394
0.829602
0.829602
0.829602
0.867044
0.867044
0.867044
0.86716
0.86716
0.86716
0.867281
0.867281
0.867281
0.867288
0.867288
0.867288
0.867167
0.867167
0.867167
0.866738
0.866738
0.866738
0.84951
0.84951
0.84951
0.854327
0.854327
0.854327
0.853589
0.853589
0.853589
0.859516
0.859516
0.859516
0.858349
0.858349
0.858349
0.866975
0.866975
0.866975
0.866827
0.866827
0.866827
0.867132
0.867132
0.867132
0.866992
0.866992
0.866992
0.867114
0.867114
0.867114
0.867115
0.867115
0.867115
0.866806
0.866806
0.866806
0.866627
0.866627
0.866627
0.866805
0.866805
0.866805
0.866803
0.866803
0.866803
0.790158
0.790158
0.790158
0.791494
0.791494
0.791494
0.797634
0.797634
0.797634
0.793449
0.793449
0.793449
0.791504
0.791504
0.791504
0.790168
0.790168
0.790168
0.79017
0.79017
0.79017
0.790213
0.790213
0.790213
0.790173
0.790173
0.790173
0.837258
0.837258
0.837258
0.799676
0.799676
0.799676
0.797634
0.797634
0.797634
0.795633
0.795633
0.795633
0.85775
0.85775
0.85775
0.857751
0.857751
0.857751
0.860613
0.860613
0.860613
0.861124
0.861124
0.861124
0.860081
0.860081
0.860081
0.860081
0.860081
0.860081
0.86572
0.86572
0.86572
0.865975
0.865975
0.865975
0.866213
0.866213
0.866213
0.865718
0.865718
0.865718
0.865718
0.865718
0.865718
0.863772
0.863772
0.863772
0.864144
0.864144
0.864144
0.864496
0.864496
0.864496
0.866425
0.866425
0.866425
0.866808
0.866808
0.866808
0.866629
0.866629
0.866629
0.866807
0.866807
0.866807
0.866627
0.866627
0.866627
0.86681
0.86681
0.86681
0.86663
0.86663
0.86663
0.86681
0.86681
0.86681
0.866631
0.866631
0.866631
0.865149
0.865149
0.865149
0.865444
0.865444
0.865444
0.865443
0.865443
0.865443
0.862969
0.862969
0.862969
0.863381
0.863381
0.863381
0.863381
0.863381
0.863381
0.862092
0.862092
0.862092
0.862092
0.862092
0.862092
0.859525
0.859525
0.859525
0.861609
0.861609
0.861609
0.860609
0.860609
0.860609
0.86112
0.86112
0.86112
0.86161
0.86161
0.86161
0.865138
0.865138
0.865138
0.86514
0.86514
0.86514
0.865432
0.865432
0.865432
0.865137
0.865137
0.865137
0.864822
0.864822
0.864822
0.864823
0.864823
0.864823
0.860614
0.860614
0.860614
0.861126
0.861126
0.861126
0.861126
0.861126
0.861126
0.860616
0.860616
0.860616
0.860611
0.860611
0.860611
0.861121
0.861121
0.861121
0.860612
0.860612
0.860612
0.861123
0.861123
0.861123
0.861612
0.861612
0.861612
0.861613
0.861613
0.861613
0.862967
0.862967
0.862967
0.862968
0.862968
0.862968
0.862964
0.862964
0.862964
0.862966
0.862966
0.862966
0.862534
0.862534
0.862534
0.862534
0.862534
0.862534
0.862563
0.862563
0.862563
0.862994
0.862994
0.862994
0.865991
0.865991
0.865991
0.865992
0.865992
0.865992
0.866229
0.866229
0.866229
0.86623
0.86623
0.86623
0.865993
0.865993
0.865993
0.865737
0.865737
0.865737
0.865737
0.865737
0.865737
0.865993
0.865993
0.865993
0.866232
0.866232
0.866232
0.866231
0.866231
0.866231
0.862993
0.862993
0.862993
0.862563
0.862563
0.862563
0.86546
0.86546
0.86546
0.86546
0.86546
0.86546
0.865736
0.865736
0.865736
0.865735
0.865735
0.865735
0.864852
0.864852
0.864852
0.864519
0.864519
0.864519
0.864519
0.864519
0.864519
0.864852
0.864852
0.864852
0.865166
0.865166
0.865166
0.865166
0.865166
0.865166
0.864852
0.864852
0.864852
0.864852
0.864852
0.864852
0.864519
0.864519
0.864519
0.864519
0.864519
0.864519
0.865166
0.865166
0.865166
0.865166
0.865166
0.865166
0.863795
0.863795
0.863795
0.863404
0.863404
0.863404
0.864167
0.864167
0.864167
0.864167
0.864167
0.864167
0.862989
0.862989
0.862989
0.862988
0.862988
0.862988
0.861635
0.861635
0.861635
0.862106
0.862106
0.862106
0.862556
0.862556
0.862556
0.862557
0.862557
0.862557
0.864166
0.864166
0.864166
0.864852
0.864852
0.864852
0.864519
0.864519
0.864519
0.864518
0.864518
0.864518
0.855084
0.855084
0.855084
0.857759
0.857759
0.857759
0.856464
0.856464
0.856464
0.855785
0.855785
0.855785
0.855786
0.855786
0.855786
0.856466
0.856466
0.856466
0.857122
0.857122
0.857122
0.857123
0.857123
0.857123
0.860623
0.860623
0.860623
0.860091
0.860091
0.860091
0.860097
0.860097
0.860097
0.859542
0.859542
0.859542
0.863794
0.863794
0.863794
0.860641
0.860641
0.860641
0.856483
0.856483
0.856483
0.856484
0.856484
0.856484
0.86011
0.86011
0.86011
0.859558
0.859558
0.859558
0.858985
0.858985
0.858985
0.807601
0.807601
0.807601
0.809376
0.809376
0.809376
0.809357
0.809357
0.809357
0.814525
0.814525
0.814525
0.811127
0.811127
0.811127
0.812838
0.812838
0.812838
0.811075
0.811075
0.811075
0.812825
0.812825
0.812825
0.811096
0.811096
0.811096
0.816173
0.816173
0.816173
0.791474
0.791474
0.791474
0.791477
0.791477
0.791477
0.793436
0.793436
0.793436
0.793438
0.793438
0.793438
0.852832
0.852832
0.852832
0.852833
0.852833
0.852833
0.856462
0.856462
0.856462
0.856463
0.856463
0.856463
0.856461
0.856461
0.856461
0.845841
0.845841
0.845841
0.84584
0.84584
0.84584
0.844856
0.844856
0.844856
0.850392
0.850392
0.850392
0.85123
0.85123
0.85123
0.852042
0.852042
0.852042
0.850391
0.850391
0.850391
0.852043
0.852043
0.852043
0.851229
0.851229
0.851229
0.851227
0.851227
0.851227
0.851227
0.851227
0.851227
0.85039
0.85039
0.85039
0.852831
0.852831
0.852831
0.858947
0.858947
0.858947
0.858948
0.858948
0.858948
0.858356
0.858356
0.858356
0.858355
0.858355
0.858355
0.857742
0.857742
0.857742
0.853603
0.853603
0.853603
0.855071
0.855071
0.855071
0.854347
0.854347
0.854347
0.853602
0.853602
0.853602
0.853604
0.853604
0.853604
0.855774
0.855774
0.855774
0.855072
0.855072
0.855072
0.854349
0.854349
0.854349
0.85435
0.85435
0.85435
0.822415
0.822415
0.822415
0.826827
0.826827
0.826827
0.84383
0.84383
0.84383
0.84484
0.84484
0.84484
0.842795
0.842795
0.842795
0.845831
0.845831
0.845831
0.845832
0.845832
0.845832
0.847718
0.847718
0.847718
0.846785
0.846785
0.846785
0.842798
0.842798
0.842798
0.841737
0.841737
0.841737
0.837224
0.837224
0.837224
0.8348
0.8348
0.8348
0.836027
0.836027
0.836027
0.84065
0.84065
0.84065
0.839536
0.839536
0.839536
0.84065
0.84065
0.84065
0.848639
0.848639
0.848639
0.836028
0.836028
0.836028
0.836028
0.836028
0.836028
0.830946
0.830946
0.830946
0.838394
0.838394
0.838394
0.803587
0.803587
0.803587
0.805471
0.805471
0.805471
0.803579
0.803579
0.803579
0.823916
0.823916
0.823916
0.825386
0.825386
0.825386
0.826823
0.826823
0.826823
0.82961
0.82961
0.82961
0.829615
0.829615
0.829615
0.834801
0.834801
0.834801
0.820868
0.820868
0.820868
0.867365
0.867365
0.867365
0.867336
0.867336
0.867336
0.867303
0.867303
0.867303
0.866902
0.866902
0.866902
0.867057
0.867057
0.867057
0.864774
0.864774
0.864774
0.866557
0.866557
0.866557
0.866359
0.866359
0.866359
0.865098
0.865098
0.865098
0.860579
0.860579
0.860579
0.860582
0.860582
0.860582
0.847716
0.847716
0.847716
0.848625
0.848625
0.848625
0.846782
0.846782
0.846782
0.848626
0.848626
0.848626
0.847717
0.847717
0.847717
0.846783
0.846783
0.846783
0.855051
0.855051
0.855051
0.85575
0.85575
0.85575
0.85505
0.85505
0.85505
0.858334
0.858334
0.858334
0.852821
0.852821
0.852821
0.857729
0.857729
0.857729
0.857092
0.857092
0.857092
0.855753
0.855753
0.855753
0.855752
0.855752
0.855752
0.857725
0.857725
0.857725
0.856434
0.856434
0.856434
0.857089
0.857089
0.857089
0.856433
0.856433
0.856433
0.857726
0.857726
0.857726
0.857091
0.857091
0.857091
0.860598
0.860598
0.860598
0.860068
0.860068
0.860068
0.857734
0.857734
0.857734
0.858353
0.858353
0.858353
0.858944
0.858944
0.858944
0.85835
0.85835
0.85835
0.858945
0.858945
0.858945
0.858352
0.858352
0.858352
0.865958
0.865958
0.865958
0.866613
0.866613
0.866613
0.865963
0.865963
0.865963
0.866201
0.866201
0.866201
0.866793
0.866793
0.866793
0.866792
0.866792
0.866792
0.866958
0.866958
0.866958
0.867098
0.867098
0.867098
0.866956
0.866956
0.866956
0.867097
0.867097
0.867097
0.867399
0.867399
0.867399
0.867342
0.867342
0.867342
0.867245
0.867245
0.867245
0.867397
0.867397
0.867397
0.867341
0.867341
0.867341
0.867244
0.867244
0.867244
0.867395
0.867395
0.867395
0.867338
0.867338
0.867338
0.867393
0.867393
0.867393
0.867337
0.867337
0.867337
0.79016
0.79016
0.79016
0.791494
0.791494
0.791494
0.795632
0.795632
0.795632
0.795631
0.795631
0.795631
0.791492
0.791492
0.791492
0.793449
0.793449
0.793449
0.791492
0.791492
0.791492
0.793447
0.793447
0.793447
0.801634
0.801634
0.801634
0.793458
0.793458
0.793458
0.791504
0.791504
0.791504
0.790171
0.790171
0.790171
0.803586
0.803586
0.803586
0.793459
0.793459
0.793459
0.791554
0.791554
0.791554
0.791516
0.791516
0.791516
0.79974
0.79974
0.79974
0.839575
0.839575
0.839575
0.84178
0.84178
0.84178
0.840691
0.840691
0.840691
0.843872
0.843872
0.843872
0.843874
0.843874
0.843874
0.843873
0.843873
0.843873
0.838429
0.838429
0.838429
0.837258
0.837258
0.837258
0.829636
0.829636
0.829636
0.838432
0.838432
0.838432
0.829627
0.829627
0.829627
0.83229
0.83229
0.83229
0.826843
0.826843
0.826843
0.82825
0.82825
0.82825
0.820887
0.820887
0.820887
0.822424
0.822424
0.822424
0.825403
0.825403
0.825403
0.825402
0.825402
0.825402
0.810945
0.810945
0.810945
0.80916
0.80916
0.80916
0.852866
0.852866
0.852866
0.852075
0.852075
0.852075
0.855805
0.855805
0.855805
0.844885
0.844885
0.844885
0.857771
0.857771
0.857771
0.856478
0.856478
0.856478
0.857135
0.857135
0.857135
0.823928
0.823928
0.823928
0.833575
0.833575
0.833575
0.836058
0.836058
0.836058
0.834832
0.834832
0.834832
0.816061
0.816061
0.816061
0.819306
0.819306
0.819306
0.817701
0.817701
0.817701
0.817701
0.817701
0.817701
0.819305
0.819305
0.819305
0.858364
0.858364
0.858364
0.858364
0.858364
0.858364
0.858957
0.858957
0.858957
0.85953
0.85953
0.85953
0.865442
0.865442
0.865442
0.866212
0.866212
0.866212
0.866429
0.866429
0.866429
0.86643
0.86643
0.86643
0.865974
0.865974
0.865974
0.865725
0.865725
0.865725
0.865724
0.865724
0.865724
0.863768
0.863768
0.863768
0.863766
0.863766
0.863766
0.863376
0.863376
0.863376
0.863375
0.863375
0.863375
0.864493
0.864493
0.864493
0.864825
0.864825
0.864825
0.864825
0.864825
0.864825
0.864491
0.864491
0.864491
0.864139
0.864139
0.864139
0.86414
0.86414
0.86414
0.864494
0.864494
0.864494
0.864495
0.864495
0.864495
0.863771
0.863771
0.863771
0.864142
0.864142
0.864142
0.864141
0.864141
0.864141
0.863769
0.863769
0.863769
0.863378
0.863378
0.863378
0.863379
0.863379
0.863379
0.865141
0.865141
0.865141
0.864827
0.864827
0.864827
0.864828
0.864828
0.864828
0.865142
0.865142
0.865142
0.865436
0.865436
0.865436
0.865437
0.865437
0.865437
0.865709
0.865709
0.865709
0.865433
0.865433
0.865433
0.865434
0.865434
0.865434
0.866428
0.866428
0.866428
0.866427
0.866427
0.866427
0.862976
0.862976
0.862976
0.862094
0.862094
0.862094
0.861133
0.861133
0.861133
0.862542
0.862542
0.862542
0.862973
0.862973
0.862973
0.864147
0.864147
0.864147
0.863776
0.863776
0.863776
0.863384
0.863384
0.863384
0.863383
0.863383
0.863383
0.8645
0.8645
0.8645
0.864833
0.864833
0.864833
0.865148
0.865148
0.865148
0.865147
0.865147
0.865147
0.863387
0.863387
0.863387
0.863779
0.863779
0.863779
0.862539
0.862539
0.862539
0.862088
0.862088
0.862088
0.861617
0.861617
0.861617
0.86009
0.86009
0.86009
0.858964
0.858964
0.858964
0.858965
0.858965
0.858965
0.859537
0.859537
0.859537
0.859538
0.859538
0.859538
0.857757
0.857757
0.857757
0.858371
0.858371
0.858371
0.858371
0.858371
0.858371
0.857756
0.857756
0.857756
0.85712
0.85712
0.85712
0.857121
0.857121
0.857121
0.857755
0.857755
0.857755
0.857118
0.857118
0.857118
0.857118
0.857118
0.857118
0.861621
0.861621
0.861621
0.858953
0.858953
0.858953
0.857746
0.857746
0.857746
0.858361
0.858361
0.858361
0.858954
0.858954
0.858954
0.858358
0.858358
0.858358
0.857743
0.857743
0.857743
0.857108
0.857108
0.857108
0.857109
0.857109
0.857109
0.857745
0.857745
0.857745
0.858359
0.858359
0.858359
0.865431
0.865431
0.865431
0.865706
0.865706
0.865706
0.865705
0.865705
0.865705
0.865429
0.865429
0.865429
0.865135
0.865135
0.865135
0.865134
0.865134
0.865134
0.862085
0.862085
0.862085
0.862087
0.862087
0.862087
0.861615
0.861615
0.861615
0.861616
0.861616
0.861616
0.862537
0.862537
0.862537
0.862536
0.862536
0.862536
0.858958
0.858958
0.858958
0.859531
0.859531
0.859531
0.860083
0.860083
0.860083
0.860084
0.860084
0.860084
0.863403
0.863403
0.863403
0.862562
0.862562
0.862562
0.862112
0.862112
0.862112
0.862111
0.862111
0.862111
0.862561
0.862561
0.862561
0.866223
0.866223
0.866223
0.861635
0.861635
0.861635
0.861634
0.861634
0.861634
0.862105
0.862105
0.862105
0.862104
0.862104
0.862104
0.85955
0.85955
0.85955
0.860633
0.860633
0.860633
0.861144
0.861144
0.861144
0.861143
0.861143
0.861143
0.864509
0.864509
0.864509
0.860094
0.860094
0.860094
0.860095
0.860095
0.860095
0.864851
0.864851
0.864851
0.858375
0.858375
0.858375
0.85776
0.85776
0.85776
0.859539
0.859539
0.859539
0.858966
0.858966
0.858966
0.858373
0.858373
0.858373
0.858374
0.858374
0.858374
0.860623
0.860623
0.860623
0.860097
0.860097
0.860097
0.85897
0.85897
0.85897
0.858376
0.858376
0.858376
0.859544
0.859544
0.859544
0.859544
0.859544
0.859544
0.85897
0.85897
0.85897
0.858972
0.858972
0.858972
0.858378
0.858378
0.858378
0.858377
0.858377
0.858377
0.86115
0.86115
0.86115
0.86164
0.86164
0.86164
0.863794
0.863794
0.863794
0.863793
0.863793
0.863793
0.864165
0.864165
0.864165
0.864165
0.864165
0.864165
0.86299
0.86299
0.86299
0.861642
0.861642
0.861642
0.862113
0.862113
0.862113
0.862112
0.862112
0.862112
0.861152
0.861152
0.861152
0.858392
0.858392
0.858392
0.857142
0.857142
0.857142
0.857777
0.857777
0.857777
0.858983
0.858983
0.858983
0.858985
0.858985
0.858985
0.858984
0.858984
0.858984
0.807556
0.807556
0.807556
0.81279
0.81279
0.81279
0.816129
0.816129
0.816129
0.816141
0.816141
0.816141
0.81449
0.81449
0.81449
0.814504
0.814504
0.814504
0.816164
0.816164
0.816164
0.817771
0.817771
0.817771
0.81778
0.81778
0.81778
0.790147
0.790147
0.790147
0.790138
0.790138
0.790138
0.791481
0.791481
0.791481
0.79148
0.79148
0.79148
0.790145
0.790145
0.790145
0.790143
0.790143
0.790143
0.801631
0.801631
0.801631
0.805467
0.805467
0.805467
0.846799
0.846799
0.846799
0.846799
0.846799
0.846799
0.843844
0.843844
0.843844
0.844855
0.844855
0.844855
0.845839
0.845839
0.845839
0.853605
0.853605
0.853605
0.854351
0.854351
0.854351
0.854352
0.854352
0.854352
0.853607
0.853607
0.853607
0.85361
0.85361
0.85361
0.85205
0.85205
0.85205
0.852842
0.852842
0.852842
0.855081
0.855081
0.855081
0.855083
0.855083
0.855083
0.855784
0.855784
0.855784
0.855783
0.855783
0.855783
0.853611
0.853611
0.853611
0.852843
0.852843
0.852843
0.852052
0.852052
0.852052
0.855781
0.855781
0.855781
0.855081
0.855081
0.855081
0.854356
0.854356
0.854356
0.854357
0.854357
0.854357
0.851236
0.851236
0.851236
0.850398
0.850398
0.850398
0.849536
0.849536
0.849536
0.851237
0.851237
0.851237
0.849537
0.849537
0.849537
0.850399
0.850399
0.850399
0.8504
0.8504
0.8504
0.84066
0.84066
0.84066
0.839544
0.839544
0.839544
0.840661
0.840661
0.840661
0.839546
0.839546
0.839546
0.840662
0.840662
0.840662
0.839546
0.839546
0.839546
0.832266
0.832266
0.832266
0.833551
0.833551
0.833551
0.845843
0.845843
0.845843
0.845843
0.845843
0.845843
0.847737
0.847737
0.847737
0.846803
0.846803
0.846803
0.847739
0.847739
0.847739
0.846804
0.846804
0.846804
0.844857
0.844857
0.844857
0.844858
0.844858
0.844858
0.850388
0.850388
0.850388
0.84864
0.84864
0.84864
0.859519
0.859519
0.859519
0.860601
0.860601
0.860601
0.859518
0.859518
0.859518
0.860069
0.860069
0.860069
0.861114
0.861114
0.861114
0.860602
0.860602
0.860602
0.860072
0.860072
0.860072
0.853599
0.853599
0.853599
0.854346
0.854346
0.854346
0.8536
0.8536
0.8536
0.85774
0.85774
0.85774
0.857739
0.857739
0.857739
0.853595
0.853595
0.853595
0.855774
0.855774
0.855774
0.855074
0.855074
0.855074
0.856454
0.856454
0.856454
0.856455
0.856455
0.856455
0.855776
0.855776
0.855776
0.855074
0.855074
0.855074
0.828229
0.828229
0.828229
0.829605
0.829605
0.829605
0.83095
0.83095
0.83095
0.829602
0.829602
0.829602
0.843846
0.843846
0.843846
0.841749
0.841749
0.841749
0.842811
0.842811
0.842811
0.843847
0.843847
0.843847
0.839544
0.839544
0.839544
0.833546
0.833546
0.833546
0.834802
0.834802
0.834802
0.829601
0.829601
0.829601
0.826824
0.826824
0.826824
0.826823
0.826823
0.826823
0.826821
0.826821
0.826821
0.826822
0.826822
0.826822
0.845845
0.845845
0.845845
0.834812
0.834812
0.834812
0.833555
0.833555
0.833555
0.823915
0.823915
0.823915
0.823913
0.823913
0.823913
0.825386
0.825386
0.825386
0.825385
0.825385
0.825385
0.823915
0.823915
0.823915
0.825387
0.825387
0.825387
0.825388
0.825388
0.825388
0.822412
0.822412
0.822412
0.822414
0.822414
0.822414
0.820876
0.820876
0.820876
0.820877
0.820877
0.820877
0.822413
0.822413
0.822413
0.823917
0.823917
0.823917
0.823917
0.823917
0.823917
0.828234
0.828234
0.828234
0.828232
0.828232
0.828232
0.829608
0.829608
0.829608
0.830954
0.830954
0.830954
0.844842
0.844842
0.844842
0.845825
0.845825
0.845825
0.845825
0.845825
0.845825
0.84484
0.84484
0.84484
0.843834
0.843834
0.843834
0.844844
0.844844
0.844844
0.842799
0.842799
0.842799
0.844845
0.844845
0.844845
0.844848
0.844848
0.844848
0.842804
0.842804
0.842804
0.839537
0.839537
0.839537
0.845828
0.845828
0.845828
0.845827
0.845827
0.845827
0.846785
0.846785
0.846785
0.834801
0.834801
0.834801
0.854338
0.854338
0.854338
0.852825
0.852825
0.852825
0.853594
0.853594
0.853594
0.854339
0.854339
0.854339
0.854336
0.854336
0.854336
0.854335
0.854335
0.854335
0.852033
0.852033
0.852033
0.852824
0.852824
0.852824
0.853592
0.853592
0.853592
0.853591
0.853591
0.853591
0.852822
0.852822
0.852822
0.852032
0.852032
0.852032
0.85283
0.85283
0.85283
0.852038
0.852038
0.852038
0.849525
0.849525
0.849525
0.850386
0.850386
0.850386
0.851224
0.851224
0.851224
0.849526
0.849526
0.849526
0.851225
0.851225
0.851225
0.850387
0.850387
0.850387
0.848638
0.848638
0.848638
0.846792
0.846792
0.846792
0.848636
0.848636
0.848636
0.849522
0.849522
0.849522
0.850385
0.850385
0.850385
0.849523
0.849523
0.849523
0.850382
0.850382
0.850382
0.85122
0.85122
0.85122
0.852034
0.852034
0.852034
0.850383
0.850383
0.850383
0.839542
0.839542
0.839542
0.839542
0.839542
0.839542
0.837226
0.837226
0.837226
0.837226
0.837226
0.837226
0.837227
0.837227
0.837227
0.826821
0.826821
0.826821
0.828227
0.828227
0.828227
0.82391
0.82391
0.82391
0.836027
0.836027
0.836027
0.833546